Protein in water
79166
    1DC     O5'    1   3.014   4.375   3.321  0.4422 -0.3873 -0.2514
    1DC     H5T    2   3.040   4.368   3.413  0.8611 -1.1172 -0.4253
    1DC     C5'    3   2.894   4.300   3.315  0.1815  0.0007  0.0233
    1DC    H5'1    4   2.835   4.365   3.251 -0.1275  0.7139  1.0023
    1DC    H5'2    5   2.838   4.301   3.408  0.0250 -0.2232 -0.0677
    1DC     C4'    6   2.906   4.155   3.271 -0.2117  0.0026 -0.0931
    1DC     H4'    7   2.804   4.120   3.260 -0.2265  0.3486 -1.2265
    1DC     O4'    8   2.979   4.143   3.150 -0.0421 -0.0679  0.0154
    1DC     C1'    9   3.047   4.019   3.148 -0.0800 -0.0872 -0.0796
    1DC     H1'   10   3.003   3.959   3.069 -0.5602 -0.3059  0.3479
    1DC      N1   11   3.189   4.048   3.123 -0.0603  0.0661  0.1986
    1DC      C6   12   3.242   4.164   3.171  0.4317  0.0503 -0.2885
    1DC      H6   13   3.179   4.233   3.225 -1.9539  0.1672 -2.9823
    1DC      C5   14   3.376   4.178   3.167  0.4343  0.0260 -0.3003
    1DC      H5   15   3.421   4.265   3.211 -0.4517  1.2126 -1.6816
    1DC      C4   16   3.453   4.076   3.102 -0.2113 -0.5915 -0.1073
    1DC      N4   17   3.587   4.084   3.100 -0.2495  0.0449 -0.1011
    1DC     H41   18   3.641   4.152   3.152  1.2458 -0.0554 -1.4601
    1DC     H42   19   3.635   4.008   3.056 -0.2302 -0.7019  1.1503
    1DC      N3   20   3.401   3.967   3.043 -0.0064 -0.5743 -0.3215
    1DC      C2   21   3.267   3.952   3.061 -0.1336  0.3718 -0.3786
    1DC      O2   22   3.216   3.852   3.011 -0.1853  0.1673  0.0812
    1DC     C3'   23   2.977   4.058   3.365  0.4094  0.2253 -0.3271
    1DC     H3'   24   3.065   4.108   3.408 -0.9462  1.3463  1.2787
    1DC     C2'   25   3.014   3.941   3.275 -0.2215 -0.1237 -0.1379
    1DC    H2'1   26   3.105   3.887   3.305 -1.4737 -2.2737  0.0014
    1DC    H2'2   27   2.931   3.873   3.258  0.2694 -1.2278  1.5563
    1DC     O3'   28   2.883   4.023   3.464  0.2581 -0.1929 -0.6166
    2DG       P   29   2.925   3.981   3.613  0.0992 -0.0306 -0.5262
    2DG     O1P   30   2.804   3.955   3.696  0.0714 -0.3186 -0.6549
    2DG     O2P   31   3.007   4.092   3.666 -0.2821  0.1697 -0.3471
    2DG     O5'   32   3.014   3.847   3.602  0.0782 -0.0974  0.0542
    2DG     C5'   33   2.951   3.726   3.567 -0.2580 -0.0342  0.4257
    2DG    H5'1   34   2.886   3.745   3.482 -1.0084  0.8616  1.1771
    2DG    H5'2   35   2.885   3.698   3.649 -2.2658  0.3645 -0.9762
    2DG     C4'   36   3.051   3.616   3.532 -0.5868 -0.1515 -0.1680
    2DG     H4'   37   2.995   3.526   3.508 -1.5055  0.5930 -0.8850
    2DG     O4'   38   3.125   3.648   3.417 -0.2955  0.2035  0.1129
    2DG     C1'   39   3.253   3.593   3.437 -0.3325 -0.0539 -0.3345
    2DG     H1'   40   3.267   3.500   3.381  1.0635  0.4770 -0.9252
    2DG      N9   41   3.355   3.689   3.391 -0.2675 -0.1481 -0.3872
    2DG      C8   42   3.355   3.825   3.407  0.1304 -0.1991  0.0639
    2DG      H8   43   3.278   3.879   3.459 -0.5287 -1.5992  0.5829
    2DG      N7   44   3.464   3.888   3.372 -0.1129  0.1897 -0.0026
    2DG      C5   45   3.545   3.784   3.328 -0.1760  0.2787 -0.3369
    2DG      C6   46   3.682   3.783   3.289 -0.1459  0.0045 -0.2337
    2DG      O6   47   3.757   3.878   3.266  0.0397 -0.1233 -0.1460
    2DG      N1   48   3.734   3.658   3.262 -0.7496 -0.2920 -0.0358
    2DG      H1   49   3.830   3.646   3.232 -1.4377  0.8803 -3.1128
    2DG      C2   50   3.661   3.543   3.287 -0.1917 -0.6605 -0.0825
    2DG      N2   51   3.717   3.424   3.260  0.3396 -0.4651  0.1538
    2DG     H21   52   3.808   3.420   3.217 -0.3027 -0.4578 -1.2747
    2DG     H22   53   3.656   3.344   3.269 -1.9967  1.1861 -0.1064
    2DG      N3   54   3.532   3.540   3.323 -0.1928  0.1694  0.0130
    2DG      C4   55   3.482   3.663   3.344  0.1039  0.2252  0.4073
    2DG     C3'   56   3.138   3.595   3.656 -0.2472 -0.0033 -0.3791
    2DG     H3'   57   3.166   3.686   3.710  1.1531 -0.7880  0.2813
    2DG     C2'   58   3.266   3.554   3.584 -0.3203 -0.2298 -0.3809
    2DG    H2'1   59   3.340   3.624   3.624  0.6664 -1.3359 -0.1978
    2DG    H2'2   60   3.309   3.455   3.593  1.0649  0.1688 -2.0906
    2DG     O3'   61   3.102   3.489   3.741 -0.1916  0.0189 -0.3274
    3DA       P   62   3.179   3.463   3.880  0.2987 -0.0069 -0.6019
    3DA     O1P   63   3.097   3.367   3.957  0.6416 -0.3149 -0.6207
    3DA     O2P   64   3.220   3.595   3.934  0.0075 -0.2032  0.1046
    3DA     O5'   65   3.315   3.392   3.832  0.4742  0.1708 -0.3734
    3DA     C5'   66   3.322   3.257   3.790  0.2097  0.1520 -0.3573
    3DA    H5'1   67   3.256   3.247   3.704  0.3715 -0.9572 -0.3690
    3DA    H5'2   68   3.282   3.209   3.880  0.9455 -0.7980 -0.5170
    3DA     C4'   69   3.464   3.211   3.761  0.1849 -0.1972  0.0615
    3DA     H4'   70   3.464   3.105   3.736  0.5260 -0.0127 -0.7377
    3DA     O4'   71   3.511   3.260   3.638  0.1548  0.1931  0.2050
    3DA     C1'   72   3.648   3.286   3.657  0.4063 -0.0583 -1.1533
    3DA     H1'   73   3.702   3.244   3.572  2.7280 -2.0108  1.1318
    3DA      N9   74   3.678   3.431   3.661  0.0430 -0.0130  0.2718
    3DA      C8   75   3.603   3.540   3.696 -0.0352 -0.0446  0.2024
    3DA      H8   76   3.501   3.522   3.729 -0.5267 -1.6701 -1.9525
    3DA      N7   77   3.650   3.654   3.654 -0.7669 -0.1263 -0.9074
    3DA      C5   78   3.779   3.620   3.615 -0.3590  0.0955  0.1854
    3DA      C6   79   3.886   3.687   3.554 -0.0956  0.0486  0.5895
    3DA      N6   80   3.894   3.819   3.530  0.0292 -0.0875 -0.1490
    3DA     H61   81   3.819   3.878   3.562 -0.2938 -0.6955  0.2432
    3DA     H62   82   3.984   3.855   3.502 -0.5992  2.0810  0.4205
    3DA      N1   83   3.997   3.619   3.524 -0.1255  0.1802  0.1700
    3DA      C2   84   4.001   3.487   3.537  0.0879  0.1685 -0.0049
    3DA      H2   85   4.087   3.429   3.508 -1.3469 -1.4327 -1.2143
    3DA      N3   86   3.905   3.410   3.586  0.1787  0.3679  0.5025
    3DA      C4   87   3.799   3.484   3.624  0.0173  0.1667  0.4456
    3DA     C3'   88   3.562   3.225   3.877  0.1323 -0.0333  0.0871
    3DA     H3'   89   3.564   3.323   3.924 -0.9782 -0.2525  0.6256
    3DA     C2'   90   3.686   3.216   3.787 -0.2700  0.6892 -0.5468
    3DA    H2'1   91   3.774   3.258   3.834  0.6289 -0.8971 -0.7690
    3DA    H2'2   92   3.709   3.113   3.758 -0.3765 -0.1528  2.0551
    3DA     O3'   93   3.561   3.117   3.968 -0.0033  0.2688  0.4454
    4DC       P   94   3.630   3.129   4.113 -0.0850  0.1772  0.4917
    4DC     O1P   95   3.611   3.000   4.183  0.5028 -0.1354  0.0869
    4DC     O2P   96   3.570   3.252   4.168 -0.3896  0.1190  0.2948
    4DC     O5'   97   3.786   3.157   4.083 -0.1588  0.2503  0.1738
    4DC     C5'   98   3.879   3.053   4.067 -0.1919  0.2114  0.2317
    4DC    H5'1   99   3.850   2.986   3.986  1.2976  0.2442 -0.3676
    4DC    H5'2  100   3.885   2.996   4.159  0.6355 -0.7946 -0.4137
    4DC     C4'  101   4.021   3.099   4.032 -0.2822  0.5213  0.2664
    4DC     H4'  102   4.078   3.008   4.013  1.0773  1.3114  0.4161
    4DC     O4'  103   4.032   3.188   3.923  0.4472  0.0282 -0.0683
    4DC     C1'  104   4.141   3.277   3.934  0.3804  0.0752  0.2177
    4DC     H1'  105   4.217   3.265   3.857 -1.0440  0.4357 -1.3069
    4DC      N1  106   4.089   3.413   3.912 -0.0416 -0.1360 -0.1197
    4DC      C6  107   3.959   3.442   3.944 -0.1326 -0.2708 -0.3669
    4DC      H6  108   3.902   3.363   3.989  1.6831 -1.3698  0.0876
    4DC      C5  109   3.913   3.568   3.930 -0.0295 -0.2768 -0.7755
    4DC      H5  110   3.810   3.589   3.956 -0.0866  0.8124 -1.7844
    4DC      C4  111   4.002   3.665   3.874  0.2772 -0.3021 -0.3349
    4DC      N4  112   3.962   3.791   3.850  0.4264 -0.0632  0.6316
    4DC     H41  113   3.875   3.832   3.880 -0.0146  0.0762 -0.7921
    4DC     H42  114   4.039   3.844   3.813 -0.3331 -1.6466 -3.7541
    4DC      N3  115   4.128   3.635   3.841  0.2690  0.0214 -0.6689
    4DC      C2  116   4.175   3.509   3.861 -0.1755 -0.0731 -0.2270
    4DC      O2  117   4.291   3.492   3.825 -0.0008  0.1078  0.2455
    4DC     C3'  118   4.088   3.174   4.146  0.4160 -0.3506  0.4385
    4DC     H3'  119   4.024   3.255   4.179 -0.3294 -0.1525 -1.3990
    4DC     C2'  120   4.202   3.240   4.068 -0.0406  0.5814  0.5510
    4DC    H2'1  121   4.245   3.330   4.112 -2.4664  1.9444  0.2888
    4DC    H2'2  122   4.287   3.172   4.059  1.2348  1.9872  1.4485
    4DC     O3'  123   4.145   3.093   4.247  0.7268 -0.5849  0.0779
    5DT       P  124   4.191   3.152   4.390  0.1716 -0.1140  0.0679
    5DT     O1P  125   4.246   3.039   4.469  0.2778 -0.3175 -0.2930
    5DT     O2P  126   4.088   3.237   4.453  0.5643  0.0011  0.5599
    5DT     O5'  127   4.312   3.249   4.346  0.1987  0.0702  0.5488
    5DT     C5'  128   4.439   3.198   4.314  0.0203  0.0151 -0.0800
    5DT    H5'1  129   4.427   3.127   4.232  1.9283  0.3725 -0.7417
    5DT    H5'2  130   4.486   3.150   4.400 -0.6417 -2.1239 -0.8592
    5DT     C4'  131   4.536   3.307   4.269 -0.0972  0.2410  0.2080
    5DT     H4'  132   4.624   3.263   4.222 -0.5254 -0.1843 -0.2086
    5DT     O4'  133   4.488   3.387   4.163 -0.2543  0.0567  0.1391
    5DT     C1'  134   4.542   3.516   4.181  0.0304 -0.0725  0.2205
    5DT     H1'  135   4.612   3.534   4.099 -1.1097 -0.5243 -0.8791
    5DT      N1  136   4.428   3.609   4.176 -0.0178 -0.1576 -0.5201
    5DT      C6  137   4.308   3.579   4.235  0.1600  0.5380  0.2307
    5DT      H6  138   4.300   3.495   4.303  0.0814  2.7149  3.0712
    5DT      C5  139   4.198   3.656   4.220 -0.3492 -0.2702 -0.3425
    5DT      C7  140   4.065   3.621   4.283 -0.1381 -0.6283 -0.0865
    5DT     H71  141   4.002   3.584   4.202 -0.9985 -0.3011  0.4210
    5DT     H72  142   4.074   3.552   4.366 -2.1793 -0.8235  0.0252
    5DT     H73  143   4.018   3.713   4.318 -0.3434 -1.4000  1.7304
    5DT      C4  144   4.208   3.776   4.141 -0.2308  0.4330  0.7072
    5DT      O4  145   4.122   3.863   4.127 -0.0445  0.4724 -0.2743
    5DT      N3  146   4.333   3.810   4.090 -0.2938 -0.2339  0.0829
    5DT      H3  147   4.347   3.904   4.057 -0.1129 -0.4416 -0.4317
    5DT      C2  148   4.445   3.733   4.117  0.0261  0.4221  0.6662
    5DT      O2  149   4.555   3.779   4.085  0.2751 -0.2855  0.4809
    5DT     C3'  150   4.572   3.399   4.385  0.0602  0.4535 -0.0073
    5DT     H3'  151   4.488   3.416   4.453 -1.3693 -0.7895 -1.3913
    5DT     C2'  152   4.615   3.528   4.314 -0.0287  0.5976  0.2004
    5DT    H2'1  153   4.595   3.620   4.369 -1.3644 -1.1872  2.9486
    5DT    H2'2  154   4.721   3.524   4.290 -0.2916  1.2661 -1.1648
    5DT     O3'  155   4.677   3.363   4.471 -0.5039 -0.3258  0.3586
    6DC       P  156   4.693   3.421   4.621 -0.4492 -0.0040  0.2285
    6DC     O1P  157   4.811   3.348   4.675 -0.8304 -0.2583  0.7227
    6DC     O2P  158   4.559   3.407   4.682 -0.3090 -0.2559  0.4813
    6DC     O5'  159   4.729   3.578   4.627 -0.0115 -0.1129  0.4852
    6DC     C5'  160   4.852   3.627   4.578 -0.2740 -0.1320 -0.1969
    6DC    H5'1  161   4.886   3.577   4.487  0.4941 -2.1010  1.1230
    6DC    H5'2  162   4.931   3.617   4.651  2.6826  0.2789 -3.1128
    6DC     C4'  163   4.855   3.778   4.552  0.4448 -0.1555 -0.2578
    6DC     H4'  164   4.957   3.795   4.517  0.7356  1.2801  1.2005
    6DC     O4'  165   4.758   3.797   4.451 -0.0388 -0.0795  0.2214
    6DC     C1'  166   4.734   3.936   4.451 -0.3811 -0.1378 -0.0196
    6DC     H1'  167   4.792   3.987   4.375  0.0858  1.5562  1.4126
    6DC      N1  168   4.589   3.951   4.430 -0.2959  0.0304 -0.4818
    6DC      C6  169   4.500   3.857   4.473 -0.2357  0.1856 -0.0212
    6DC      H6  170   4.545   3.770   4.519  0.8058  0.7942  0.1371
    6DC      C5  171   4.367   3.880   4.463 -0.2786 -0.2050 -0.3743
    6DC      H5  172   4.297   3.804   4.493  0.2294 -1.2575 -1.7658
    6DC      C4  173   4.329   4.011   4.418 -0.1014  0.0958  0.3364
    6DC      N4  174   4.201   4.041   4.392 -0.0273  0.2237  0.1144
    6DC     H41  175   4.126   3.984   4.428  0.7412 -0.1802  1.1396
    6DC     H42  176   4.183   4.130   4.349  2.6427  0.0237 -1.6677
    6DC      N3  177   4.415   4.107   4.380 -0.0129 -0.1082  0.0185
    6DC      C2  178   4.547   4.076   4.388  0.0743 -0.0167 -0.9975
    6DC      O2  179   4.626   4.169   4.371  0.1594  0.0770 -0.0880
    6DC     C3'  180   4.823   3.871   4.668  0.5315  0.2400 -0.5510
    6DC     H3'  181   4.738   3.839   4.727  0.4308  2.0697  0.3658
    6DC     C2'  182   4.786   3.993   4.583  0.6459  0.2504 -0.5864
    6DC    H2'1  183   4.707   4.054   4.626  0.0379  0.2206 -1.6080
    6DC    H2'2  184   4.871   4.059   4.568  1.2940 -0.2018  0.8780
    6DC     O3'  185   4.938   3.894   4.745  0.3644 -0.4038 -0.1102
    7DT       P  186   4.931   3.939   4.900  0.1482 -0.1717 -0.1887
    7DT     O1P  187   5.067   3.934   4.958 -0.1493 -0.4431  0.4886
    7DT     O2P  188   4.818   3.860   4.952 -0.0523  0.2259 -0.0181
    7DT     O5'  189   4.880   4.091   4.883  0.2841 -0.1186 -0.1264
    7DT     C5'  190   4.971   4.189   4.838  0.6372 -0.5039 -0.2510
    7DT    H5'1  191   5.008   4.158   4.741  1.0008  0.8566 -0.5650
    7DT    H5'2  192   5.055   4.200   4.907  0.7635  2.3782 -0.7502
    7DT     C4'  193   4.908   4.325   4.809 -0.2095 -0.7915  0.2022
    7DT     H4'  194   4.977   4.390   4.756 -2.6055  2.4030  0.7536
    7DT     O4'  195   4.802   4.304   4.718 -0.4377  0.4905  0.1536
    7DT     C1'  196   4.699   4.397   4.740 -0.5074  0.3843  0.2816
    7DT     H1'  197   4.703   4.472   4.661 -0.2151 -0.6807 -0.7430
    7DT      N1  198   4.568   4.330   4.735 -0.2275 -0.1608  0.1419
    7DT      C6  199   4.557   4.202   4.779  0.0513 -0.3076 -0.2098
    7DT      H6  200   4.644   4.156   4.825  0.6416  2.8362  2.2290
    7DT      C5  201   4.439   4.137   4.773  0.0254 -0.2722 -0.0814
    7DT      C7  202   4.450   3.990   4.806 -0.3369 -0.2705  0.0517
    7DT     H71  203   4.555   3.962   4.807 -0.3416 -0.3471  1.8457
    7DT     H72  204   4.412   3.968   4.906  0.3737 -0.8014  0.2085
    7DT     H73  205   4.411   3.926   4.727  2.0255  1.1638 -2.4632
    7DT      C4  206   4.323   4.206   4.721  0.1356  0.1255  0.1935
    7DT      O4  207   4.213   4.153   4.705  0.0814  0.3117 -0.0682
    7DT      N3  208   4.339   4.338   4.681  0.0522  0.0534 -0.0800
    7DT      H3  209   4.265   4.382   4.628  0.2150  0.0154 -0.3396
    7DT      C2  210   4.462   4.402   4.683  0.0405  0.0748 -0.0805
    7DT      O2  211   4.472   4.518   4.642  0.2736 -0.0231 -0.3080
    7DT     C3'  212   4.848   4.391   4.933  0.4000  0.4838 -0.1657
    7DT     H3'  213   4.815   4.314   5.003  2.9773 -1.3009 -0.7605
    7DT     C2'  214   4.721   4.456   4.879  0.3667  0.6013  0.0566
    7DT    H2'1  215   4.639   4.427   4.945 -0.3738  3.8541  0.7759
    7DT    H2'2  216   4.731   4.564   4.870 -0.4596  0.5907 -1.1543
    7DT     O3'  217   4.938   4.481   4.993  0.4703  0.2865  0.0278
    8DA       P  218   4.924   4.540   5.142  0.0432  0.1108  0.0588
    8DA     O1P  219   5.044   4.622   5.170 -0.1130  0.3307  0.0978
    8DA     O2P  220   4.892   4.428   5.232 -0.7098 -0.1204 -0.4852
    8DA     O5'  221   4.787   4.624   5.154  0.0225  0.0371  0.3383
    8DA     C5'  222   4.773   4.753   5.098 -0.4355 -0.3199 -0.3922
    8DA    H5'1  223   4.811   4.753   4.996 -0.4407 -0.0769 -0.3935
    8DA    H5'2  224   4.829   4.830   5.151  1.1594 -1.6346 -0.0691
    8DA     C4'  225   4.631   4.804   5.076 -0.3536  0.0025 -0.1938
    8DA     H4'  226   4.632   4.901   5.027  2.2514  0.2926  0.2860
    8DA     O4'  227   4.563   4.712   4.992 -0.2559  0.0816 -0.3605
    8DA     C1'  228   4.427   4.735   5.020 -0.1450  0.0614  0.2226
    8DA     H1'  229   4.395   4.807   4.945  0.1357 -1.6558 -1.6480
    8DA      N9  230   4.351   4.610   5.001 -0.2034  0.2172 -0.6248
    8DA      C8  231   4.380   4.487   5.056 -0.0116  0.3907 -0.3344
    8DA      H8  232   4.465   4.470   5.120 -1.1935  0.0610  1.2144
    8DA      N7  233   4.289   4.397   5.034 -0.0215  0.2895  0.1124
    8DA      C5  234   4.186   4.467   4.972 -0.3041 -0.0472  0.1966
    8DA      C6  235   4.056   4.435   4.929 -0.3477  0.1826  0.1536
    8DA      N6  236   3.999   4.314   4.940 -0.5810  0.3084  0.3556
    8DA     H61  237   4.053   4.235   4.971 -0.2183  0.8247  1.0524
    8DA     H62  238   3.900   4.309   4.918 -0.1713 -0.9536 -1.4688
    8DA      N1  239   3.979   4.536   4.886  0.0179  0.5509  0.3581
    8DA      C2  240   4.022   4.661   4.894  0.4190  0.5090 -0.9157
    8DA      H2  241   3.955   4.737   4.857 -0.5481  1.0970  1.7675
    8DA      N3  242   4.141   4.705   4.930  0.0845  0.4115  0.3654
    8DA      C4  243   4.219   4.600   4.965 -0.4423 -0.0072  0.2903
    8DA     C3'  244   4.554   4.811   5.207 -0.2437  0.1962 -0.1406
    8DA     H3'  245   4.578   4.729   5.275  0.8135  1.6735  1.3596
    8DA     C2'  246   4.411   4.797   5.158 -0.4088 -0.8396  0.6043
    8DA    H2'1  247   4.343   4.735   5.217 -1.6353  0.2268  0.3591
    8DA    H2'2  248   4.366   4.896   5.149 -0.3494 -0.9359 -0.9606
    8DA     O3'  249   4.572   4.934   5.273 -0.4977  0.0468  0.2114
    9DC       P  250   4.523   4.953   5.425 -0.1070  0.4815  0.2869
    9DC     O1P  251   4.574   5.083   5.475  0.8739  0.2135  0.0011
    9DC     O2P  252   4.561   4.832   5.502  0.0549  0.3298 -0.0324
    9DC     O5'  253   4.365   4.960   5.397 -0.0861 -0.2963 -0.0583
    9DC     C5'  254   4.291   5.080   5.382 -0.0809 -0.3212 -0.2749
    9DC    H5'1  255   4.319   5.141   5.296  0.8409  0.0725  0.2925
    9DC    H5'2  256   4.307   5.142   5.470 -0.3503 -1.0708  0.3126
    9DC     C4'  257   4.142   5.050   5.372 -0.1664  0.0804 -0.1971
    9DC     H4'  258   4.091   5.142   5.343  1.5516  2.0071  2.4423
    9DC     O4'  259   4.125   4.942   5.284 -0.2012 -0.5713  0.6018
    9DC     C1'  260   4.001   4.884   5.320 -0.7571 -0.0461 -0.4159
    9DC     H1'  261   3.922   4.933   5.263  0.4485  1.1554 -1.1098
    9DC      N1  262   4.008   4.740   5.289 -0.0010 -0.0593 -0.2050
    9DC      C6  263   4.110   4.668   5.344  0.2277 -0.0768 -0.6459
    9DC      H6  264   4.189   4.714   5.401 -0.2275 -0.2774  0.1657
    9DC      C5  265   4.102   4.533   5.348 -0.1340 -0.0343  0.1830
    9DC      H5  266   4.183   4.492   5.407  0.8031  2.4525  0.7561
    9DC      C4  267   3.993   4.470   5.280  0.4712 -0.1365 -0.7079
    9DC      N4  268   3.994   4.336   5.278  0.0086 -0.1503 -0.2110
    9DC     H41  269   4.064   4.291   5.336 -1.0215 -0.4760  0.8035
    9DC     H42  270   3.915   4.288   5.238 -1.3498  1.3950  0.5214
    9DC      N3  271   3.897   4.543   5.221  0.0384 -0.1563 -0.0388
    9DC      C2  272   3.897   4.678   5.236  0.0871 -0.1259 -0.3131
    9DC      O2  273   3.798   4.744   5.202 -0.0504  0.0417  0.3964
    9DC     C3'  274   4.085   5.003   5.505 -0.0225  0.3271 -0.0463
    9DC     H3'  275   4.160   4.948   5.562  0.5809 -1.4249 -2.3916
    9DC     C2'  276   3.971   4.908   5.468  0.0549  0.3362 -0.3076
    9DC    H2'1  277   3.982   4.817   5.526  2.8923  0.7318 -0.0602
    9DC    H2'2  278   3.872   4.953   5.476  0.5390  1.0903  2.1975
    9DC     O3'  279   4.024   5.100   5.587 -0.0468  0.3325 -0.0704
   10DG       P  280   3.973   5.067   5.736 -0.1010  0.1121 -0.1371
   10DG     O1P  281   3.955   5.202   5.794  0.5067 -0.0898  0.5375
   10DG     O2P  282   4.062   4.976   5.811 -0.2291  0.0528 -0.0571
   10DG     O5'  283   3.828   5.000   5.712  0.0835 -0.3926  0.1519
   10DG     C5'  284   3.713   5.071   5.752 -0.1034 -0.4072 -0.3582
   10DG    H5'1  285   3.711   5.166   5.700  0.0228 -0.4555 -0.4534
   10DG    H5'2  286   3.704   5.075   5.861 -0.6171 -1.4739 -0.3419
   10DG     C4'  287   3.589   4.994   5.708 -0.4185 -0.2416  0.2285
   10DG     H4'  288   3.511   5.069   5.699 -0.0325  0.1735  0.3088
   10DG     O4'  289   3.605   4.923   5.587 -0.0555 -0.1046  0.1948
   10DG     C1'  290   3.529   4.804   5.574 -0.1170 -0.0354 -0.0833
   10DG     H1'  291   3.450   4.810   5.500 -0.7217  0.7011  0.6016
   10DG      N9  292   3.615   4.685   5.560 -0.1006 -0.0769  0.3482
   10DG      C8  293   3.747   4.674   5.594 -0.0071 -0.0332  0.0030
   10DG      H8  294   3.808   4.751   5.639  1.4356 -1.3715  0.4105
   10DG      N7  295   3.793   4.553   5.583 -0.0980 -0.1070  0.4077
   10DG      C5  296   3.685   4.474   5.544  0.1594 -0.2454 -0.0399
   10DG      C6  297   3.679   4.335   5.516 -0.4306 -0.2671  0.1754
   10DG      O6  298   3.765   4.248   5.529 -0.1020  0.0637  0.2445
   10DG      N1  299   3.552   4.289   5.488 -0.3671 -0.2592 -0.1212
   10DG      H1  300   3.542   4.193   5.460 -2.6417  0.4505 -2.1586
   10DG      C2  301   3.451   4.381   5.466 -0.3167 -0.1878 -0.0535
   10DG      N2  302   3.330   4.328   5.447 -0.4811  0.1084  0.1460
   10DG     H21  303   3.323   4.228   5.434 -1.5056  0.4743 -3.2504
   10DG     H22  304   3.247   4.382   5.429  0.3445  0.8923 -1.5379
   10DG      N3  305   3.454   4.513   5.493  0.2637 -0.2381  0.1418
   10DG      C4  306   3.578   4.557   5.526  0.2094 -0.1277  0.1978
   10DG     C3'  307   3.540   4.887   5.806 -0.2123 -0.1319  0.4523
   10DG     H3'  308   3.621   4.830   5.851 -1.2098 -1.1878  0.9519
   10DG     C2'  309   3.462   4.796   5.711 -0.2539  0.4955 -0.1183
   10DG    H2'1  310   3.464   4.695   5.750 -1.7746 -0.1202 -1.5063
   10DG    H2'2  311   3.358   4.825   5.696  0.0219  2.4307  1.2432
   10DG     O3'  312   3.458   4.944   5.905 -0.4073 -0.0635  0.2517
   11DG       P  313   3.438   4.882   6.052  0.0313 -0.2195  0.2454
   11DG     O1P  314   3.358   4.977   6.131 -0.4021  0.0979 -0.5648
   11DG     O2P  315   3.564   4.829   6.109  0.1050 -0.1033  0.1913
   11DG     O5'  316   3.343   4.752   6.037 -0.5874  0.2193  0.3524
   11DG     C5'  317   3.210   4.759   5.992 -0.4703 -0.5217 -0.1098
   11DG    H5'1  318   3.206   4.826   5.906 -0.0273 -1.6117 -1.0152
   11DG    H5'2  319   3.149   4.799   6.073 -0.5171  1.0157 -0.8762
   11DG     C4'  320   3.157   4.623   5.945 -0.4880 -0.4624 -0.2601
   11DG     H4'  321   3.054   4.643   5.917  0.0413 -1.3329 -3.1555
   11DG     O4'  322   3.236   4.580   5.836  0.3081 -0.0525  0.1403
   11DG     C1'  323   3.238   4.439   5.844  0.2074 -0.0262  0.6624
   11DG     H1'  324   3.178   4.407   5.759 -1.3275  1.4325  1.1518
   11DG      N9  325   3.374   4.383   5.835  0.1127 -0.1491 -0.0172
   11DG      C8  326   3.494   4.445   5.857 -0.0079 -0.1177  0.5555
   11DG      H8  327   3.500   4.549   5.885 -2.4755  0.1169  0.3768
   11DG      N7  328   3.600   4.370   5.838 -0.4051 -0.3722 -0.7521
   11DG      C5  329   3.543   4.246   5.813 -0.6310 -0.3707 -0.2702
   11DG      C6  330   3.599   4.119   5.782 -0.1856 -0.3264  0.3337
   11DG      O6  331   3.718   4.091   5.781 -0.2410 -0.5574 -0.3035
   11DG      N1  332   3.510   4.014   5.761 -0.2088 -0.2607  0.1001
   11DG      H1  333   3.544   3.920   5.748 -0.0536 -0.1474 -0.3441
   11DG      C2  334   3.374   4.032   5.777 -0.1498  0.3274 -0.0375
   11DG      N2  335   3.301   3.921   5.762  0.3216  0.0112 -0.0290
   11DG     H21  336   3.351   3.834   5.753  1.6666  0.6312  1.1517
   11DG     H22  337   3.200   3.927   5.770  0.3084 -1.7765  1.6306
   11DG      N3  338   3.315   4.151   5.798 -1.0184 -0.0393 -0.3473
   11DG      C4  339   3.406   4.251   5.812 -0.6609 -0.5289  1.0206
   11DG     C3'  340   3.167   4.523   6.060 -0.2063  0.4630  0.5364
   11DG     H3'  341   3.262   4.534   6.112  0.3078  0.3103 -0.3507
   11DG     C2'  342   3.164   4.399   5.971  0.1687  0.3042  0.7446
   11DG    H2'1  343   3.214   4.316   6.022 -1.0337  0.5115  2.3695
   11DG    H2'2  344   3.062   4.365   5.950  0.4460 -1.2024  1.6560
   11DG     O3'  345   3.050   4.527   6.139 -0.5260 -0.4859  0.1282
   12DA       P  346   3.051   4.457   6.284  0.1506 -0.3661  0.1852
   12DA     O1P  347   2.923   4.487   6.351  0.2302 -0.0490  0.1974
   12DA     O2P  348   3.171   4.512   6.351  0.1648  0.3347 -0.4002
   12DA     O5'  349   3.061   4.298   6.257  0.2775 -0.3125 -0.0918
   12DA     C5'  350   2.950   4.216   6.228 -0.1182  0.3542 -0.5112
   12DA    H5'1  351   2.907   4.251   6.134 -0.1932  2.1150  0.1377
   12DA    H5'2  352   2.889   4.227   6.318  1.3098 -3.3944  1.1086
   12DA     C4'  353   2.993   4.071   6.208 -0.8263  0.0504  0.1017
   12DA     H4'  354   2.904   4.010   6.190 -0.5691 -0.4794  0.5866
   12DA     O4'  355   3.086   4.055   6.103 -0.3898  0.1914  0.4688
   12DA     C1'  356   3.160   3.936   6.122 -0.2930  0.1876  0.0781
   12DA     H1'  357   3.124   3.870   6.043 -1.5218  2.1504 -1.0975
   12DA      N9  358   3.303   3.964   6.104 -0.1588 -0.4514  0.1477
   12DA      C8  359   3.369   4.083   6.122 -0.1651 -0.3633 -0.3850
   12DA      H8  360   3.321   4.173   6.159  1.6974  0.9398 -1.0013
   12DA      N7  361   3.498   4.084   6.103 -0.1876  0.5903 -0.5640
   12DA      C5  362   3.524   3.950   6.076  0.2866  0.4943  0.3200
   12DA      C6  363   3.639   3.876   6.045 -0.0326  0.0692  0.1359
   12DA      N6  364   3.761   3.931   6.046  0.1490 -0.3311  0.3160
   12DA     H61  365   3.761   4.030   6.067 -1.9262 -0.2207 -0.0327
   12DA     H62  366   3.839   3.873   6.019  0.0849 -0.4636  0.4181
   12DA      N1  367   3.627   3.744   6.025 -0.3124  0.1357 -0.1385
   12DA      C2  368   3.508   3.687   6.026 -0.1901 -0.1180  0.1437
   12DA      H2  369   3.509   3.580   6.012 -0.2492 -0.2778  1.3095
   12DA      N3  370   3.392   3.747   6.047  0.0248  0.2919  0.1746
   12DA      C4  371   3.407   3.879   6.075  0.4067  0.3010 -0.0769
   12DA     C3'  372   3.065   4.002   6.323 -0.7611 -0.1440 -0.0544
   12DA     H3'  373   3.130   4.080   6.362  0.9200 -1.1785 -0.6575
   12DA     C2'  374   3.138   3.882   6.263 -0.3603  0.0608  0.0193
   12DA    H2'1  375   3.234   3.867   6.312  0.2115 -0.6206 -1.2571
   12DA    H2'2  376   3.079   3.790   6.270  0.1834 -0.3219 -0.3984
   12DA     O3'  377   2.989   3.948   6.430 -0.1020 -0.4358  0.2720
   13DA       P  378   3.061   3.913   6.570 -0.0019 -0.2218  0.2742
   13DA     O1P  379   2.955   3.883   6.669  0.0337  0.0252  0.3899
   13DA     O2P  380   3.166   4.015   6.590 -0.6874  0.5069  0.2268
   13DA     O5'  381   3.138   3.773   6.551  0.0227 -0.1572 -0.1265
   13DA     C5'  382   3.073   3.651   6.527  0.1663 -0.1174 -0.7151
   13DA    H5'1  383   2.995   3.661   6.451  2.3274  0.1747 -3.0197
   13DA    H5'2  384   3.014   3.616   6.611 -0.5564 -0.3795 -1.3137
   13DA     C4'  385   3.169   3.543   6.477  0.2434 -0.1924 -0.4080
   13DA     H4'  386   3.108   3.454   6.460 -1.4868  1.1180 -1.3494
   13DA     O4'  387   3.238   3.584   6.361  0.6481  0.8341  0.1821
   13DA     C1'  388   3.363   3.518   6.365  0.2003 -0.0665 -0.3458
   13DA     H1'  389   3.381   3.449   6.283 -0.2426  0.4951 -0.9274
   13DA      N9  390   3.473   3.616   6.366 -0.1671  0.3556 -0.7700
   13DA      C8  391   3.469   3.748   6.406 -0.7274 -0.0746  0.6771
   13DA      H8  392   3.380   3.796   6.445 -1.4886 -0.9983  0.1486
   13DA      N7  393   3.582   3.811   6.396 -0.5509 -0.5152 -0.2609
   13DA      C5  394   3.663   3.713   6.339  0.1125  0.0932 -0.3752
   13DA      C6  395   3.797   3.709   6.297  0.2957  0.2035  0.1844
   13DA      N6  396   3.880   3.815   6.293  0.2167  0.2510 -0.2314
   13DA     H61  397   3.863   3.893   6.354  3.3597 -0.5629  1.9068
   13DA     H62  398   3.969   3.808   6.246  0.2101  1.5160 -0.4719
   13DA      N1  399   3.853   3.595   6.255 -0.1867  0.0269  0.0148
   13DA      C2  400   3.777   3.487   6.255 -0.0033 -0.1032  0.2485
   13DA      H2  401   3.821   3.397   6.215  0.8871 -0.5110  2.0745
   13DA      N3  402   3.651   3.470   6.293 -0.0515  0.0382  0.1540
   13DA      C4  403   3.603   3.591   6.331 -0.0872  0.1899 -0.3596
   13DA     C3'  404   3.274   3.503   6.580 -0.0293 -0.2326 -0.1454
   13DA     H3'  405   3.321   3.588   6.628  0.3277  0.0300 -0.9401
   13DA     C2'  406   3.377   3.434   6.491  0.1970  0.1628 -0.1918
   13DA    H2'1  407   3.477   3.437   6.535 -0.4726 -0.8095  1.5178
   13DA    H2'2  408   3.348   3.331   6.469 -1.6145  0.5156  0.3884
   13DA     O3'  409   3.236   3.399   6.668 -0.1457 -0.1077 -0.0476
   14DG       P  410   3.293   3.374   6.817  0.1321 -0.3260 -0.1885
   14DG     O1P  411   3.214   3.270   6.885 -0.0956  0.0360  0.1053
   14DG     O2P  412   3.303   3.506   6.884  0.1200 -0.5662  0.2854
   14DG     O5'  413   3.441   3.315   6.795  0.0095 -0.6976 -0.0039
   14DG     C5'  414   3.464   3.182   6.753 -0.1161 -0.5790 -0.4422
   14DG    H5'1  415   3.409   3.176   6.659  1.5857  2.6229 -1.8248
   14DG    H5'2  416   3.427   3.109   6.825  1.2138  0.0180  0.8905
   14DG     C4'  417   3.611   3.149   6.730  0.2195  0.4581  0.1880
   14DG     H4'  418   3.615   3.041   6.718  2.9376  0.5411 -0.3151
   14DG     O4'  419   3.672   3.207   6.617  0.0672 -0.1424 -0.2009
   14DG     C1'  420   3.806   3.245   6.640 -0.1222  0.0886  0.5390
   14DG     H1'  421   3.872   3.202   6.565 -0.0000  3.0714 -1.2366
   14DG      N9  422   3.823   3.392   6.634  0.2057  0.0252 -0.2031
   14DG      C8  423   3.734   3.489   6.672 -0.7348 -0.6408 -0.6376
   14DG      H8  424   3.637   3.472   6.717 -0.2853 -0.6157  0.3800
   14DG      N7  425   3.784   3.608   6.649 -0.2624 -0.6510  0.2786
   14DG      C5  426   3.914   3.591   6.604 -0.2768  0.0869 -0.0480
   14DG      C6  427   4.021   3.674   6.560 -0.0092 -0.2270  0.0098
   14DG      O6  428   4.029   3.795   6.545 -0.1478 -0.2107  0.0727
   14DG      N1  429   4.139   3.609   6.524  0.0575 -0.0264 -0.1351
   14DG      H1  430   4.220   3.668   6.512 -1.0478  2.1877  2.3228
   14DG      C2  431   4.153   3.472   6.536 -0.2370 -0.0344  0.1560
   14DG      N2  432   4.270   3.413   6.507 -0.1013  0.4438 -0.2866
   14DG     H21  433   4.357   3.460   6.489 -1.0642  1.6022 -2.2375
   14DG     H22  434   4.272   3.313   6.523 -1.4093  0.6454  1.3780
   14DG      N3  435   4.051   3.390   6.562 -0.0159 -0.2985  0.1922
   14DG      C4  436   3.938   3.456   6.596  0.2203  0.1650  0.0778
   14DG     C3'  437   3.701   3.178   6.850  0.1262  0.1231  0.3404
   14DG     H3'  438   3.693   3.279   6.890  0.8998  0.1252  0.5096
   14DG     C2'  439   3.835   3.184   6.776  0.2436  0.3162  0.5642
   14DG    H2'1  440   3.907   3.249   6.825  0.6867  0.9561 -0.9050
   14DG    H2'2  441   3.879   3.084   6.776  1.5315  0.8569  1.1615
   14DG     O3'  442   3.708   3.078   6.949 -0.1709 -0.0616  0.1719
   15DG       P  443   3.784   3.091   7.090  0.0742 -0.2508  0.0567
   15DG     O1P  444   3.760   2.968   7.169 -0.4312  0.1501  0.5311
   15DG     O2P  445   3.734   3.218   7.147  0.3669 -0.0667 -0.0885
   15DG     O5'  446   3.944   3.107   7.071  0.0743 -0.2890  0.0256
   15DG     C5'  447   4.035   3.009   7.026  0.0561 -0.3097  0.0334
   15DG    H5'1  448   3.985   2.962   6.942 -1.5865  0.5768  0.4648
   15DG    H5'2  449   4.050   2.933   7.103 -0.1772 -0.4009 -0.0091
   15DG     C4'  450   4.172   3.068   6.993 -0.1725  0.0928 -0.1983
   15DG     H4'  451   4.231   2.986   6.952 -0.5228 -0.8063  1.0314
   15DG     O4'  452   4.164   3.162   6.888 -0.9042  0.5704  0.2774
   15DG     C1'  453   4.275   3.248   6.888 -0.2903 -0.2127  0.3182
   15DG     H1'  454   4.343   3.237   6.803  0.5676 -2.6915  1.2542
   15DG      N9  455   4.227   3.388   6.889  0.3296  0.0141 -0.4652
   15DG      C8  456   4.104   3.435   6.928  0.5573  0.1013  0.1537
   15DG      H8  457   4.024   3.371   6.961  0.1230  1.1971  1.3279
   15DG      N7  458   4.091   3.563   6.906 -0.0786  0.2245  1.1905
   15DG      C5  459   4.213   3.605   6.854 -0.3388 -0.1363  0.2648
   15DG      C6  460   4.260   3.735   6.823  0.0967 -0.2366  0.5037
   15DG      O6  461   4.207   3.845   6.832  0.5103 -0.0113  0.2497
   15DG      N1  462   4.395   3.742   6.790  0.0941  0.2575  0.5931
   15DG      H1  463   4.438   3.820   6.742  1.3179 -0.5483  0.3278
   15DG      C2  464   4.470   3.626   6.783 -0.3450  0.0351 -0.5477
   15DG      N2  465   4.599   3.635   6.746 -0.5214  0.2099 -1.1290
   15DG     H21  466   4.634   3.729   6.746 -0.5024  0.2397  1.0077
   15DG     H22  467   4.652   3.550   6.729 -1.0126 -0.0832 -1.2453
   15DG      N3  468   4.425   3.502   6.804  0.2253 -0.0298  0.3436
   15DG      C4  469   4.295   3.497   6.840 -0.0709  0.1779 -0.6625
   15DG     C3'  470   4.254   3.139   7.100 -0.3171 -0.1012  0.0415
   15DG     H3'  471   4.174   3.201   7.141 -0.8944 -0.8800  0.1222
   15DG     C2'  472   4.355   3.212   7.013 -0.1317 -0.1143  0.2451
   15DG    H2'1  473   4.388   3.302   7.064 -0.0594 -0.8046  1.4411
   15DG    H2'2  474   4.449   3.158   6.999  1.4475  2.3060  0.8583
   15DG     O3'  475   4.324   3.056   7.189  0.3839  0.2861 -0.1437
   16DG       P  476   4.367   3.104   7.337 -0.1498 -0.1272  0.1464
   16DG     O1P  477   4.434   2.987   7.399 -0.4416 -0.3242  0.0974
   16DG     O2P  478   4.246   3.164   7.398  0.2602  0.0409  0.7972
   16DG     O5'  479   4.476   3.220   7.318 -0.0160 -0.2588  0.1089
   16DG     C5'  480   4.610   3.185   7.291  0.2192  0.4464  0.3478
   16DG    H5'1  481   4.604   3.124   7.201  0.3900  1.2328 -0.2176
   16DG    H5'2  482   4.659   3.128   7.370  4.0499  0.3441 -1.8118
   16DG     C4'  483   4.698   3.301   7.246  0.7963 -0.2510 -0.3469
   16DG     H4'  484   4.795   3.260   7.218  0.9739  0.5542 -0.9737
   16DG     O4'  485   4.652   3.374   7.135 -0.2240 -0.3277  0.0227
   16DG     C1'  486   4.685   3.511   7.147 -0.1542 -0.3585  0.1668
   16DG     H1'  487   4.761   3.546   7.077 -0.5419  0.7437  0.2866
   16DG      N9  488   4.569   3.601   7.149  0.1880  0.0829  0.1816
   16DG      C8  489   4.442   3.568   7.188  0.2348 -0.3619 -0.0387
   16DG      H8  490   4.430   3.472   7.235  0.6655  0.2392  1.3504
   16DG      N7  491   4.362   3.671   7.182  0.7802  0.0618 -0.1471
   16DG      C5  492   4.438   3.775   7.130  0.3179  0.3586 -0.2428
   16DG      C6  493   4.404   3.909   7.102  0.0805  0.4922  0.6717
   16DG      O6  494   4.298   3.970   7.111 -0.1690  0.1022  0.3870
   16DG      N1  495   4.511   3.984   7.054  0.1277 -0.2982 -0.4715
   16DG      H1  496   4.500   4.084   7.041  0.9735 -0.1533 -0.0983
   16DG      C2  497   4.641   3.938   7.058  0.1744 -0.1343 -0.1623
   16DG      N2  498   4.741   4.025   7.040  0.1376 -0.0011  0.2634
   16DG     H21  499   4.715   4.121   7.060 -1.3943 -0.4972  0.7906
   16DG     H22  500   4.835   3.995   7.058 -0.5924 -1.6558  1.6070
   16DG      N3  501   4.671   3.808   7.065  0.0676 -0.1942 -0.8355
   16DG      C4  502   4.567   3.732   7.107  0.2356  0.0082 -0.0583
   16DG     C3'  503   4.720   3.398   7.362  0.0366 -0.3834 -0.0894
   16DG     H3'  504   4.632   3.403   7.425 -0.8881 -2.7728 -1.0668
   16DG     C2'  505   4.741   3.530   7.288 -0.5744 -0.0703  0.2952
   16DG    H2'1  506   4.683   3.608   7.338 -0.8902 -1.0610  1.5501
   16DG    H2'2  507   4.847   3.550   7.280 -0.7278  0.7037  0.1190
   16DG     O3'  508   4.829   3.364   7.445  0.0811 -0.1885 -0.0694
   17DC       P  509   4.847   3.428   7.592  0.2134  0.0721 -0.1971
   17DC     O1P  510   4.962   3.363   7.659  0.3528  0.1651 -0.3465
   17DC     O2P  511   4.717   3.424   7.663  0.1127 -0.0034 -0.3865
   17DC     O5'  512   4.881   3.584   7.572 -0.6469  0.2417 -0.3942
   17DC     C5'  513   5.000   3.628   7.509 -0.4113 -0.2864 -0.3325
   17DC    H5'1  514   5.019   3.574   7.417 -0.2701 -0.9725  0.0888
   17DC    H5'2  515   5.074   3.607   7.586 -0.2441 -1.0908 -0.7100
   17DC     C4'  516   5.008   3.778   7.480  0.3607 -0.2706 -0.0504
   17DC     H4'  517   5.108   3.804   7.445  0.0283 -0.9723 -1.6080
   17DC     O4'  518   4.911   3.813   7.385 -0.0042 -0.2045  0.3405
   17DC     C1'  519   4.874   3.948   7.405  0.4922 -0.0000 -0.1009
   17DC     H1'  520   4.913   4.012   7.326  2.1114  1.2505  1.6477
   17DC      N1  521   4.728   3.960   7.421  0.3491 -0.5504 -0.9393
   17DC      C6  522   4.656   3.858   7.476  0.3577  0.0072  0.1208
   17DC      H6  523   4.704   3.766   7.504 -0.0020 -0.1738  0.1544
   17DC      C5  524   4.521   3.873   7.479  0.3394 -0.1634  0.1715
   17DC      H5  525   4.469   3.792   7.527  0.5295 -0.1010  0.4861
   17DC      C4  526   4.461   3.992   7.427  0.0788 -0.4660 -0.2314
   17DC      N4  527   4.329   4.015   7.426  0.1653  0.0670  0.1593
   17DC     H41  528   4.269   3.934   7.434  0.1080 -0.0866 -1.5603
   17DC     H42  529   4.295   4.092   7.370 -0.5258  0.0249  0.5130
   17DC      N3  530   4.535   4.095   7.382  0.5215 -0.3080  0.8125
   17DC      C2  531   4.670   4.080   7.385  0.5626 -0.2396 -0.2584
   17DC      O2  532   4.736   4.176   7.346  0.0061  0.3302  0.1775
   17DC     C3'  533   4.979   3.868   7.600  0.1255 -0.5398  0.0969
   17DC     H3'  534   4.893   3.829   7.655 -0.1537 -0.5912 -0.3686
   17DC     C2'  535   4.943   3.999   7.531  0.0322 -0.4398  0.3334
   17DC    H2'1  536   4.881   4.067   7.589  2.3517  2.1050  0.0369
   17DC    H2'2  537   5.041   4.043   7.512 -0.6120  0.9289  0.0780
   17DC     O3'  538   5.094   3.898   7.675  0.1026  0.3207 -0.2000
   18DA       P  539   5.081   3.948   7.828  0.4230  0.1968 -0.1312
   18DA     O1P  540   5.217   3.960   7.885  0.2968 -0.7517  0.3839
   18DA     O2P  541   4.989   3.853   7.895  0.2096  0.3280 -0.2357
   18DA     O5'  542   5.020   4.097   7.819 -0.0627 -0.0018 -0.1204
   18DA     C5'  543   5.097   4.213   7.801 -0.2135  0.1462  0.1694
   18DA    H5'1  544   5.167   4.206   7.717  0.0920 -1.6158  0.5454
   18DA    H5'2  545   5.151   4.225   7.895  2.5737  1.4042 -1.4722
   18DA     C4'  546   5.021   4.345   7.786 -0.5202 -0.0337  0.1277
   18DA     H4'  547   5.092   4.425   7.764 -1.0543  0.9271  1.7289
   18DA     O4'  548   4.932   4.332   7.677 -0.0637 -0.1098 -0.2406
   18DA     C1'  549   4.823   4.418   7.697 -0.1695 -0.2849 -0.0568
   18DA     H1'  550   4.805   4.485   7.612 -0.0164 -0.3103 -0.1093
   18DA      N9  551   4.696   4.345   7.717 -0.0590 -0.3838  0.2814
   18DA      C8  552   4.685   4.209   7.721  0.0288 -0.3841  0.5923
   18DA      H8  553   4.762   4.140   7.752 -1.4193 -1.2014  2.5576
   18DA      N7  554   4.564   4.168   7.692  0.0474 -0.0487  0.0281
   18DA      C5  555   4.492   4.284   7.666 -0.0051 -0.0264  0.2754
   18DA      C6  556   4.358   4.313   7.636  0.0048 -0.1067  0.1518
   18DA      N6  557   4.259   4.225   7.612 -0.2013  0.1038  0.2196
   18DA     H61  558   4.283   4.133   7.577  1.8392  1.1122 -1.2360
   18DA     H62  559   4.167   4.262   7.598 -0.1647 -0.6667 -2.5207
   18DA      N1  560   4.324   4.442   7.630 -0.0714 -0.1210  0.2780
   18DA      C2  561   4.411   4.543   7.636 -0.1655 -0.0259  0.0487
   18DA      H2  562   4.366   4.640   7.622 -0.6129 -0.2545 -0.1420
   18DA      N3  563   4.539   4.523   7.662 -0.2860 -0.0937  0.6136
   18DA      C4  564   4.573   4.394   7.682  0.1377 -0.0887 -0.0159
   18DA     C3'  565   4.933   4.383   7.904 -0.2457  0.2553  0.2406
   18DA     H3'  566   4.881   4.292   7.935 -0.2802 -0.5651 -2.0654
   18DA     C2'  567   4.849   4.487   7.830 -0.6573 -0.2343  0.0146
   18DA    H2'1  568   4.761   4.514   7.888 -0.4050  4.1638 -1.2985
   18DA    H2'2  569   4.898   4.584   7.822 -0.6794 -0.3224 -1.4615
   18DA     O3'  570   5.005   4.439   8.012  0.2247  0.2323 -0.0595
   19DT       P  571   4.944   4.461   8.159  0.4369  0.0693  0.0546
   19DT     O1P  572   5.041   4.532   8.246  0.0467  0.3300  0.2817
   19DT     O2P  573   4.885   4.333   8.205  0.2605  0.2536  0.3495
   19DT     O5'  574   4.824   4.567   8.143  0.4032 -0.0648 -0.6075
   19DT     C5'  575   4.846   4.703   8.114  0.2688  0.2001  0.4692
   19DT    H5'1  576   4.914   4.711   8.028 -0.0715  0.9679  0.2620
   19DT    H5'2  577   4.901   4.741   8.200  1.8742 -1.3813  0.2017
   19DT     C4'  578   4.719   4.784   8.092 -0.0583 -0.3345  0.3790
   19DT     H4'  579   4.753   4.886   8.074  0.5199 -0.2627  1.7639
   19DT     O4'  580   4.652   4.741   7.976  0.1057  0.3782  0.0152
   19DT     C1'  581   4.512   4.747   7.989  0.0425 -0.3095 -0.2916
   19DT     H1'  582   4.475   4.813   7.911 -2.3686  1.2714  2.0241
   19DT      N1  583   4.434   4.622   7.992 -0.0113 -0.2649  0.2368
   19DT      C6  584   4.496   4.508   8.034  0.0229 -0.3457 -0.0268
   19DT      H6  585   4.582   4.521   8.098 -1.5736 -0.0195  2.1867
   19DT      C5  586   4.432   4.391   8.016  0.2973 -0.4641 -0.2188
   19DT      C7  587   4.481   4.261   8.075 -0.3569 -0.4535  0.3550
   19DT     H71  588   4.498   4.188   7.995 -1.0728 -0.9896  0.6787
   19DT     H72  589   4.575   4.283   8.125 -0.7058 -0.6994  1.1277
   19DT     H73  590   4.410   4.227   8.150 -0.7764 -0.9171 -0.2354
   19DT      C4  591   4.301   4.387   7.955  0.5806 -0.4400 -0.8365
   19DT      O4  592   4.235   4.285   7.940  0.1335 -0.3118  0.2031
   19DT      N3  593   4.242   4.506   7.914  0.4253 -0.4982 -0.7782
   19DT      H3  594   4.143   4.513   7.893 -0.1806  0.2190  1.9258
   19DT      C2  595   4.308   4.626   7.935  0.0099 -0.4321  0.1804
   19DT      O2  596   4.253   4.729   7.897  0.6853 -0.1808 -0.1322
   19DT     C3'  597   4.613   4.791   8.202 -0.0119 -0.0339  0.4071
   19DT     H3'  598   4.595   4.691   8.242  1.4970 -1.3174 -1.8951
   19DT     C2'  599   4.489   4.823   8.119  0.0172 -0.8586  0.0286
   19DT    H2'1  600   4.395   4.798   8.167 -0.5764 -2.3750 -1.8253
   19DT    H2'2  601   4.481   4.930   8.100 -1.4946 -1.0685 -0.5969
   19DT     O3'  602   4.645   4.886   8.301  0.6295 -0.4533  0.6121
   20DC       P  603   4.576   4.877   8.446 -0.0187  0.1123  0.3446
   20DC     O1P  604   4.640   4.987   8.521 -0.2503 -0.0072  0.7222
   20DC     O2P  605   4.591   4.739   8.498  0.1606 -0.0651 -0.1720
   20DC     O5'  606   4.418   4.909   8.439 -0.0101 -0.0177 -0.5386
   20DC     C5'  607   4.368   5.037   8.407  0.2311  0.2324  0.0627
   20DC    H5'1  608   4.426   5.080   8.325  2.2254 -0.2479  1.1471
   20DC    H5'2  609   4.399   5.110   8.481  0.9547 -0.4866  0.4822
   20DC     C4'  610   4.217   5.040   8.389  0.2249 -0.2131  0.0206
   20DC     H4'  611   4.179   5.138   8.360  0.5362  0.1699  0.8749
   20DC     O4'  612   4.188   4.961   8.276 -0.3023 -0.2156  0.1521
   20DC     C1'  613   4.070   4.883   8.276 -0.3054 -0.2100  0.3353
   20DC     H1'  614   4.019   4.918   8.187  0.7911  0.7173  0.0321
   20DC      N1  615   4.085   4.737   8.277 -0.1962 -0.1971  0.6290
   20DC      C6  616   4.200   4.672   8.312  0.0214  0.0585  0.3967
   20DC      H6  617   4.283   4.723   8.358  0.5619 -0.4295 -0.0203
   20DC      C5  618   4.213   4.540   8.287 -0.3605  0.1589 -0.3598
   20DC      H5  619   4.314   4.504   8.304 -0.4356 -0.7491 -1.6836
   20DC      C4  620   4.103   4.471   8.227 -0.5983 -0.3141  0.5954
   20DC      N4  621   4.107   4.342   8.191  0.2603 -0.0916 -0.1357
   20DC     H41  622   4.198   4.300   8.192  1.1217  1.6941  0.0735
   20DC     H42  623   4.031   4.304   8.137 -0.5267 -2.5412  2.4540
   20DC      N3  624   3.986   4.529   8.196 -0.4577 -0.1271  0.4150
   20DC      C2  625   3.981   4.661   8.229  0.0708  0.1375 -0.5124
   20DC      O2  626   3.872   4.716   8.214 -0.0356  0.1414  0.2138
   20DC     C3'  627   4.129   4.975   8.495  0.1177  0.3439  0.2745
   20DC     H3'  628   4.182   4.891   8.538  0.2827 -0.4201 -1.3375
   20DC     C2'  629   4.011   4.930   8.409  0.1492 -0.3575  0.5939
   20DC    H2'1  630   3.957   4.851   8.460  1.4359 -2.9331 -1.7711
   20DC    H2'2  631   3.950   5.020   8.405  1.0258  0.2223 -0.2522
   20DC     O3'  632   4.093   5.071   8.592 -0.1237  0.3408  0.1898
   21DT       P  633   4.054   5.023   8.741  0.1751 -0.1270  0.1189
   21DT     O1P  634   4.031   5.146   8.820 -0.1600  0.1204 -0.3625
   21DT     O2P  635   4.143   4.914   8.787  0.1078 -0.3441 -0.2574
   21DT     O5'  636   3.911   4.953   8.715  0.3052 -0.2227 -0.3503
   21DT     C5'  637   3.797   5.031   8.688  0.1272 -0.4295 -0.2012
   21DT    H5'1  638   3.817   5.101   8.607  1.0138 -0.8001 -0.3146
   21DT    H5'2  639   3.764   5.088   8.775 -2.7012 -0.9540 -0.8352
   21DT     C4'  640   3.679   4.942   8.652 -0.4568  0.3262 -0.1931
   21DT     H4'  641   3.599   5.008   8.619 -2.3056 -1.3163  0.7565
   21DT     O4'  642   3.699   4.857   8.541  0.7731 -0.4267  0.5786
   21DT     C1'  643   3.624   4.738   8.554 -0.1967  0.1255  0.1138
   21DT     H1'  644   3.544   4.721   8.481  0.6071 -0.7502 -0.5912
   21DT      N1  645   3.717   4.624   8.547  0.0454  0.3544 -0.5508
   21DT      C6  646   3.846   4.636   8.590  0.0672  0.0727 -0.5347
   21DT      H6  647   3.879   4.726   8.641  0.1624 -0.7357  0.8733
   21DT      C5  648   3.932   4.533   8.576  0.0158 -0.0385 -0.0172
   21DT      C7  649   4.075   4.553   8.620 -0.0551 -0.0285  0.2078
   21DT     H71  650   4.098   4.467   8.684 -1.2181 -0.1742  0.4664
   21DT     H72  651   4.152   4.549   8.544  0.1772 -2.0764  0.4950
   21DT     H73  652   4.076   4.637   8.689  0.7960 -0.0164  0.1816
   21DT      C4  653   3.887   4.405   8.525 -0.4069  0.1201 -0.0423
   21DT      O4  654   3.961   4.313   8.493 -0.2884  0.0851  0.3335
   21DT      N3  655   3.751   4.393   8.497 -0.4090 -0.3274  0.1559
   21DT      H3  656   3.719   4.305   8.461 -1.8892  0.5399 -0.7404
   21DT      C2  657   3.667   4.503   8.501  0.1021  0.0701  0.1248
   21DT      O2  658   3.551   4.488   8.464  0.1752 -0.6981  0.2003
   21DT     C3'  659   3.638   4.842   8.760  0.2497  0.1770 -0.0547
   21DT     H3'  660   3.730   4.802   8.802 -0.9181 -1.6472  0.8994
   21DT     C2'  661   3.551   4.740   8.687 -0.1747  0.4099  0.1216
   21DT    H2'1  662   3.552   4.639   8.729  0.8792 -0.6383 -2.2492
   21DT    H2'2  663   3.447   4.768   8.668 -0.2099 -0.2986 -0.8023
   21DT     O3'  664   3.563   4.897   8.866 -0.2372  0.0940 -0.3528
   22DG       P  665   3.569   4.821   9.008 -0.3724  0.2300 -0.2742
   22DG     O1P  666   3.496   4.906   9.105  0.5077  0.7810 -0.0838
   22DG     O2P  667   3.707   4.776   9.036 -0.4496  0.3572  0.3275
   22DG     O5'  668   3.473   4.695   8.978 -0.0794 -0.0399 -0.0931
   22DG     C5'  669   3.333   4.704   8.957 -0.2242 -0.2958  0.7237
   22DG    H5'1  670   3.304   4.771   8.876  0.2283 -0.2027  0.6368
   22DG    H5'2  671   3.282   4.745   9.044 -1.0576 -0.7105  0.4361
   22DG     C4'  672   3.274   4.566   8.932 -0.0990 -0.2569  0.2047
   22DG     H4'  673   3.166   4.574   8.921 -0.1631  2.5649  2.0587
   22DG     O4'  674   3.332   4.505   8.818 -0.6957 -0.4188 -0.0138
   22DG     C1'  675   3.348   4.366   8.834 -0.4003 -0.3948 -0.1010
   22DG     H1'  676   3.305   4.311   8.749 -0.8092  0.0457 -0.1860
   22DG      N9  677   3.487   4.319   8.820 -0.2188  0.2558 -0.4927
   22DG      C8  678   3.605   4.386   8.840 -0.2902  0.1371  0.3832
   22DG      H8  679   3.616   4.488   8.875  1.8250 -0.3771  1.3527
   22DG      N7  680   3.711   4.321   8.799 -0.2185  0.6859 -0.3290
   22DG      C5  681   3.660   4.196   8.765  0.0407  0.3964  0.3230
   22DG      C6  682   3.726   4.074   8.737  0.1329  0.5901 -0.3283
   22DG      O6  683   3.848   4.055   8.736  0.0279 -0.1945  0.5859
   22DG      N1  684   3.641   3.966   8.715  0.2326  0.3721  0.3390
   22DG      H1  685   3.679   3.878   8.686 -2.7549 -1.0315  0.3229
   22DG      C2  686   3.504   3.978   8.717  0.2071  0.1310  0.0306
   22DG      N2  687   3.430   3.866   8.706  0.0208  0.2490  0.0665
   22DG     H21  688   3.488   3.783   8.707  2.1240  1.6192  0.6186
   22DG     H22  689   3.336   3.875   8.740  0.1293 -2.2707  1.2481
   22DG      N3  690   3.441   4.089   8.758  0.0546  0.0439  0.0346
   22DG      C4  691   3.523   4.195   8.775  0.0559 -0.0300  0.4903
   22DG     C3'  692   3.293   4.469   9.049  0.1116 -0.0135  0.3731
   22DG     H3'  693   3.388   4.496   9.095  0.9828  0.0339 -1.3415
   22DG     C2'  694   3.289   4.337   8.972 -0.2550  0.1670  0.0775
   22DG    H2'1  695   3.341   4.257   9.024 -1.6570 -0.3119  0.7769
   22DG    H2'2  696   3.188   4.301   8.957 -0.0859 -0.1767 -0.2639
   22DG     O3'  697   3.181   4.473   9.134 -0.0958 -0.2039  0.1127
   23DC       P  698   3.193   4.430   9.289 -0.0999  0.3482  0.2702
   23DC     O1P  699   3.058   4.450   9.347 -0.2975 -0.4791  0.1225
   23DC     O2P  700   3.306   4.496   9.357 -0.0719  0.8407 -0.2454
   23DC     O5'  701   3.221   4.271   9.286 -0.3282  0.3018  0.5277
   23DC     C5'  702   3.110   4.188   9.265  0.0369 -0.0212 -0.1433
   23DC    H5'1  703   3.048   4.208   9.177 -1.3544 -2.5702  0.1573
   23DC    H5'2  704   3.043   4.202   9.349 -0.0715  0.1985 -0.2668
   23DC     C4'  705   3.157   4.044   9.245 -0.1385 -0.0876 -0.0779
   23DC     H4'  706   3.071   3.981   9.220 -1.1432  1.1600  0.1518
   23DC     O4'  707   3.230   4.031   9.125  0.2927  0.2540  0.1459
   23DC     C1'  708   3.308   3.914   9.131  0.1981  0.1702 -0.2163
   23DC     H1'  709   3.266   3.850   9.053 -1.6267  1.4900 -0.3884
   23DC      N1  710   3.450   3.944   9.103  0.2125 -0.0521 -0.3891
   23DC      C6  711   3.500   4.067   9.135 -0.1813 -0.0909  0.4157
   23DC      H6  712   3.446   4.148   9.182  1.0747  0.4143  1.0437
   23DC      C5  713   3.635   4.082   9.135 -0.1204 -0.6116  0.3624
   23DC      H5  714   3.678   4.175   9.168  1.6884 -1.1214 -0.4621
   23DC      C4  715   3.716   3.977   9.082  0.1806 -0.2965  0.2018
   23DC      N4  716   3.849   3.990   9.076  0.1931 -0.2183  0.6248
   23DC     H41  717   3.893   4.081   9.080  0.1683 -0.1469 -0.3617
   23DC     H42  718   3.895   3.901   9.057  1.0649  0.3981 -0.2752
   23DC      N3  719   3.663   3.860   9.044  0.3952 -0.5011  0.5257
   23DC      C2  720   3.530   3.839   9.061  0.2990 -0.2086  0.1452
   23DC      O2  721   3.491   3.726   9.034  0.3237 -0.4837  1.2376
   23DC     C3'  722   3.237   3.968   9.350 -0.2639  0.0918  0.1459
   23DC     H3'  723   3.317   4.036   9.379  0.1950 -0.5924  0.5207
   23DC     C2'  724   3.286   3.849   9.268 -0.5305  0.2747 -0.2797
   23DC    H2'1  725   3.369   3.793   9.310 -0.8553 -0.3657 -0.4869
   23DC    H2'2  726   3.203   3.779   9.256 -1.4492  1.1354  0.8822
   23DC     O3'  727   3.164   3.923   9.462 -0.1422  0.3999  0.3520
   24DG       P  728   3.231   3.855   9.592  0.4192 -0.0332 -0.1564
   24DG     O1P  729   3.121   3.819   9.685  0.7973 -0.3602  0.1684
   24DG     O2P  730   3.333   3.953   9.635  0.0801  0.1628  0.2150
   24DG     O5'  731   3.309   3.719   9.554  0.1864 -0.2666  0.1877
   24DG     C5'  732   3.240   3.602   9.519 -0.1839 -0.0415  0.1589
   24DG    H5'1  733   3.169   3.611   9.437 -2.1261  0.3135  1.7710
   24DG    H5'2  734   3.174   3.568   9.600 -0.9778  0.6153 -0.2021
   24DG     C4'  735   3.332   3.482   9.494 -0.1516 -0.0314  0.2273
   24DG     H4'  736   3.278   3.388   9.486  1.1905 -0.7527 -0.6354
   24DG     O4'  737   3.402   3.496   9.373 -0.4656 -0.8699 -0.0592
   24DG     C1'  738   3.537   3.456   9.381 -0.1042  0.3399  0.2315
   24DG     H1'  739   3.561   3.385   9.302 -0.8212 -0.1897  0.4838
   24DG      N9  740   3.629   3.570   9.368  0.1462  0.1445  0.2735
   24DG      C8  741   3.620   3.700   9.412  0.1450  0.1579  0.2330
   24DG      H8  742   3.533   3.726   9.471 -1.5466  1.4934 -2.6712
   24DG      N7  743   3.728   3.771   9.396  0.2500 -0.1091 -0.2750
   24DG      C5  744   3.813   3.685   9.328  0.1629 -0.3237 -0.1123
   24DG      C6  745   3.946   3.699   9.281  0.0791  0.0639 -0.2364
   24DG      O6  746   4.013   3.801   9.266 -0.3712  0.3722 -0.1554
   24DG      N1  747   4.003   3.580   9.238 -0.7322 -0.2532 -0.4435
   24DG      H1  748   4.099   3.585   9.209 -0.5196  0.9947  0.4261
   24DG      C2  749   3.954   3.456   9.273 -0.0706 -0.3799  0.0418
   24DG      N2  750   4.029   3.346   9.256 -0.4544 -0.6962  0.3506
   24DG     H21  751   4.123   3.365   9.224 -0.8391 -0.3767 -0.6258
   24DG     H22  752   3.991   3.252   9.258 -1.2774 -0.4805 -2.0876
   24DG      N3  753   3.826   3.441   9.312 -0.0585 -0.1910  0.1527
   24DG      C4  754   3.763   3.558   9.341  0.3209 -0.2594  1.2926
   24DG     C3'  755   3.437   3.460   9.602  0.0374  0.3689  0.1276
   24DG     H3'  756   3.479   3.553   9.641  1.1349  0.3597 -0.9541
   24DG     C2'  757   3.543   3.389   9.518 -0.1643  0.0850  0.1115
   24DG    H2'1  758   3.647   3.381   9.550  0.3044  1.4969 -0.9697
   24DG    H2'2  759   3.509   3.286   9.512  1.2594 -0.3495 -1.1942
   24DG     O3'  760   3.387   3.386   9.711  0.4756 -0.1279 -0.0025
   25DC       P  761   3.462   3.389   9.853  0.1527 -0.1167  0.1712
   25DC     O1P  762   3.387   3.302   9.946  0.2911  0.1239  0.5081
   25DC     O2P  763   3.496   3.528   9.890 -0.3049  0.0854 -0.1616
   25DC     O5'  764   3.605   3.317   9.835  0.0829 -0.2951  0.3304
   25DC     C5'  765   3.609   3.181   9.800  0.0959 -0.2989  0.3455
   25DC    H5'1  766   3.542   3.157   9.717 -0.6783  0.1020  0.8437
   25DC    H5'2  767   3.578   3.115   9.881 -2.1388  1.4467  1.0129
   25DC     C4'  768   3.753   3.140   9.768 -0.0792 -0.5137 -0.1818
   25DC     H4'  769   3.756   3.033   9.750 -0.6552 -0.4267 -0.8437
   25DC     O4'  770   3.803   3.208   9.655 -0.1205  0.5427  0.4160
   25DC     C1'  771   3.940   3.241   9.661  0.0294  0.1200 -0.4830
   25DC     H1'  772   3.982   3.177   9.584 -1.5683  0.6687 -1.8721
   25DC      N1  773   3.968   3.381   9.623  0.1600  0.2959  0.2447
   25DC      C6  774   3.877   3.475   9.661 -0.1712 -0.0024  0.1878
   25DC      H6  775   3.792   3.440   9.719 -0.4786  0.2319 -0.1153
   25DC      C5  776   3.892   3.605   9.629 -0.2215 -0.0387  0.0184
   25DC      H5  777   3.825   3.685   9.657  0.2720 -0.2803  1.9943
   25DC      C4  778   4.019   3.641   9.572  0.0121 -0.2703  0.3884
   25DC      N4  779   4.053   3.770   9.565 -0.1948 -0.2114  0.4665
   25DC     H41  780   3.988   3.837   9.605 -2.2861 -0.7807 -1.6960
   25DC     H42  781   4.145   3.794   9.531 -0.7665  1.4009 -0.0484
   25DC      N3  782   4.120   3.554   9.557  0.3220  0.1591 -0.0464
   25DC      C2  783   4.093   3.423   9.581  0.2096  0.2523  0.3474
   25DC      O2  784   4.186   3.348   9.553  0.1571  0.3820 -0.1896
   25DC     C3'  785   3.849   3.179   9.880  0.0378 -0.5699 -0.2633
   25DC     H3'  786   3.825   3.269   9.936  4.5493  1.3029 -0.9283
   25DC     C2'  787   3.979   3.204   9.804 -0.1959  0.4052 -0.3483
   25DC    H2'1  788   4.031   3.287   9.853 -0.4737  0.0420  0.5851
   25DC    H2'2  789   4.046   3.119   9.809 -0.4371  0.2954  2.8598
   25DC     O3'  790   3.875   3.078   9.975 -0.1225  0.0520  0.4511
   25DC     H3T  791   3.930   3.120  10.041 -1.1559 -0.7880  1.9269
   26G      O5'  792   5.044   3.955   9.208 -0.3639 -0.4085  0.5337
   26G      H5T  793   5.021   3.967   9.116  1.1757 -1.7671 -0.0653
   26G      C5'  794   5.146   3.858   9.212  0.2575  0.2436  0.7470
   26G     H5'1  795   5.210   3.888   9.295  0.3139 -1.1006  1.2187
   26G     H5'2  796   5.202   3.856   9.118 -0.9615 -1.2021 -0.0139
   26G      C4'  797   5.082   3.723   9.244  0.2782 -0.0075 -0.2276
   26G      H4'  798   5.160   3.648   9.237  1.6655  1.5022 -2.2004
   26G      O4'  799   5.014   3.729   9.368 -0.2745  0.3179 -0.5399
   26G      C1'  800   4.901   3.644   9.362  0.1677 -0.3363  0.1784
   26G      H1'  801   4.901   3.574   9.445  1.2301 -1.2835 -0.5844
   26G       N9  802   4.780   3.728   9.364  0.2775 -0.1920  0.8307
   26G       C8  803   4.756   3.863   9.352 -0.2254 -0.3647 -0.2114
   26G       H8  804   4.836   3.932   9.329  0.4493 -0.9604  0.3138
   26G       N7  805   4.634   3.898   9.382 -0.0216  0.0104  0.1865
   26G       C5  806   4.565   3.779   9.399 -0.0062 -0.1125 -0.5955
   26G       C6  807   4.432   3.761   9.445  0.1455  0.0941 -0.0801
   26G       O6  808   4.343   3.843   9.465  0.4039  0.3309  0.1179
   26G       N1  809   4.402   3.627   9.459  0.1446  0.1862  0.8707
   26G       H1  810   4.307   3.598   9.478 -0.2212 -0.6332 -1.7246
   26G       C2  811   4.498   3.528   9.452 -0.0632  0.0208  0.3067
   26G       N2  812   4.456   3.401   9.460 -0.0775 -0.0267 -0.4599
   26G      H21  813   4.362   3.377   9.486  0.6262 -0.9299  1.4094
   26G      H22  814   4.534   3.336   9.457 -0.3653 -0.3414 -1.4453
   26G       N3  815   4.626   3.546   9.416 -0.1130 -0.0043  0.1162
   26G       C4  816   4.655   3.676   9.391 -0.0611 -0.1576 -0.6201
   26G      C3'  817   4.983   3.662   9.145  0.0045  0.2751 -0.1308
   26G      H3'  818   4.921   3.734   9.092 -0.4489 -0.3235 -0.4316
   26G      C2'  819   4.906   3.563   9.233 -0.0710  0.2650 -0.2104
   26G     H2'1  820   4.804   3.551   9.195  0.3986  0.6839 -1.6852
   26G      O2'  821   4.978   3.444   9.252 -0.3827  0.0208 -0.5280
   26G     HO'2  822   5.045   3.456   9.183 -1.7896  2.1642 -1.6239
   26G      O3'  823   5.058   3.587   9.052  0.1368  0.1060  0.1079
   27C        P  824   4.990   3.568   8.907  0.2491 -0.2604  0.1034
   27C      O1P  825   5.095   3.491   8.836  0.1097 -0.1396 -0.2380
   27C      O2P  826   4.946   3.703   8.863 -0.5059 -0.4411  0.2939
   27C      O5'  827   4.855   3.483   8.919 -0.0529  0.1493 -0.3358
   27C      C5'  828   4.871   3.345   8.943 -0.1192  0.0459 -0.8692
   27C     H5'1  829   4.951   3.322   9.013 -0.5892 -1.8377 -0.8707
   27C     H5'2  830   4.887   3.297   8.847  0.5390  0.2997 -0.8897
   27C      C4'  831   4.739   3.285   8.991  0.2265 -0.1652 -0.1717
   27C      H4'  832   4.763   3.187   9.035  0.1669 -0.9930 -1.9164
   27C      O4'  833   4.677   3.356   9.096 -0.1632 -0.1527 -0.4088
   27C      C1'  834   4.539   3.330   9.098 -0.1663 -0.1284 -0.2973
   27C      H1'  835   4.515   3.267   9.184  2.2589 -1.0671 -0.2337
   27C       N1  836   4.468   3.459   9.102  0.0588 -0.0132 -0.0500
   27C       C6  837   4.535   3.574   9.073 -0.1099  0.1328  0.1323
   27C       H6  838   4.639   3.575   9.044 -0.2111  0.3021 -0.2388
   27C       C5  839   4.467   3.690   9.084  0.1694  0.2243  0.9042
   27C       H5  840   4.511   3.787   9.064  1.8754 -0.2662  1.9829
   27C       C4  841   4.328   3.685   9.116  0.0985  0.1684  0.5913
   27C       N4  842   4.255   3.797   9.125 -0.7444 -0.2551 -0.7146
   27C      H41  843   4.295   3.877   9.078  0.1308 -0.4261 -0.2767
   27C      H42  844   4.154   3.792   9.133 -0.7573  1.5762  1.2698
   27C       N3  845   4.267   3.570   9.147 -0.0802  0.0396 -0.2179
   27C       C2  846   4.335   3.453   9.139 -0.0345  0.0770 -0.3719
   27C       O2  847   4.283   3.351   9.183 -0.1304  0.0734 -0.4913
   27C      C3'  848   4.626   3.269   8.890  0.2157 -0.1691 -0.1589
   27C      H3'  849   4.607   3.362   8.837  1.4540 -0.5174 -1.2613
   27C      C2'  850   4.508   3.236   8.982  0.0371 -0.1090 -0.3659
   27C     H2'1  851   4.418   3.262   8.927  1.5250  1.0720 -2.4007
   27C      O2'  852   4.504   3.110   9.044 -0.5306 -0.1157 -0.4116
   27C     HO'2  853   4.494   3.045   8.974  1.4420 -0.8399 -0.0786
   27C      O3'  854   4.649   3.163   8.799  0.1760 -0.4857  0.1943
   28G        P  855   4.574   3.158   8.657  0.1514  0.0353  0.1873
   28G      O1P  856   4.608   3.029   8.594 -0.1847  0.0900 -0.1105
   28G      O2P  857   4.597   3.285   8.584  0.1156 -0.0234  0.0725
   28G      O5'  858   4.415   3.151   8.681  0.2108  0.1608  0.6171
   28G      C5'  859   4.355   3.030   8.722  0.2766  0.0237  0.3098
   28G     H5'1  860   4.401   2.993   8.813  1.2318  0.5270  0.0472
   28G     H5'2  861   4.371   2.953   8.646 -2.6399 -0.9832  0.5989
   28G      C4'  862   4.206   3.051   8.746  0.1587  0.0365 -0.4185
   28G      H4'  863   4.149   2.962   8.772 -0.8969  1.1460  1.2251
   28G      O4'  864   4.187   3.142   8.851  0.3306 -0.5415  0.1174
   28G      C1'  865   4.074   3.226   8.836  0.6620 -0.1008  0.0655
   28G      H1'  866   4.003   3.194   8.913  0.8742 -0.3679  0.1513
   28G       N9  867   4.101   3.370   8.847  0.2615 -0.0668  0.6497
   28G       C8  868   4.209   3.446   8.810 -0.0053 -0.1556 -0.3387
   28G       H8  869   4.298   3.407   8.764 -0.4383 -0.4077 -0.9697
   28G       N7  870   4.193   3.572   8.840 -0.3535 -0.1108 -0.7040
   28G       C5  871   4.064   3.585   8.890 -0.2937 -0.1340 -0.5446
   28G       C6  872   3.988   3.697   8.932  0.3280 -0.1403  0.6355
   28G       O6  873   4.022   3.816   8.939 -0.2619  0.1381 -0.9592
   28G       N1  874   3.853   3.669   8.948  0.2514  0.1122  0.4432
   28G       H1  875   3.792   3.749   8.957 -0.5074 -0.4087 -0.0802
   28G       C2  876   3.799   3.543   8.938 -0.3094  0.4292 -0.5973
   28G       N2  877   3.668   3.527   8.960 -0.1762 -0.2829 -0.2731
   28G      H21  878   3.612   3.607   8.985  2.2713  0.8772  2.0005
   28G      H22  879   3.630   3.436   8.940 -0.5440 -0.2215  0.1331
   28G       N3  880   3.876   3.435   8.917 -0.3566  0.3436 -0.3231
   28G       C4  881   4.006   3.461   8.888 -0.2605 -0.1532 -0.3457
   28G      C3'  882   4.127   3.111   8.630 -0.1761  0.4918  0.0432
   28G      H3'  883   4.180   3.190   8.576  0.6064 -0.4798 -0.6498
   28G      C2'  884   4.014   3.183   8.703 -0.1989  0.1181  0.3768
   28G     H2'1  885   3.988   3.275   8.651  1.3912  1.4783  1.8496
   28G      O2'  886   3.913   3.090   8.734  0.0849 -0.3292 -0.0214
   28G     HO'2  887   3.895   3.052   8.648 -0.7182 -0.6946  0.2916
   28G      O3'  888   4.074   3.018   8.538  0.4261  0.2872 -0.1012
   29C        P  889   4.026   3.058   8.390  0.0695 -0.4118 -0.1777
   29C      O1P  890   4.002   2.931   8.318 -0.5204 -0.2692 -0.2319
   29C      O2P  891   4.127   3.148   8.330  0.4324 -0.4137  0.4196
   29C      O5'  892   3.894   3.149   8.399  0.2243 -0.2499  0.5543
   29C      C5'  893   3.772   3.082   8.421  0.0475 -0.2610 -0.4023
   29C     H5'1  894   3.790   3.019   8.507 -1.3300  1.9046  1.6135
   29C     H5'2  895   3.743   3.033   8.328 -1.0958 -0.3490 -0.0228
   29C      C4'  896   3.664   3.183   8.460 -0.0298 -0.4064 -0.2431
   29C      H4'  897   3.578   3.120   8.482 -1.1200  0.6880 -1.2650
   29C      O4'  898   3.697   3.260   8.574  0.5076  0.1061 -0.7346
   29C      C1'  899   3.632   3.385   8.576 -0.1811 -0.2467  0.5292
   29C      H1'  900   3.557   3.400   8.653 -0.5006  0.9194  0.0217
   29C       N1  901   3.726   3.498   8.574 -0.0479 -0.3660 -0.1600
   29C       C6  902   3.860   3.481   8.551  0.0089 -0.0153 -0.0844
   29C       H6  903   3.900   3.390   8.509  0.6698  0.3343 -0.2321
   29C       C5  904   3.938   3.591   8.561  0.1252 -0.1097  0.0398
   29C       H5  905   4.042   3.579   8.534  0.8741 -0.2078  2.6852
   29C       C4  906   3.879   3.715   8.600 -0.3564 -0.3458  0.0638
   29C       N4  907   3.944   3.832   8.610 -0.7452 -0.1484  0.3229
   29C      H41  908   4.044   3.825   8.606 -0.8435 -1.9383  0.4086
   29C      H42  909   3.898   3.920   8.631  1.4331  0.8066  1.3031
   29C       N3  910   3.750   3.727   8.636 -0.1707 -0.2460  0.7053
   29C       C2  911   3.674   3.616   8.623  0.1255 -0.3769  0.0511
   29C       O2  912   3.561   3.624   8.671  0.2371 -0.0973  0.2724
   29C      C3'  913   3.611   3.279   8.355 -0.3935 -0.0797  0.2316
   29C      H3'  914   3.704   3.300   8.301  0.3696 -1.1978  1.0938
   29C      C2'  915   3.553   3.388   8.445  0.0476  0.0187  0.3970
   29C     H2'1  916   3.550   3.489   8.404  0.0311  0.2267  0.9035
   29C      O2'  917   3.424   3.352   8.489  0.0124  0.1177  0.3747
   29C     HO'2  918   3.382   3.436   8.511 -0.2455  0.4005 -1.1164
   29C      O3'  919   3.524   3.210   8.268 -0.1164 -0.1177 -0.0159
   30A        P  920   3.492   3.270   8.122 -0.1452  0.1045  0.0805
   30A      O1P  921   3.385   3.186   8.063 -0.1126 -0.1021  0.3147
   30A      O2P  922   3.620   3.296   8.052 -0.2720  0.1198 -0.1476
   30A      O5'  923   3.419   3.410   8.150 -0.2434  0.0075  0.3113
   30A      C5'  924   3.286   3.425   8.195 -0.2874  0.6081 -0.0029
   30A     H5'1  925   3.266   3.350   8.272  0.5600  0.5659  0.1893
   30A     H5'2  926   3.229   3.400   8.106 -0.2410 -0.9888  0.3873
   30A      C4'  927   3.238   3.563   8.237 -0.2959  0.4774  0.4241
   30A      H4'  928   3.139   3.563   8.284 -0.2039 -3.9779  0.9750
   30A      O4'  929   3.327   3.612   8.334 -0.2572  0.1250  0.5675
   30A      C1'  930   3.338   3.753   8.331  0.1281  0.0869  0.0718
   30A      H1'  931   3.305   3.795   8.426 -2.6078  0.7826 -1.0991
   30A       N9  932   3.476   3.798   8.306 -0.0171  0.2944 -0.3703
   30A       C8  933   3.592   3.731   8.275 -0.3887 -0.3977 -0.2728
   30A       H8  934   3.588   3.629   8.239  0.3113 -0.6868  0.4406
   30A       N7  935   3.703   3.794   8.302 -0.4684 -0.3826  0.0286
   30A       C5  936   3.660   3.917   8.349  0.3383 -0.2238  0.3633
   30A       C6  937   3.721   4.038   8.386  0.0619 -0.0627  0.3022
   30A       N6  938   3.854   4.052   8.389  0.0775  0.0886 -0.7140
   30A      H61  939   3.913   3.974   8.362  0.6974  0.3537 -0.1448
   30A      H62  940   3.903   4.136   8.418  2.3299 -1.8898  1.6900
   30A       N1  941   3.648   4.136   8.440  0.0240  0.0169  0.1092
   30A       C2  942   3.516   4.124   8.442  0.0009  0.3045  0.2931
   30A       H2  943   3.454   4.208   8.474  1.1353  0.8370  1.1732
   30A       N3  944   3.447   4.021   8.396  0.4424  0.3256 -0.4293
   30A       C4  945   3.523   3.919   8.351  0.3390 -0.1308  0.4139
   30A      C3'  946   3.234   3.672   8.130 -0.2265 -0.0588 -0.1255
   30A      H3'  947   3.323   3.677   8.068  1.7041  2.4238  2.6311
   30A      C2'  948   3.247   3.797   8.216  0.1036 -0.1737 -0.0089
   30A     H2'1  949   3.299   3.876   8.161 -0.8652  0.2142 -0.3847
   30A      O2'  950   3.123   3.830   8.275  0.1333 -0.8554  0.4475
   30A     HO'2  951   3.059   3.804   8.209  0.2113  0.1508 -0.0472
   30A      O3'  952   3.115   3.664   8.054 -0.0094 -0.2249 -0.4515
   31G        P  953   3.111   3.738   7.911  0.1763  0.0641 -0.3051
   31G      O1P  954   2.968   3.721   7.878  0.0564  0.0574  0.1956
   31G      O2P  955   3.217   3.684   7.824  0.5170  0.3810 -0.0948
   31G      O5'  956   3.132   3.896   7.935 -0.0179  0.0627 -0.1146
   31G      C5'  957   3.034   3.986   7.982  0.0898  0.1761 -0.1038
   31G     H5'1  958   2.992   3.959   8.079 -1.1021  0.2853 -0.5644
   31G     H5'2  959   2.949   3.995   7.914 -1.6388  0.1606  1.9674
   31G      C4'  960   3.097   4.122   8.007 -0.4351  0.3851  0.0819
   31G      H4'  961   3.022   4.196   8.038  0.1650  1.1408 -0.2387
   31G      O4'  962   3.192   4.103   8.109 -0.2455 -0.3253 -0.2253
   31G      C1'  963   3.280   4.210   8.086 -0.0229 -0.7077 -1.1787
   31G      H1'  964   3.271   4.276   8.172 -0.3050  2.1118 -3.2257
   31G       N9  965   3.421   4.168   8.078  0.1824 -0.2593 -0.1033
   31G       C8  966   3.477   4.050   8.036 -0.1320 -0.3257 -0.3390
   31G       H8  967   3.405   3.975   8.005 -1.1226 -0.0822  1.2679
   31G       N7  968   3.606   4.041   8.051 -0.1519  0.4305  0.3199
   31G       C5  969   3.641   4.169   8.093  0.0723  0.3587  0.3536
   31G       C6  970   3.769   4.224   8.120  0.3676  0.2575 -0.7772
   31G       O6  971   3.879   4.171   8.126  0.0461 -0.2777  0.9424
   31G       N1  972   3.763   4.361   8.145 -0.0211  0.0647  0.2577
   31G       H1  973   3.847   4.410   8.172  1.0654 -2.1795  1.2123
   31G       C2  974   3.644   4.431   8.145 -0.2950 -0.3855 -0.4559
   31G       N2  975   3.654   4.564   8.157 -0.2814 -0.3498 -0.8517
   31G      H21  976   3.746   4.604   8.145 -1.0011  0.9475 -2.5887
   31G      H22  977   3.565   4.611   8.144 -0.7837 -1.1131 -0.2539
   31G       N3  978   3.521   4.379   8.135 -0.5421  0.0625  0.1885
   31G       C4  979   3.529   4.248   8.104 -0.1492  0.0489  0.3383
   31G      C3'  980   3.171   4.178   7.886 -0.1538  0.0373  0.0907
   31G      H3'  981   3.237   4.100   7.850 -0.3455  0.0095 -0.2029
   31G      C2'  982   3.252   4.286   7.956  0.1548  0.2874 -0.6438
   31G     H2'1  983   3.340   4.326   7.905  0.1696  2.3290  0.8626
   31G      O2'  984   3.175   4.401   7.982  0.2116  0.1962 -0.0613
   31G     HO'2  985   3.142   4.440   7.901  0.3051  0.8768  0.2198
   31G      O3'  986   3.078   4.228   7.792  0.0303 -0.4204 -0.3412
   32A        P  987   3.122   4.254   7.640  0.0513  0.0725 -0.2537
   32A      O1P  988   2.996   4.285   7.568 -0.1852  0.0174  0.1373
   32A      O2P  989   3.210   4.147   7.588  0.4738  0.3065 -0.0231
   32A      O5'  990   3.207   4.391   7.634 -0.1474  0.1943 -0.3070
   32A      C5'  991   3.152   4.518   7.658  0.0506  0.1882  0.1928
   32A     H5'1  992   3.076   4.523   7.736  0.8725 -0.3782  1.0464
   32A     H5'2  993   3.102   4.540   7.563  0.7276 -2.2493 -0.7940
   32A      C4'  994   3.261   4.618   7.693  0.6806 -0.3563 -0.2001
   32A      H4'  995   3.217   4.713   7.721  0.5450 -1.2372  2.9790
   32A      O4'  996   3.342   4.575   7.801  0.4551  0.2622  0.2175
   32A      C1'  997   3.475   4.618   7.783  0.5030  0.0798  0.1405
   32A      H1'  998   3.516   4.670   7.870  0.9578 -0.5359  0.3030
   32A       N9  999   3.563   4.500   7.773 -0.0583 -0.3043 -0.3886
   32A       C8 1000   3.544   4.371   7.732 -0.7198 -0.4089  0.2229
   32A       H8 1001   3.449   4.338   7.693 -1.4342  0.4463  1.1877
   32A       N7 1002   3.652   4.299   7.737 -0.5004 -0.1515 -0.6195
   32A       C5 1003   3.751   4.385   7.784 -0.2744 -0.1755 -1.0400
   32A       C6 1004   3.885   4.374   7.823 -0.7368  0.2044  0.7805
   32A       N6 1005   3.957   4.261   7.819 -0.2188  0.5543  0.0023
   32A      H61 1006   3.912   4.176   7.789 -0.0170 -0.7354  3.0747
   32A      H62 1007   4.055   4.265   7.843 -0.0710  1.9865 -0.6738
   32A       N1 1008   3.957   4.483   7.854 -0.5323  0.3854 -0.2760
   32A       C2 1009   3.891   4.597   7.868 -0.3818  0.4369  0.0215
   32A       H2 1010   3.944   4.685   7.900  1.0720 -0.2817 -0.3190
   32A       N3 1011   3.763   4.621   7.845 -0.5020 -0.0936  0.1271
   32A       C4 1012   3.697   4.510   7.802 -0.1587 -0.2768  0.0739
   32A      C3' 1013   3.355   4.648   7.577  0.1974 -0.1243 -0.5296
   32A      H3' 1014   3.383   4.548   7.546  0.7274 -0.1592  0.0624
   32A      C2' 1015   3.474   4.702   7.656  0.2338 -0.5635 -0.2854
   32A     H2'1 1016   3.572   4.696   7.608  0.9942 -1.0615  1.2734
   32A      O2' 1017   3.459   4.836   7.697 -0.2999 -0.8838  0.5911
   32A     HO'2 1018   3.526   4.858   7.763 -1.5899 -1.1739  2.0442
   32A      O3' 1019   3.296   4.727   7.476 -0.2274  0.3985  0.1147
   33U        P 1020   3.365   4.744   7.331  0.0440 -0.3043  0.1593
   33U      O1P 1021   3.282   4.845   7.263  0.6791 -0.0583 -0.2546
   33U      O2P 1022   3.377   4.613   7.263  0.2492 -0.1090 -0.1821
   33U      O5' 1023   3.510   4.801   7.373 -0.0708  0.4195 -0.4253
   33U      C5' 1024   3.555   4.933   7.396 -0.2868  0.3299  0.5515
   33U     H5'1 1025   3.509   4.972   7.486 -2.7908  1.1323 -1.0072
   33U     H5'2 1026   3.516   4.987   7.310 -2.8728 -0.7842  0.9476
   33U      C4' 1027   3.707   4.949   7.400 -0.2430  0.2177 -0.3358
   33U      H4' 1028   3.722   5.056   7.413 -1.1285  0.2610  0.4482
   33U      O4' 1029   3.749   4.885   7.518 -0.3368  0.0901 -0.3718
   33U      C1' 1030   3.884   4.850   7.502 -0.4454 -0.3171 -0.4031
   33U      H1' 1031   3.940   4.897   7.582 -0.8623 -1.3966  0.5492
   33U       N1 1032   3.910   4.704   7.508  0.1249 -0.2408 -0.9184
   33U       C6 1033   3.816   4.614   7.469 -0.4067 -0.1109  0.0572
   33U       H6 1034   3.715   4.649   7.450 -0.7998 -1.6956 -0.9503
   33U       C5 1035   3.844   4.482   7.468  0.5875  0.0959 -0.4567
   33U       H5 1036   3.777   4.406   7.430 -0.7347  0.6635  0.6588
   33U       C4 1037   3.974   4.428   7.498  0.2014 -0.5866  0.0313
   33U       O4 1038   4.003   4.309   7.505  0.4258 -0.5225  0.1961
   33U       N3 1039   4.062   4.527   7.538 -0.3063 -0.0383 -0.1872
   33U       H3 1040   4.160   4.509   7.557  0.0051  1.1408 -0.5769
   33U       C2 1041   4.037   4.663   7.544 -0.1844 -0.0383  0.4437
   33U       O2 1042   4.133   4.736   7.571  0.1064 -0.1586 -0.2394
   33U      C3' 1043   3.801   4.928   7.282  0.3547  0.4367  0.0978
   33U      H3' 1044   3.776   4.831   7.240 -0.9890  0.9658 -0.3594
   33U      C2' 1045   3.926   4.909   7.368  0.3835 -0.1279 -0.0670
   33U     H2'1 1046   4.002   4.852   7.313  0.1165 -0.2315 -0.3303
   33U      O2' 1047   3.983   5.036   7.391 -0.0093 -0.0680  0.5948
   33U     HO'2 1048   3.941   5.097   7.330  1.3885  0.5795  0.2275
   33U      O3' 1049   3.795   5.036   7.192  0.1141  0.3567  0.0187
   34G        P 1050   3.847   5.019   7.040 -0.0172 -0.4394  0.0594
   34G      O1P 1051   3.837   5.147   6.966 -0.2699 -0.6620 -0.2897
   34G      O2P 1052   3.780   4.902   6.981 -0.1891 -0.2861 -0.0504
   34G      O5' 1053   4.000   4.969   7.055  0.0556 -0.4712 -0.7805
   34G      C5' 1054   4.094   5.072   7.076 -0.1127 -0.5591  0.4577
   34G     H5'1 1055   4.055   5.136   7.156 -0.9027 -0.6314  0.1372
   34G     H5'2 1056   4.099   5.138   6.990  0.5694 -2.2295 -0.8365
   34G      C4' 1057   4.232   5.011   7.101 -0.0003 -0.3986  0.2374
   34G      H4' 1058   4.300   5.096   7.112 -1.4774  0.6047  2.3800
   34G      O4' 1059   4.220   4.931   7.216 -0.2430 -0.4262  0.1932
   34G      C1' 1060   4.317   4.830   7.208  0.3993  0.1942  0.1211
   34G      H1' 1061   4.391   4.837   7.288  0.2617 -0.1331  0.2796
   34G       N9 1062   4.251   4.698   7.219  0.0063  0.3542 -0.2740
   34G       C8 1063   4.127   4.656   7.181  0.0615  0.2291 -0.3170
   34G       H8 1064   4.049   4.710   7.129 -1.6397  1.2714  2.9816
   34G       N7 1065   4.117   4.527   7.197 -0.4142  0.3307  0.2774
   34G       C5 1066   4.234   4.484   7.257 -0.4094  0.3923  0.3127
   34G       C6 1067   4.276   4.354   7.297 -0.1833  0.2748 -0.2946
   34G       O6 1068   4.224   4.243   7.302 -0.4430  0.4026 -0.1384
   34G       N1 1069   4.413   4.355   7.322 -0.2255 -0.1042 -0.0332
   34G       H1 1070   4.452   4.262   7.329 -0.6660 -0.2760  0.2136
   34G       C2 1071   4.497   4.464   7.325 -0.2129 -0.1149  0.0205
   34G       N2 1072   4.627   4.434   7.341 -0.0283  0.5895 -0.0963
   34G      H21 1073   4.660   4.341   7.365  0.8444  1.1169  0.8262
   34G      H22 1074   4.692   4.508   7.321  0.6121 -0.3208 -1.5368
   34G       N3 1075   4.451   4.588   7.303 -0.2966 -0.1280  0.1253
   34G       C4 1076   4.321   4.589   7.266 -0.2410  0.2880 -0.0581
   34G      C3' 1077   4.282   4.923   6.988  0.5488 -0.2062  0.3292
   34G      H3' 1078   4.198   4.863   6.954 -0.1151 -0.7694  2.7707
   34G      C2' 1079   4.383   4.843   7.070  0.5103 -0.4882  0.1043
   34G     H2'1 1080   4.403   4.746   7.025  0.7758  0.2402 -1.4139
   34G      O2' 1081   4.505   4.913   7.079 -0.4210  1.2239 -0.1931
   34G     HO'2 1082   4.515   4.932   6.986 -0.2214  1.7295 -0.0715
   34G      O3' 1083   4.353   5.004   6.897  0.0544 -0.1041  0.0281
   35C        P 1084   4.383   4.956   6.747  0.3017  0.2430 -0.0348
   35C      O1P 1085   4.433   5.079   6.680  0.5740 -0.0385 -0.3558
   35C      O2P 1086   4.262   4.891   6.693  0.6256 -0.2659 -0.1545
   35C      O5' 1087   4.508   4.854   6.755  0.0650 -0.0230  0.2752
   35C      C5' 1088   4.641   4.891   6.783  0.1708 -0.5514  0.4781
   35C     H5'1 1089   4.642   4.964   6.864  1.7757  1.3272 -1.1330
   35C     H5'2 1090   4.684   4.939   6.695 -0.8243 -0.2102  0.1588
   35C      C4' 1091   4.715   4.762   6.818 -0.0287 -0.7233  0.2735
   35C      H4' 1092   4.816   4.779   6.857  1.1391 -1.8057 -2.0893
   35C      O4' 1093   4.643   4.686   6.913 -0.2926  0.2584  0.8768
   35C      C1' 1094   4.685   4.552   6.898  0.3755  0.5339  0.1861
   35C      H1' 1095   4.753   4.533   6.981  1.4821  2.6799 -0.1500
   35C       N1 1096   4.569   4.461   6.909  0.7972  0.0121  0.3392
   35C       C6 1097   4.445   4.502   6.870  0.7174 -0.0638  0.5111
   35C       H6 1098   4.439   4.599   6.821  0.9678  0.6390  1.8257
   35C       C5 1099   4.335   4.431   6.901  0.6772 -0.1943  0.0746
   35C       H5 1100   4.236   4.469   6.878  1.5841  2.9881  0.9027
   35C       C4 1101   4.354   4.306   6.969 -0.0264 -0.5959 -0.4526
   35C       N4 1102   4.247   4.234   7.005 -0.3586 -0.0270 -0.2834
   35C      H41 1103   4.160   4.259   6.961 -0.1768  2.2875  0.5286
   35C      H42 1104   4.261   4.147   7.055  2.3539  0.3538 -0.2223
   35C       N3 1105   4.477   4.261   6.993  0.0183 -0.3181 -0.1587
   35C       C2 1106   4.587   4.338   6.970  0.0942 -0.5322 -0.5268
   35C       O2 1107   4.698   4.302   7.006  0.3053  0.2272 -0.3878
   35C      C3' 1108   4.734   4.669   6.699 -0.3147 -0.1798 -0.2012
   35C      H3' 1109   4.634   4.670   6.654  0.0953 -1.5387 -1.2254
   35C      C2' 1110   4.764   4.537   6.769  0.3956  0.2078  0.2371
   35C     H2'1 1111   4.717   4.460   6.707 -0.9083  1.0288  0.1574
   35C      O2' 1112   4.900   4.513   6.797  0.1967 -0.3905  0.7295
   35C     HO'2 1113   4.924   4.427   6.763 -0.1962 -0.1532 -0.2029
   35C      O3' 1114   4.838   4.711   6.614 -0.3258  0.1860 -0.0330
   36C        P 1115   4.836   4.660   6.462 -0.3137  0.2590 -0.0576
   36C      O1P 1116   4.940   4.731   6.384 -0.2479  0.5955  0.3367
   36C      O2P 1117   4.695   4.663   6.415 -0.2103 -0.2523 -0.4124
   36C      O5' 1118   4.869   4.502   6.466  0.0034  0.3320  0.1762
   36C      C5' 1119   5.000   4.449   6.465 -0.0603  0.1695  0.3655
   36C     H5'1 1120   5.073   4.503   6.526  0.4524 -0.3676  0.2346
   36C     H5'2 1121   5.051   4.452   6.369 -1.6485  2.0959 -0.4890
   36C      C4' 1122   4.996   4.304   6.511  0.1425  0.1106  0.1937
   36C      H4' 1123   5.099   4.279   6.539 -0.1558  0.5355  1.7291
   36C      O4' 1124   4.911   4.282   6.621 -0.0913  0.1688  0.0250
   36C      C1' 1125   4.859   4.151   6.626  0.3082 -0.0026 -0.2986
   36C      H1' 1126   4.905   4.090   6.704 -0.7829 -1.4234 -0.7373
   36C       N1 1127   4.714   4.137   6.646  0.3517 -0.3323 -0.2053
   36C       C6 1128   4.627   4.234   6.605  0.1971 -0.2653  0.2797
   36C       H6 1129   4.675   4.321   6.561  1.5906 -0.5919  1.1065
   36C       C5 1130   4.494   4.218   6.621  0.2174 -0.4170  0.2951
   36C       H5 1131   4.422   4.289   6.582  0.5759 -1.7944 -3.1216
   36C       C4 1132   4.445   4.103   6.691 -0.2910 -0.1365  0.4071
   36C       N4 1133   4.316   4.097   6.726 -0.4426  0.1703 -0.0865
   36C      H41 1134   4.247   4.166   6.701 -0.0776  1.6282  2.5301
   36C      H42 1135   4.284   4.009   6.764  1.2452  0.1552  1.4366
   36C       N3 1136   4.529   4.004   6.722 -0.0990 -0.1341 -0.1043
   36C       C2 1137   4.663   4.023   6.706 -0.0858  0.1562  0.3566
   36C       O2 1138   4.726   3.923   6.737  0.0631  0.0331 -0.3184
   36C      C3' 1139   4.946   4.208   6.403  0.8708 -0.4131  0.3107
   36C      H3' 1140   4.865   4.253   6.346  2.6290  1.5966 -0.7911
   36C      C2' 1141   4.905   4.092   6.493 -0.1487 -0.4939 -0.2432
   36C     H2'1 1142   4.843   4.030   6.428 -0.1373 -0.6835 -0.0722
   36C      O2' 1143   5.029   4.029   6.515  0.3908  0.4432 -0.5157
   36C     HO'2 1144   5.095   4.082   6.469  2.1888 -1.8825 -0.8094
   36C      O3' 1145   5.047   4.179   6.309  0.1986 -0.0674 -0.5305
   37C        P 1146   5.010   4.110   6.168 -0.3727 -0.2789 -0.2759
   37C      O1P 1147   5.137   4.095   6.095 -0.1916  0.2993 -0.0863
   37C      O2P 1148   4.899   4.190   6.110  0.3032  0.6758 -0.2739
   37C      O5' 1149   4.950   3.966   6.209 -0.2768 -0.1246  0.4197
   37C      C5' 1150   5.025   3.850   6.235 -0.0309 -0.0318  0.1300
   37C     H5'1 1151   5.088   3.865   6.322 -0.0757 -1.5511  0.4553
   37C     H5'2 1152   5.091   3.823   6.152  0.0661 -1.6535  0.6957
   37C      C4' 1153   4.931   3.734   6.268 -0.4092  0.2511  0.0557
   37C      H4' 1154   4.991   3.650   6.304 -1.3733 -0.4266  0.1323
   37C      O4' 1155   4.849   3.751   6.381 -0.2588  0.0582  0.1963
   37C      C1' 1156   4.735   3.669   6.368 -0.1376 -0.1588  0.4945
   37C      H1' 1157   4.748   3.596   6.448  4.5215  1.6330  1.7377
   37C       N1 1158   4.609   3.744   6.383  0.1123  0.3501  0.0766
   37C       C6 1159   4.596   3.874   6.344 -0.3753  0.4187  0.4586
   37C       H6 1160   4.678   3.925   6.294 -0.0534 -1.4249 -0.9899
   37C       C5 1161   4.483   3.944   6.366 -0.5602  0.4633 -0.5781
   37C       H5 1162   4.472   4.047   6.338 -0.6985  0.4329 -0.6407
   37C       C4 1163   4.376   3.872   6.430  0.2080 -0.4424 -0.2965
   37C       N4 1164   4.269   3.945   6.462  0.9249  0.5717 -0.1549
   37C      H41 1165   4.255   4.037   6.422 -0.1591  0.2224 -0.6184
   37C      H42 1166   4.196   3.889   6.504  3.4603 -0.1019  3.8827
   37C       N3 1167   4.383   3.741   6.459 -0.1010 -0.3518  0.1888
   37C       C2 1168   4.499   3.677   6.431 -0.1500  0.0239 -0.9445
   37C       O2 1169   4.500   3.554   6.439 -0.5498  0.0695  0.0156
   37C      C3' 1170   4.840   3.680   6.158  0.2077  0.0692 -0.3738
   37C      H3' 1171   4.784   3.762   6.113 -0.9149 -0.4534  0.0126
   37C      C2' 1172   4.738   3.595   6.234  0.8766 -0.0267  0.4325
   37C     H2'1 1173   4.639   3.595   6.189  1.9707  0.8052 -2.1461
   37C      O2' 1174   4.787   3.466   6.258 -0.2357 -0.4047  0.7471
   37C     HO'2 1175   4.788   3.427   6.171  0.7198 -0.3198  0.7032
   37C      O3' 1176   4.916   3.597   6.073  0.3169  0.0497 -0.2565
   38U        P 1177   4.853   3.565   5.929 -0.1758 -0.0779 -0.0136
   38U      O1P 1178   4.956   3.488   5.856  0.6145  0.6661  0.3038
   38U      O2P 1179   4.811   3.694   5.869 -0.0764  0.0088  0.1024
   38U      O5' 1180   4.720   3.476   5.947  0.0927 -0.4653  0.0488
   38U      C5' 1181   4.718   3.339   5.979  0.1492 -0.5011 -0.0972
   38U     H5'1 1182   4.785   3.318   6.062  3.7132 -1.3550 -2.9250
   38U     H5'2 1183   4.748   3.282   5.891 -1.3278 -0.6508 -0.5398
   38U      C4' 1184   4.582   3.282   6.019  0.0347 -0.5089 -0.4944
   38U      H4' 1185   4.595   3.176   6.043  1.7304 -0.5740 -1.5520
   38U      O4' 1186   4.523   3.354   6.125  0.3971 -0.2765 -0.4476
   38U      C1' 1187   4.382   3.348   6.116  0.3874 -0.5381 -0.1677
   38U      H1' 1188   4.345   3.282   6.194 -3.0925  0.4858 -0.7746
   38U       N1 1189   4.318   3.480   6.135  0.4964 -0.5902  0.5748
   38U       C6 1190   4.376   3.595   6.089 -0.9243 -0.1244 -0.0972
   38U       H6 1191   4.469   3.586   6.034  1.6479  1.1784  3.6560
   38U       C5 1192   4.323   3.717   6.111  0.5178  0.4855  0.0578
   38U       H5 1193   4.371   3.805   6.070 -0.3899 -0.0472 -2.2875
   38U       C4 1194   4.193   3.728   6.173  0.5608 -0.1159  0.2623
   38U       O4 1195   4.128   3.832   6.180 -0.1213 -0.5262  0.0905
   38U       N3 1196   4.135   3.607   6.210 -0.4554  0.2239 -0.1803
   38U       H3 1197   4.042   3.604   6.249 -0.0688  0.0521  0.7504
   38U       C2 1198   4.189   3.482   6.185  0.2124  0.5021 -0.1702
   38U       O2 1199   4.133   3.383   6.232 -0.0812  0.8287  0.1703
   38U      C3' 1200   4.482   3.294   5.904 -0.0174  0.3126 -0.3700
   38U      H3' 1201   4.496   3.387   5.851  0.9502  0.4054  0.0281
   38U      C2' 1202   4.352   3.279   5.983  0.0478 -0.0796 -0.3338
   38U     H2'1 1203   4.263   3.323   5.938  1.8128  3.0497 -1.0362
   38U      O2' 1204   4.339   3.144   6.020  0.5428 -0.1183 -0.2994
   38U     HO'2 1205   4.262   3.113   5.972 -0.5919  0.7682  0.8850
   38U      O3' 1206   4.508   3.185   5.818 -0.3562  0.1515 -0.2719
   39U        P 1207   4.439   3.182   5.673 -0.0691  0.5185 -0.4159
   39U      O1P 1208   4.482   3.053   5.613 -0.0094  0.2566  0.1819
   39U      O2P 1209   4.481   3.306   5.604  0.2705  0.1463 -0.8840
   39U      O5' 1210   4.281   3.175   5.698  0.1050 -0.3340  0.4870
   39U      C5' 1211   4.210   3.054   5.715 -0.4136 -0.1390 -0.2147
   39U     H5'1 1212   4.257   2.983   5.783 -4.0717 -0.8831  1.7949
   39U     H5'2 1213   4.218   2.992   5.626  0.2374 -0.7389  0.2373
   39U      C4' 1214   4.064   3.084   5.747 -0.3272 -0.1251  0.1680
   39U      H4' 1215   4.024   2.983   5.758 -1.8228  0.3267 -0.8889
   39U      O4' 1216   4.051   3.171   5.857 -0.2428  0.0048  0.0754
   39U      C1' 1217   3.935   3.250   5.845 -0.1211  0.1542 -0.1400
   39U      H1' 1218   3.870   3.230   5.931 -0.2175  1.3026  0.0703
   39U       N1 1219   3.958   3.395   5.855 -0.2473  0.1975 -0.4706
   39U       C6 1220   4.067   3.457   5.800  0.0292  0.5723  0.4785
   39U       H6 1221   4.133   3.397   5.740  0.0590  0.9669  0.1146
   39U       C5 1222   4.079   3.591   5.805  0.4670  0.5574 -0.1076
   39U       H5 1223   4.164   3.640   5.760  0.6061  1.0998  0.7167
   39U       C4 1224   3.988   3.676   5.879  0.0213  0.1891 -0.2271
   39U       O4 1225   4.000   3.795   5.905  0.2169  0.0885  0.1532
   39U       N3 1226   3.887   3.603   5.941  0.6195 -0.0082  0.5340
   39U       H3 1227   3.810   3.657   5.979 -0.4242 -0.0281 -1.4503
   39U       C2 1228   3.859   3.470   5.916  0.2388  0.0824  0.4778
   39U       O2 1229   3.753   3.425   5.961  0.0803  0.4891  0.5137
   39U      C3' 1230   3.989   3.158   5.637  0.1456  0.0496 -0.0391
   39U      H3' 1231   4.043   3.248   5.610 -1.1372  0.8090 -0.1424
   39U      C2' 1232   3.867   3.202   5.717  0.0675  0.2838 -0.2873
   39U     H2'1 1233   3.833   3.288   5.659 -1.5420 -0.6294 -0.7234
   39U      O2' 1234   3.776   3.097   5.738  0.2192  0.3800  0.9277
   39U     HO'2 1235   3.690   3.134   5.719 -0.0247 -0.4941  0.2971
   39U      O3' 1236   3.955   3.075   5.528  0.0067 -0.2481  0.2270
   40C        P 1237   3.891   3.142   5.396  0.0149  0.0068  0.3516
   40C      O1P 1238   3.872   3.035   5.296  0.3004  0.1357  0.1564
   40C      O2P 1239   3.979   3.252   5.349  0.0758 -0.3451 -0.3727
   40C      O5' 1240   3.747   3.209   5.421 -0.1201 -0.0441 -0.2761
   40C      C5' 1241   3.632   3.135   5.453  0.0172 -0.0271  0.2707
   40C     H5'1 1242   3.657   3.057   5.525  1.8125  0.5851  0.3493
   40C     H5'2 1243   3.601   3.087   5.360  0.2905  1.5805 -0.6856
   40C      C4' 1244   3.512   3.216   5.501 -0.1630 -0.0367 -0.1576
   40C      H4' 1245   3.426   3.151   5.518 -0.5855  0.3973 -0.6077
   40C      O4' 1246   3.542   3.282   5.622 -0.3516 -0.2229 -0.0103
   40C      C1' 1247   3.474   3.405   5.622  0.2989  0.1389 -0.4150
   40C      H1' 1248   3.405   3.405   5.706 -0.5955 -1.8930 -1.0919
   40C       N1 1249   3.567   3.519   5.634  0.0570  0.2755  0.1683
   40C       C6 1250   3.689   3.517   5.573  0.0522  0.2995  0.1595
   40C       H6 1251   3.722   3.424   5.529  1.5843 -0.1986  2.1913
   40C       C5 1252   3.778   3.617   5.592  0.2700  0.0316  0.5585
   40C       H5 1253   3.878   3.615   5.550 -0.0516 -0.5469 -0.2076
   40C       C4 1254   3.731   3.742   5.643  0.3442  0.3095 -0.0458
   40C       N4 1255   3.809   3.851   5.642  0.5559  0.1602  0.1068
   40C      H41 1256   3.902   3.846   5.604  1.2574 -1.4702  1.9030
   40C      H42 1257   3.767   3.939   5.668 -1.7686 -0.3767 -1.4347
   40C       N3 1258   3.607   3.739   5.693  0.4951 -0.3845  0.2968
   40C       C2 1259   3.518   3.636   5.688 -0.1260  0.1427  0.2928
   40C       O2 1260   3.400   3.655   5.714 -0.1315 -0.1144  0.4558
   40C      C3' 1261   3.462   3.326   5.407 -0.1744 -0.0506 -0.1677
   40C      H3' 1262   3.551   3.372   5.364  0.2402 -1.4220 -0.8300
   40C      C2' 1263   3.383   3.419   5.499 -0.1184 -0.0424 -0.1281
   40C     H2'1 1264   3.387   3.521   5.463  2.7367 -0.5468 -1.5581
   40C      O2' 1265   3.251   3.373   5.516 -0.0051 -0.2482  0.2238
   40C     HO'2 1266   3.193   3.443   5.546  1.6554  1.3852 -0.2167
   40C      O3' 1267   3.390   3.261   5.305 -0.2103  0.2795 -0.3535
   41C        P 1268   3.374   3.337   5.164 -0.1550  0.5632 -0.2076
   41C      O1P 1269   3.298   3.241   5.082  0.1229 -0.0776  0.2708
   41C      O2P 1270   3.504   3.378   5.107  0.2844 -0.0913  0.3047
   41C      O5' 1271   3.290   3.471   5.195 -0.6865  0.1538  0.1373
   41C      C5' 1272   3.150   3.478   5.212 -0.6948  0.1746  0.0584
   41C     H5'1 1273   3.126   3.414   5.297  0.8039 -0.4712  0.0385
   41C     H5'2 1274   3.108   3.447   5.116  0.3552  1.8094 -0.9872
   41C      C4' 1275   3.103   3.619   5.245 -0.1510  0.3072  0.2738
   41C      H4' 1276   2.996   3.623   5.265 -0.3471 -2.1387  0.0077
   41C      O4' 1277   3.172   3.659   5.361  0.1767  0.1285  0.1418
   41C      C1' 1278   3.187   3.799   5.360 -0.2991  0.1811  0.1993
   41C      H1' 1279   3.128   3.848   5.437  1.5311  1.7629  0.7009
   41C       N1 1280   3.328   3.844   5.367 -0.1362 -0.2527 -0.2614
   41C       C6 1281   3.430   3.758   5.338  0.2385 -0.2824  1.0564
   41C       H6 1282   3.407   3.656   5.308  0.9933  0.2666 -1.7679
   41C       C5 1283   3.557   3.802   5.345  0.1795 -0.0349  0.6252
   41C       H5 1284   3.636   3.735   5.313  0.6751  0.2119  1.3158
   41C       C4 1285   3.580   3.941   5.372 -0.5748  0.2552 -0.1972
   41C       N4 1286   3.707   3.981   5.383 -0.3496 -0.3654 -0.4827
   41C      H41 1287   3.778   3.910   5.371 -1.7790 -1.5431 -2.4713
   41C      H42 1288   3.730   4.079   5.383 -2.8157  0.3032  0.7836
   41C       N3 1289   3.479   4.026   5.395 -0.5224  0.1884  0.2767
   41C       C2 1290   3.353   3.976   5.399 -0.4198 -0.1387 -0.5094
   41C       O2 1291   3.267   4.053   5.441 -0.1232 -0.2889  0.3916
   41C      C3' 1292   3.126   3.730   5.143  0.0251  0.1317  0.1225
   41C      H3' 1293   3.223   3.732   5.093 -0.3310 -0.5156 -0.6233
   41C      C2' 1294   3.114   3.850   5.236 -0.0508  0.1796  0.0507
   41C     H2'1 1295   3.162   3.941   5.200 -1.2556  0.0103 -2.1833
   41C      O2' 1296   2.981   3.881   5.271 -0.0574 -0.0887  0.2732
   41C     HO'2 1297   2.918   3.841   5.210  0.8136 -1.0052 -0.0502
   41C      O3' 1298   3.021   3.723   5.049  0.3707 -0.4111 -0.2382
   42G        P 1299   3.021   3.802   4.909 -0.1315  0.1593  0.0764
   42G      O1P 1300   2.886   3.792   4.848 -0.1777  0.5483  0.1116
   42G      O2P 1301   3.138   3.768   4.826 -0.5147 -0.1487 -0.3422
   42G      O5' 1302   3.038   3.956   4.953 -0.1035  0.0037  0.6098
   42G      C5' 1303   2.933   4.050   4.951 -0.4898 -0.4321  0.2261
   42G     H5'1 1304   2.851   4.032   5.019 -1.9451 -1.7573 -1.7735
   42G     H5'2 1305   2.892   4.064   4.851 -0.4710  2.6810  0.5415
   42G      C4' 1306   2.980   4.192   4.983  0.4782 -0.6542 -0.1784
   42G      H4' 1307   2.885   4.242   4.995  1.1530  0.2279  1.8329
   42G      O4' 1308   3.057   4.194   5.101 -0.3045  0.7467  0.3220
   42G      C1' 1309   3.143   4.305   5.089  0.1450  0.3655  0.0031
   42G      H1' 1310   3.144   4.377   5.171 -2.2200 -0.0265  0.4368
   42G       N9 1311   3.282   4.254   5.083  0.0361  0.0681 -0.0092
   42G       C8 1312   3.324   4.124   5.081  0.1637  0.0902  0.7433
   42G       H8 1313   3.253   4.044   5.064  0.2936 -0.1752  1.4254
   42G       N7 1314   3.452   4.109   5.102  0.2508  0.2083  0.3168
   42G       C5 1315   3.502   4.238   5.111  0.1543  0.2551  0.2020
   42G       C6 1316   3.628   4.284   5.155  0.4781  0.1424 -0.5890
   42G       O6 1317   3.728   4.217   5.179 -0.0432 -0.2595  0.5225
   42G       N1 1318   3.637   4.423   5.156 -0.2116  0.1879  0.0381
   42G       H1 1319   3.726   4.467   5.172  0.1392  0.7215 -2.7905
   42G       C2 1320   3.531   4.509   5.130 -0.1997  0.2306  0.1275
   42G       N2 1321   3.558   4.639   5.143 -0.3336  0.2442  0.2688
   42G      H21 1322   3.646   4.682   5.167 -1.0524  0.9055  1.9303
   42G      H22 1323   3.482   4.706   5.135 -1.2131 -0.7166  0.3702
   42G       N3 1324   3.408   4.461   5.110 -0.1560  0.0699  0.2338
   42G       C4 1325   3.397   4.326   5.100  0.0832  0.0961 -0.4397
   42G      C3' 1326   3.051   4.261   4.866 -0.0853  0.0374 -0.1173
   42G      H3' 1327   3.120   4.186   4.828 -0.9440  0.0297 -1.7359
   42G      C2' 1328   3.109   4.370   4.955  0.0643 -0.0088 -0.1589
   42G     H2'1 1329   3.201   4.404   4.907  0.2867 -1.0345 -0.4846
   42G      O2' 1330   3.019   4.476   4.976 -0.3437 -0.3142 -0.3581
   42G     HO'2 1331   3.068   4.546   5.020 -2.0726  0.9801 -0.4149
   42G      O3' 1332   2.955   4.317   4.779 -0.4207 -0.4976 -0.1030
   43U        P 1333   3.005   4.336   4.627 -0.0658 -0.2924  0.0344
   43U      O1P 1334   2.884   4.371   4.548  0.4347  0.3711 -0.4431
   43U      O2P 1335   3.085   4.225   4.570  0.2193  0.1066 -0.3431
   43U      O5' 1336   3.099   4.465   4.643 -0.1644 -0.1974 -0.1419
   43U      C5' 1337   3.050   4.590   4.683 -0.1666 -0.2052 -0.1202
   43U     H5'1 1338   2.976   4.586   4.763  1.7037 -1.5334  1.6545
   43U     H5'2 1339   3.008   4.636   4.594 -0.7763  1.3907  0.9352
   43U      C4' 1340   3.165   4.685   4.718 -0.0242 -0.3249 -0.2621
   43U      H4' 1341   3.122   4.780   4.750  0.3177 -0.2915  0.1093
   43U      O4' 1342   3.245   4.641   4.826 -0.3014  0.2064  0.1699
   43U      C1' 1343   3.376   4.689   4.804 -0.2010 -0.2277 -0.2130
   43U      H1' 1344   3.410   4.751   4.887 -0.7894  0.1763 -0.2668
   43U       N1 1345   3.472   4.579   4.788  0.0162 -0.1427  0.4767
   43U       C6 1346   3.427   4.452   4.767  0.2282 -0.1985  0.3507
   43U       H6 1347   3.328   4.433   4.727  0.3079 -2.7687  1.1700
   43U       C5 1348   3.511   4.347   4.783  0.3556 -0.0893  0.3978
   43U       H5 1349   3.476   4.248   4.758 -1.8178  0.6352  0.3231
   43U       C4 1350   3.652   4.363   4.809  0.3366  0.2220  0.3228
   43U       O4 1351   3.739   4.277   4.817  0.1343 -0.0649 -0.4737
   43U       N3 1352   3.690   4.495   4.829  0.6278  0.1812  0.0477
   43U       H3 1353   3.787   4.513   4.849  0.7791  0.6803 -1.0791
   43U       C2 1354   3.605   4.604   4.819  0.1680 -0.1889 -0.1165
   43U       O2 1355   3.649   4.718   4.820  0.3543 -0.2602 -0.3222
   43U      C3' 1356   3.258   4.701   4.599  0.4101 -0.5099  0.0488
   43U      H3' 1357   3.294   4.609   4.553  0.4900 -0.6566  0.3996
   43U      C2' 1358   3.374   4.766   4.673 -0.1519  0.3940  0.1481
   43U     H2'1 1359   3.471   4.764   4.623 -0.3744  0.8632 -0.3148
   43U      O2' 1360   3.349   4.902   4.700  0.0540  0.4199  0.2091
   43U     HO'2 1361   3.429   4.941   4.738  0.7839 -2.6956  2.2111
   43U      O3' 1362   3.203   4.780   4.496  0.3039 -0.4791  0.1303
   44A        P 1363   3.260   4.791   4.346 -0.0349 -0.0565  0.0295
   44A      O1P 1364   3.181   4.899   4.283 -0.2411 -0.3331 -0.1892
   44A      O2P 1365   3.250   4.655   4.289  0.1282 -0.3157  0.6156
   44A      O5' 1366   3.415   4.833   4.353 -0.1163  0.3175 -0.4084
   44A      C5' 1367   3.456   4.966   4.378  0.4483  0.1162 -0.2454
   44A     H5'1 1368   3.399   5.009   4.460  1.9777 -2.7014  2.4925
   44A     H5'2 1369   3.437   5.022   4.286 -0.9142 -0.0488 -0.0887
   44A      C4' 1370   3.600   4.992   4.420  0.3630 -0.0196  0.1347
   44A      H4' 1371   3.616   5.093   4.458  2.7949  0.2394 -1.3120
   44A      O4' 1372   3.639   4.912   4.529  0.0271 -0.2254  0.1053
   44A      C1' 1373   3.776   4.877   4.519 -0.0042 -0.2058 -0.4204
   44A      H1' 1374   3.821   4.922   4.607 -0.6026 -0.6133  0.1049
   44A       N9 1375   3.790   4.730   4.523 -0.6793 -0.2557  0.5431
   44A       C8 1376   3.699   4.634   4.487 -0.3198 -0.3542 -0.1246
   44A       H8 1377   3.597   4.658   4.460 -0.1276  2.0634  1.0850
   44A       N7 1378   3.745   4.513   4.502  0.2044 -0.1430  0.0062
   44A       C5 1379   3.876   4.524   4.547 -0.0355  0.2222  0.6162
   44A       C6 1380   3.983   4.438   4.576 -0.0629 -0.1031 -0.2159
   44A       N6 1381   3.975   4.305   4.590 -0.0722 -0.1294 -0.4589
   44A      H61 1382   3.886   4.262   4.574  0.0717 -0.4090 -0.5109
   44A      H62 1383   4.057   4.252   4.617 -0.5008 -0.7963 -0.4446
   44A       N1 1384   4.107   4.486   4.587  0.0393 -0.4372  0.1387
   44A       C2 1385   4.124   4.618   4.589  0.4744 -0.4840 -0.1263
   44A       H2 1386   4.226   4.649   4.600  0.6534 -0.8985 -0.5865
   44A       N3 1387   4.026   4.707   4.581  0.2696 -0.7197 -0.2744
   44A       C4 1388   3.903   4.658   4.551 -0.1266  0.2719 -0.3001
   44A      C3' 1389   3.701   4.965   4.308  0.1937 -0.0774 -0.0044
   44A      H3' 1390   3.672   4.873   4.257  0.2286  0.7713 -1.6041
   44A      C2' 1391   3.827   4.944   4.392  0.3769 -0.3566 -0.3478
   44A     H2'1 1392   3.898   4.883   4.336 -0.2495  0.2302 -1.8440
   44A      O2' 1393   3.887   5.065   4.431 -0.2894 -0.1772  0.1432
   44A     HO'2 1394   3.978   5.046   4.456 -0.2286 -3.1263 -1.8109
   44A      O3' 1395   3.709   5.072   4.218  0.1212  0.1199  0.2232
   45G        P 1396   3.755   5.037   4.068  0.2122  0.4640  0.1681
   45G      O1P 1397   3.739   5.150   3.974 -0.4447  0.2330 -0.0064
   45G      O2P 1398   3.689   4.907   4.040  0.1209  0.4823  0.3005
   45G      O5' 1399   3.912   5.014   4.091  0.2631  0.4374 -0.1992
   45G      C5' 1400   4.006   5.118   4.100 -0.2768  0.8672  0.4917
   45G     H5'1 1401   3.979   5.185   4.183  1.3587  4.8159 -1.8585
   45G     H5'2 1402   4.009   5.171   4.005  2.2827 -1.2975 -0.7287
   45G      C4' 1403   4.140   5.052   4.133 -0.4223  0.0912 -0.4525
   45G      H4' 1404   4.219   5.118   4.168 -0.7952 -1.2962  3.4219
   45G      O4' 1405   4.130   4.965   4.243 -0.1859  0.5093 -0.0975
   45G      C1' 1406   4.229   4.866   4.230 -0.3794  0.3025 -0.0074
   45G      H1' 1407   4.310   4.861   4.304  0.5867 -1.0640 -1.0898
   45G       N9 1408   4.167   4.732   4.228  0.2744 -0.0071  0.0297
   45G       C8 1409   4.039   4.700   4.190  0.3115 -0.3595  0.1977
   45G       H8 1410   3.973   4.773   4.146  1.3080 -0.2861 -1.2902
   45G       N7 1411   4.012   4.574   4.209  0.1259 -0.4165 -0.4244
   45G       C5 1412   4.133   4.521   4.254 -0.0812 -0.1900  0.4147
   45G       C6 1413   4.170   4.387   4.281  0.0521 -0.2018  0.1726
   45G       O6 1414   4.107   4.283   4.269  0.1251 -0.2111 -0.1605
   45G       N1 1415   4.303   4.366   4.317  0.2748  0.1742 -0.4089
   45G       H1 1416   4.327   4.271   4.338 -1.0640 -0.3416 -1.0580
   45G       C2 1417   4.396   4.468   4.311  0.5090 -0.0019  0.2605
   45G       N2 1418   4.521   4.440   4.350  0.3942  0.0371  0.6613
   45G      H21 1419   4.547   4.343   4.366  1.0651  0.0567 -0.2562
   45G      H22 1420   4.594   4.509   4.338 -0.5718  0.9562 -0.0030
   45G       N3 1421   4.362   4.595   4.292  0.0642 -0.2279 -0.4878
   45G       C4 1422   4.232   4.616   4.261 -0.1364 -0.1307  0.4039
   45G      C3' 1423   4.194   4.969   4.017 -0.1074  0.0782 -0.2962
   45G      H3' 1424   4.111   4.902   3.997 -1.0181 -0.3457  3.9684
   45G      C2' 1425   4.298   4.889   4.096 -0.3273  0.0613 -0.0227
   45G     H2'1 1426   4.322   4.796   4.045  1.0496 -0.0004  0.7082
   45G      O2' 1427   4.422   4.956   4.096  0.0997 -0.7187  0.1669
   45G     HO'2 1428   4.498   4.898   4.094 -0.1951 -1.2884  2.4612
   45G      O3' 1429   4.245   5.040   3.906 -0.4818  0.1627 -0.4138
   46A        P 1430   4.273   4.967   3.765  0.0540 -0.1284 -0.1578
   46A      O1P 1431   4.330   5.063   3.668 -0.1233  0.2056  0.0641
   46A      O2P 1432   4.142   4.910   3.728  0.1984 -0.3225 -0.3681
   46A      O5' 1433   4.372   4.845   3.799 -0.0168 -0.1367  0.0216
   46A      C5' 1434   4.509   4.877   3.806  0.0790 -0.4536 -0.3401
   46A     H5'1 1435   4.533   4.954   3.879 -0.2308  0.6851 -1.4006
   46A     H5'2 1436   4.539   4.931   3.716 -0.4683  1.5498  0.6114
   46A      C4' 1437   4.607   4.765   3.839  0.4644  0.0347  0.1812
   46A      H4' 1438   4.702   4.815   3.856  0.0246  1.9219 -2.3398
   46A      O4' 1439   4.564   4.696   3.954 -0.0998  0.0486 -0.0190
   46A      C1' 1440   4.592   4.558   3.943 -0.1428  0.0434 -0.0629
   46A      H1' 1441   4.660   4.522   4.020  0.3796 -1.4146 -1.1781
   46A       N9 1442   4.469   4.476   3.942 -0.0493 -0.0991  0.0974
   46A       C8 1443   4.343   4.510   3.901 -0.1865 -0.2291  0.4104
   46A       H8 1444   4.324   4.609   3.863  0.9595  0.1996  0.9192
   46A       N7 1445   4.254   4.417   3.925 -0.2724 -0.3315 -0.2955
   46A       C5 1446   4.327   4.307   3.967  0.1833  0.0109 -0.1774
   46A       C6 1447   4.300   4.171   3.992  0.3217  0.0291  0.0859
   46A       N6 1448   4.180   4.116   3.969  0.2673  0.3147 -0.3337
   46A      H61 1449   4.100   4.175   3.948  0.4773  0.6098 -0.3132
   46A      H62 1450   4.172   4.019   3.996 -1.6532  0.1076 -1.4025
   46A       N1 1451   4.397   4.094   4.041  0.0740 -0.0604  0.4387
   46A       C2 1452   4.519   4.144   4.053  0.1084  0.0703 -0.4021
   46A       H2 1453   4.589   4.074   4.097  0.1966  0.0901 -0.5109
   46A       N3 1454   4.562   4.261   4.008  0.4017  0.2351  0.2923
   46A       C4 1455   4.459   4.342   3.972  0.3080 -0.3460 -0.8207
   46A      C3' 1456   4.611   4.659   3.729 -0.4715  0.0817  0.0969
   46A      H3' 1457   4.511   4.644   3.689  0.1108 -0.7088 -1.0959
   46A      C2' 1458   4.663   4.540   3.810 -0.4100 -0.0852 -0.1896
   46A     H2'1 1459   4.627   4.445   3.771 -0.8643 -0.0240  0.0789
   46A      O2' 1460   4.801   4.536   3.840 -0.3474 -0.6503 -0.5373
   46A     HO'2 1461   4.853   4.568   3.767  0.8082  0.8797  0.8726
   46A      O3' 1462   4.693   4.691   3.620 -0.3359 -0.0722  0.1537
   47G        P 1463   4.675   4.612   3.481 -0.3987  0.2851 -0.0444
   47G      O1P 1464   4.773   4.673   3.389 -0.2047  0.7497  0.4657
   47G      O2P 1465   4.529   4.611   3.454 -0.4712 -0.1931  0.3363
   47G      O5' 1466   4.713   4.457   3.507  0.1734  0.4951  0.3858
   47G      C5' 1467   4.846   4.412   3.521  0.0734  0.1570  0.2523
   47G     H5'1 1468   4.887   4.483   3.593  0.2629  0.6071 -0.2922
   47G     H5'2 1469   4.895   4.429   3.425  0.9998  0.8840  0.8429
   47G      C4' 1470   4.864   4.267   3.563 -0.3108 -0.0268 -0.1997
   47G      H4' 1471   4.971   4.250   3.577 -0.4933  0.0901  1.6812
   47G      O4' 1472   4.797   4.245   3.685 -0.1111  0.3095 -0.0284
   47G      C1' 1473   4.752   4.112   3.675 -0.2553  0.3474  0.1050
   47G      H1' 1474   4.791   4.046   3.752  0.9767  2.0141  0.9768
   47G       N9 1475   4.605   4.104   3.678 -0.2456 -0.1195 -0.4660
   47G       C8 1476   4.511   4.201   3.654 -0.2742 -0.0212  0.0375
   47G       H8 1477   4.540   4.297   3.614 -1.2356  0.4181  0.3723
   47G       N7 1478   4.387   4.165   3.668 -0.3853 -0.1877 -1.2775
   47G       C5 1479   4.394   4.031   3.703 -0.1158  0.2543  0.4469
   47G       C6 1480   4.294   3.933   3.724  0.1894 -0.1966 -0.1634
   47G       O6 1481   4.172   3.938   3.711  0.2506  0.6204 -0.4442
   47G       N1 1482   4.341   3.806   3.756 -0.1246 -0.0766  0.8181
   47G       H1 1483   4.276   3.731   3.775  1.0737 -1.4647 -0.2553
   47G       C2 1484   4.477   3.780   3.759 -0.0037  0.4047 -0.1827
   47G       N2 1485   4.511   3.654   3.790 -0.0156  0.4107 -0.1473
   47G      H21 1486   4.434   3.589   3.781  0.1696  0.1378  0.2462
   47G      H22 1487   4.607   3.622   3.791  0.3515  1.4523 -0.3497
   47G       N3 1488   4.572   3.871   3.739  0.2471  0.2611  0.3553
   47G       C4 1489   4.526   3.996   3.712 -0.1479  0.2997  1.1730
   47G      C3' 1490   4.814   4.174   3.453  0.1487 -0.2608 -0.2148
   47G      H3' 1491   4.713   4.199   3.420  1.0213  2.1674 -1.3015
   47G      C2' 1492   4.805   4.052   3.545 -0.0498  0.1283  0.2885
   47G     H2'1 1493   4.747   3.976   3.493  0.5004  1.0268 -1.7900
   47G      O2' 1494   4.929   3.986   3.556 -0.1190 -0.1927 -0.7143
   47G     HO'2 1495   4.993   4.028   3.498  1.0371  0.4267  0.9265
   47G      O3' 1496   4.894   4.140   3.342  0.2000  0.2334 -0.3324
   48U        P 1497   4.827   4.109   3.199 -0.0825  0.0054 -0.1511
   48U      O1P 1498   4.928   4.110   3.091 -0.6526 -0.0550 -0.6918
   48U      O2P 1499   4.714   4.203   3.176 -0.1163 -0.0045 -0.0233
   48U      O5' 1500   4.763   3.962   3.210  0.1435 -0.1132 -0.4153
   48U      C5' 1501   4.844   3.847   3.227  0.2348 -0.0178 -0.1950
   48U     H5'1 1502   4.922   3.865   3.300 -0.8119  0.4310  0.8520
   48U     H5'2 1503   4.887   3.827   3.129  0.1492 -0.2977 -0.1768
   48U      C4' 1504   4.773   3.720   3.273  0.6664 -0.2441 -0.1527
   48U      H4' 1505   4.850   3.644   3.284  0.2575 -0.5047  1.0943
   48U      O4' 1506   4.707   3.728   3.397 -0.1974 -0.2374 -0.5999
   48U      C1' 1507   4.588   3.653   3.397 -0.3099 -0.0722  0.2399
   48U      H1' 1508   4.592   3.582   3.479  0.0189 -0.2497  0.0689
   48U       N1 1509   4.469   3.740   3.399 -0.4032 -0.1815 -0.3204
   48U       C6 1510   4.479   3.876   3.389 -0.0725 -0.1775  0.0431
   48U       H6 1511   4.575   3.922   3.370  0.5622 -1.2465  0.5711
   48U       C5 1512   4.368   3.954   3.397 -0.0715 -0.1866  0.1567
   48U       H5 1513   4.373   4.060   3.380  2.9460 -0.1769  0.3984
   48U       C4 1514   4.238   3.895   3.413 -0.1073 -0.0144  0.5098
   48U       O4 1515   4.134   3.961   3.417 -0.1325  0.0051 -0.2847
   48U       N3 1516   4.236   3.757   3.429  0.1335  0.0104  0.7671
   48U       H3 1517   4.147   3.716   3.455 -0.3641  0.4140 -0.2251
   48U       C2 1518   4.349   3.677   3.425 -0.1716 -0.4041  0.2140
   48U       O2 1519   4.336   3.557   3.449  0.5969 -0.4746  0.3230
   48U      C3' 1520   4.667   3.654   3.185  0.1624 -0.1555  0.3791
   48U      H3' 1521   4.603   3.734   3.147  1.3732  0.5740 -0.2272
   48U      C2' 1522   4.588   3.561   3.275 -0.0043 -0.1170  0.2730
   48U     H2'1 1523   4.486   3.532   3.248  0.0351  0.1129 -0.1231
   48U      O2' 1524   4.672   3.451   3.302 -0.0585 -0.3126 -0.3444
   48U     HO'2 1525   4.731   3.447   3.226 -1.2034 -0.5812 -1.2548
   48U      O3' 1526   4.731   3.585   3.079 -0.2520  0.0401  0.0003
   49C        P 1527   4.673   3.588   2.929  0.2752 -0.3574 -0.2118
   49C      O1P 1528   4.779   3.527   2.846 -0.0105  0.0996 -0.9235
   49C      O2P 1529   4.626   3.725   2.897 -0.2242 -0.4093  0.2804
   49C      O5' 1530   4.539   3.499   2.926 -0.2752  0.4365  0.4419
   49C      C5' 1531   4.555   3.361   2.950 -0.4818  0.3516  0.1084
   49C     H5'1 1532   4.637   3.345   3.020  1.0144 -1.0909 -1.8749
   49C     H5'2 1533   4.592   3.326   2.854  1.8701 -0.7126  1.3253
   49C      C4' 1534   4.427   3.290   2.991 -0.3580  0.0035 -0.1110
   49C      H4' 1535   4.460   3.186   3.000  1.1797  0.3171 -1.5801
   49C      O4' 1536   4.377   3.335   3.114 -0.0898  0.7168 -0.2592
   49C      C1' 1537   4.236   3.338   3.118 -0.1046 -0.0963  0.2463
   49C      H1' 1538   4.190   3.285   3.201  0.9624  1.5129  1.9183
   49C       N1 1539   4.180   3.475   3.124  0.2761  0.0583  0.3164
   49C       C6 1540   4.254   3.588   3.104 -0.0587  0.1544 -0.4220
   49C       H6 1541   4.357   3.576   3.075 -0.4635  1.5267 -2.6924
   49C       C5 1542   4.205   3.713   3.115 -0.0495  0.1231  0.0068
   49C       H5 1543   4.261   3.802   3.093 -2.6984  1.7215 -0.7609
   49C       C4 1544   4.063   3.714   3.135 -0.0796 -0.1745 -0.1773
   49C       N4 1545   3.995   3.830   3.133 -0.0567 -0.1481  0.3088
   49C      H41 1546   4.044   3.919   3.138  0.3533 -0.4370  3.9944
   49C      H42 1547   3.897   3.828   3.156  0.1763 -0.7699  1.3010
   49C       N3 1548   3.990   3.605   3.161 -0.3357 -0.0779 -0.4787
   49C       C2 1549   4.048   3.482   3.166  0.1482  0.1622 -0.0925
   49C       O2 1550   3.978   3.386   3.200 -0.0052  0.4298  0.3510
   49C      C3' 1551   4.311   3.300   2.892 -0.2862 -0.1297 -0.2093
   49C      H3' 1552   4.317   3.405   2.864 -2.9680  0.7813  2.1202
   49C      C2' 1553   4.195   3.270   2.987  0.1018 -0.2100  0.2410
   49C     H2'1 1554   4.109   3.319   2.942 -0.6876 -1.0497  0.7942
   49C      O2' 1555   4.173   3.131   2.992 -0.0879 -0.1868  0.0628
   49C     HO'2 1556   4.192   3.110   2.901 -0.8039  1.2869 -0.4664
   49C      O3' 1557   4.333   3.212   2.785  0.1634 -0.4283  0.1263
   50G        P 1558   4.246   3.234   2.651  0.7056  0.4109 -0.0895
   50G      O1P 1559   4.272   3.114   2.568 -0.7674 -0.0180  0.0533
   50G      O2P 1560   4.273   3.368   2.594 -0.1908  0.5882 -0.1050
   50G      O5' 1561   4.090   3.216   2.686  0.5727  0.1855 -0.7853
   50G      C5' 1562   4.011   3.100   2.695  0.0278  0.5941 -0.2457
   50G     H5'1 1563   4.070   3.034   2.758 -0.0533  2.1313  1.5018
   50G     H5'2 1564   4.001   3.063   2.593  1.5582 -0.0274 -0.1951
   50G      C4' 1565   3.874   3.130   2.754 -0.1059  0.0212 -0.2560
   50G      H4' 1566   3.816   3.038   2.761 -1.4380  0.9015  1.0112
   50G      O4' 1567   3.867   3.201   2.875  0.1856  0.1417 -0.3096
   50G      C1' 1568   3.745   3.271   2.885  0.1422  0.0102  0.1232
   50G      H1' 1569   3.694   3.242   2.977  0.7863 -1.2211  0.1105
   50G       N9 1570   3.774   3.415   2.898  0.3970 -0.0337  0.0351
   50G       C8 1571   3.891   3.480   2.869  0.2908 -0.2496 -0.9300
   50G       H8 1572   3.983   3.427   2.849 -0.7855 -3.2092  1.2534
   50G       N7 1573   3.883   3.610   2.877  0.2328 -0.3159  0.4096
   50G       C5 1574   3.753   3.634   2.922  0.3404 -0.1511  0.6328
   50G       C6 1575   3.681   3.754   2.943 -0.3379 -0.2870 -0.7914
   50G       O6 1576   3.727   3.868   2.941  0.0327 -0.4112  0.2627
   50G       N1 1577   3.546   3.744   2.973 -0.2288 -0.1762 -0.2606
   50G       H1 1578   3.484   3.823   2.981  0.9029  0.7167  0.0405
   50G       C2 1579   3.491   3.617   2.986  0.4327 -0.3824  0.6403
   50G       N2 1580   3.365   3.614   3.031  0.0422 -0.4345 -0.4355
   50G      H21 1581   3.316   3.702   3.024 -1.4867 -1.0567  1.6541
   50G      H22 1582   3.312   3.529   3.032  1.9161 -1.6783 -1.0440
   50G       N3 1583   3.555   3.502   2.963  0.1119 -0.3148 -0.6363
   50G       C4 1584   3.685   3.515   2.929  0.1040 -0.0994 -0.5820
   50G      C3' 1585   3.793   3.218   2.658  0.0370  0.2436 -0.1737
   50G      H3' 1586   3.851   3.304   2.622 -1.2144  0.6932 -1.1697
   50G      C2' 1587   3.676   3.252   2.750  0.1121 -0.5331  0.2151
   50G     H2'1 1588   3.633   3.343   2.710 -3.1430 -1.3567  1.5574
   50G      O2' 1589   3.587   3.143   2.760 -0.3433 -0.1522  0.3096
   50G     HO'2 1590   3.544   3.138   2.674  2.4432 -1.0824 -1.1626
   50G      O3' 1591   3.749   3.145   2.546  0.0404  0.4298 -0.2963
   50G      H3T 1592   3.789   3.190   2.471  0.5853 -0.6813 -0.6921
   51SOL     OW 1593   1.859   0.837  11.652  0.4672 -0.3182 -0.9124
   51SOL    HW1 1594   1.919   0.816  11.723 -2.9813  0.5562  2.6113
   51SOL    HW2 1595   1.822   0.753  11.626  1.6413 -0.6257 -1.7025
   52SOL     OW 1596   7.494   6.725   0.169  0.7646  0.6720  0.6551
   52SOL    HW1 1597   7.429   6.794   0.158  0.1123  0.0403  0.5028
   52SOL    HW2 1598   7.560   6.745   0.103  1.4253  2.0774  1.6771
   53SOL     OW 1599   0.265   1.897  12.324  0.1560  0.1396  0.5854
   53SOL    HW1 1600   0.241   1.809  12.296  1.4110  0.2123 -0.8269
   53SOL    HW2 1601   0.192   1.952  12.296 -0.0596 -0.2644  0.3454
   54SOL     OW 1602   1.075   0.737   1.262  0.1164  0.1930 -0.3150
   54SOL    HW1 1603   1.049   0.645   1.267 -1.3305  0.5638 -0.3848
   54SOL    HW2 1604   1.150   0.744   1.321 -0.2826 -0.8652  0.3606
   55SOL     OW 1605   1.584   0.234   2.401 -0.2407 -0.0641 -0.3007
   55SOL    HW1 1606   1.672   0.196   2.410 -0.1739  0.2530  0.4813
   55SOL    HW2 1607   1.530   0.181   2.459 -0.4280  0.1511 -0.2787
   56SOL     OW 1608   0.257   5.554   2.280  0.1346 -0.0155  0.1838
   56SOL    HW1 1609   0.218   5.510   2.204  1.3137 -0.7308 -0.0235
   56SOL    HW2 1610   0.302   5.630   2.244  0.1798 -0.0165  0.2380
   57SOL     OW 1611   3.564   7.927   0.712 -0.2088 -0.1300 -0.1467
   57SOL    HW1 1612   3.642   7.982   0.698 -0.0475 -0.1000  0.7726
   57SOL    HW2 1613   3.559   7.872   0.634  0.2013  0.5100 -0.6355
   58SOL     OW 1614   0.804   1.557   0.397  0.5787 -0.0095 -0.5567
   58SOL    HW1 1615   0.842   1.624   0.340  0.4200 -0.3721 -1.0947
   58SOL    HW2 1616   0.866   1.550   0.470  0.7733  0.4734 -0.6726
   59SOL     OW 1617   1.150   1.078   2.906  0.2716  0.0484 -0.8551
   59SOL    HW1 1618   1.072   1.120   2.870 -0.0645  0.3962  0.2336
   59SOL    HW2 1619   1.153   0.992   2.864 -0.4049  0.2252 -1.2833
   60SOL     OW 1620   0.805   6.908  11.852 -0.3316  0.1715 -0.1156
   60SOL    HW1 1621   0.769   6.826  11.818 -0.0793 -0.4470  1.0443
   60SOL    HW2 1622   0.880   6.881  11.905 -0.0560  1.1851  0.0372
   61SOL     OW 1623   1.086   0.611   2.243  0.0772  0.3407 -1.0343
   61SOL    HW1 1624   1.060   0.533   2.193 -0.5143  0.6132 -1.1609
   61SOL    HW2 1625   1.132   0.576   2.319 -0.7770 -0.1767 -0.7401
   62SOL     OW 1626   0.200   1.556  12.491 -0.7020 -0.2434 -0.2211
   62SOL    HW1 1627   0.204   1.461  12.495  1.3425 -0.2114 -0.1832
   62SOL    HW2 1628   0.283   1.582  12.452 -1.2708  1.5278 -0.3626
   63SOL     OW 1629   2.524   2.689   1.218  0.1398 -0.1727  0.3149
   63SOL    HW1 1630   2.609   2.711   1.255  0.2606 -1.9489  1.2202
   63SOL    HW2 1631   2.519   2.739   1.137  0.7804  2.2234  1.6565
   64SOL     OW 1632   0.697   0.141  12.246 -0.1952  0.0831  0.5081
   64SOL    HW1 1633   0.609   0.102  12.255 -0.2941 -0.5958 -2.2375
   64SOL    HW2 1634   0.753   0.086  12.300 -1.4062  0.4270  2.1924
   65SOL     OW 1635   1.576   6.828  12.247 -0.5019 -0.1529  0.1707
   65SOL    HW1 1636   1.593   6.915  12.285  0.5211 -0.1015 -0.3669
   65SOL    HW2 1637   1.574   6.844  12.153 -0.7394 -0.6553  0.0911
   66SOL     OW 1638   2.376   1.060   1.142  0.1882  0.2625 -0.0636
   66SOL    HW1 1639   2.306   1.047   1.207  0.4963  1.9612  0.6485
   66SOL    HW2 1640   2.335   1.111   1.073  0.2944 -0.1657 -0.4465
   67SOL     OW 1641   1.737   1.613   3.679 -0.9186 -0.6143  0.0345
   67SOL    HW1 1642   1.744   1.688   3.738 -1.0921  1.6126 -2.5415
   67SOL    HW2 1643   1.645   1.587   3.682 -0.6133 -1.6203  1.8779
   68SOL     OW 1644   1.538   0.977  10.563 -0.1298  0.0731 -0.0705
   68SOL    HW1 1645   1.509   0.924  10.637  0.7831  0.5598  0.6430
   68SOL    HW2 1646   1.516   0.924  10.486 -1.8073 -0.0981  0.4825
   69SOL     OW 1647   0.570   7.518   1.768 -0.1725  0.0092  0.1870
   69SOL    HW1 1648   0.482   7.527   1.733  0.3997 -0.2192 -1.3821
   69SOL    HW2 1649   0.559   7.525   1.863 -1.5948  2.3911 -0.0651
   70SOL     OW 1650   0.858   2.141   2.447 -0.3528  0.2677  0.0152
   70SOL    HW1 1651   0.887   2.186   2.368  0.5827 -0.1107  0.1249
   70SOL    HW2 1652   0.812   2.063   2.416 -1.1401  0.8020 -0.1650
   71SOL     OW 1653   2.664   0.243  10.806 -0.4674 -0.2416  0.3230
   71SOL    HW1 1654   2.648   0.198  10.723 -1.5315 -0.6202  0.7108
   71SOL    HW2 1655   2.756   0.226  10.825 -0.6169 -1.5413  0.0177
   72SOL     OW 1656   7.224   6.317   2.532  0.8906 -0.3030  0.2366
   72SOL    HW1 1657   7.153   6.375   2.505 -0.6225 -2.8524 -1.7245
   72SOL    HW2 1658   7.226   6.324   2.628  1.3436  3.4178  0.0982
   73SOL     OW 1659   0.122   6.051  11.778 -0.2669  0.1674  0.9801
   73SOL    HW1 1660   0.092   5.961  11.791 -1.0235  0.3838  0.7716
   73SOL    HW2 1661   0.199   6.043  11.723 -0.7134 -0.3130  0.4179
   74SOL     OW 1662   2.050   0.775   0.235  0.4823 -0.4867 -0.1630
   74SOL    HW1 1663   2.034   0.854   0.183  0.5496 -1.0499 -1.0491
   74SOL    HW2 1664   1.996   0.708   0.194  0.6665 -0.9807  0.3970
   75SOL     OW 1665   0.258   1.798  11.212  0.6515 -0.2399 -0.2844
   75SOL    HW1 1666   0.269   1.857  11.138 -1.4838 -0.1488 -0.5770
   75SOL    HW2 1667   0.235   1.855  11.286 -0.7506 -0.5998 -0.4129
   76SOL     OW 1668   2.476   1.062   1.836 -0.4536 -1.0184  0.0053
   76SOL    HW1 1669   2.479   0.980   1.787 -0.8459 -0.7778 -0.4301
   76SOL    HW2 1670   2.558   1.063   1.886 -0.0834 -1.3036 -0.5838
   77SOL     OW 1671   4.389   0.123   0.436  0.2391  0.0731  0.0289
   77SOL    HW1 1672   4.451   0.171   0.491 -0.4551 -1.7219  2.5503
   77SOL    HW2 1673   4.411   0.031   0.451 -0.0051 -0.5163 -2.7785
   78SOL     OW 1674   7.954   7.414   0.765 -0.0525  0.1803  0.0211
   78SOL    HW1 1675   7.879   7.470   0.745 -0.3024 -1.2137 -3.9503
   78SOL    HW2 1676   7.928   7.327   0.734  1.9258 -1.2015  1.9130
   79SOL     OW 1677   1.309   7.773   0.427 -0.0657  0.5189 -0.1537
   79SOL    HW1 1678   1.327   7.729   0.510  0.1001 -1.9374 -1.3823
   79SOL    HW2 1679   1.376   7.841   0.419  0.0557  0.6289  1.5717
   80SOL     OW 1680   1.132   7.416   1.333 -0.1978 -0.0428 -0.7761
   80SOL    HW1 1681   1.110   7.461   1.414  0.0453 -0.4488 -0.4849
   80SOL    HW2 1682   1.169   7.485   1.277  0.2783  0.0971 -0.2939
   81SOL     OW 1683   2.446   1.551  12.105  0.2837  0.3280  0.3094
   81SOL    HW1 1684   2.464   1.484  12.039  0.8985  0.4759  0.3275
   81SOL    HW2 1685   2.429   1.631  12.053  0.5013  0.3827  0.3239
   82SOL     OW 1686   7.377   1.192   2.868 -0.2401  0.5661  0.2555
   82SOL    HW1 1687   7.450   1.156   2.817 -0.9304  1.0530 -1.1329
   82SOL    HW2 1688   7.321   1.118   2.887 -0.7231  0.6001 -0.9918
   83SOL     OW 1689   2.124   1.258   1.513  0.0249  0.3612 -0.2057
   83SOL    HW1 1690   2.215   1.231   1.504  0.9448  3.1067 -0.2256
   83SOL    HW2 1691   2.128   1.334   1.572 -2.2090  0.7278 -0.4521
   84SOL     OW 1692   1.387   2.028   3.797  1.0927 -0.5059 -0.0958
   84SOL    HW1 1693   1.409   1.958   3.858  3.1870  2.0887  2.3884
   84SOL    HW2 1694   1.342   2.093   3.850 -0.8474  0.1109 -2.3249
   85SOL     OW 1695   0.315   0.424   0.930  0.7416  0.1004  0.5289
   85SOL    HW1 1696   0.281   0.348   0.978  1.2232 -0.3408  0.1830
   85SOL    HW2 1697   0.259   0.431   0.852  1.9420 -1.1540 -0.4876
   86SOL     OW 1698   2.843   1.188   2.368  0.1169 -0.1840 -0.2435
   86SOL    HW1 1699   2.766   1.212   2.419 -0.7883 -2.4641 -0.4390
   86SOL    HW2 1700   2.820   1.210   2.278 -0.2606 -0.7367 -0.2841
   87SOL     OW 1701   1.494   7.592   1.734 -0.1852 -0.3425  0.0291
   87SOL    HW1 1702   1.475   7.523   1.671 -1.5274  0.5356 -0.5757
   87SOL    HW2 1703   1.409   7.617   1.769  0.3073  0.7884  0.4799
   88SOL     OW 1704   7.622   0.600  12.135  0.5890  0.1524  0.0533
   88SOL    HW1 1705   7.615   0.695  12.129 -0.5645  0.0212 -1.1310
   88SOL    HW2 1706   7.545   0.573  12.186  0.1964 -0.2296 -0.7188
   89SOL     OW 1707   2.813   0.838   1.688 -0.8952 -0.0202 -0.4541
   89SOL    HW1 1708   2.857   0.804   1.766 -1.5080 -1.5398 -0.7229
   89SOL    HW2 1709   2.849   0.786   1.616  0.8860  2.4580 -1.4850
   90SOL     OW 1710   2.312   1.116   2.033 -0.4275  0.4246 -0.4549
   90SOL    HW1 1711   2.379   1.097   1.967 -0.2835 -2.2544  0.3629
   90SOL    HW2 1712   2.336   1.203   2.066  1.6868  0.2362 -1.3150
   91SOL     OW 1713   0.529   5.365   1.435  0.3042 -0.0663  0.1780
   91SOL    HW1 1714   0.563   5.278   1.457 -1.8641 -1.1422 -0.4861
   91SOL    HW2 1715   0.544   5.417   1.515 -1.9928 -2.2238  2.1912
   92SOL     OW 1716   0.467   7.219   2.552  0.1091  0.7310  0.5414
   92SOL    HW1 1717   0.396   7.246   2.610 -0.7029  1.3328 -0.6865
   92SOL    HW2 1718   0.529   7.175   2.609 -2.0621 -1.4228  1.4181
   93SOL     OW 1719   2.030   2.215   3.807 -0.0320  0.5405 -0.1487
   93SOL    HW1 1720   2.112   2.262   3.792  0.7727 -0.9978 -0.7761
   93SOL    HW2 1721   2.002   2.188   3.719 -0.5154 -0.0897  0.1942
   94SOL     OW 1722   2.207   6.980   0.817 -0.0491 -0.6316  0.2573
   94SOL    HW1 1723   2.240   7.059   0.775  1.8487 -0.1116  2.5464
   94SOL    HW2 1724   2.285   6.929   0.838 -1.1973 -2.9850 -0.7783
   95SOL     OW 1725   1.035   7.293  10.962 -0.2593 -0.2948  0.3857
   95SOL    HW1 1726   1.018   7.247  10.880 -0.9827 -0.4576  0.6176
   95SOL    HW2 1727   1.130   7.295  10.970 -0.2092 -1.1268  0.0241
   96SOL     OW 1728   0.136   7.275   0.522 -0.5094 -0.4156 -0.1415
   96SOL    HW1 1729   0.210   7.264   0.462 -0.7494 -0.4784 -0.4296
   96SOL    HW2 1730   0.171   7.329   0.593  0.4361 -2.2270  0.8300
   97SOL     OW 1731   6.918   2.084   2.709  0.5059 -0.0653 -0.2951
   97SOL    HW1 1732   6.959   2.006   2.670  1.6510 -0.0439  0.8092
   97SOL    HW2 1733   6.880   2.130   2.634  1.0623 -0.9491 -1.1531
   98SOL     OW 1734   2.371   0.835  11.481  0.4268 -0.2684  0.2999
   98SOL    HW1 1735   2.320   0.851  11.401  1.2244  2.5885  0.2340
   98SOL    HW2 1736   2.453   0.797  11.449  0.7579  0.8934 -0.3129
   99SOL     OW 1737   2.174   1.613   2.943 -0.3371 -0.7637 -0.1260
   99SOL    HW1 1738   2.254   1.614   2.996  0.1251 -1.1026 -0.7997
   99SOL    HW2 1739   2.119   1.547   2.984 -0.5713 -0.0431  0.7584
  100SOL     OW 1740   0.559   1.544   0.169 -0.3905 -0.6756  0.2883
  100SOL    HW1 1741   0.606   1.461   0.166  0.1252 -0.3683 -0.9318
  100SOL    HW2 1742   0.506   1.545   0.089  0.5433  0.6677 -0.3648
  101SOL     OW 1743   0.685   0.113   0.079  0.0465  0.3542 -0.2153
  101SOL    HW1 1744   0.718   0.032   0.040 -0.8535 -0.5939  0.9061
  101SOL    HW2 1745   0.756   0.142   0.137  0.5147  0.5731 -0.8902
  102SOL     OW 1746   1.565   0.970   0.392  0.3907 -0.0402 -0.3043
  102SOL    HW1 1747   1.580   0.981   0.298 -0.4786  2.0131 -0.2577
  102SOL    HW2 1748   1.473   0.946   0.399  0.1822  0.8194  0.0494
  103SOL     OW 1749   6.304   0.141  12.465 -0.1217 -0.5896  0.0976
  103SOL    HW1 1750   6.269   0.157  12.553 -0.2093 -2.7204  0.5241
  103SOL    HW2 1751   6.231   0.099  12.419  0.5478 -1.3120 -0.3244
  104SOL     OW 1752   2.145   1.470   1.669  0.1537  0.1239  0.0818
  104SOL    HW1 1753   2.102   1.553   1.652 -0.1344  0.0976  0.6759
  104SOL    HW2 1754   2.209   1.489   1.738  1.2284  0.2004 -0.9059
  105SOL     OW 1755   0.174   0.866   1.820 -0.0477 -0.0856 -0.5084
  105SOL    HW1 1756   0.099   0.838   1.872 -0.9955  0.2683 -1.6452
  105SOL    HW2 1757   0.229   0.914   1.882 -0.9156 -0.0588  0.2700
  106SOL     OW 1758   1.026   7.654  11.835  0.0578  0.2396 -0.6839
  106SOL    HW1 1759   0.956   7.590  11.822 -0.8136  1.4360 -2.1544
  106SOL    HW2 1760   1.084   7.643  11.760 -1.5629  2.9095 -2.4918
  107SOL     OW 1761   2.746   0.583   2.859 -0.3676 -0.3227 -0.6431
  107SOL    HW1 1762   2.774   0.492   2.872  1.4735 -0.0022 -2.0940
  107SOL    HW2 1763   2.820   0.636   2.888 -0.3747  0.6328 -2.2569
  108SOL     OW 1764   6.758   6.745   1.230  0.1616  0.9829 -0.0788
  108SOL    HW1 1765   6.781   6.807   1.298 -0.0864  0.2819  0.6619
  108SOL    HW2 1766   6.709   6.797   1.166 -1.9932  1.1738  1.5842
  109SOL     OW 1767   1.540   2.316   0.231  0.2938 -0.0550  0.2430
  109SOL    HW1 1768   1.526   2.409   0.246  2.6454  0.3343  0.5038
  109SOL    HW2 1769   1.453   2.277   0.234 -0.8498  2.2354 -0.7236
  110SOL     OW 1770   0.169   6.284   0.431 -0.6421 -0.1708 -0.0509
  110SOL    HW1 1771   0.198   6.192   0.430 -0.3978 -0.1160  0.7488
  110SOL    HW2 1772   0.078   6.280   0.461 -1.4759 -0.3297 -2.4043
  111SOL     OW 1773   1.218   0.674   0.645 -0.3653  0.1196 -0.1084
  111SOL    HW1 1774   1.194   0.588   0.609  0.0244 -1.3768  2.8277
  111SOL    HW2 1775   1.147   0.696   0.705 -0.9040  2.3820 -1.4704
  112SOL     OW 1776   0.320   2.009  11.717 -0.4737  0.2659  0.6536
  112SOL    HW1 1777   0.268   1.975  11.644  0.9493  1.7015 -1.1356
  112SOL    HW2 1778   0.256   2.030  11.785 -2.2952  2.0539 -1.4864
  113SOL     OW 1779   0.682   6.858   1.038 -0.1353 -0.4281  0.2874
  113SOL    HW1 1780   0.724   6.803   1.104  0.8460 -0.3040 -0.2144
  113SOL    HW2 1781   0.592   6.825   1.032 -0.0872 -0.7683  1.3030
  114SOL     OW 1782   0.156   1.991   0.091  0.0868  0.6504 -0.0445
  114SOL    HW1 1783   0.188   1.989   0.000 -2.5202 -0.3188 -1.0408
  114SOL    HW2 1784   0.089   2.059   0.091 -2.2638 -1.4958  0.1850
  115SOL     OW 1785   0.028   0.667   1.084  0.0849 -0.7143  0.2045
  115SOL    HW1 1786   0.107   0.720   1.091 -0.5359  0.3583 -0.5798
  115SOL    HW2 1787   0.043   0.593   1.142  1.2470 -0.0071  0.8364
  116SOL     OW 1788   1.409   1.996   0.808  0.0458  0.2054  0.2341
  116SOL    HW1 1789   1.453   1.912   0.804 -0.6155 -0.0965 -1.8720
  116SOL    HW2 1790   1.478   2.060   0.791  0.1038 -0.0988 -0.7031
  117SOL     OW 1791   1.962   2.570   1.224  0.3949  0.6538  0.0297
  117SOL    HW1 1792   1.996   2.658   1.209 -0.7107  1.1086  0.0816
  117SOL    HW2 1793   1.935   2.570   1.316 -2.2521  1.2565 -0.6439
  118SOL     OW 1794   0.699   7.092  12.464  0.1756 -0.3888  0.1152
  118SOL    HW1 1795   0.609   7.075  12.434 -0.1183  0.2403  0.6250
  118SOL    HW2 1796   0.744   7.009  12.450 -0.2192 -0.4259 -1.0908
  119SOL     OW 1797   0.018   6.141   2.149 -0.0745 -0.0700  0.0554
  119SOL    HW1 1798   0.108   6.165   2.170 -0.5271  1.3212  0.5251
  119SOL    HW2 1799  -0.007   6.078   2.217 -0.5138  2.0695  1.9920
  120SOL     OW 1800   7.977   1.357   1.164  0.1389  0.0878 -0.0390
  120SOL    HW1 1801   7.983   1.267   1.132 -0.9932  0.4007 -1.2361
  120SOL    HW2 1802   8.060   1.372   1.208  0.3016 -1.5852  0.3075
  121SOL     OW 1803   1.075   7.956   3.100  0.6519  0.4017 -0.0735
  121SOL    HW1 1804   1.095   7.956   3.007 -0.9962 -1.2098 -0.4928
  121SOL    HW2 1805   1.050   8.046   3.119  0.8024  0.7033 -1.2394
  122SOL     OW 1806   1.168   1.988   1.345 -0.3211 -0.5426 -0.4889
  122SOL    HW1 1807   1.213   2.035   1.274 -1.8987  1.1404 -0.4562
  122SOL    HW2 1808   1.075   1.995   1.323 -0.8598  0.1582  1.7892
  123SOL     OW 1809   0.521   0.609  11.633  0.2170  0.4255 -0.0875
  123SOL    HW1 1810   0.476   0.554  11.569 -2.0363  0.5004  1.3190
  123SOL    HW2 1811   0.497   0.571  11.718  0.5261  2.1608  0.8162
  124SOL     OW 1812   0.997   7.861   0.421  0.1174 -0.2054 -0.5828
  124SOL    HW1 1813   0.938   7.901   0.485  1.2212  0.8586 -0.1693
  124SOL    HW2 1814   1.060   7.812   0.473  0.9284  0.5325 -0.8343
  125SOL     OW 1815   0.901   1.481  11.339  0.2299 -0.8673 -0.2877
  125SOL    HW1 1816   0.935   1.436  11.262  0.2477 -1.1068 -0.1405
  125SOL    HW2 1817   0.888   1.572  11.310 -4.0033 -1.7819 -1.9879
  126SOL     OW 1818   2.621   5.315  12.109  0.3982 -0.1910  0.2652
  126SOL    HW1 1819   2.622   5.222  12.086  1.0566 -0.2667  0.5568
  126SOL    HW2 1820   2.698   5.326  12.165 -0.6321  0.1641  1.6640
  127SOL     OW 1821   2.275   7.994  11.449  0.1833 -0.3853 -0.2432
  127SOL    HW1 1822   2.221   7.942  11.390 -1.8432  1.9098 -0.5747
  127SOL    HW2 1823   2.228   7.993  11.533  0.3406  0.4898 -0.1309
  128SOL     OW 1824   1.575   0.303   2.031 -0.0502 -0.3361 -0.6955
  128SOL    HW1 1825   1.567   0.397   2.049 -0.9163 -0.2889 -1.2733
  128SOL    HW2 1826   1.562   0.296   1.937 -3.5423 -1.3409 -0.2887
  129SOL     OW 1827   0.256   0.164  11.289 -0.2958 -0.8513 -0.3249
  129SOL    HW1 1828   0.338   0.161  11.239 -0.8456  0.9036 -1.4142
  129SOL    HW2 1829   0.242   0.257  11.306 -1.5565 -1.2106  0.7470
  130SOL     OW 1830   1.119   7.778   0.743  0.1593 -0.2110 -0.9724
  130SOL    HW1 1831   1.187   7.719   0.775 -0.7045 -0.7822 -0.1272
  130SOL    HW2 1832   1.162   7.863   0.737  0.7754 -0.4141  0.2394
  131SOL     OW 1833   1.435   7.925   1.046 -0.0012 -0.0538  0.4233
  131SOL    HW1 1834   1.510   7.868   1.065 -0.7774 -1.1568  0.2497
  131SOL    HW2 1835   1.416   7.909   0.954 -2.4346 -2.2588  1.1967
  132SOL     OW 1836   2.372   1.186   1.569 -0.1117  0.3451  0.0741
  132SOL    HW1 1837   2.428   1.144   1.504 -0.5446 -2.9123  1.6166
  132SOL    HW2 1838   2.409   1.160   1.653 -1.7023  1.3263  1.1183
  133SOL     OW 1839   7.261   6.616   1.028 -0.4729  0.5530 -0.5505
  133SOL    HW1 1840   7.310   6.542   0.992 -0.0589  0.4755  0.1525
  133SOL    HW2 1841   7.172   6.582   1.040 -0.0058 -0.2494  0.9405
  134SOL     OW 1842   0.853   7.203   0.726  0.0759 -0.2943 -0.1699
  134SOL    HW1 1843   0.812   7.202   0.639  0.5716 -1.2392 -0.4123
  134SOL    HW2 1844   0.881   7.293   0.738  0.9884 -0.3738 -1.4749
  135SOL     OW 1845   1.994   0.385  11.699 -0.5376  0.4345 -0.2921
  135SOL    HW1 1846   2.063   0.451  11.698  0.6797 -0.7498  1.4269
  135SOL    HW2 1847   2.040   0.302  11.690 -1.4702 -0.5342  2.7279
  136SOL     OW 1848   1.672   1.336  11.763  0.0357  0.1052  0.3525
  136SOL    HW1 1849   1.688   1.242  11.777  0.4681  0.1746  0.3596
  136SOL    HW2 1850   1.692   1.351  11.671  1.5934  0.4896  0.7152
  137SOL     OW 1851   0.832   1.193   0.572  0.3637  0.2486  0.3518
  137SOL    HW1 1852   0.831   1.164   0.481 -0.2624  0.2665  0.3484
  137SOL    HW2 1853   0.782   1.127   0.620 -0.1101  0.7172  0.5244
  138SOL     OW 1854   2.932   1.532  11.811  0.0103 -0.0481  0.2757
  138SOL    HW1 1855   3.014   1.582  11.808 -0.2537  0.4370  0.8485
  138SOL    HW2 1856   2.950   1.453  11.761  1.2129 -0.4866  1.3310
  139SOL     OW 1857   3.113   2.353   1.347  0.0588 -0.4042  0.1217
  139SOL    HW1 1858   3.205   2.341   1.325  0.1221  0.9783 -0.4641
  139SOL    HW2 1859   3.114   2.391   1.435  0.1223  0.9331 -0.4431
  140SOL     OW 1860   0.692   0.982   0.679  0.7053 -0.2251 -0.0241
  140SOL    HW1 1861   0.607   1.023   0.694 -0.0074 -1.4398 -0.5647
  140SOL    HW2 1862   0.706   0.928   0.757  1.6064  0.9497  0.6536
  141SOL     OW 1863   0.926   0.487   1.749  0.0566  0.2043 -0.2559
  141SOL    HW1 1864   1.003   0.541   1.734 -0.0877  0.4838  0.0088
  141SOL    HW2 1865   0.956   0.398   1.733 -0.0688  0.4652 -2.2311
  142SOL     OW 1866   0.070   0.613   1.406  0.3809 -0.2594 -0.0781
  142SOL    HW1 1867   0.014   0.611   1.484 -1.7634 -1.5257 -1.5562
  142SOL    HW2 1868   0.136   0.545   1.423 -2.1936 -3.1638 -0.7137
  143SOL     OW 1869   0.776   0.628  11.738  0.0640  0.4936 -0.4983
  143SOL    HW1 1870   0.830   0.622  11.660 -0.2361 -1.5173 -0.6156
  143SOL    HW2 1871   0.686   0.618  11.707 -0.1400  0.6845  0.0096
  144SOL     OW 1872   0.815   7.278   2.118 -0.2455 -0.2006  0.3179
  144SOL    HW1 1873   0.826   7.213   2.048  1.8880 -1.5427  1.7651
  144SOL    HW2 1874   0.800   7.360   2.072  1.2302 -1.0007 -1.7680
  145SOL     OW 1875   0.756   0.366   0.652  0.2129 -0.1794 -0.2416
  145SOL    HW1 1876   0.761   0.338   0.743  0.0462 -1.0839 -0.4950
  145SOL    HW2 1877   0.842   0.402   0.632 -0.1978  1.3956  0.6877
  146SOL     OW 1878   2.525   0.923   1.441 -0.4217  0.0815  0.3727
  146SOL    HW1 1879   2.502   0.881   1.523  1.3266 -0.8717  0.4110
  146SOL    HW2 1880   2.620   0.928   1.441 -0.4396  1.4076 -0.9538
  147SOL     OW 1881   0.804   0.631   1.940 -0.4345  0.0920  0.4837
  147SOL    HW1 1882   0.720   0.591   1.959 -1.3646  1.3172 -0.8262
  147SOL    HW2 1883   0.821   0.609   1.849  0.6094 -0.0269  0.6961
  148SOL     OW 1884   2.551   1.212   1.344 -0.0803  0.2274 -0.1709
  148SOL    HW1 1885   2.627   1.159   1.318 -0.5976  0.4529 -2.3601
  148SOL    HW2 1886   2.484   1.191   1.279 -2.3880 -0.8671  2.3663
  149SOL     OW 1887   1.913   6.912  12.235  0.5498  0.3834  0.1668
  149SOL    HW1 1888   1.905   6.884  12.326  2.1111 -2.3460 -0.4316
  149SOL    HW2 1889   1.980   6.855  12.198 -1.2822  0.1152 -3.1654
  150SOL     OW 1890   0.176   1.460   1.552 -0.3161  0.6826 -0.2620
  150SOL    HW1 1891   0.224   1.397   1.605  2.0343  1.8302 -0.8782
  150SOL    HW2 1892   0.126   1.512   1.615 -0.8774 -0.6044  0.3941
  151SOL     OW 1893   0.543   0.677  11.255  0.3500 -0.0950  0.6354
  151SOL    HW1 1894   0.462   0.714  11.222 -0.7022 -1.2910  1.7642
  151SOL    HW2 1895   0.593   0.753  11.286 -0.2845  0.6557 -0.1364
  152SOL     OW 1896   1.871   1.562   0.558  0.6097  0.6021 -0.1816
  152SOL    HW1 1897   1.907   1.614   0.486  1.4879  0.1957 -0.0509
  152SOL    HW2 1898   1.896   1.472   0.537  1.1232  0.5115  0.7737
  153SOL     OW 1899   0.114   5.891   1.063  0.1167 -0.3651 -0.2931
  153SOL    HW1 1900   0.034   5.924   1.023 -0.6473 -1.9798 -0.1774
  153SOL    HW2 1901   0.084   5.829   1.130  1.4428 -0.4854  0.2252
  154SOL     OW 1902   0.902   0.029   1.614  0.0271  0.1298 -0.6699
  154SOL    HW1 1903   0.924  -0.010   1.529  1.1097 -0.1953 -0.2623
  154SOL    HW2 1904   0.933  -0.035   1.678 -2.3743 -0.4499 -0.0185
  155SOL     OW 1905   1.179   0.615   0.031 -0.0940  0.3314 -0.0913
  155SOL    HW1 1906   1.233   0.692   0.044  1.5935 -0.6889 -0.7872
  155SOL    HW2 1907   1.241   0.542   0.023 -1.4749 -0.7371 -2.0267
  156SOL     OW 1908   1.555   0.088   0.687  0.0337  0.2554 -0.3683
  156SOL    HW1 1909   1.550   0.143   0.609 -1.1719  0.2540 -0.3165
  156SOL    HW2 1910   1.502   0.135   0.752  0.0045 -0.3647  0.0599
  157SOL     OW 1911   0.463   7.220   2.241 -0.2228  0.5305  0.2787
  157SOL    HW1 1912   0.489   7.131   2.218  0.3458  0.6697  0.3690
  157SOL    HW2 1913   0.484   7.228   2.334 -0.1116  0.8140  0.2300
  158SOL     OW 1914   1.078   1.103   0.777 -0.3473  0.1515  0.5618
  158SOL    HW1 1915   1.002   1.120   0.834 -0.0724  1.0745  0.6680
  158SOL    HW2 1916   1.151   1.091   0.838 -0.5757 -1.9258  0.5241
  159SOL     OW 1917   2.902   7.804   1.782 -0.5969  0.0545 -0.2496
  159SOL    HW1 1918   2.901   7.885   1.833  2.0761 -1.7378  2.9594
  159SOL    HW2 1919   2.831   7.752   1.818  0.7049 -0.8464  1.0891
  160SOL     OW 1920   0.185   2.178   1.861 -0.2876  0.3000 -0.2338
  160SOL    HW1 1921   0.200   2.186   1.767  1.2735 -0.0040 -0.0343
  160SOL    HW2 1922   0.131   2.254   1.882  2.3207  2.4956 -0.8159
  161SOL     OW 1923   0.347   1.694   2.961  0.2850  0.2544  0.1682
  161SOL    HW1 1924   0.387   1.612   2.990  0.6388  0.0709 -0.8085
  161SOL    HW2 1925   0.321   1.678   2.871 -0.3568  0.9741  0.2156
  162SOL     OW 1926   2.543   1.882   2.471  0.1070 -0.1378  0.1241
  162SOL    HW1 1927   2.537   1.787   2.486  0.9474 -0.2300 -0.0541
  162SOL    HW2 1928   2.591   1.915   2.547 -0.8410  0.2666  0.5634
  163SOL     OW 1929   1.365   6.994   4.617  0.0404  0.0121  0.1107
  163SOL    HW1 1930   1.322   7.024   4.536  0.6007  2.0797  0.5113
  163SOL    HW2 1931   1.292   6.977   4.677 -0.3928 -1.7492 -0.8396
  164SOL     OW 1932   1.734   0.565   0.915  0.8379 -0.4187  0.1566
  164SOL    HW1 1933   1.675   0.587   0.843  3.0730  1.2664 -1.2701
  164SOL    HW2 1934   1.777   0.485   0.888  0.2249 -0.9112  0.5956
  165SOL     OW 1935   0.933   0.817   2.570  0.1454 -0.1294 -0.1966
  165SOL    HW1 1936   0.940   0.722   2.581 -1.4268 -0.1419  1.1406
  165SOL    HW2 1937   0.875   0.828   2.495 -0.2291 -0.2511  0.0695
  166SOL     OW 1938   2.262   1.407  12.257  0.0378  0.0060  0.1867
  166SOL    HW1 1939   2.314   1.330  12.280  0.5342  0.2165 -0.1981
  166SOL    HW2 1940   2.312   1.450  12.188 -1.5921 -0.8255 -1.5997
  167SOL     OW 1941   0.827   7.320   1.117  0.2455  0.3719 -0.0048
  167SOL    HW1 1942   0.866   7.361   1.194 -0.0683  0.0309  0.3376
  167SOL    HW2 1943   0.756   7.265   1.151  0.6358 -0.4299 -0.4622
  168SOL     OW 1944   0.308   7.798   0.639  0.3055  0.5415 -0.4101
  168SOL    HW1 1945   0.232   7.835   0.684 -0.5275 -0.4117 -0.9816
  168SOL    HW2 1946   0.282   7.795   0.547  0.1538 -1.7906 -0.3538
  169SOL     OW 1947   0.697   2.901   2.034 -0.5088  0.4270 -0.1163
  169SOL    HW1 1948   0.696   2.862   2.122 -3.5327 -0.2285 -0.3298
  169SOL    HW2 1949   0.685   2.995   2.050  4.1922  1.1990  0.2693
  170SOL     OW 1950   1.242   1.405  11.976  0.4189 -0.3189 -0.1014
  170SOL    HW1 1951   1.190   1.479  11.943  1.8678  0.0726 -1.6738
  170SOL    HW2 1952   1.204   1.329  11.933  0.3192 -0.2088 -0.2103
  171SOL     OW 1953   1.469   0.471   2.297  0.2363 -0.2056 -0.1269
  171SOL    HW1 1954   1.511   0.387   2.316 -0.9376 -1.0696 -1.1951
  171SOL    HW2 1955   1.499   0.493   2.209 -0.4899 -0.1715 -0.3705
  172SOL     OW 1956   1.368   1.174  11.035 -0.2170 -0.0045 -0.2292
  172SOL    HW1 1957   1.403   1.262  11.045 -1.0967  0.5389 -1.6369
  172SOL    HW2 1958   1.445   1.119  11.017  0.2742  0.5524  0.1481
  173SOL     OW 1959   1.489   7.962   0.404 -0.3515  0.0858  0.1941
  173SOL    HW1 1960   1.467   8.055   0.394  0.7555  0.4746  1.1258
  173SOL    HW2 1961   1.584   7.961   0.414 -0.4461 -1.0598  1.1660
  174SOL     OW 1962   1.863   0.076   0.800  0.2143  0.3880  0.0265
  174SOL    HW1 1963   1.835   0.021   0.873  0.4743 -1.2202 -1.0362
  174SOL    HW2 1964   1.938   0.031   0.762  0.4999  1.5245 -0.8512
  175SOL     OW 1965   7.325   2.070   2.454  0.2036  0.6750  0.2919
  175SOL    HW1 1966   7.356   2.119   2.378  1.2609  0.6153  0.6652
  175SOL    HW2 1967   7.357   2.120   2.530 -0.3693  0.4467  0.6919
  176SOL     OW 1968   2.320   1.795   1.006 -0.0581 -0.1006 -0.0033
  176SOL    HW1 1969   2.402   1.753   1.032  0.0172  0.5340  0.8207
  176SOL    HW2 1970   2.261   1.722   0.987 -0.0748 -0.6070  1.8416
  177SOL     OW 1971   0.484   2.125   1.505 -0.0752 -0.2900 -0.6197
  177SOL    HW1 1972   0.495   2.056   1.439  2.2007 -0.3719 -0.2499
  177SOL    HW2 1973   0.571   2.166   1.511 -1.3960  2.8474 -1.0079
  178SOL     OW 1974   1.827   7.164   0.841 -0.2778 -0.1117 -0.1139
  178SOL    HW1 1975   1.906   7.148   0.892 -0.6449  1.3064  0.9593
  178SOL    HW2 1976   1.803   7.079   0.806  0.8487 -0.8439  0.8381
  179SOL     OW 1977   1.842   7.607   0.877 -0.0732  0.5799 -0.0154
  179SOL    HW1 1978   1.797   7.676   0.828  1.7309  1.3599 -0.6729
  179SOL    HW2 1979   1.874   7.547   0.810  0.7484  0.6152  0.3366
  180SOL     OW 1980   1.691   0.847   1.530 -0.3066  0.1881  0.2166
  180SOL    HW1 1981   1.767   0.853   1.472 -1.9466 -1.4234 -2.2701
  180SOL    HW2 1982   1.719   0.790   1.601  0.5047 -1.4082 -1.3079
  181SOL     OW 1983   7.515   1.238   0.961  0.4535 -0.6301  0.3151
  181SOL    HW1 1984   7.420   1.226   0.953  0.5479 -0.8523 -0.5216
  181SOL    HW2 1985   7.548   1.153   0.988  0.4905 -0.7449 -0.0866
  182SOL     OW 1986   0.517   7.870   0.406  0.1257  0.5473 -0.1963
  182SOL    HW1 1987   0.521   7.841   0.497  1.5662  0.3296 -0.2940
  182SOL    HW2 1988   0.424   7.872   0.384 -0.1784 -0.5028  0.9301
  183SOL     OW 1989   0.702   6.746   1.878 -0.3480  0.1898  0.0122
  183SOL    HW1 1990   0.696   6.813   1.810 -1.7413 -0.8658 -0.9600
  183SOL    HW2 1991   0.789   6.708   1.867  0.0028  1.0144 -0.1903
  184SOL     OW 1992   2.117   7.879   1.067  0.6740 -0.3149  0.3548
  184SOL    HW1 1993   2.053   7.894   1.136 -0.0440 -1.0388 -0.1372
  184SOL    HW2 1994   2.158   7.796   1.089  1.9542  0.4653  1.0334
  185SOL     OW 1995   7.318   0.717   0.605  0.0924  0.3551 -0.2164
  185SOL    HW1 1996   7.323   0.712   0.700 -1.8361 -0.6762 -0.1124
  185SOL    HW2 1997   7.267   0.640   0.580  1.4405  0.0306 -2.1916
  186SOL     OW 1998   0.790   1.362   0.805 -0.0332  0.4711 -0.2627
  186SOL    HW1 1999   0.776   1.318   0.721 -1.1467 -1.2745  0.7860
  186SOL    HW2 2000   0.830   1.446   0.782 -3.8633  1.8575 -2.8752
  187SOL     OW 2001   2.993   0.034   0.587  0.0166  0.5498 -0.1199
  187SOL    HW1 2002   3.063   0.047   0.523  0.3339 -1.3977 -0.2181
  187SOL    HW2 2003   2.930  -0.022   0.542 -0.2513  0.0064  0.9032
  188SOL     OW 2004   1.763   0.563   2.350 -0.3975  0.3803  0.1139
  188SOL    HW1 2005   1.771   0.605   2.264  0.4185 -2.5905 -1.3744
  188SOL    HW2 2006   1.848   0.576   2.391 -0.0065 -0.1727 -0.5100
  189SOL     OW 2007   7.671   7.193  11.997  0.2433  0.3144  0.1911
  189SOL    HW1 2008   7.697   7.258  12.063 -0.9039  0.4222  0.5491
  189SOL    HW2 2009   7.641   7.246  11.923  0.2561  0.1868  0.0953
  190SOL     OW 2010   0.879   1.128   0.945 -0.0693 -0.3020  0.2503
  190SOL    HW1 2011   0.832   1.208   0.921 -3.2066 -2.3967 -1.3645
  190SOL    HW2 2012   0.877   1.127   1.041 -2.9380  0.0696  0.2817
  191SOL     OW 2013   2.617   0.546   1.068  0.6549  0.1821  0.2868
  191SOL    HW1 2014   2.557   0.519   0.999  2.4601  1.4022 -1.9117
  191SOL    HW2 2015   2.572   0.616   1.115  0.0958  0.6375 -0.9024
  192SOL     OW 2016   1.105   0.201  11.514  0.0342  0.2192 -0.0697
  192SOL    HW1 2017   1.054   0.187  11.594 -0.1960  0.5747 -0.1488
  192SOL    HW2 2018   1.147   0.286  11.527 -0.4227  0.5251 -0.5394
  193SOL     OW 2019   1.672   7.123   0.091  0.3158  0.2812  0.5379
  193SOL    HW1 2020   1.650   7.037   0.129  1.5958 -0.6111 -0.6693
  193SOL    HW2 2021   1.604   7.181   0.125 -2.3493 -1.7709 -0.8310
  194SOL     OW 2022   1.852   2.680   2.809  0.1627 -0.1718 -0.0334
  194SOL    HW1 2023   1.781   2.657   2.748  1.0373  0.7261 -1.4279
  194SOL    HW2 2024   1.863   2.601   2.862 -3.2950  0.3031  1.7318
  195SOL     OW 2025   2.678   7.739   0.072 -0.0589  0.2853  0.0766
  195SOL    HW1 2026   2.749   7.797   0.045  0.1795 -0.9548 -2.2283
  195SOL    HW2 2027   2.708   7.652   0.047 -2.6619 -0.1994 -1.7210
  196SOL     OW 2028   2.321   3.015   1.684  0.3456  0.5667 -0.1805
  196SOL    HW1 2029   2.338   2.974   1.600 -0.5706  0.5352 -0.3547
  196SOL    HW2 2030   2.395   2.988   1.739  0.8162  0.3788 -0.8846
  197SOL     OW 2031   7.735   1.096  12.056  0.3768  0.5063 -0.0808
  197SOL    HW1 2032   7.771   1.149  12.128  2.6834 -0.8476 -0.1552
  197SOL    HW2 2033   7.717   1.160  11.987  3.5905  1.2836 -0.3772
  198SOL     OW 2034   0.339   0.238   0.230 -0.0755 -0.0687 -0.0215
  198SOL    HW1 2035   0.422   0.198   0.257  0.0522  0.6121  0.6089
  198SOL    HW2 2036   0.297   0.262   0.312 -0.2203  0.9558 -0.3915
  199SOL     OW 2037   2.037   1.406   1.270  0.2266 -0.1358  0.6026
  199SOL    HW1 2038   2.078   1.491   1.287 -0.0933  0.4512 -1.2547
  199SOL    HW2 2039   2.066   1.350   1.342 -0.0962  1.7037  2.2634
  200SOL     OW 2040   1.420   7.827  11.198  0.0327 -0.0792 -0.1534
  200SOL    HW1 2041   1.505   7.857  11.229  0.6983  1.0163 -2.7383
  200SOL    HW2 2042   1.360   7.901  11.215 -0.2735 -0.5755  1.0154
  201SOL     OW 2043   2.507   3.066   0.864  0.2910 -0.3970 -0.4270
  201SOL    HW1 2044   2.592   3.109   0.856  0.5687 -0.9788 -0.5893
  201SOL    HW2 2045   2.444   3.139   0.861  0.7936  0.0723  0.1199
  202SOL     OW 2046   0.907   1.131   1.210  0.2535 -0.2611  0.0856
  202SOL    HW1 2047   0.948   1.200   1.262  0.1824  0.5909 -0.9614
  202SOL    HW2 2048   0.917   1.052   1.263  0.5884  0.4956  1.1763
  203SOL     OW 2049   0.205   1.029   0.294  0.4827  0.1417  0.3355
  203SOL    HW1 2050   0.183   0.963   0.228  1.5968  0.4661 -0.3824
  203SOL    HW2 2051   0.230   1.107   0.243 -0.2628  0.9543  1.1614
  204SOL     OW 2052   1.929   0.096   2.000 -0.3501 -0.2892  0.6328
  204SOL    HW1 2053   1.908   0.184   2.033  1.4152  0.4619 -0.0934
  204SOL    HW2 2054   1.864   0.039   2.040 -2.1533  1.4783  0.3697
  205SOL     OW 2055   1.620   0.595  11.933  0.0047  0.2676  0.1454
  205SOL    HW1 2056   1.546   0.612  11.876  1.6455  2.7737 -1.4372
  205SOL    HW2 2057   1.625   0.672  11.990  1.5436  0.3198 -0.0113
  206SOL     OW 2058   2.175   6.861   1.408 -0.0135  0.7619  0.2967
  206SOL    HW1 2059   2.266   6.891   1.405 -0.8803  3.6496  0.1481
  206SOL    HW2 2060   2.164   6.827   1.497  1.4125 -0.5592  0.0241
  207SOL     OW 2061   3.255   0.624   2.720  0.2124  0.3599 -0.1320
  207SOL    HW1 2062   3.291   0.579   2.797 -0.1408 -0.0790 -0.2186
  207SOL    HW2 2063   3.247   0.715   2.747 -2.6196 -0.2403  1.3746
  208SOL     OW 2064   0.998   1.817   3.526 -0.1888  0.3128 -0.1792
  208SOL    HW1 2065   1.011   1.740   3.582 -0.3176  0.0931 -0.4463
  208SOL    HW2 2066   1.048   1.886   3.568  0.3753 -0.0570 -0.2244
  209SOL     OW 2067   0.609   6.862   1.623  0.0168 -0.2750 -0.1619
  209SOL    HW1 2068   0.568   6.891   1.542 -0.4865  0.9866  0.5203
  209SOL    HW2 2069   0.591   6.767   1.626  1.0852 -0.5735 -2.0798
  210SOL     OW 2070   7.537   0.763   2.407 -0.0920 -0.1546  0.1239
  210SOL    HW1 2071   7.495   0.786   2.490  1.9037 -0.0373  1.1597
  210SOL    HW2 2072   7.580   0.680   2.423  0.0085 -0.3262 -0.9255
  211SOL     OW 2073   0.144   7.725  11.812  0.1919 -0.0801  0.4899
  211SOL    HW1 2074   0.142   7.705  11.718  1.1982  0.1501  0.4055
  211SOL    HW2 2075   0.108   7.648  11.854  0.9942 -0.7524 -0.0173
  212SOL     OW 2076   1.919   3.507   1.603  0.1643 -0.6517 -0.0121
  212SOL    HW1 2077   1.926   3.412   1.598 -0.6481 -0.8317  1.5492
  212SOL    HW2 2078   1.910   3.526   1.697 -0.8140  0.8656 -0.3612
  213SOL     OW 2079   1.028   7.854   2.007  0.3829  0.2188 -0.2061
  213SOL    HW1 2080   0.953   7.813   2.050  1.6040 -0.3602  1.4719
  213SOL    HW2 2081   1.045   7.933   2.057  1.1766  0.0993 -0.2712
  214SOL     OW 2082   7.899   0.330   1.527 -0.3910  0.5919  0.3790
  214SOL    HW1 2083   7.817   0.342   1.479  0.0428 -0.3061 -0.6184
  214SOL    HW2 2084   7.904   0.236   1.544 -0.2537  0.8239  1.7098
  215SOL     OW 2085   1.608   0.878  12.368 -0.5961  0.2603 -0.4489
  215SOL    HW1 2086   1.630   0.863  12.276 -0.5819 -1.0986 -0.2549
  215SOL    HW2 2087   1.513   0.882  12.370 -0.5549  1.7017 -0.6973
  216SOL     OW 2088   2.198   1.720   2.705 -0.6017  0.7027 -0.4868
  216SOL    HW1 2089   2.198   1.682   2.793  0.2837  1.5149 -0.1121
  216SOL    HW2 2090   2.106   1.723   2.680 -0.9964  1.5957  0.9279
  217SOL     OW 2091   1.995   0.751  11.877  0.2385 -0.4522  0.3911
  217SOL    HW1 2092   1.967   0.740  11.968  0.2586 -0.1612  0.4363
  217SOL    HW2 2093   2.034   0.667  11.853  0.2313 -0.5318  0.6517
  218SOL     OW 2094   1.842   2.338  12.438 -0.3072 -0.0244  0.4528
  218SOL    HW1 2095   1.843   2.343  12.533 -0.1076 -0.2505  0.4651
  218SOL    HW2 2096   1.823   2.246  12.419 -0.8644  0.1250  0.2692
  219SOL     OW 2097   0.467   0.082   1.608  0.2845 -0.3700 -0.2037
  219SOL    HW1 2098   0.412   0.025   1.661 -0.1361  0.6710  0.5072
  219SOL    HW2 2099   0.504   0.024   1.541  0.6082 -1.6601  1.0373
  220SOL     OW 2100   0.501   7.948   2.971 -0.3959  0.8210  0.2081
  220SOL    HW1 2101   0.543   8.015   3.025 -1.2251  0.2039  1.6474
  220SOL    HW2 2102   0.574   7.893   2.941 -0.0561  0.1321  2.1627
  221SOL     OW 2103   2.263   1.213  11.835 -0.0911 -0.1932 -0.2194
  221SOL    HW1 2104   2.221   1.128  11.826 -0.1026 -0.1973 -0.1330
  221SOL    HW2 2105   2.212   1.257  11.903 -0.9694  0.4191 -1.2397
  222SOL     OW 2106   3.041   0.267   1.763  0.0482 -0.3329  0.1081
  222SOL    HW1 2107   3.049   0.234   1.852  0.4599  1.1210  0.6338
  222SOL    HW2 2108   3.129   0.263   1.727  0.5937  2.1469  0.9434
  223SOL     OW 2109   1.509   0.254   0.451 -0.2319  0.0139  0.1960
  223SOL    HW1 2110   1.534   0.340   0.485  0.4242  0.4311 -1.2714
  223SOL    HW2 2111   1.477   0.272   0.362  1.7283 -1.4308 -0.8818
  224SOL     OW 2112   0.278   6.842   2.305 -0.3078  0.0526 -0.6144
  224SOL    HW1 2113   0.271   6.914   2.368 -0.2180 -0.2462 -0.2541
  224SOL    HW2 2114   0.359   6.860   2.257  0.6185 -0.6784  0.6087
  225SOL     OW 2115   2.124   1.958   0.602  0.2156 -0.2358 -0.2218
  225SOL    HW1 2116   2.141   1.864   0.612  1.1708 -0.0180  0.3954
  225SOL    HW2 2117   2.030   1.967   0.618 -0.0605 -1.1984 -1.2255
  226SOL     OW 2118   7.156   1.336   1.748 -0.0833  0.3144  0.4939
  226SOL    HW1 2119   7.201   1.270   1.694 -0.9594  0.7737 -0.8457
  226SOL    HW2 2120   7.227   1.381   1.794  0.8327  0.7099 -1.2025
  227SOL     OW 2121   1.033   1.720   1.345 -0.0834  0.2389 -0.0429
  227SOL    HW1 2122   1.099   1.785   1.319 -0.1023 -0.2849 -1.5092
  227SOL    HW2 2123   0.993   1.757   1.424  0.4423  1.6297 -0.3899
  228SOL     OW 2124   0.509   0.201  11.529  0.1555  0.2102 -0.0497
  228SOL    HW1 2125   0.584   0.255  11.552  0.2695  0.0638 -0.0782
  228SOL    HW2 2126   0.536   0.153  11.451 -0.0469  0.3221 -0.1903
  229SOL     OW 2127   1.461   7.431   1.515  0.3256  0.2113 -0.2268
  229SOL    HW1 2128   1.417   7.348   1.496 -1.6262  1.3077 -0.8441
  229SOL    HW2 2129   1.527   7.440   1.446  0.1351 -0.5458 -0.5162
  230SOL     OW 2130   7.199   0.670  10.138 -0.2271 -0.1723  0.4041
  230SOL    HW1 2131   7.116   0.688  10.094  0.7428 -0.2492 -1.5676
  230SOL    HW2 2132   7.221   0.581  10.113  0.1097 -0.4355  1.5484
  231SOL     OW 2133   1.992   1.397   2.987 -0.0353  0.6797 -0.4219
  231SOL    HW1 2134   1.926   1.342   2.943  0.9862 -1.2474  0.3485
  231SOL    HW2 2135   1.976   1.383   3.081  1.3993  0.2123 -0.2194
  232SOL     OW 2136   1.088   1.181   2.227  0.5339 -0.2235  0.0982
  232SOL    HW1 2137   1.120   1.149   2.143  1.4460  0.5675  0.1377
  232SOL    HW2 2138   1.128   1.123   2.292  1.1581  0.1834  0.0855
  233SOL     OW 2139   7.945   1.488   2.067  0.3765 -0.0742 -0.5886
  233SOL    HW1 2140   8.025   1.452   2.108  0.8434 -0.6148 -1.9193
  233SOL    HW2 2141   7.970   1.577   2.042  0.7131 -0.3817 -1.3760
  234SOL     OW 2142   1.291   0.630   2.067 -0.1859  0.2070 -0.0705
  234SOL    HW1 2143   1.219   0.612   2.128  1.2914 -0.1394  1.6587
  234SOL    HW2 2144   1.274   0.573   1.992 -0.7692 -1.2111  1.0911
  235SOL     OW 2145   1.869   1.541   3.443 -0.1965 -0.5262  0.3873
  235SOL    HW1 2146   1.791   1.565   3.392  0.0417 -0.8199 -0.1258
  235SOL    HW2 2147   1.840   1.546   3.534  0.2844  3.4380  0.5051
  236SOL     OW 2148   0.082   2.795   0.370 -0.0443  0.2398  0.9344
  236SOL    HW1 2149  -0.012   2.792   0.385  0.1063  0.0208  1.9202
  236SOL    HW2 2150   0.116   2.847   0.442  0.6953 -0.5229  1.1571
  237SOL     OW 2151   1.225   7.613   1.709 -0.3140 -0.0468  1.0325
  237SOL    HW1 2152   1.145   7.560   1.700 -0.4326  0.2814  0.1355
  237SOL    HW2 2153   1.218   7.680   1.641  0.5909  0.1661  1.1370
  238SOL     OW 2154   3.554   1.700  11.753  0.1529 -0.8675 -0.0377
  238SOL    HW1 2155   3.538   1.685  11.847  1.3898 -1.5634  0.0814
  238SOL    HW2 2156   3.613   1.775  11.751  0.2812 -0.9740 -0.2555
  239SOL     OW 2157   0.997   7.502   1.768 -0.3986 -0.2991  0.3848
  239SOL    HW1 2158   0.944   7.580   1.783 -1.3003  0.1693 -3.8669
  239SOL    HW2 2159   0.936   7.429   1.778 -1.4502  0.1045 -2.3308
  240SOL     OW 2160   1.958   7.988   1.269 -1.1190 -0.4072 -0.1174
  240SOL    HW1 2161   1.982   8.035   1.349  1.7356 -2.0533  0.1487
  240SOL    HW2 2162   1.863   7.977   1.275 -1.4080  2.1382  1.4952
  241SOL     OW 2163   2.105   2.304   1.266  0.6684 -0.2306  0.2067
  241SOL    HW1 2164   2.061   2.390   1.263 -3.5387 -2.1061  0.7080
  241SOL    HW2 2165   2.122   2.283   1.174 -0.0860  0.3414 -0.0750
  242SOL     OW 2166   0.559   7.938  11.512 -0.8172  0.1779  0.0893
  242SOL    HW1 2167   0.519   7.861  11.471 -1.3924 -0.3695  1.5808
  242SOL    HW2 2168   0.484   7.988  11.546 -0.3673  0.4611  0.6866
  243SOL     OW 2169   1.026   0.540   0.999 -0.1471  0.6397 -0.6293
  243SOL    HW1 2170   0.961   0.473   1.017 -1.2376  1.6838 -0.5652
  243SOL    HW2 2171   1.003   0.612   1.058  1.5046  0.7645 -0.0861
  244SOL     OW 2172   1.608   7.337   0.846  0.2002 -0.1253 -0.4136
  244SOL    HW1 2173   1.533   7.277   0.850  0.9313 -1.0052  0.5753
  244SOL    HW2 2174   1.684   7.280   0.835  0.8937  0.6320  0.3446
  245SOL     OW 2175   1.106   0.123  12.287  0.0883 -0.1223 -0.4124
  245SOL    HW1 2176   1.168   0.179  12.241  1.0463 -2.3965 -2.0829
  245SOL    HW2 2177   1.097   0.045  12.232  0.1841 -2.4496  2.5451
  246SOL     OW 2178   0.582   7.003   0.280 -0.4076 -0.0080 -0.2535
  246SOL    HW1 2179   0.620   7.030   0.196 -0.3389 -0.6207 -0.4219
  246SOL    HW2 2180   0.489   6.994   0.263 -0.0061 -3.8081 -1.3138
  247SOL     OW 2181   7.773   1.244   1.748  0.1138 -0.1962 -0.5318
  247SOL    HW1 2182   7.859   1.223   1.711  0.5248 -1.0246  0.8580
  247SOL    HW2 2183   7.787   1.243   1.843 -0.9069  1.9142 -0.3034
  248SOL     OW 2184   0.645   7.443  12.415 -0.4987 -0.1273  0.0090
  248SOL    HW1 2185   0.564   7.438  12.365 -0.4027 -1.2070 -0.0671
  248SOL    HW2 2186   0.628   7.392  12.493  0.5916 -1.7061 -0.7307
  249SOL     OW 2187   0.872   0.347   2.677 -0.4091 -0.4167  0.0651
  249SOL    HW1 2188   0.922   0.315   2.752  0.1120 -0.9799 -0.5037
  249SOL    HW2 2189   0.881   0.277   2.612  0.9884  0.9716 -1.3273
  250SOL     OW 2190   4.758   0.847   0.965  0.4660 -0.3964 -0.6032
  250SOL    HW1 2191   4.745   0.852   0.871 -1.5053  0.7334 -0.3193
  250SOL    HW2 2192   4.756   0.938   0.995 -2.2456 -0.8388  0.8734
  251SOL     OW 2193   1.254   7.255  10.731  0.4831  0.0274  0.0037
  251SOL    HW1 2194   1.283   7.225  10.817  0.1544  0.4587  0.2705
  251SOL    HW2 2195   1.265   7.179  10.674  2.4976  0.2624  0.0057
  252SOL     OW 2196   2.758   1.082  12.420 -0.3659  0.0837 -0.3815
  252SOL    HW1 2197   2.826   1.047  12.477  0.2556  2.1041  0.2074
  252SOL    HW2 2198   2.702   1.134  12.478 -1.8403 -0.6873 -1.0413
  253SOL     OW 2199   7.558   1.016   1.535  0.7119 -0.8154 -0.3046
  253SOL    HW1 2200   7.577   0.928   1.502 -0.2276 -0.6636 -1.2918
  253SOL    HW2 2201   7.555   1.071   1.457 -0.1891 -0.1790  0.1637
  254SOL     OW 2202   0.305   7.814   1.378 -0.2833  0.4157  0.2614
  254SOL    HW1 2203   0.281   7.905   1.362  1.7713  0.8187 -0.8561
  254SOL    HW2 2204   0.378   7.797   1.319 -0.0520 -1.7169  1.0503
  255SOL     OW 2205   1.265   5.694   1.477  0.2122  1.0725  0.6890
  255SOL    HW1 2206   1.303   5.775   1.443  0.2997  1.0730  0.7858
  255SOL    HW2 2207   1.320   5.624   1.441 -1.0597  0.9081 -1.0359
  256SOL     OW 2208   1.882   0.352   0.855  0.2048 -0.1818  0.4917
  256SOL    HW1 2209   1.951   0.346   0.921  1.3875  2.1691 -0.4427
  256SOL    HW2 2210   1.886   0.268   0.809  1.3365 -0.7145  1.5116
  257SOL     OW 2211   2.420   1.727   0.647 -0.4033  0.1156  0.0986
  257SOL    HW1 2212   2.335   1.734   0.690  0.1853  0.5807  1.2332
  257SOL    HW2 2213   2.420   1.641   0.606 -1.5198  0.2221 -0.1562
  258SOL     OW 2214   0.137   2.046  11.921 -0.5161  0.7159 -0.1829
  258SOL    HW1 2215   0.053   2.092  11.917 -0.6062  0.8352  1.8994
  258SOL    HW2 2216   0.164   2.053  12.012  1.2899 -0.1922 -0.5924
  259SOL     OW 2217   2.967   1.184   0.096 -0.5146 -0.7406 -0.4282
  259SOL    HW1 2218   2.985   1.259   0.040  2.3729 -1.0799 -0.1432
  259SOL    HW2 2219   2.933   1.221   0.177 -0.5259  0.1402 -0.8337
  260SOL     OW 2220   0.477   7.267   1.965  0.2925  0.1034  0.5938
  260SOL    HW1 2221   0.410   7.323   1.925 -0.1599  0.7928  2.2475
  260SOL    HW2 2222   0.450   7.258   2.056  2.4208  0.4083  1.3249
  261SOL     OW 2223   3.175   0.965   2.563 -0.4868 -0.2273  0.3404
  261SOL    HW1 2224   3.185   1.001   2.475 -0.1098 -0.2369  0.3797
  261SOL    HW2 2225   3.088   0.994   2.591 -0.7601 -0.5400 -0.1807
  262SOL     OW 2226   7.661   7.531   0.753  0.0648  0.5539 -0.3633
  262SOL    HW1 2227   7.709   7.584   0.689  0.6556  0.6321  0.1394
  262SOL    HW2 2228   7.648   7.590   0.827 -2.5100  1.1787 -1.2013
  263SOL     OW 2229   1.792   6.448   1.353  0.0564  0.7513 -0.2111
  263SOL    HW1 2230   1.754   6.371   1.396  0.8328 -0.3778 -1.4646
  263SOL    HW2 2231   1.759   6.444   1.263  0.5957  1.5476 -0.4558
  264SOL     OW 2232   1.010   0.241   2.886 -0.1520  0.4142  0.4972
  264SOL    HW1 2233   1.073   0.170   2.879 -0.2455  0.4874 -1.9719
  264SOL    HW2 2234   1.053   0.305   2.943  0.7417 -0.7637  1.1963
  265SOL     OW 2235   7.392   0.956   3.280  0.1154 -0.1926 -0.8618
  265SOL    HW1 2236   7.313   0.923   3.236  0.2523 -1.1233 -0.4295
  265SOL    HW2 2237   7.406   1.043   3.242 -0.5911 -0.3950 -1.6084
  266SOL     OW 2238   7.359   1.825   2.306 -0.0417 -0.4732  0.0346
  266SOL    HW1 2239   7.426   1.790   2.365 -0.7521  0.0583  1.1987
  266SOL    HW2 2240   7.328   1.904   2.350 -0.1664  0.2992 -1.3745
  267SOL     OW 2241   0.324   2.487   3.582 -0.0444 -0.0128  0.1984
  267SOL    HW1 2242   0.308   2.515   3.492 -2.7486 -1.8455 -0.0057
  267SOL    HW2 2243   0.283   2.555   3.636 -1.8726 -0.7938 -0.1338
  268SOL     OW 2244   1.953   2.263   2.914  0.2038 -0.5684  0.1305
  268SOL    HW1 2245   1.857   2.262   2.923  0.2168 -0.1730  0.3300
  268SOL    HW2 2246   1.972   2.189   2.856 -0.3906  0.4646 -1.4831
  269SOL     OW 2247   0.607   1.724   2.259 -0.3328 -0.0064 -0.3954
  269SOL    HW1 2248   0.627   1.638   2.296 -0.6035 -0.4402 -1.2352
  269SOL    HW2 2249   0.567   1.705   2.174 -1.5394  0.9116 -0.0542
  270SOL     OW 2250   1.613   1.294   4.343  0.9728 -0.5364 -0.1237
  270SOL    HW1 2251   1.557   1.229   4.300 -0.3817  0.2364  0.3855
  270SOL    HW2 2252   1.577   1.300   4.432  1.0459  0.8984 -0.1633
  271SOL     OW 2253   1.015   2.586   3.181  0.5043 -0.6727  0.3745
  271SOL    HW1 2254   0.941   2.525   3.172  0.9799 -1.4838  1.7331
  271SOL    HW2 2255   1.069   2.569   3.103  0.0583 -1.1842  0.1700
  272SOL     OW 2256   7.704   1.214   3.143 -0.2730  0.2260 -0.3015
  272SOL    HW1 2257   7.755   1.287   3.179 -0.6292  0.9027 -1.1266
  272SOL    HW2 2258   7.614   1.232   3.170 -0.5150  0.6428 -1.3225
  273SOL     OW 2259   0.754   1.845   1.898 -0.3447 -0.3125  0.4856
  273SOL    HW1 2260   0.751   1.936   1.869 -1.7508  0.1000  1.8030
  273SOL    HW2 2261   0.781   1.796   1.821 -1.2759  1.0214 -0.7421
  274SOL     OW 2262   1.836   3.168   3.602  0.4072  0.2862 -0.6436
  274SOL    HW1 2263   1.803   3.100   3.543  2.8121 -0.7294 -0.9542
  274SOL    HW2 2264   1.930   3.152   3.605  0.5300  1.0604  2.5469
  275SOL     OW 2265   0.043   2.985   1.728  0.0301  0.2318 -0.0915
  275SOL    HW1 2266  -0.026   3.050   1.741 -1.1578 -1.2230  1.3328
  275SOL    HW2 2267   0.119   3.035   1.699 -0.9934  2.1653  0.4401
  276SOL     OW 2268   1.498   1.678   5.025  0.8953  0.0806 -0.0186
  276SOL    HW1 2269   1.405   1.671   5.046  0.9517 -1.6624 -0.2290
  276SOL    HW2 2270   1.525   1.762   5.064 -0.5923  0.2908  0.6356
  277SOL     OW 2271   0.288   1.197   2.827  0.4798  0.8522 -0.2894
  277SOL    HW1 2272   0.291   1.228   2.737  1.0212  0.1281 -0.5262
  277SOL    HW2 2273   0.289   1.102   2.820 -0.6586  0.7664  0.4481
  278SOL     OW 2274   1.622   0.223   0.977  0.0318 -0.1496 -0.7303
  278SOL    HW1 2275   1.696   0.206   1.036  0.2911 -1.8657 -1.4844
  278SOL    HW2 2276   1.662   0.231   0.891 -0.4567  1.2490 -0.8511
  279SOL     OW 2277   0.435   2.778   1.970  0.2294  0.1788  0.4485
  279SOL    HW1 2278   0.528   2.791   1.950  0.6696  0.8476  2.6777
  279SOL    HW2 2279   0.420   2.831   2.049 -1.9624 -0.2094  0.3360
  280SOL     OW 2280   1.394   1.272   3.264  0.4818 -0.2979  0.0477
  280SOL    HW1 2281   1.336   1.296   3.192 -0.3153  0.8783  1.0445
  280SOL    HW2 2282   1.366   1.184   3.289  1.3905 -1.1253 -1.6423
  281SOL     OW 2283   0.470   1.845   1.669 -0.2599  0.2558 -0.1408
  281SOL    HW1 2284   0.451   1.923   1.721  0.7934  1.9347 -2.1177
  281SOL    HW2 2285   0.385   1.817   1.636 -0.9470 -0.8104  2.2700
  282SOL     OW 2286   7.407   2.478   2.415  0.4417  0.0366 -0.1458
  282SOL    HW1 2287   7.386   2.444   2.502 -0.1208  1.7701  0.4325
  282SOL    HW2 2288   7.479   2.423   2.385 -0.2707 -1.4970  0.8146
  283SOL     OW 2289   6.453   3.623   2.832 -0.0630 -0.2539 -0.4761
  283SOL    HW1 2290   6.439   3.661   2.919  2.1656 -0.4506  0.0260
  283SOL    HW2 2291   6.365   3.601   2.801 -0.8698 -1.0866  2.1409
  284SOL     OW 2292   0.414   1.605   2.497  0.2031 -0.4312 -0.1874
  284SOL    HW1 2293   0.481   1.674   2.500  0.1330 -0.3828  2.2783
  284SOL    HW2 2294   0.364   1.624   2.417  2.3967  0.1752 -1.5123
  285SOL     OW 2295   1.971   0.484   1.819 -0.8701 -0.5875  0.2957
  285SOL    HW1 2296   1.922   0.453   1.895 -2.0526  0.8799  0.1760
  285SOL    HW2 2297   2.062   0.489   1.849 -1.1588 -1.0274  1.2705
  286SOL     OW 2298   7.916   1.514   2.648  0.2515 -0.2286  0.4288
  286SOL    HW1 2299   7.889   1.554   2.731  0.0884 -1.7724  1.1622
  286SOL    HW2 2300   7.988   1.455   2.671  1.3676  0.5904 -0.8224
  287SOL     OW 2301   3.162   2.091   2.140  0.4908  0.2846 -0.1886
  287SOL    HW1 2302   3.091   2.094   2.203  0.9682 -0.3659  0.3912
  287SOL    HW2 2303   3.162   2.177   2.099 -0.1547  0.5321  0.3276
  288SOL     OW 2304   7.787   2.343   2.134 -0.5619 -0.0224  0.2043
  288SOL    HW1 2305   7.862   2.365   2.079 -0.4046  0.2139  0.5082
  288SOL    HW2 2306   7.712   2.343   2.074 -0.3382 -0.1259 -0.0750
  289SOL     OW 2307   1.577   2.134   2.801  0.1166 -0.5279  0.3533
  289SOL    HW1 2308   1.595   2.188   2.724 -1.5997 -0.5374 -0.1079
  289SOL    HW2 2309   1.620   2.180   2.873 -0.4984  0.9615 -0.1910
  290SOL     OW 2310   2.499   2.219   1.615 -0.2231 -0.0469  0.0910
  290SOL    HW1 2311   2.442   2.227   1.538  0.7145 -1.7141 -0.8303
  290SOL    HW2 2312   2.585   2.197   1.579  0.9155  1.7613  1.4836
  291SOL     OW 2313   0.219   0.788   3.645  0.5243 -0.3761 -0.3875
  291SOL    HW1 2314   0.246   0.702   3.612  0.1982  0.1707 -2.1891
  291SOL    HW2 2315   0.219   0.844   3.568 -2.6395  0.4262  0.0595
  292SOL     OW 2316   1.273   1.855   4.165 -0.1841 -0.1043 -0.1360
  292SOL    HW1 2317   1.348   1.798   4.146  1.3268  1.3858  0.9941
  292SOL    HW2 2318   1.265   1.853   4.260 -1.2799  0.1542 -0.2127
  293SOL     OW 2319   1.829   2.210   4.469 -0.2751 -0.1353  0.1964
  293SOL    HW1 2320   1.804   2.117   4.473  1.7838 -0.6990  1.0467
  293SOL    HW2 2321   1.877   2.225   4.550 -0.6043  1.7058  0.0742
  294SOL     OW 2322   7.591   1.241   2.277  0.1678  0.5148 -0.2050
  294SOL    HW1 2323   7.607   1.146   2.284  2.0516  0.7703 -0.4359
  294SOL    HW2 2324   7.507   1.254   2.320  0.7591 -1.0060  1.5619
  295SOL     OW 2325   7.499   0.135   2.576  0.5312  0.0811  0.5061
  295SOL    HW1 2326   7.579   0.108   2.532 -1.2831 -2.9099 -1.3330
  295SOL    HW2 2327   7.496   0.082   2.656  0.7835  0.8471  1.0347
  296SOL     OW 2328   1.908   2.423   3.345  0.3248  0.0081 -0.0972
  296SOL    HW1 2329   1.933   2.354   3.284  0.3097  1.0124 -1.2695
  296SOL    HW2 2330   1.984   2.432   3.403 -0.6919 -2.8529  1.8915
  297SOL     OW 2331   3.618   3.615   1.420  0.2762 -0.1685 -0.9527
  297SOL    HW1 2332   3.602   3.684   1.484  0.3920 -2.1906  1.4248
  297SOL    HW2 2333   3.629   3.661   1.337 -2.7517  2.4068 -0.1031
  298SOL     OW 2334   1.800   5.409   2.962 -0.0357 -0.2146 -0.3479
  298SOL    HW1 2335   1.799   5.427   2.868  0.6266 -0.5936 -0.4369
  298SOL    HW2 2336   1.866   5.469   2.996 -1.2925  0.9551  0.1141
  299SOL     OW 2337   1.231   1.041   3.170  0.2381  0.0361 -0.5173
  299SOL    HW1 2338   1.199   1.101   3.102 -0.5429  0.8444  0.5405
  299SOL    HW2 2339   1.159   0.981   3.186 -0.4588  1.2511  1.1707
  300SOL     OW 2340   2.614   2.929   3.309 -0.3861  0.6381  0.1429
  300SOL    HW1 2341   2.590   2.909   3.400  0.0742  0.4493  0.2253
  300SOL    HW2 2342   2.707   2.910   3.304 -0.4418  0.4964 -0.4161
  301SOL     OW 2343   7.988   0.940   3.380  0.2496  0.6262 -0.2357
  301SOL    HW1 2344   7.959   1.030   3.364 -0.5390  0.5889  0.9136
  301SOL    HW2 2345   7.915   0.898   3.425  0.5924 -0.6176 -0.7904
  302SOL     OW 2346   0.991   1.725   3.786 -0.0853  0.5172  0.1048
  302SOL    HW1 2347   1.033   1.768   3.861 -0.0596  1.0766 -0.2298
  302SOL    HW2 2348   0.936   1.658   3.825  0.5141  0.3014  0.5917
  303SOL     OW 2349   1.636   2.296   2.205 -1.0909  0.4051 -0.1167
  303SOL    HW1 2350   1.593   2.287   2.120 -1.1223  0.2143 -0.0794
  303SOL    HW2 2351   1.655   2.390   2.212  0.3129  0.2189 -1.0199
  304SOL     OW 2352   2.360   2.666   5.004  0.6600 -0.1929  0.6406
  304SOL    HW1 2353   2.453   2.643   4.999  0.8486  0.7936 -0.8131
  304SOL    HW2 2354   2.353   2.752   4.964 -0.7152  0.3461  1.9092
  305SOL     OW 2355   0.715   7.779   2.922  0.0994  0.0927  0.4624
  305SOL    HW1 2356   0.750   7.690   2.923  3.6254  1.3519  0.2177
  305SOL    HW2 2357   0.706   7.800   2.829 -2.4401 -0.4875  0.4840
  306SOL     OW 2358   1.859   1.132   1.870  0.4585  0.2687 -0.6108
  306SOL    HW1 2359   1.793   1.201   1.876 -0.0230 -0.2445  0.0713
  306SOL    HW2 2360   1.813   1.052   1.895  0.9055 -0.3865 -1.7916
  307SOL     OW 2361   7.585   0.485   0.961  0.1335 -0.5287  0.7520
  307SOL    HW1 2362   7.612   0.393   0.957 -0.7474 -0.9150  2.7019
  307SOL    HW2 2363   7.668   0.534   0.960  0.6131 -1.3086 -0.2956
  308SOL     OW 2364   0.874   3.206   2.506  0.4790 -0.3134  0.1181
  308SOL    HW1 2365   0.938   3.185   2.574  0.0617 -0.6184  0.4206
  308SOL    HW2 2366   0.843   3.293   2.528 -0.8220 -1.0235  1.2563
  309SOL     OW 2367   7.714   2.830   3.195 -0.4325  0.4015  0.2455
  309SOL    HW1 2368   7.770   2.879   3.256  1.3610 -1.2171 -0.0296
  309SOL    HW2 2369   7.634   2.814   3.245 -0.0146  1.3316  1.2572
  310SOL     OW 2370   1.384   1.068   3.525 -0.5154  0.0878 -0.2691
  310SOL    HW1 2371   1.354   0.978   3.525 -1.7596  0.4572 -1.9332
  310SOL    HW2 2372   1.331   1.112   3.591  0.0683 -0.3609  0.5183
  311SOL     OW 2373   1.409   1.307   4.888 -0.2335  0.1413 -0.1798
  311SOL    HW1 2374   1.496   1.314   4.926  0.4679 -0.1155 -1.6490
  311SOL    HW2 2375   1.421   1.328   4.795 -1.8803  0.8857 -0.2711
  312SOL     OW 2376   0.820   2.662   2.922  0.0677  0.1362  0.1726
  312SOL    HW1 2377   0.820   2.631   2.831  0.5869  1.0636 -0.1604
  312SOL    HW2 2378   0.898   2.621   2.961 -0.5535 -0.8425  0.4233
  313SOL     OW 2379   7.607   0.844   4.236 -0.0597  0.0047  0.2277
  313SOL    HW1 2380   7.567   0.931   4.237  0.1804  0.1131  1.0786
  313SOL    HW2 2381   7.694   0.858   4.199 -0.5761 -0.1308 -1.0589
  314SOL     OW 2382   0.882   2.196   3.769 -0.2735  0.1799  0.2923
  314SOL    HW1 2383   0.873   2.236   3.855  0.4127  1.0849 -0.0397
  314SOL    HW2 2384   0.872   2.269   3.707  1.1531 -0.1156 -0.3188
  315SOL     OW 2385   6.318   2.793   2.562 -0.5339  0.1464 -0.3383
  315SOL    HW1 2386   6.292   2.788   2.470  0.3094  0.6953 -0.6173
  315SOL    HW2 2387   6.409   2.763   2.564 -0.6149 -0.0818  0.3514
  316SOL     OW 2388   1.915   0.591   3.280 -0.2973  0.4130  0.1659
  316SOL    HW1 2389   1.839   0.647   3.260 -0.5091 -0.1504 -0.6875
  316SOL    HW2 2390   1.977   0.649   3.324 -1.5542  0.6843  1.6513
  317SOL     OW 2391   7.821   0.926   4.080  0.4712  0.3688  0.3255
  317SOL    HW1 2392   7.894   0.934   4.142  1.5304  0.8194 -0.9282
  317SOL    HW2 2393   7.809   1.015   4.045  1.1475 -0.2008 -1.4601
  318SOL     OW 2394   1.377   1.315   1.661 -0.3000 -0.1800  0.1786
  318SOL    HW1 2395   1.353   1.297   1.570 -0.3311  1.6648 -0.2177
  318SOL    HW2 2396   1.300   1.291   1.712 -0.7662  0.0084 -0.4286
  319SOL     OW 2397   1.425   2.412   1.275 -0.4291  0.8160 -0.6100
  319SOL    HW1 2398   1.408   2.466   1.352 -1.0812  1.3237 -1.1016
  319SOL    HW2 2399   1.521   2.412   1.267 -0.2007 -0.7720  1.2528
  320SOL     OW 2400   1.551   3.127   2.815 -0.1285 -0.0159  0.0487
  320SOL    HW1 2401   1.525   3.078   2.893  0.0301 -0.1033  0.0474
  320SOL    HW2 2402   1.624   3.182   2.844  0.6084 -0.7903 -0.2706
  321SOL     OW 2403   2.979   1.460   2.069  0.3519 -0.0713  0.3069
  321SOL    HW1 2404   2.983   1.533   2.131 -1.1954  0.3854 -0.0796
  321SOL    HW2 2405   3.064   1.460   2.026  0.3521  1.6004  0.2259
  322SOL     OW 2406   0.228   0.666   4.241 -0.3555 -0.0080 -0.0507
  322SOL    HW1 2407   0.183   0.749   4.254 -0.4655 -0.1833  0.7372
  322SOL    HW2 2408   0.289   0.659   4.315  0.8591  0.1458 -1.0134
  323SOL     OW 2409   1.780   2.572   4.775 -0.0124  0.1495  0.5780
  323SOL    HW1 2410   1.804   2.486   4.741 -0.4566  0.1486  0.2573
  323SOL    HW2 2411   1.685   2.575   4.768 -0.0252  0.5538  0.8662
  324SOL     OW 2412   0.513   1.542   3.425 -0.1105 -0.3634 -0.3019
  324SOL    HW1 2413   0.608   1.544   3.420 -0.0535 -1.3389  0.0741
  324SOL    HW2 2414   0.493   1.560   3.517 -0.2571 -0.7402 -0.2573
  325SOL     OW 2415   0.591   7.745   3.362  0.0659 -0.7995  0.2084
  325SOL    HW1 2416   0.649   7.778   3.294 -1.2197  1.4383  0.1236
  325SOL    HW2 2417   0.518   7.704   3.314  0.4396 -1.5891  0.2959
  326SOL     OW 2418   1.531   0.733   2.493  0.4248  0.0383 -0.0812
  326SOL    HW1 2419   1.567   0.644   2.486  0.6426  0.2071 -1.3312
  326SOL    HW2 2420   1.485   0.746   2.410 -0.5559  0.6919  0.5538
  327SOL     OW 2421   0.543   3.481   3.089 -0.0498 -0.1665 -0.2035
  327SOL    HW1 2422   0.588   3.403   3.056 -1.3494 -1.8936  1.8864
  327SOL    HW2 2423   0.606   3.522   3.147  0.1102 -0.5255 -0.1208
  328SOL     OW 2424   1.516   7.377   1.124  0.2577  0.4259  0.7169
  328SOL    HW1 2425   1.428   7.393   1.091 -0.0195 -0.3650  1.0322
  328SOL    HW2 2426   1.568   7.358   1.047 -0.4634 -1.7817  0.6865
  329SOL     OW 2427   0.180   7.317   3.823 -0.1987 -0.1872  0.5515
  329SOL    HW1 2428   0.113   7.356   3.879  1.8455  0.9211  2.4163
  329SOL    HW2 2429   0.225   7.255   3.880 -0.0930 -1.4679 -0.8788
  330SOL     OW 2430   7.284   5.481   0.521  0.0690 -0.0043  0.0274
  330SOL    HW1 2431   7.289   5.572   0.490  0.1791 -0.6251 -1.9103
  330SOL    HW2 2432   7.193   5.469   0.548  0.1812  0.8241  0.8206
  331SOL     OW 2433   7.293   2.602   5.203 -0.2301  0.3921  0.3354
  331SOL    HW1 2434   7.354   2.648   5.259 -1.6611  1.2009  1.2866
  331SOL    HW2 2435   7.346   2.570   5.130  1.1697  1.7001  0.7462
  332SOL     OW 2436   7.904   2.229   3.407 -0.5725 -0.2363  0.4543
  332SOL    HW1 2437   7.928   2.165   3.340 -0.7358  1.4790 -1.3355
  332SOL    HW2 2438   7.962   2.303   3.392 -2.2668  1.1878  0.5535
  333SOL     OW 2439   1.010   7.916   3.964 -0.4004  0.7444  0.5147
  333SOL    HW1 2440   0.987   7.868   4.043  0.5027  1.8140  1.4601
  333SOL    HW2 2441   1.030   8.005   3.994 -0.5086  1.3025 -0.9743
  334SOL     OW 2442   0.920   1.813   2.093 -0.1410 -0.0283  0.3479
  334SOL    HW1 2443   0.978   1.738   2.080 -2.0615 -1.6472  0.6619
  334SOL    HW2 2444   0.847   1.798   2.033 -1.3101  0.7817  1.5198
  335SOL     OW 2445   1.323   0.132   1.913 -0.3774 -0.0980 -0.0476
  335SOL    HW1 2446   1.311   0.205   1.853  1.4380 -0.5701 -1.0277
  335SOL    HW2 2447   1.302   0.169   1.999 -1.1671  1.0900 -0.7223
  336SOL     OW 2448   0.379   6.069   1.866  0.0932 -0.2721  0.2841
  336SOL    HW1 2449   0.438   6.130   1.823  0.1507 -0.7242 -0.2909
  336SOL    HW2 2450   0.360   6.003   1.800 -1.0900 -0.1181  0.4399
  337SOL     OW 2451   0.813   1.049   2.384 -0.5167  0.2985 -0.1869
  337SOL    HW1 2452   0.862   1.092   2.454  1.6405 -0.6073 -1.0415
  337SOL    HW2 2453   0.878   1.033   2.316 -2.1056 -0.6984 -1.5383
  338SOL     OW 2454   7.455   7.107   3.027  0.1326 -0.3434 -0.1953
  338SOL    HW1 2455   7.470   7.195   3.061 -0.0044 -0.5610  0.4483
  338SOL    HW2 2456   7.396   7.120   2.952 -0.5413  0.0411  0.3897
  339SOL     OW 2457   2.433   1.457   0.565  0.4723 -0.1708  0.5649
  339SOL    HW1 2458   2.364   1.403   0.604 -0.8303  0.0711 -1.2982
  339SOL    HW2 2459   2.404   1.473   0.476  1.6916  2.1445  0.5032
  340SOL     OW 2460   1.405   2.480   4.507  0.4253 -0.3671  0.1530
  340SOL    HW1 2461   1.412   2.526   4.424 -2.1791  0.2821  0.2064
  340SOL    HW2 2462   1.468   2.408   4.500  0.0076 -0.5784 -2.5562
  341SOL     OW 2463   2.607   3.152   5.077 -0.0774  0.5377 -0.1157
  341SOL    HW1 2464   2.567   3.111   5.154 -0.6543  1.4998  0.1127
  341SOL    HW2 2465   2.699   3.127   5.081 -0.5397 -1.3235 -0.3863
  342SOL     OW 2466   7.745   1.044   2.545 -0.1775  0.1315 -0.1175
  342SOL    HW1 2467   7.816   1.024   2.484 -1.3983 -0.4654 -1.4111
  342SOL    HW2 2468   7.789   1.069   2.626  1.5045 -2.1050 -0.2393
  343SOL     OW 2469   1.347   0.883   2.641 -0.2084 -0.1314 -0.3963
  343SOL    HW1 2470   1.407   0.916   2.708  0.1737  2.0364 -1.7327
  343SOL    HW2 2471   1.405   0.851   2.572 -0.5274  1.6294 -1.5311
  344SOL     OW 2472   1.470   6.515   0.537 -0.7627  0.1612  0.1281
  344SOL    HW1 2473   1.435   6.591   0.489  2.6635  0.4945 -2.2272
  344SOL    HW2 2474   1.459   6.442   0.477  0.7879 -0.0853  0.1289
  345SOL     OW 2475   7.514   0.319   2.915 -0.6330 -0.4348 -0.1585
  345SOL    HW1 2476   7.436   0.357   2.874 -0.3927  0.2931  0.0464
  345SOL    HW2 2477   7.531   0.375   2.990 -1.4245 -2.1039  1.3337
  346SOL     OW 2478   7.786   7.151   2.419  0.0149 -0.6025 -0.7706
  346SOL    HW1 2479   7.692   7.166   2.419  0.2676  1.5541  1.3974
  346SOL    HW2 2480   7.801   7.086   2.489  0.2396  0.2527 -0.0036
  347SOL     OW 2481   1.131   0.819   2.826  0.0154  0.0133 -0.0212
  347SOL    HW1 2482   1.057   0.804   2.767 -0.5808 -0.0967  0.7252
  347SOL    HW2 2483   1.205   0.838   2.769 -0.6721  0.4649 -0.7799
  348SOL     OW 2484   0.017   7.605   2.053  0.4113 -0.4635  0.4445
  348SOL    HW1 2485   0.000   7.550   2.129  0.2969 -1.8837 -0.5675
  348SOL    HW2 2486  -0.068   7.646   2.034  0.0380 -1.3249  0.1767
  349SOL     OW 2487   1.134   2.397   3.651 -0.0806  0.3089 -0.4061
  349SOL    HW1 2488   1.103   2.430   3.567 -1.7642  1.4216  0.5919
  349SOL    HW2 2489   1.227   2.418   3.653  0.0281  0.0600 -2.0715
  350SOL     OW 2490   1.576   2.744   5.222 -0.0848  0.4386  0.0460
  350SOL    HW1 2491   1.600   2.836   5.209  1.0338  0.2802  0.8561
  350SOL    HW2 2492   1.658   2.696   5.210  0.0755 -0.1399  2.8278
  351SOL     OW 2493   1.224   7.496   2.226  0.6212 -0.1940 -0.4045
  351SOL    HW1 2494   1.243   7.537   2.142  0.1236  1.4530  0.2452
  351SOL    HW2 2495   1.307   7.496   2.273  0.6698 -0.1500 -0.4912
  352SOL     OW 2496   1.922   0.325   1.611 -0.5304  0.0945  0.3785
  352SOL    HW1 2497   1.942   0.370   1.693  1.7034  1.6719 -0.9298
  352SOL    HW2 2498   1.918   0.395   1.546 -3.1582 -1.0090 -0.7988
  353SOL     OW 2499   2.789   2.223   5.018  0.1667 -0.2792 -0.0661
  353SOL    HW1 2500   2.803   2.145   4.963  1.1648 -0.7412  0.8030
  353SOL    HW2 2501   2.845   2.290   4.979 -1.5615  0.3941 -1.5085
  354SOL     OW 2502   1.203   7.955   1.175 -0.4074  0.3093 -0.3286
  354SOL    HW1 2503   1.283   7.941   1.125 -0.5490  1.1765 -0.8269
  354SOL    HW2 2504   1.133   7.950   1.110 -0.7917 -0.6123  0.1278
  355SOL     OW 2505   7.288   7.170   2.515 -0.4582  0.8869  0.3219
  355SOL    HW1 2506   7.241   7.106   2.461  0.2062 -0.0204  0.7944
  355SOL    HW2 2507   7.240   7.252   2.501 -1.8643  0.1163  0.3764
  356SOL     OW 2508   0.682   3.223   4.573 -0.1917  0.1911 -0.0236
  356SOL    HW1 2509   0.639   3.275   4.506  1.6044  0.7411 -0.8214
  356SOL    HW2 2510   0.650   3.134   4.561 -0.6339  0.4754 -0.9700
  357SOL     OW 2511   7.463   4.139   4.805 -0.0403 -0.7423 -0.4290
  357SOL    HW1 2512   7.534   4.134   4.868 -0.0872 -0.0167 -0.3026
  357SOL    HW2 2513   7.393   4.085   4.841 -0.2432  0.0484  0.3777
  358SOL     OW 2514   2.933   1.748   5.492 -0.1838 -0.2328 -0.3471
  358SOL    HW1 2515   2.963   1.747   5.583 -2.1994  0.3642  0.3685
  358SOL    HW2 2516   3.010   1.776   5.443  1.4591 -2.2059  0.9273
  359SOL     OW 2517   0.762   1.895   3.393 -0.1982 -0.2889 -0.4625
  359SOL    HW1 2518   0.838   1.885   3.451 -0.6874  0.6132  0.3735
  359SOL    HW2 2519   0.688   1.907   3.453 -0.6767  0.9978 -1.2639
  360SOL     OW 2520   2.513   1.673   2.829 -0.6044 -0.3750 -0.1088
  360SOL    HW1 2521   2.477   1.588   2.856 -2.1900  0.0535 -0.7213
  360SOL    HW2 2522   2.447   1.736   2.857 -0.8434  0.3622 -2.1582
  361SOL     OW 2523   1.015   0.864   2.195 -0.0673 -0.3892 -0.0326
  361SOL    HW1 2524   1.049   0.778   2.218  1.3778  0.6504  2.1306
  361SOL    HW2 2525   1.056   0.885   2.112  2.3116 -0.4630  1.0323
  362SOL     OW 2526   0.499   0.171   2.491 -0.3717  0.3688  0.0381
  362SOL    HW1 2527   0.523   0.262   2.507  0.3714  0.2459 -0.2876
  362SOL    HW2 2528   0.449   0.144   2.568  0.0105  0.8453  0.4545
  363SOL     OW 2529   1.129   1.264   1.787  0.1096 -0.4734  0.2217
  363SOL    HW1 2530   1.136   1.350   1.830 -1.0781  0.5225 -1.4461
  363SOL    HW2 2531   1.035   1.249   1.779  0.2837 -0.8829 -1.4529
  364SOL     OW 2532   0.990   1.310   3.779  0.2442 -0.0004 -0.5042
  364SOL    HW1 2533   1.022   1.357   3.702  0.6386  1.1847  0.3531
  364SOL    HW2 2534   1.063   1.254   3.805  0.8556  1.0689  0.1529
  365SOL     OW 2535   7.829   0.074   3.155  0.1223 -0.0200  0.0832
  365SOL    HW1 2536   7.859   0.051   3.243  1.0997 -0.2416 -0.2912
  365SOL    HW2 2537   7.753   0.019   3.139 -0.4784  0.5101  1.0498
  366SOL     OW 2538   7.789   2.118   3.626  0.0353 -0.0907 -0.2163
  366SOL    HW1 2539   7.834   2.146   3.546  0.4739  0.9658  0.3847
  366SOL    HW2 2540   7.767   2.199   3.671  0.3403 -0.6711  1.0364
  367SOL     OW 2541   0.264   1.673   2.275 -0.0055 -0.3846 -0.1038
  367SOL    HW1 2542   0.278   1.681   2.181  1.5614  0.9940  0.1846
  367SOL    HW2 2543   0.169   1.677   2.286 -0.1777  0.1706 -1.5907
  368SOL     OW 2544   7.615   7.812   2.749 -0.0910  0.1538  0.1879
  368SOL    HW1 2545   7.520   7.816   2.738 -0.2156 -0.8824  0.7079
  368SOL    HW2 2546   7.643   7.903   2.757 -1.1802  0.4290  1.0853
  369SOL     OW 2547   1.685   0.961   2.507 -0.0644  0.4003 -0.6703
  369SOL    HW1 2548   1.765   0.952   2.455  0.4758  0.3979  0.1400
  369SOL    HW2 2549   1.647   0.873   2.509  1.6568 -0.3995  1.6311
  370SOL     OW 2550   1.357   0.869   4.017  0.4321  0.4858  0.4986
  370SOL    HW1 2551   1.342   0.821   3.936 -1.1674  1.7053  0.0133
  370SOL    HW2 2552   1.354   0.802   4.085 -0.0104 -0.3316 -0.3025
  371SOL     OW 2553   1.009   7.586   2.383  0.9057  0.3963 -0.1321
  371SOL    HW1 2554   1.078   7.547   2.331  0.7510  0.3709 -0.3209
  371SOL    HW2 2555   0.957   7.512   2.415  0.0631  0.4700 -1.2568
  372SOL     OW 2556   6.019   3.344   1.943  0.0448  0.1370  0.0837
  372SOL    HW1 2557   6.034   3.269   2.002 -0.3496  0.7660  1.0156
  372SOL    HW2 2558   6.106   3.377   1.923  0.1951 -0.1956  0.1864
  373SOL     OW 2559   6.389   7.660   3.436  0.2616  0.3428 -0.9947
  373SOL    HW1 2560   6.477   7.697   3.441  0.7003 -0.8292  0.9708
  373SOL    HW2 2561   6.331   7.736   3.435  1.2485  1.1184 -0.7220
  374SOL     OW 2562   2.323   1.466   2.549 -0.2708  0.4637  0.0670
  374SOL    HW1 2563   2.286   1.436   2.632  1.1258  1.6872  1.1903
  374SOL    HW2 2564   2.254   1.520   2.510 -1.8396 -1.9913 -0.7716
  375SOL     OW 2565   7.926   0.354   3.934 -0.6697 -0.2249 -0.7591
  375SOL    HW1 2566   8.007   0.400   3.913 -0.7800  0.4684  0.2661
  375SOL    HW2 2567   7.938   0.266   3.897  0.5259 -0.1203 -0.6530
  376SOL     OW 2568   1.335   0.206   2.167  0.2884  0.3760  0.4396
  376SOL    HW1 2569   1.427   0.230   2.164  0.0912  1.2253  0.8997
  376SOL    HW2 2570   1.312   0.209   2.261 -0.4656  1.2077  0.2449
  377SOL     OW 2571   1.831   1.808   2.711 -0.5399  0.1835 -0.3622
  377SOL    HW1 2572   1.803   1.805   2.803  0.1435  1.6902 -0.0716
  377SOL    HW2 2573   1.756   1.772   2.662 -0.0054 -2.9619  0.8924
  378SOL     OW 2574   0.489   1.310   1.906  0.0924 -0.3052 -0.2101
  378SOL    HW1 2575   0.453   1.310   1.995  1.7238 -0.5711  0.4912
  378SOL    HW2 2576   0.507   1.402   1.887  0.0086 -0.2756 -0.1439
  379SOL     OW 2577   1.086   6.883   3.035 -0.1986  0.4812 -0.3334
  379SOL    HW1 2578   1.123   6.845   2.955 -0.3907  0.1950 -0.2889
  379SOL    HW2 2579   1.044   6.809   3.079 -1.2387  0.8888 -0.6150
  380SOL     OW 2580   7.210   0.521   4.333  0.3891 -0.2078 -0.3604
  380SOL    HW1 2581   7.146   0.538   4.402  0.9200 -0.1214  0.1200
  380SOL    HW2 2582   7.183   0.577   4.261  0.2668  0.2791  0.0557
  381SOL     OW 2583   0.495   2.290   4.265  0.5768  0.2546 -0.7534
  381SOL    HW1 2584   0.450   2.224   4.319 -1.3487  1.9462 -0.1702
  381SOL    HW2 2585   0.516   2.244   4.184 -1.0820 -1.0086 -0.5283
  382SOL     OW 2586   1.608   7.475   3.889  0.3061 -0.1101 -0.3438
  382SOL    HW1 2587   1.700   7.449   3.891  0.6574  1.1280  0.6503
  382SOL    HW2 2588   1.561   7.397   3.920  0.9747 -0.8403 -1.1080
  383SOL     OW 2589   3.069   1.835   4.524 -0.4659  0.4574 -0.3737
  383SOL    HW1 2590   3.143   1.821   4.465 -1.4734 -1.0369 -1.3268
  383SOL    HW2 2591   2.998   1.866   4.467 -1.2606 -0.3782  0.1359
  384SOL     OW 2592   1.784   1.170   3.911 -0.1574  0.2952 -0.3513
  384SOL    HW1 2593   1.758   1.262   3.909  1.3601  0.7540 -0.4288
  384SOL    HW2 2594   1.855   1.166   3.975  0.1774 -0.7090 -0.7597
  385SOL     OW 2595   3.020   7.786   2.155  0.3646  0.3727 -0.3123
  385SOL    HW1 2596   3.094   7.783   2.215  0.8385  0.7206 -0.8638
  385SOL    HW2 2597   2.992   7.878   2.156  0.3598  0.3771 -0.5926
  386SOL     OW 2598   6.903   0.431   3.934 -0.0964  0.6889  0.0575
  386SOL    HW1 2599   6.985   0.464   3.896  0.9673 -1.7082  0.0921
  386SOL    HW2 2600   6.856   0.510   3.962  1.4666  2.2254 -1.3977
  387SOL     OW 2601   0.909   3.254   4.728  0.6417 -0.0497 -0.4089
  387SOL    HW1 2602   0.911   3.178   4.787  2.1400  1.1798  1.2294
  387SOL    HW2 2603   0.839   3.234   4.667  0.6180 -2.5084  0.2910
  388SOL     OW 2604   3.817   2.019   5.768 -0.0825 -0.2057  0.2190
  388SOL    HW1 2605   3.903   2.060   5.756 -0.4406  0.7501  0.7869
  388SOL    HW2 2606   3.781   2.061   5.846  0.0250 -2.4995  1.6085
  389SOL     OW 2607   1.527   0.832   4.238  0.1909  0.0195 -0.0676
  389SOL    HW1 2608   1.459   0.896   4.257 -1.1787 -1.7095  1.1445
  389SOL    HW2 2609   1.562   0.859   4.153 -0.4405  2.2287  0.2960
  390SOL     OW 2610   1.349   5.298   2.531 -0.4696 -0.7212  0.3629
  390SOL    HW1 2611   1.375   5.212   2.499  0.2735  0.1896 -1.6613
  390SOL    HW2 2612   1.432   5.344   2.546 -0.7825  0.6953 -1.7842
  391SOL     OW 2613   1.348   6.921   1.206 -0.0120  0.1782 -0.7163
  391SOL    HW1 2614   1.298   7.002   1.218  0.4620  0.2606  1.0354
  391SOL    HW2 2615   1.282   6.852   1.209 -0.1973  0.3728  0.2580
  392SOL     OW 2616   7.534   1.759   2.500  0.4617 -0.5189  0.9797
  392SOL    HW1 2617   7.595   1.832   2.494  0.2896 -0.4439 -0.0094
  392SOL    HW2 2618   7.590   1.682   2.510  0.6645 -0.3268  1.3547
  393SOL     OW 2619   0.074   3.115   3.018 -0.3260  0.1735  0.5319
  393SOL    HW1 2620   0.105   3.096   3.107  0.4680 -0.7889  0.0621
  393SOL    HW2 2621  -0.017   3.143   3.031  0.1100  1.1271  1.7447
  394SOL     OW 2622   0.690   1.525   3.012  0.0450  0.3823 -0.2190
  394SOL    HW1 2623   0.603   1.487   2.995  0.6981 -1.3161 -0.0094
  394SOL    HW2 2624   0.672   1.613   3.043 -1.6967 -0.2809  0.8340
  395SOL     OW 2625   1.274   3.368   2.980 -0.4869 -0.0687  0.0945
  395SOL    HW1 2626   1.278   3.457   2.947 -1.0702 -0.4658 -1.1151
  395SOL    HW2 2627   1.225   3.374   3.062 -0.0554  0.7888  0.2917
  396SOL     OW 2628   0.009   2.412   3.850  0.1124 -0.5282 -0.1024
  396SOL    HW1 2629  -0.022   2.473   3.917 -1.4724 -1.8525  0.4389
  396SOL    HW2 2630   0.068   2.353   3.897  2.7475  1.2836 -0.8967
  397SOL     OW 2631   1.518   0.969   2.001 -0.2390  0.1679 -0.6573
  397SOL    HW1 2632   1.574   0.977   1.924 -0.3313 -0.9934 -0.8613
  397SOL    HW2 2633   1.433   1.004   1.972 -0.2699 -0.2455 -1.0879
  398SOL     OW 2634   0.106   2.180   2.545 -0.3412  0.4019 -0.2523
  398SOL    HW1 2635   0.039   2.247   2.550  0.7256  1.7223 -2.4224
  398SOL    HW2 2636   0.188   2.228   2.538  0.7635 -1.1704  0.9656
  399SOL     OW 2637   1.215   2.786   3.111  0.0253  0.1092 -0.3179
  399SOL    HW1 2638   1.143   2.808   3.170  0.7110 -1.3636  1.1691
  399SOL    HW2 2639   1.223   2.861   3.053 -2.7650  0.2540 -0.6223
  400SOL     OW 2640   7.573   0.223   3.577 -0.4207 -0.1283  0.7593
  400SOL    HW1 2641   7.668   0.226   3.588 -0.2275 -1.6250 -0.2372
  400SOL    HW2 2642   7.549   0.312   3.554  0.6997  0.3224  1.2576
  401SOL     OW 2643   0.486   1.312   2.481  0.1238 -0.3137 -0.1250
  401SOL    HW1 2644   0.570   1.302   2.524  0.6836 -0.4287 -1.1971
  401SOL    HW2 2645   0.499   1.385   2.420 -1.2294  1.1620  1.2574
  402SOL     OW 2646   0.911   1.149   1.863  0.1679  0.3307 -0.2328
  402SOL    HW1 2647   0.954   1.064   1.876  1.8803  1.4892  2.8156
  402SOL    HW2 2648   0.852   1.157   1.937 -0.1885  1.6863 -0.6394
  403SOL     OW 2649   1.177   1.332   3.083 -0.1084 -0.0125  0.1486
  403SOL    HW1 2650   1.237   1.319   3.010  1.8179 -1.3198  1.8229
  403SOL    HW2 2651   1.161   1.426   3.085  0.3203  0.1192 -1.5408
  404SOL     OW 2652   1.160   0.275   1.217 -0.6818 -0.0885  0.8567
  404SOL    HW1 2653   1.240   0.254   1.169 -1.9187  1.1515 -1.9258
  404SOL    HW2 2654   1.108   0.194   1.214  0.3637 -0.8965  2.6726
  405SOL     OW 2655   1.944   1.350   3.245 -0.3657  0.1876 -0.4815
  405SOL    HW1 2656   1.891   1.273   3.269  0.4420 -0.3839 -0.5014
  405SOL    HW2 2657   1.907   1.421   3.298 -0.8683 -0.2981 -0.1631
  406SOL     OW 2658   0.059   2.759   4.304 -0.5404 -0.0139  0.5880
  406SOL    HW1 2659  -0.016   2.791   4.354 -0.3831  0.9801  0.2191
  406SOL    HW2 2660   0.092   2.836   4.259 -1.8156 -1.1562 -2.5762
  407SOL     OW 2661   0.475   0.463   3.790  0.2944  0.4821  0.1346
  407SOL    HW1 2662   0.413   0.403   3.748 -0.1049 -0.8488  2.4240
  407SOL    HW2 2663   0.422   0.508   3.857  1.9918 -2.2521  3.6869
  408SOL     OW 2664   1.616   3.291   3.731  0.0155  0.1696  0.0364
  408SOL    HW1 2665   1.701   3.267   3.694  0.4356  2.5006 -0.6160
  408SOL    HW2 2666   1.553   3.268   3.663 -0.2444 -3.5187  1.2951
  409SOL     OW 2667   1.876   1.253   0.607  0.0069  0.0654 -0.4626
  409SOL    HW1 2668   1.818   1.213   0.672  0.6400  1.1721  0.8413
  409SOL    HW2 2669   1.825   1.252   0.526 -1.2481 -0.3513  0.2946
  410SOL     OW 2670   7.012   1.464   5.667  0.4160 -0.2059  0.2157
  410SOL    HW1 2671   6.923   1.481   5.698  0.1463 -0.6951 -0.2779
  410SOL    HW2 2672   7.058   1.547   5.680  0.0446 -0.1072  0.9890
  411SOL     OW 2673   0.662   1.810   3.061 -0.6865  0.1248  0.2406
  411SOL    HW1 2674   0.699   1.869   2.996 -0.5509 -1.1961 -0.9333
  411SOL    HW2 2675   0.731   1.802   3.128  0.1512 -0.3296 -0.6526
  412SOL     OW 2676   0.600   2.144   4.054 -0.5427  0.1168  0.2717
  412SOL    HW1 2677   0.594   2.171   3.962  1.4307 -0.3023 -0.0319
  412SOL    HW2 2678   0.694   2.141   4.072 -0.8099 -1.7654  1.7021
  413SOL     OW 2679   2.566   0.936   4.181  0.4716  0.1278  0.1182
  413SOL    HW1 2680   2.606   0.927   4.268  0.1959 -1.2317  0.1297
  413SOL    HW2 2681   2.604   0.865   4.129  0.2270  0.5959 -0.7186
  414SOL     OW 2682   0.975   2.107   2.831 -0.4558 -0.1093  0.7677
  414SOL    HW1 2683   1.039   2.104   2.760 -0.7985 -2.8199  0.4530
  414SOL    HW2 2684   1.024   2.080   2.909 -0.9024 -0.9292  0.7764
  415SOL     OW 2685   0.772   1.446   2.571 -0.1353 -0.1806 -0.1091
  415SOL    HW1 2686   0.732   1.368   2.611 -0.1808 -1.2654 -2.1397
  415SOL    HW2 2687   0.861   1.419   2.550 -0.1318  0.3366 -0.7843
  416SOL     OW 2688   1.506   2.622   2.476  0.4731 -0.9505  0.5658
  416SOL    HW1 2689   1.448   2.691   2.444  0.4761 -2.0007 -1.9560
  416SOL    HW2 2690   1.594   2.658   2.464  0.4552  0.1888  3.2932
  417SOL     OW 2691   1.505   1.433   4.072 -0.0415 -0.4065  0.5134
  417SOL    HW1 2692   1.472   1.344   4.059  0.7341 -0.5930 -0.2585
  417SOL    HW2 2693   1.583   1.438   4.017 -0.2653  0.8596  0.2787
  418SOL     OW 2694   2.534   3.395   1.369  0.7043 -0.0980 -0.2229
  418SOL    HW1 2695   2.460   3.456   1.359  0.7167 -0.1435 -0.6328
  418SOL    HW2 2696   2.495   3.316   1.405  0.9574  0.7142  1.9986
  419SOL     OW 2697   6.210   2.464   2.892  0.1202  0.2550  0.1778
  419SOL    HW1 2698   6.302   2.485   2.906 -0.1188  0.7784  1.0048
  419SOL    HW2 2699   6.184   2.520   2.818  0.5179 -0.0752 -0.2199
  420SOL     OW 2700   0.362   1.428   4.087  0.3062 -0.5579  0.8774
  420SOL    HW1 2701   0.354   1.378   4.005  2.7512  0.5524 -0.1491
  420SOL    HW2 2702   0.278   1.471   4.098 -0.6012 -1.9766 -0.1833
  421SOL     OW 2703   0.527   2.212   3.807 -0.3450  0.3443  0.3147
  421SOL    HW1 2704   0.567   2.295   3.783 -2.2068  1.3495  0.5142
  421SOL    HW2 2705   0.456   2.201   3.744 -1.7088  0.1817  1.8319
  422SOL     OW 2706   7.024   3.826   3.090  0.3496 -0.0848 -0.6101
  422SOL    HW1 2707   6.973   3.863   3.162 -0.6256 -0.3272 -1.1675
  422SOL    HW2 2708   7.114   3.824   3.124 -0.0162  0.2286  0.4306
  423SOL     OW 2709   1.402   2.803   4.957 -0.1353  0.1164  0.2548
  423SOL    HW1 2710   1.491   2.829   4.934 -0.2275 -0.3701 -0.7234
  423SOL    HW2 2711   1.350   2.882   4.947 -0.0726  0.0508 -0.7416
  424SOL     OW 2712   1.959   7.149   3.798 -0.0255 -0.4249 -0.0051
  424SOL    HW1 2713   2.049   7.144   3.830 -0.0911 -0.2136  0.2139
  424SOL    HW2 2714   1.911   7.087   3.853  0.1940 -1.3536 -0.8459
  425SOL     OW 2715   0.421   1.761   3.271 -0.2137  0.2146 -0.0666
  425SOL    HW1 2716   0.427   1.844   3.318 -0.4928 -0.6132  1.4990
  425SOL    HW2 2717   0.462   1.697   3.330  0.9173 -0.6157 -1.6659
  426SOL     OW 2718   2.410   2.613   4.328  0.1094  0.2272  0.1425
  426SOL    HW1 2719   2.437   2.531   4.370  0.9390 -0.0927 -0.9678
  426SOL    HW2 2720   2.468   2.679   4.366  0.7499 -0.0346 -0.3603
  427SOL     OW 2721   0.473   1.934   2.832 -0.8223  0.2436  0.2209
  427SOL    HW1 2722   0.436   1.892   2.754 -0.3953  0.5389 -0.1442
  427SOL    HW2 2723   0.566   1.944   2.812 -1.1981  3.1014 -0.5067
  428SOL     OW 2724   7.922   0.875   1.945 -0.2373  0.5757 -0.6668
  428SOL    HW1 2725   7.926   0.934   2.021  2.4880 -0.9292  0.4994
  428SOL    HW2 2726   7.849   0.908   1.893 -1.1427  2.7179  1.7474
  429SOL     OW 2727   1.382   1.334   2.467  0.1279 -0.2660  0.6591
  429SOL    HW1 2728   1.423   1.261   2.515  1.0490 -2.0359 -2.5440
  429SOL    HW2 2729   1.291   1.307   2.456  0.3339 -0.6799 -0.0487
  430SOL     OW 2730   7.050   1.027   1.561 -0.1795 -0.1701  0.2100
  430SOL    HW1 2731   7.073   1.119   1.577  0.5837 -0.2735 -0.2867
  430SOL    HW2 2732   7.123   0.992   1.511 -1.1228 -0.6673 -0.8607
  431SOL     OW 2733   1.401   0.843   2.212  0.0870  0.5492 -0.8315
  431SOL    HW1 2734   1.456   0.886   2.146 -0.8558  0.1042 -1.9428
  431SOL    HW2 2735   1.355   0.774   2.164 -1.3070  0.7946  0.0854
  432SOL     OW 2736   1.456   2.779   3.225  0.5344 -0.2922  0.3369
  432SOL    HW1 2737   1.507   2.711   3.182 -1.2037 -2.0507  0.9037
  432SOL    HW2 2738   1.367   2.767   3.193 -0.0250  1.0542  1.2616
  433SOL     OW 2739   0.321   7.801   3.306 -0.0140 -0.0968  0.0722
  433SOL    HW1 2740   0.246   7.851   3.272  1.1379  1.9628  0.3805
  433SOL    HW2 2741   0.303   7.793   3.400 -0.4823 -0.8190 -0.0696
  434SOL     OW 2742   2.047   2.897   3.465  0.0429 -0.7793  0.2825
  434SOL    HW1 2743   1.995   2.891   3.385 -2.3640 -1.2505  1.7523
  434SOL    HW2 2744   2.090   2.982   3.460  0.4247 -1.0419 -1.7305
  435SOL     OW 2745   1.655   1.390   2.829 -0.1840 -0.0558 -0.1991
  435SOL    HW1 2746   1.645   1.371   2.736 -2.7141  0.6956 -0.1461
  435SOL    HW2 2747   1.639   1.484   2.837  0.3278 -0.0456  0.9483
  436SOL     OW 2748   0.474   2.192   0.704 -0.0976  0.1127  0.0922
  436SOL    HW1 2749   0.466   2.281   0.741  1.0496 -1.1596  3.9361
  436SOL    HW2 2750   0.553   2.196   0.650  0.6426  1.1980  1.1807
  437SOL     OW 2751   7.560   2.247   4.945 -0.0142 -0.2795  0.4153
  437SOL    HW1 2752   7.605   2.162   4.944 -1.6601 -1.2091 -1.3022
  437SOL    HW2 2753   7.467   2.225   4.954 -0.8731  1.0153 -3.2361
  438SOL     OW 2754   0.983   7.846   0.967  0.9896  0.5628 -0.0977
  438SOL    HW1 2755   1.025   7.839   0.881  1.8437 -2.0111  0.4515
  438SOL    HW2 2756   0.925   7.771   0.972 -0.1606  1.4854  1.0333
  439SOL     OW 2757   0.257   7.450   1.809  0.6927 -0.3720 -0.3940
  439SOL    HW1 2758   0.220   7.366   1.782  1.3583 -1.1029  0.8545
  439SOL    HW2 2759   0.265   7.500   1.727 -2.2090 -0.4619 -0.8225
  440SOL     OW 2760   0.987   0.890   3.208  0.7529  0.0192  0.1756
  440SOL    HW1 2761   0.925   0.884   3.280  0.3011  2.3625  0.0821
  440SOL    HW2 2762   0.939   0.936   3.139  1.5270 -1.1998 -1.2302
  441SOL     OW 2763   0.443   0.375   1.935 -0.2514 -0.4012 -0.1022
  441SOL    HW1 2764   0.521   0.416   1.972 -0.7365  1.0055 -0.5919
  441SOL    HW2 2765   0.390   0.351   2.012  0.1488 -0.3231  0.1997
  442SOL     OW 2766   3.838   7.980   3.258  0.2384  0.1582 -0.1305
  442SOL    HW1 2767   3.744   7.972   3.267  0.2307  0.4048  0.0079
  442SOL    HW2 2768   3.852   8.068   3.225  0.4135  0.0829 -0.2631
  443SOL     OW 2769   1.215   1.487   1.928 -0.0855 -0.4526 -0.1377
  443SOL    HW1 2770   1.219   1.552   1.858 -0.8764  0.4293  0.6117
  443SOL    HW2 2771   1.216   1.538   2.009 -0.6486 -1.3682  0.4660
  444SOL     OW 2772   1.996   3.592   3.795 -0.7762  0.0386 -0.0837
  444SOL    HW1 2773   1.929   3.547   3.846  0.8433 -1.0787  1.1847
  444SOL    HW2 2774   2.056   3.522   3.767 -1.0415  0.7574 -2.6978
  445SOL     OW 2775   0.332   0.296   3.648 -0.3331 -0.7148 -0.8028
  445SOL    HW1 2776   0.250   0.280   3.694  0.0898 -0.5567  0.0278
  445SOL    HW2 2777   0.380   0.213   3.656  0.5711 -0.0836  0.8122
  446SOL     OW 2778   2.650   2.607   4.972 -0.4678  0.7501 -0.1387
  446SOL    HW1 2779   2.666   2.701   4.978 -0.6356  0.7282  0.7624
  446SOL    HW2 2780   2.734   2.571   4.942  0.4081  0.9340  1.9265
  447SOL     OW 2781   6.181   2.732   3.653 -1.0059  0.0661 -0.4157
  447SOL    HW1 2782   6.124   2.682   3.594 -1.0056  0.3418 -0.6505
  447SOL    HW2 2783   6.269   2.701   3.634 -0.9374  0.6511 -1.0485
  448SOL     OW 2784   2.503   3.287   3.752  0.4222 -0.4308 -0.0170
  448SOL    HW1 2785   2.485   3.235   3.673 -0.0667 -0.4144  0.0827
  448SOL    HW2 2786   2.585   3.332   3.732  1.7736 -2.5071  0.5145
  449SOL     OW 2787   0.809   6.491   2.379 -0.5899  0.3025 -0.3982
  449SOL    HW1 2788   0.845   6.432   2.312  0.9934  0.7323  0.0237
  449SOL    HW2 2789   0.858   6.573   2.367  1.2593 -0.2198  2.5645
  450SOL     OW 2790   1.122   1.961   2.995 -0.0757  0.0285  0.3165
  450SOL    HW1 2791   1.084   1.901   2.930 -0.4156 -0.2033  0.7187
  450SOL    HW2 2792   1.099   1.921   3.080  3.0035 -1.3711  0.6109
  451SOL     OW 2793   0.421   0.407   2.808 -0.5288 -0.4586  0.3381
  451SOL    HW1 2794   0.366   0.410   2.730  0.0709 -1.2979 -0.1350
  451SOL    HW2 2795   0.361   0.378   2.878 -0.8132 -0.8476 -0.0594
  452SOL     OW 2796   1.848   1.272   4.195  0.1440  0.2739  0.4214
  452SOL    HW1 2797   1.781   1.278   4.263 -1.8096 -0.9370 -1.2708
  452SOL    HW2 2798   1.858   1.361   4.163 -0.2345  0.5654  1.0910
  453SOL     OW 2799   1.687   2.636   4.137 -0.2791 -0.2262  0.0615
  453SOL    HW1 2800   1.689   2.710   4.198 -1.5470 -0.0537 -0.0776
  453SOL    HW2 2801   1.777   2.629   4.105  0.3395 -0.1033  1.6769
  454SOL     OW 2802   1.857   1.536   4.322  0.3521  0.2409 -0.5235
  454SOL    HW1 2803   1.787   1.570   4.266 -2.4863 -1.7657  1.5171
  454SOL    HW2 2804   1.831   1.560   4.411  2.3259 -0.5508  0.3306
  455SOL     OW 2805   0.136   0.168   3.777  0.9401 -0.0995  0.2186
  455SOL    HW1 2806   0.198   0.138   3.844  0.0221 -0.4715  0.9198
  455SOL    HW2 2807   0.080   0.092   3.762  0.2554  0.4390  0.0514
  456SOL     OW 2808   1.370   0.217   0.853  0.2576 -0.2331 -0.4678
  456SOL    HW1 2809   1.436   0.264   0.903  1.0060 -1.2038 -0.5120
  456SOL    HW2 2810   1.289   0.267   0.867  0.6390  0.0368  0.9440
  457SOL     OW 2811   1.645   2.280   3.766 -0.0078 -0.0531 -0.5460
  457SOL    HW1 2812   1.556   2.285   3.801 -0.2607  0.7189 -1.2594
  457SOL    HW2 2813   1.633   2.273   3.671  0.6985  2.4310 -0.8763
  458SOL     OW 2814   0.454   2.565   4.351  0.2239 -0.4967  0.1268
  458SOL    HW1 2815   0.462   2.474   4.322  1.1168  0.2016 -2.1095
  458SOL    HW2 2816   0.361   2.585   4.344 -0.1232 -1.5042  1.6222
  459SOL     OW 2817   0.626   1.423   1.542 -0.5396  0.2753  0.1541
  459SOL    HW1 2818   0.718   1.412   1.567 -0.4224 -0.9539 -0.7289
  459SOL    HW2 2819   0.578   1.369   1.605 -0.5689  0.1739  0.0454
  460SOL     OW 2820   0.896   2.540   2.344 -0.3774  0.0697  0.4942
  460SOL    HW1 2821   0.888   2.555   2.250  1.4168  0.0111  0.2873
  460SOL    HW2 2822   0.810   2.510   2.371 -0.2510 -2.7418 -1.6998
  461SOL     OW 2823   1.644   7.164   2.145  0.6632 -0.4153  0.2195
  461SOL    HW1 2824   1.602   7.235   2.096 -0.1764 -0.1351  1.2908
  461SOL    HW2 2825   1.708   7.128   2.085 -0.5422 -0.3014 -1.1878
  462SOL     OW 2826   1.083   1.900   2.469  0.2710  0.6458 -0.3665
  462SOL    HW1 2827   1.119   1.984   2.441 -1.3036  1.8349  0.9891
  462SOL    HW2 2828   0.991   1.902   2.444 -0.3867  0.3961  1.8183
  463SOL     OW 2829   1.847   1.243   3.583 -0.0703  0.3005 -0.2313
  463SOL    HW1 2830   1.826   1.214   3.672 -1.0662 -0.4198 -0.6765
  463SOL    HW2 2831   1.762   1.249   3.540  0.4325  0.3069 -1.2423
  464SOL     OW 2832   1.936   2.249   2.410  0.1898 -0.4229 -0.2176
  464SOL    HW1 2833   2.016   2.206   2.379  0.2294 -0.8268  0.4302
  464SOL    HW2 2834   1.923   2.322   2.349 -0.0567 -1.5225 -1.5401
  465SOL     OW 2835   1.219   2.357   2.323  0.4536 -0.0033 -0.6029
  465SOL    HW1 2836   1.153   2.426   2.312 -1.5351 -1.8052 -0.5312
  465SOL    HW2 2837   1.268   2.358   2.241  0.6091  1.5998 -0.5238
  466SOL     OW 2838   1.323   7.651   0.973 -0.1342 -0.6667  0.4857
  466SOL    HW1 2839   1.325   7.559   0.945 -0.8897 -1.0928  1.7301
  466SOL    HW2 2840   1.415   7.673   0.989 -0.1161 -2.0525  2.6885
  467SOL     OW 2841   0.039   7.446   2.776 -0.0453  0.4514  0.1296
  467SOL    HW1 2842   0.000   7.533   2.769  0.0848  0.5197  0.2530
  467SOL    HW2 2843   0.036   7.426   2.869 -1.3997 -0.2839 -0.0459
  468SOL     OW 2844   0.711   2.952   3.981 -0.2373  0.5640  0.1268
  468SOL    HW1 2845   0.660   3.002   4.045  1.8086  2.9036  0.0714
  468SOL    HW2 2846   0.656   2.950   3.902 -2.0345 -0.8466  1.3336
  469SOL     OW 2847   1.547   2.328   1.645 -0.2473 -0.2772 -0.4717
  469SOL    HW1 2848   1.477   2.383   1.609  1.8633  2.1855 -1.1267
  469SOL    HW2 2849   1.540   2.246   1.597 -1.8769  0.3667 -1.4339
  470SOL     OW 2850   1.809   0.066   2.429  0.9167 -0.5543 -0.2538
  470SOL    HW1 2851   1.895   0.096   2.401 -0.3305  1.5874 -2.1437
  470SOL    HW2 2852   1.767   0.034   2.349 -0.7546  0.4382  0.1563
  471SOL     OW 2853   2.904   7.374   2.191  0.5036  0.0110 -0.2645
  471SOL    HW1 2854   2.830   7.323   2.221 -0.1068 -0.5451 -2.4927
  471SOL    HW2 2855   2.873   7.465   2.189  0.3659 -0.0287  0.1945
  472SOL     OW 2856   0.588   7.200   3.764  0.4431 -0.5687 -0.3462
  472SOL    HW1 2857   0.563   7.224   3.853  0.6784  0.2351 -0.4826
  472SOL    HW2 2858   0.515   7.146   3.732  0.2911 -0.7404  0.2777
  473SOL     OW 2859   0.654   2.279   2.616 -0.3868  0.5345  0.1540
  473SOL    HW1 2860   0.738   2.250   2.581 -0.7127  0.7572 -0.8492
  473SOL    HW2 2861   0.673   2.363   2.658  0.1961 -0.1994  1.4138
  474SOL     OW 2862   0.746   1.958   2.780 -0.3988  0.0414  0.3111
  474SOL    HW1 2863   0.813   2.023   2.800 -2.2787  2.3902 -0.5375
  474SOL    HW2 2864   0.790   1.894   2.724  1.5092  0.5933  1.1230
  475SOL     OW 2865   7.544   1.629   3.547 -0.1011 -0.6431  0.0302
  475SOL    HW1 2866   7.477   1.612   3.614 -1.5564 -0.8335 -1.3856
  475SOL    HW2 2867   7.559   1.723   3.551 -1.9703 -0.2517 -0.9055
  476SOL     OW 2868   1.477   0.519   4.302  0.4142 -0.1711  0.0884
  476SOL    HW1 2869   1.524   0.575   4.240 -1.1135  1.4361  0.2792
  476SOL    HW2 2870   1.528   0.525   4.383  0.6899  0.3498 -0.1152
  477SOL     OW 2871   6.193   1.794   4.251 -0.1765 -0.0964 -0.5395
  477SOL    HW1 2872   6.233   1.784   4.165 -0.4472 -0.2110 -0.6544
  477SOL    HW2 2873   6.113   1.844   4.235  0.6943  1.5125 -0.1021
  478SOL     OW 2874   0.073   1.933   7.136 -0.1724 -0.1113 -0.4994
  478SOL    HW1 2875   0.055   1.920   7.043  0.2684  2.0498 -0.9243
  478SOL    HW2 2876   0.168   1.926   7.144 -0.2879 -1.4567  0.0269
  479SOL     OW 2877   0.334   1.240   3.924 -0.6687  0.9278 -0.2819
  479SOL    HW1 2878   0.313   1.157   3.967 -1.7304  1.6981  0.8007
  479SOL    HW2 2879   0.386   1.217   3.848  0.6399 -0.5880  1.0156
  480SOL     OW 2880   1.902   7.807   4.355  0.0527  0.3257 -0.7182
  480SOL    HW1 2881   1.932   7.895   4.335 -0.7491  0.2611 -2.4109
  480SOL    HW2 2882   1.873   7.811   4.446  2.0093  1.2212 -0.0844
  481SOL     OW 2883   3.686   2.303   4.231  0.0818 -0.3178 -0.0902
  481SOL    HW1 2884   3.654   2.392   4.228  0.1232 -0.3178 -0.6446
  481SOL    HW2 2885   3.612   2.249   4.204  0.7422 -0.2516 -2.2635
  482SOL     OW 2886   7.210   1.965   5.612 -0.2106 -0.0049  0.2388
  482SOL    HW1 2887   7.124   1.938   5.578 -0.8784  2.2624 -0.0072
  482SOL    HW2 2888   7.224   2.052   5.576  2.0608 -0.1652  0.5940
  483SOL     OW 2889   7.608   0.286   4.832  0.0831 -0.0815 -0.0008
  483SOL    HW1 2890   7.582   0.337   4.755  2.0847 -0.5568 -1.0688
  483SOL    HW2 2891   7.610   0.349   4.903 -0.5160  0.6501 -0.6087
  484SOL     OW 2892   0.711   1.099   4.558  0.5549  0.0941 -0.4461
  484SOL    HW1 2893   0.798   1.137   4.571  1.5183 -2.2602  0.4275
  484SOL    HW2 2894   0.702   1.034   4.627 -2.6689  1.4427  0.6202
  485SOL     OW 2895   7.703   0.748   5.074  0.4519 -0.2910 -0.2637
  485SOL    HW1 2896   7.678   0.840   5.065  0.6490 -0.2568 -0.4875
  485SOL    HW2 2897   7.752   0.729   4.994 -0.9126 -1.0262 -0.9683
  486SOL     OW 2898   0.158   1.210   3.145  0.1808  0.5145 -0.7812
  486SOL    HW1 2899   0.223   1.143   3.128  0.3674  0.5134 -0.0988
  486SOL    HW2 2900   0.195   1.262   3.216 -2.6731 -2.6089  3.5338
  487SOL     OW 2901   6.796   0.527   3.604 -0.3928 -0.3097 -0.2108
  487SOL    HW1 2902   6.815   0.517   3.697 -1.1864 -1.2686 -0.1363
  487SOL    HW2 2903   6.882   0.529   3.562 -0.0163  0.6973  0.5867
  488SOL     OW 2904   7.694   0.841   4.635  0.4984 -0.5394 -0.8220
  488SOL    HW1 2905   7.658   0.789   4.563  1.0870 -0.6774 -1.0303
  488SOL    HW2 2906   7.722   0.923   4.594 -1.7270  0.5849 -0.2525
  489SOL     OW 2907   0.532   0.053   3.644 -0.2894  0.1027  0.2800
  489SOL    HW1 2908   0.518  -0.030   3.692 -0.0659  0.5791  1.1901
  489SOL    HW2 2909   0.508   0.032   3.554 -1.1226 -0.7196  0.6681
  490SOL     OW 2910   6.620   2.137   3.405  0.3982 -0.3198  0.3415
  490SOL    HW1 2911   6.645   2.184   3.485 -0.6996 -2.8079  2.2732
  490SOL    HW2 2912   6.525   2.136   3.408  0.3869 -2.1447  0.0932
  491SOL     OW 2913   7.835   3.217   4.894  0.2309 -0.7030 -0.2741
  491SOL    HW1 2914   7.794   3.218   4.981  2.7168 -1.8160  1.0354
  491SOL    HW2 2915   7.809   3.300   4.854 -2.6085 -1.0380  0.6810
  492SOL     OW 2916   1.334   2.193   4.016  0.0392  0.3814 -0.6927
  492SOL    HW1 2917   1.411   2.162   4.062 -1.1255 -0.5726  0.6740
  492SOL    HW2 2918   1.345   2.289   4.013  1.4733  0.2336 -0.9598
  493SOL     OW 2919   0.204   2.515   4.305  0.1509  0.2902  0.1671
  493SOL    HW1 2920   0.149   2.594   4.308  0.2544  0.3912 -0.4383
  493SOL    HW2 2921   0.142   2.442   4.311  0.0981  0.4043  1.3826
  494SOL     OW 2922   7.271   2.436   5.985  0.1553  0.4486  0.0976
  494SOL    HW1 2923   7.274   2.470   6.074 -0.9266  2.1644 -0.4631
  494SOL    HW2 2924   7.265   2.514   5.930 -1.0658 -0.6139 -1.3611
  495SOL     OW 2925   0.335   3.653   3.136  0.4296  0.7423  0.2364
  495SOL    HW1 2926   0.394   3.580   3.119  0.6593  1.4018 -2.0797
  495SOL    HW2 2927   0.383   3.707   3.200  0.6133 -0.6414  1.3271
  496SOL     OW 2928   0.736   0.353   3.827  0.2025  0.0057  0.3064
  496SOL    HW1 2929   0.796   0.385   3.760  0.9682 -2.5759 -0.3876
  496SOL    HW2 2930   0.651   0.390   3.803  0.5529 -0.4473 -1.8738
  497SOL     OW 2931   0.521   3.605   2.813 -0.1961  0.3278 -0.2161
  497SOL    HW1 2932   0.499   3.569   2.900  0.1165 -1.2005 -0.7429
  497SOL    HW2 2933   0.516   3.700   2.825  0.6800  0.1788  1.6926
  498SOL     OW 2934   0.355   3.716   5.085  0.1172  0.2573  0.1524
  498SOL    HW1 2935   0.368   3.756   5.171 -2.3254  0.4419  0.5186
  498SOL    HW2 2936   0.358   3.622   5.102 -1.2336  0.2806  0.6527
  499SOL     OW 2937   7.386   2.210   5.641  1.0054  0.3657  0.2562
  499SOL    HW1 2938   7.385   2.208   5.546  1.0342  1.2542  0.2268
  499SOL    HW2 2939   7.371   2.302   5.663 -0.8692 -0.0972  1.1447
  500SOL     OW 2940   6.992   1.732   3.016 -0.1919  0.2314 -0.1247
  500SOL    HW1 2941   6.929   1.660   3.012  0.2360 -0.1298 -0.5484
  500SOL    HW2 2942   6.940   1.810   3.036 -0.5371 -0.3399  1.2334
  501SOL     OW 2943   0.614   0.812   2.601  0.5806  0.1777 -0.5457
  501SOL    HW1 2944   0.630   0.754   2.675 -1.1301 -1.0349 -1.0626
  501SOL    HW2 2945   0.662   0.771   2.528  2.2528  1.3627 -0.1709
  502SOL     OW 2946   6.778   1.102   4.947  0.1407 -0.0753 -0.6137
  502SOL    HW1 2947   6.813   1.154   5.020 -0.4655  0.1268 -0.4523
  502SOL    HW2 2948   6.693   1.144   4.928 -0.2601 -0.8747 -0.6206
  503SOL     OW 2949   0.207   3.487   5.399  0.1502 -0.0347 -0.3450
  503SOL    HW1 2950   0.273   3.469   5.332  1.3258  1.5634  0.3000
  503SOL    HW2 2951   0.167   3.570   5.372 -1.2794 -0.7445 -0.4708
  504SOL     OW 2952   0.376   0.319   5.334 -0.1657  0.3685 -0.1264
  504SOL    HW1 2953   0.385   0.408   5.299  0.1910  0.3749 -0.0179
  504SOL    HW2 2954   0.282   0.309   5.348 -0.4280  0.0798 -1.8413
  505SOL     OW 2955   0.564   2.986   4.497  0.2570 -0.0652  0.0375
  505SOL    HW1 2956   0.553   2.898   4.533  1.2851 -0.4178 -0.4992
  505SOL    HW2 2957   0.502   2.990   4.424 -3.7002  1.4817  3.1182
  506SOL     OW 2958   7.254   2.689   4.013 -0.8828  0.4641  0.0454
  506SOL    HW1 2959   7.289   2.720   4.097  1.6039  0.4605 -0.9128
  506SOL    HW2 2960   7.246   2.768   3.960  1.1366  0.1061 -0.8935
  507SOL     OW 2961   1.304   2.450   5.503  0.2720  0.5681  0.4368
  507SOL    HW1 2962   1.364   2.524   5.493  1.6264 -0.5362 -0.0022
  507SOL    HW2 2963   1.230   2.471   5.446  0.9297  1.2944 -0.1669
  508SOL     OW 2964   0.440   2.118   5.473  0.5337 -0.2808  0.3169
  508SOL    HW1 2965   0.449   2.113   5.377 -1.2293 -1.1216  0.1439
  508SOL    HW2 2966   0.425   2.211   5.491  1.0794 -0.0864 -0.1921
  509SOL     OW 2967   6.429   1.804   5.197 -0.4216  0.2571 -0.0629
  509SOL    HW1 2968   6.436   1.709   5.200 -0.6392  0.1278 -2.1327
  509SOL    HW2 2969   6.378   1.827   5.274 -1.6661 -1.4668 -0.3253
  510SOL     OW 2970   1.544   0.346   5.062  0.0823  0.1185 -0.4953
  510SOL    HW1 2971   1.620   0.325   5.009  0.4452 -0.0941  0.0925
  510SOL    HW2 2972   1.574   0.415   5.121 -0.2072  0.0994 -0.3209
  511SOL     OW 2973   0.591   0.804   4.638 -0.1256 -0.1709  0.2114
  511SOL    HW1 2974   0.594   0.784   4.544 -1.0542 -0.0999  0.1555
  511SOL    HW2 2975   0.681   0.828   4.661  0.2624 -0.9302 -0.4953
  512SOL     OW 2976   7.752   2.670   5.915  0.4090 -0.1660  0.1303
  512SOL    HW1 2977   7.768   2.659   6.008 -1.0637  3.4938  0.9957
  512SOL    HW2 2978   7.684   2.606   5.894  0.3095 -0.6200  1.7440
  513SOL     OW 2979   0.465   7.349   4.571  0.1831 -0.5129 -0.0291
  513SOL    HW1 2980   0.427   7.436   4.557 -0.6788 -0.8047  0.4528
  513SOL    HW2 2981   0.558   7.366   4.590  0.1644  0.2475 -0.5673
  514SOL     OW 2982   1.289   1.897   4.440 -0.5213 -0.0284 -0.5449
  514SOL    HW1 2983   1.307   1.985   4.407 -0.6023 -0.1360 -0.8753
  514SOL    HW2 2984   1.376   1.858   4.452 -0.4451  0.4180  0.4974
  515SOL     OW 2985   6.771   0.565   4.626  0.3439 -0.4846 -0.9486
  515SOL    HW1 2986   6.760   0.487   4.681  2.2768 -0.9725 -1.1966
  515SOL    HW2 2987   6.752   0.638   4.685 -1.7050 -1.0816 -0.7601
  516SOL     OW 2988   0.743   1.389   4.126 -0.7123  0.6308 -0.1362
  516SOL    HW1 2989   0.677   1.440   4.174  0.4660  1.4111  0.7338
  516SOL    HW2 2990   0.822   1.395   4.181 -0.3136 -1.5384 -0.3884
  517SOL     OW 2991   0.061   0.445   4.479  0.0393  0.3356  0.5352
  517SOL    HW1 2992  -0.019   0.396   4.460  0.1529  0.5952 -0.7582
  517SOL    HW2 2993   0.129   0.398   4.430  0.2744  1.3661 -0.1595
  518SOL     OW 2994   7.088   0.956   4.158  0.0955  0.4475  0.0401
  518SOL    HW1 2995   7.129   0.985   4.239  0.3538  1.2811 -0.3768
  518SOL    HW2 2996   7.156   0.967   4.091 -0.4603  0.8458 -0.4749
  519SOL     OW 2997   7.865   1.288   4.321  0.0706 -0.2793 -0.4457
  519SOL    HW1 2998   7.815   1.368   4.309 -1.6112 -1.2490 -0.1515
  519SOL    HW2 2999   7.894   1.264   4.233  1.9794  1.4486 -0.3714
  520SOL     OW 3000   6.573   2.718   4.479  0.3022  0.0149  0.3026
  520SOL    HW1 3001   6.550   2.670   4.559  1.3392 -0.7462  0.1685
  520SOL    HW2 3002   6.535   2.805   4.491 -1.8951 -0.8976  0.4328
  521SOL     OW 3003   0.973   1.332   4.296 -0.5606  0.1198 -0.1467
  521SOL    HW1 3004   0.936   1.322   4.384 -0.4911 -0.2590 -0.1593
  521SOL    HW2 3005   1.026   1.411   4.301 -0.7774  0.2539  0.0758
  522SOL     OW 3006   7.190   7.774   3.836 -0.5037  0.0427  0.2332
  522SOL    HW1 3007   7.172   7.848   3.777  1.8654 -0.7821 -1.6857
  522SOL    HW2 3008   7.127   7.785   3.907 -1.2478  3.0447 -0.7244
  523SOL     OW 3009   1.092   1.251   5.748 -0.6182  0.0269 -0.1244
  523SOL    HW1 3010   1.137   1.218   5.670  0.7599  0.1462  0.5820
  523SOL    HW2 3011   1.051   1.174   5.787  0.0565 -0.3221 -0.0945
  524SOL     OW 3012   1.055   1.491   3.593 -0.3799  1.1025  0.3574
  524SOL    HW1 3013   1.085   1.537   3.672  0.9386 -1.3055  1.3812
  524SOL    HW2 3014   1.133   1.488   3.537 -0.8053  1.2183 -0.2462
  525SOL     OW 3015   7.701   0.542   3.951  0.0732  0.1234 -0.1119
  525SOL    HW1 3016   7.755   0.464   3.938 -0.4938 -0.4263  0.7847
  525SOL    HW2 3017   7.759   0.615   3.928  0.6728 -0.5406 -0.7537
  526SOL     OW 3018   1.064   1.325   5.164 -0.1062  0.0860 -0.3112
  526SOL    HW1 3019   1.137   1.279   5.207 -0.7113  0.7879  1.5890
  526SOL    HW2 3020   1.103   1.366   5.087  0.9230 -1.6893 -0.7966
  527SOL     OW 3021   0.493   3.340   3.960 -0.2210 -0.5006 -0.1486
  527SOL    HW1 3022   0.509   3.257   4.006 -0.8340  0.3047  1.6150
  527SOL    HW2 3023   0.398   3.340   3.945  0.0225 -0.9715 -1.9517
  528SOL     OW 3024   1.515   0.999   2.815  0.0568  0.0239  0.0455
  528SOL    HW1 3025   1.510   0.996   2.910 -0.5321  0.4495  0.0346
  528SOL    HW2 3026   1.576   1.070   2.797  0.2761 -0.1489  0.1080
  529SOL     OW 3027   2.265   2.741   4.601  0.0467 -0.5626 -0.0068
  529SOL    HW1 3028   2.359   2.740   4.614 -0.0750 -2.6030  1.0466
  529SOL    HW2 3029   2.241   2.650   4.584 -2.0067 -0.5556  2.1899
  530SOL     OW 3030   2.017   1.110   2.114  0.0395  0.0022  0.3860
  530SOL    HW1 3031   2.106   1.093   2.082  0.3309 -0.5990  1.4797
  530SOL    HW2 3032   1.969   1.136   2.035  1.3061  0.9211 -0.1299
  531SOL     OW 3033   1.747   0.636   4.329  0.5876  0.2812 -0.3550
  531SOL    HW1 3034   1.749   0.668   4.419  2.1717  0.1435 -0.3173
  531SOL    HW2 3035   1.812   0.566   4.327 -1.4507 -1.7284 -0.9000
  532SOL     OW 3036   2.134   2.492   4.567  0.4956 -0.2951 -0.0897
  532SOL    HW1 3037   2.063   2.545   4.532  0.4718 -0.7369 -0.7327
  532SOL    HW2 3038   2.090   2.426   4.621  0.5249  0.3204  0.6959
  533SOL     OW 3039   1.111   3.277   1.280 -1.0165 -0.2354 -0.2280
  533SOL    HW1 3040   1.037   3.278   1.340 -0.6022 -3.5047  0.5526
  533SOL    HW2 3041   1.171   3.212   1.318  1.1077  0.5015 -2.1233
  534SOL     OW 3042   1.278   6.964   4.286  0.6818  0.0015 -0.4053
  534SOL    HW1 3043   1.240   6.877   4.294 -1.0618  0.7763  0.3349
  534SOL    HW2 3044   1.276   6.983   4.193  1.1042 -0.7536 -0.5725
  535SOL     OW 3045   1.261   2.777   3.803  0.5281  0.8750  0.3630
  535SOL    HW1 3046   1.337   2.720   3.790 -2.3771 -3.3980  0.1218
  535SOL    HW2 3047   1.282   2.828   3.882  4.4483  1.7166 -1.0048
  536SOL     OW 3048   0.646   3.085   3.471 -0.5209 -0.4684 -0.0636
  536SOL    HW1 3049   0.609   3.117   3.389  1.5056  1.7735 -0.2322
  536SOL    HW2 3050   0.741   3.086   3.456  0.0185  1.3292  2.6420
  537SOL     OW 3051   0.985   7.821   2.566  0.4848  0.0866 -0.1197
  537SOL    HW1 3052   1.011   7.744   2.515 -0.5740 -2.1380  2.4673
  537SOL    HW2 3053   0.901   7.797   2.604 -0.2936  2.9133  0.1339
  538SOL     OW 3054   7.146   2.506   5.446 -0.0870 -0.0613  0.2560
  538SOL    HW1 3055   7.053   2.515   5.467 -0.3552 -1.3094 -0.2556
  538SOL    HW2 3056   7.151   2.527   5.352  0.3233  0.9565  0.4936
  539SOL     OW 3057   0.095   1.562   4.146  0.2643 -0.2358  0.1011
  539SOL    HW1 3058   0.159   1.631   4.132  1.0458 -0.8336  0.6244
  539SOL    HW2 3059   0.025   1.603   4.195  1.2480 -0.0651  1.4159
  540SOL     OW 3060   5.560   1.405   6.212  0.6340 -0.1096 -0.2410
  540SOL    HW1 3061   5.577   1.436   6.123  0.0076 -0.7147 -0.5800
  540SOL    HW2 3062   5.483   1.454   6.240  2.7102  2.6278  1.2924
  541SOL     OW 3063   2.292   0.218   4.870 -0.1012 -0.1580 -0.0469
  541SOL    HW1 3064   2.335   0.248   4.789 -0.8758 -0.6812 -0.6719
  541SOL    HW2 3065   2.207   0.185   4.841  0.5050 -2.5642  0.6116
  542SOL     OW 3066   0.705   7.555   2.048 -0.1623  0.5838 -0.1974
  542SOL    HW1 3067   0.614   7.584   2.059 -0.4686 -0.3118 -0.2838
  542SOL    HW2 3068   0.755   7.610   2.109 -0.8318  0.7478  0.2166
  543SOL     OW 3069   7.797   2.315   5.491  0.7132  0.4162  0.1351
  543SOL    HW1 3070   7.719   2.349   5.447  0.5831  1.0967  0.8903
  543SOL    HW2 3071   7.859   2.387   5.491  0.2792  0.8537  2.1273
  544SOL     OW 3072   7.773   1.464   5.852 -0.1530  0.2069 -0.1478
  544SOL    HW1 3073   7.690   1.424   5.826  0.5764 -0.0680 -2.1878
  544SOL    HW2 3074   7.840   1.402   5.824  0.8288  1.2347 -0.1456
  545SOL     OW 3075   2.084   0.572   3.505 -0.3093 -0.6267 -0.2685
  545SOL    HW1 3076   2.032   0.520   3.444 -1.1393 -0.9150  0.6575
  545SOL    HW2 3077   2.116   0.508   3.569 -2.8373  0.1426  1.9461
  546SOL     OW 3078   0.362   2.099   4.453  0.1570 -0.0377  0.7641
  546SOL    HW1 3079   0.432   2.042   4.483  0.2103 -0.6654 -0.5326
  546SOL    HW2 3080   0.312   2.046   4.391  1.1998  1.8309 -1.7951
  547SOL     OW 3081   6.805   0.416   4.362 -0.3331  0.5130 -0.0385
  547SOL    HW1 3082   6.872   0.475   4.330 -0.2221  0.3291 -0.1429
  547SOL    HW2 3083   6.748   0.471   4.416 -0.8725  0.9602 -1.0316
  548SOL     OW 3084   1.238   0.512   2.457 -0.5180 -0.4258  0.1179
  548SOL    HW1 3085   1.322   0.522   2.411 -1.2200  0.6585 -0.9860
  548SOL    HW2 3086   1.260   0.461   2.535  1.1500 -0.2554 -0.1925
  549SOL     OW 3087   2.104   1.516   4.275  0.1233 -0.1634 -0.1684
  549SOL    HW1 3088   2.013   1.509   4.302  0.1783  1.6642  0.6372
  549SOL    HW2 3089   2.132   1.425   4.260 -1.7243 -0.7703 -0.1875
  550SOL     OW 3090   7.960   6.746   4.387  0.3513 -0.4349 -0.3670
  550SOL    HW1 3091   7.978   6.785   4.473  1.1897  3.2890 -2.0297
  550SOL    HW2 3092   7.869   6.718   4.392  0.7576 -1.5851  2.0969
  551SOL     OW 3093   0.466   0.731   4.890 -0.3917  0.0394 -0.0163
  551SOL    HW1 3094   0.500   0.764   4.807 -1.4275  1.8364  0.2350
  551SOL    HW2 3095   0.518   0.776   4.957 -0.8586  0.0854  0.3229
  552SOL     OW 3096   0.204   0.372   5.056 -0.1416  0.0225  0.2236
  552SOL    HW1 3097   0.248   0.456   5.042 -1.6938  0.8383  0.0420
  552SOL    HW2 3098   0.113   0.395   5.075 -0.3139 -1.5673  1.5043
  553SOL     OW 3099   6.926   3.566   4.356 -0.7920  0.1442  0.1814
  553SOL    HW1 3100   6.979   3.496   4.395 -2.2389  0.0219  2.0718
  553SOL    HW2 3101   6.933   3.552   4.262  0.3657 -1.4751  0.4658
  554SOL     OW 3102   6.695   0.204   4.500 -0.0280 -0.2414 -0.1437
  554SOL    HW1 3103   6.616   0.258   4.507  0.0938  0.1319 -1.5107
  554SOL    HW2 3104   6.764   0.264   4.473  0.8262 -0.5150  1.2754
  555SOL     OW 3105   1.963   1.913   4.959 -0.1714  0.0045  0.7259
  555SOL    HW1 3106   1.940   1.992   5.009  0.4531  0.1237  0.8299
  555SOL    HW2 3107   2.039   1.939   4.907  1.6218 -1.2133  2.6110
  556SOL     OW 3108   0.079   0.775   4.808  0.4377  0.1642 -0.1920
  556SOL    HW1 3109   0.105   0.737   4.892 -1.0165 -0.6812 -0.0897
  556SOL    HW2 3110   0.101   0.708   4.743 -0.5048 -0.1459 -0.2115
  557SOL     OW 3111   7.391   0.753   4.112  0.6220  1.0026  0.5250
  557SOL    HW1 3112   7.396   0.658   4.098  0.1698  0.8443  1.3750
  557SOL    HW2 3113   7.476   0.776   4.150  0.9947  1.0681 -0.3055
  558SOL     OW 3114   0.828   7.709   6.007  0.3217  0.0582  0.4696
  558SOL    HW1 3115   0.744   7.717   6.053  1.0564 -0.1719  1.9176
  558SOL    HW2 3116   0.872   7.636   6.051  0.6993 -0.7872 -1.2371
  559SOL     OW 3117   1.586   5.281   2.856 -0.7498 -0.2194 -0.3318
  559SOL    HW1 3118   1.581   5.209   2.920 -2.3979  0.7182  0.6548
  559SOL    HW2 3119   1.642   5.346   2.898  1.5698 -1.2568 -1.6448
  560SOL     OW 3120   0.752   0.624   3.008 -0.5939  0.2814  0.2517
  560SOL    HW1 3121   0.755   0.633   3.103 -0.7555  1.1497  0.1912
  560SOL    HW2 3122   0.820   0.684   2.976 -0.2737 -0.2981 -0.1699
  561SOL     OW 3123   0.640   2.094   4.870  0.2407 -0.1448  0.0374
  561SOL    HW1 3124   0.605   2.053   4.791 -0.0255 -2.1237  1.1087
  561SOL    HW2 3125   0.735   2.092   4.857  0.1951  3.0147 -1.8040
  562SOL     OW 3126   7.506   0.464   3.479 -0.2703  0.3621  0.1695
  562SOL    HW1 3127   7.430   0.482   3.423 -1.2109  1.2912  1.6719
  562SOL    HW2 3128   7.477   0.488   3.567  2.0102  1.5138  0.6807
  563SOL     OW 3129   2.146   1.265   4.190 -0.5477 -0.4030 -0.0191
  563SOL    HW1 3130   2.086   1.191   4.196 -0.3178 -0.8186 -2.0879
  563SOL    HW2 3131   2.233   1.226   4.187 -0.2838  0.0825  0.9303
  564SOL     OW 3132   7.806   3.141   6.258 -0.2427  0.0575 -0.1290
  564SOL    HW1 3133   7.755   3.156   6.178 -0.5386 -0.7488 -0.1033
  564SOL    HW2 3134   7.747   3.091   6.315  0.1838  0.0955  0.3531
  565SOL     OW 3135   0.795   1.452   3.434 -0.5091  0.1697 -0.3466
  565SOL    HW1 3136   0.862   1.480   3.496 -0.8925 -1.3870  0.8683
  565SOL    HW2 3137   0.842   1.405   3.366 -0.3474 -1.4404  0.8123
  566SOL     OW 3138   7.928   0.617   4.196  0.4032 -0.3172  0.4655
  566SOL    HW1 3139   7.861   0.570   4.246 -0.5604  1.5195  1.0040
  566SOL    HW2 3140   8.008   0.603   4.245  0.2695 -1.8646  0.2766
  567SOL     OW 3141   1.075   2.191   4.110 -1.0627  0.0854  0.1068
  567SOL    HW1 3142   1.155   2.183   4.058 -1.2443 -0.7344 -0.0663
  567SOL    HW2 3143   1.083   2.275   4.155 -1.0423  0.9486 -1.4670
  568SOL     OW 3144   0.964   2.193   4.635 -0.0217  0.6679 -0.2229
  568SOL    HW1 3145   1.032   2.246   4.594 -0.6281  0.7372 -1.1804
  568SOL    HW2 3146   0.907   2.256   4.679 -0.0644  0.7058 -0.3320
  569SOL     OW 3147   0.612   0.991   6.307 -0.1752 -0.4157 -0.3017
  569SOL    HW1 3148   0.597   0.919   6.245 -1.0497 -0.6410  0.1681
  569SOL    HW2 3149   0.536   1.048   6.296  1.5557  1.7113 -2.3454
  570SOL     OW 3150   1.922   1.356   5.196 -0.5901  0.3933  0.1521
  570SOL    HW1 3151   1.960   1.393   5.117 -0.1088  0.5293  0.4488
  570SOL    HW2 3152   1.895   1.432   5.248  1.5920  0.4270  1.3644
  571SOL     OW 3153   0.397   0.934   5.637  0.3115  0.0037 -0.1159
  571SOL    HW1 3154   0.423   0.845   5.657 -2.1181 -0.4832  1.2722
  571SOL    HW2 3155   0.430   0.986   5.710 -0.4519 -0.1949  0.3746
  572SOL     OW 3156   2.138   1.857   3.664 -0.3664  0.0840 -0.2840
  572SOL    HW1 3157   2.077   1.855   3.738  0.9271 -0.0833  0.8238
  572SOL    HW2 3158   2.082   1.860   3.587 -1.7720 -0.3373  0.6755
  573SOL     OW 3159   1.378   7.934   5.318 -0.3092 -0.0152 -0.0740
  573SOL    HW1 3160   1.390   7.985   5.238 -0.8466  0.2663  0.0203
  573SOL    HW2 3161   1.301   7.973   5.360  0.3520  0.2702  0.9101
  574SOL     OW 3162   2.623   1.085   5.448  0.6489  0.5700 -0.3563
  574SOL    HW1 3163   2.605   0.991   5.450 -0.9139  0.8446 -0.6876
  574SOL    HW2 3164   2.704   1.093   5.397 -0.0772 -0.4726 -1.7231
  575SOL     OW 3165   6.897   2.197   5.369  0.0882  0.0821  0.1656
  575SOL    HW1 3166   6.901   2.176   5.275 -0.6938 -0.8029  0.3097
  575SOL    HW2 3167   6.823   2.145   5.401 -0.3005  1.1658  1.0763
  576SOL     OW 3168   1.262   3.103   3.015  0.3876 -0.3341  0.5817
  576SOL    HW1 3169   1.243   3.052   2.935  0.6102 -1.5208  1.2587
  576SOL    HW2 3170   1.246   3.194   2.990 -2.4936 -0.9013  0.0072
  577SOL     OW 3171   0.916   0.201   4.745 -0.0162 -0.2149 -0.3045
  577SOL    HW1 3172   0.880   0.182   4.831 -0.4085 -0.1129 -0.4438
  577SOL    HW2 3173   0.857   0.157   4.683 -0.4310  0.6921 -0.5801
  578SOL     OW 3174   0.346   2.328   7.045 -0.7021  0.4204  0.2349
  578SOL    HW1 3175   0.347   2.385   7.122 -0.6398 -0.3325  0.8024
  578SOL    HW2 3176   0.426   2.351   6.997  0.7077 -0.9658  1.8008
  579SOL     OW 3177   7.569   3.230   4.646 -0.3385  0.1822  0.0320
  579SOL    HW1 3178   7.594   3.296   4.581 -1.4292 -0.2501 -0.8540
  579SOL    HW2 3179   7.539   3.281   4.721  0.6080  0.6857  0.0818
  580SOL     OW 3180   1.387   6.675   5.250  0.0779  0.2196  0.2846
  580SOL    HW1 3181   1.342   6.655   5.332  2.9258  0.7840  2.1434
  580SOL    HW2 3182   1.431   6.593   5.226 -0.7837  0.0407 -0.7720
  581SOL     OW 3183   0.691   3.306   2.944  0.1876 -0.6156  0.1443
  581SOL    HW1 3184   0.772   3.259   2.923 -0.5203 -2.0944  0.6181
  581SOL    HW2 3185   0.639   3.303   2.864  0.7305  0.6883 -0.2887
  582SOL     OW 3186   0.966   0.769   6.319  0.2919 -0.4380 -0.0939
  582SOL    HW1 3187   0.902   0.708   6.355  0.8479 -0.7699  0.3610
  582SOL    HW2 3188   0.994   0.821   6.395  0.6834 -0.4152 -0.2536
  583SOL     OW 3189   0.868   0.285   4.299  0.2897  0.8999 -0.1404
  583SOL    HW1 3190   0.857   0.379   4.309  0.9404  0.9754 -0.0949
  583SOL    HW2 3191   0.939   0.262   4.359  0.5983  0.4964 -0.6511
  584SOL     OW 3192   7.772   2.671   5.607 -0.6154 -0.0549  0.7169
  584SOL    HW1 3193   7.799   2.696   5.695 -1.8227  1.0997  0.7959
  584SOL    HW2 3194   7.685   2.710   5.597 -0.3691  0.0938 -1.0981
  585SOL     OW 3195   1.508   0.581   5.954  0.1072 -0.2673  0.4744
  585SOL    HW1 3196   1.486   0.544   6.040  1.3866  0.6187  1.2252
  585SOL    HW2 3197   1.469   0.668   5.955  0.6267 -0.0277  0.4058
  586SOL     OW 3198   2.674   7.964   4.485  0.4859  0.2419 -0.1687
  586SOL    HW1 3199   2.720   7.890   4.523 -1.0000 -0.2880  0.6858
  586SOL    HW2 3200   2.656   8.023   4.559  0.6330  0.9042 -0.6445
  587SOL     OW 3201   0.655   6.264   6.268 -0.2289 -0.3044 -0.0651
  587SOL    HW1 3202   0.737   6.302   6.301 -0.6970 -0.1001  0.8994
  587SOL    HW2 3203   0.613   6.227   6.346 -0.3996 -1.6535 -0.7814
  588SOL     OW 3204   0.857   1.497   3.900  0.1151  0.1030  0.1408
  588SOL    HW1 3205   0.802   1.467   3.972 -0.4157  0.1574 -0.2396
  588SOL    HW2 3206   0.883   1.417   3.854  0.2946  0.0826  0.2789
  589SOL     OW 3207   0.815   2.351   3.982  0.1400  0.0451 -0.2132
  589SOL    HW1 3208   0.770   2.411   4.041  0.2395  0.9414 -1.0233
  589SOL    HW2 3209   0.892   2.399   3.953 -0.3240 -0.0563 -1.6943
  590SOL     OW 3210   0.752   0.888   4.378  0.0816  0.0174 -0.1356
  590SOL    HW1 3211   0.735   0.964   4.434  0.3477  0.2858 -0.4146
  590SOL    HW2 3212   0.808   0.922   4.308 -0.2120 -0.3253 -0.5422
  591SOL     OW 3213   5.404   1.364   3.086 -0.1408 -0.2687  0.2562
  591SOL    HW1 3214   5.377   1.451   3.114  0.2982 -0.3700  1.0342
  591SOL    HW2 3215   5.352   1.304   3.139 -1.8150 -0.5389 -1.5824
  592SOL     OW 3216   7.930   1.475   4.914 -0.6466  0.1170 -0.1181
  592SOL    HW1 3217   7.860   1.517   4.964  0.4435  1.2087  0.5471
  592SOL    HW2 3218   7.887   1.442   4.835 -2.2296 -0.8082  1.0907
  593SOL     OW 3219   6.747   1.410   4.369 -0.3400  0.5087  0.0272
  593SOL    HW1 3220   6.811   1.471   4.405 -0.4595  0.8715 -0.3660
  593SOL    HW2 3221   6.689   1.389   4.442 -0.1709  0.7004  0.2149
  594SOL     OW 3222   7.364   0.062   4.195  0.1763  0.1811  0.0808
  594SOL    HW1 3223   7.451   0.028   4.216  0.0358  0.3373  0.9386
  594SOL    HW2 3224   7.369   0.155   4.215 -0.0909  0.2507 -0.1762
  595SOL     OW 3225   3.308   1.110   4.872  0.6565 -0.4672 -0.5154
  595SOL    HW1 3226   3.363   1.104   4.794  0.3601 -0.0649 -0.7551
  595SOL    HW2 3227   3.348   1.180   4.923  0.3494 -0.1605 -0.6998
  596SOL     OW 3228   7.862   6.998   2.621 -0.6365  0.1344  0.1244
  596SOL    HW1 3229   7.884   6.906   2.602 -0.6746  0.2395 -0.4423
  596SOL    HW2 3230   7.831   6.997   2.712 -0.2952 -0.3569  0.2385
  597SOL     OW 3231   7.929   7.759   3.655 -0.9655  0.1265 -0.1387
  597SOL    HW1 3232   7.838   7.738   3.676 -1.4956 -1.1232 -3.1446
  597SOL    HW2 3233   7.966   7.678   3.621  0.9147  0.9213 -0.1529
  598SOL     OW 3234   7.555   1.032   3.472  0.5208 -0.6768  0.0965
  598SOL    HW1 3235   7.530   1.089   3.544  1.9897 -0.5427  0.5295
  598SOL    HW2 3236   7.474   1.019   3.422  0.2588  2.3288 -0.4315
  599SOL     OW 3237   1.297   3.462   6.653 -0.0005 -0.1557 -0.2348
  599SOL    HW1 3238   1.275   3.371   6.674 -4.0780  0.3454 -1.2952
  599SOL    HW2 3239   1.273   3.471   6.561 -1.4497  2.3355  0.2921
  600SOL     OW 3240   3.251   1.176   6.208 -0.5399 -0.2522  0.0452
  600SOL    HW1 3241   3.313   1.104   6.192  0.1453  0.6816 -1.8115
  600SOL    HW2 3242   3.297   1.254   6.177 -1.7138  0.8372  0.9550
  601SOL     OW 3243   2.150   0.785   6.764 -0.0329  0.0600  0.1472
  601SOL    HW1 3244   2.123   0.699   6.733  1.1709 -0.5238  0.6518
  601SOL    HW2 3245   2.238   0.797   6.729  0.3049  0.5315  1.1222
  602SOL     OW 3246   1.523   7.931   3.380  0.5006 -0.2008  0.4620
  602SOL    HW1 3247   1.439   7.950   3.337  1.6087  1.0126 -1.3029
  602SOL    HW2 3248   1.499   7.883   3.459 -1.8722  0.3083  0.1332
  603SOL     OW 3249   7.926   1.713   4.311 -0.2536 -0.5523 -0.1841
  603SOL    HW1 3250   7.963   1.751   4.390  2.1156 -0.6404 -1.1595
  603SOL    HW2 3251   7.889   1.788   4.264 -0.9062 -0.3782  0.5805
  604SOL     OW 3252   2.468   2.378   4.485  0.9899 -0.0993 -0.3040
  604SOL    HW1 3253   2.509   2.381   4.572  0.2021 -0.1642  0.0742
  604SOL    HW2 3254   2.375   2.364   4.503  0.9691 -1.2238 -1.1956
  605SOL     OW 3255   6.980   1.596   5.407  0.0929  0.2273 -0.2113
  605SOL    HW1 3256   7.075   1.594   5.397 -0.0186  0.0058 -1.3018
  605SOL    HW2 3257   6.965   1.548   5.489  0.9343  0.5853  0.1702
  606SOL     OW 3258   7.802   0.779   5.419 -0.3542  0.1419  0.3622
  606SOL    HW1 3259   7.884   0.730   5.414  0.7841  1.9997  0.0118
  606SOL    HW2 3260   7.739   0.726   5.370  1.4690  0.2227 -2.2178
  607SOL     OW 3261   1.720   0.149   4.156 -0.3087 -0.2905  0.4503
  607SOL    HW1 3262   1.656   0.080   4.172 -0.0285 -0.4801  0.7507
  607SOL    HW2 3263   1.670   0.217   4.110 -1.2443  0.4486  2.4319
  608SOL     OW 3264   0.397   1.050   4.873 -0.4765 -0.3005  0.3653
  608SOL    HW1 3265   0.335   1.074   4.942 -1.3995 -1.2318 -0.1051
  608SOL    HW2 3266   0.352   0.980   4.824  0.5956 -0.3953 -0.5190
  609SOL     OW 3267   6.388   1.151   4.318  0.3393  0.5515  0.1823
  609SOL    HW1 3268   6.299   1.118   4.306  0.9341 -1.1050  0.1516
  609SOL    HW2 3269   6.390   1.181   4.409 -0.2223  0.5291  0.2069
  610SOL     OW 3270   1.106   2.199   2.594 -0.2113  0.1012  0.3163
  610SOL    HW1 3271   1.023   2.191   2.546  1.1557 -2.2354 -1.8803
  610SOL    HW2 3272   1.170   2.220   2.527  1.2363  0.3195  1.7250
  611SOL     OW 3273   0.266   2.848   2.832 -0.6082  0.2047 -0.0703
  611SOL    HW1 3274   0.310   2.885   2.755 -0.7348  1.3897  0.4118
  611SOL    HW2 3275   0.173   2.856   2.812 -0.6652 -1.6815 -0.7943
  612SOL     OW 3276   7.891   7.618   5.087 -0.7996  0.2332 -0.1869
  612SOL    HW1 3277   7.940   7.632   5.168 -0.4164  2.2513 -0.7197
  612SOL    HW2 3278   7.864   7.526   5.091 -0.2203  0.1074  1.9006
  613SOL     OW 3279   6.737   0.773   4.814  0.0747 -0.4600 -0.1096
  613SOL    HW1 3280   6.794   0.774   4.891 -0.4959 -1.6109  0.3653
  613SOL    HW2 3281   6.729   0.864   4.788 -0.0703  0.0119  1.4822
  614SOL     OW 3282   0.493   1.352   5.106  0.5448 -0.0330  0.3562
  614SOL    HW1 3283   0.416   1.313   5.149 -0.1152  0.9394  0.0954
  614SOL    HW2 3284   0.521   1.421   5.165 -0.1709  1.0989 -0.5676
  615SOL     OW 3285   0.506   1.885   4.104 -0.6179  0.0755 -0.0233
  615SOL    HW1 3286   0.562   1.854   4.033 -1.6561 -0.0279 -0.8324
  615SOL    HW2 3287   0.528   1.978   4.113  1.7893 -0.6028  1.7284
  616SOL     OW 3288   7.638   7.863   3.951  0.4029  0.2061  0.1954
  616SOL    HW1 3289   7.568   7.922   3.921  1.1822  0.9802 -0.1315
  616SOL    HW2 3290   7.636   7.791   3.888 -1.2453 -0.6947  1.1897
  617SOL     OW 3291   0.205   1.962   3.673  0.2832  0.4142 -0.2406
  617SOL    HW1 3292   0.156   1.947   3.591  1.7911  1.5287 -1.3961
  617SOL    HW2 3293   0.251   2.044   3.658  0.2698  0.8630  1.9322
  618SOL     OW 3294   0.350   1.028   3.123 -0.1239  0.3057 -0.0251
  618SOL    HW1 3295   0.436   1.021   3.163  0.5391  0.1392 -1.4452
  618SOL    HW2 3296   0.303   0.950   3.152 -0.8205  1.6585  2.9769
  619SOL     OW 3297   7.572   2.100   4.107  0.3017  0.5078 -0.3413
  619SOL    HW1 3298   7.533   2.134   4.188  1.4804  1.1437 -0.0265
  619SOL    HW2 3299   7.639   2.164   4.083  0.3702  0.0218 -1.5054
  620SOL     OW 3300   1.961   2.869   5.551 -1.0215  0.0326 -0.5408
  620SOL    HW1 3301   2.048   2.870   5.511 -0.0139  0.4420  1.5329
  620SOL    HW2 3302   1.920   2.951   5.523  0.1268  0.8927  0.2266
  621SOL     OW 3303   7.612   1.887   3.543 -0.3148 -0.0750  0.1347
  621SOL    HW1 3304   7.663   1.968   3.547 -1.3127  0.6283 -0.5267
  621SOL    HW2 3305   7.521   1.917   3.534 -0.6560 -1.2696 -0.6761
  622SOL     OW 3306   7.055   0.957   5.478  0.3208 -0.0576  0.4140
  622SOL    HW1 3307   7.110   1.024   5.438 -2.4150  1.6236 -0.8576
  622SOL    HW2 3308   7.044   0.987   5.569 -0.1703  0.7869  0.0930
  623SOL     OW 3309   0.459   2.005   3.405 -0.6164 -0.6103  0.0164
  623SOL    HW1 3310   0.405   2.082   3.418 -2.2531 -1.7426  0.2314
  623SOL    HW2 3311   0.480   1.975   3.494  1.0538  0.2418 -0.0527
  624SOL     OW 3312   7.380   1.904   4.828 -0.2339  0.2299 -0.1820
  624SOL    HW1 3313   7.339   1.949   4.755 -1.7650 -0.9488 -0.0949
  624SOL    HW2 3314   7.467   1.944   4.835 -0.9637  2.0839 -1.0441
  625SOL     OW 3315   2.792   2.025   5.834  0.3844 -0.3739  0.2103
  625SOL    HW1 3316   2.773   2.055   5.922  1.0097  1.2519 -0.1780
  625SOL    HW2 3317   2.876   2.066   5.812 -0.0218 -0.3018 -1.3290
  626SOL     OW 3318   0.840   1.984   6.017  0.3812 -0.5660  0.3404
  626SOL    HW1 3319   0.862   2.032   6.097 -1.6487  0.8528  0.1202
  626SOL    HW2 3320   0.900   2.018   5.951  1.1133 -0.7035  0.9273
  627SOL     OW 3321   0.666   0.777   5.140  0.1761  0.4965  0.3063
  627SOL    HW1 3322   0.759   0.785   5.119 -0.0403  1.2691 -0.4016
  627SOL    HW2 3323   0.646   0.853   5.194  0.0777  0.0298  0.9406
  628SOL     OW 3324   7.655   1.499   4.024  0.0207 -0.0176 -0.1448
  628SOL    HW1 3325   7.719   1.458   3.968  0.3603 -0.2469  0.4038
  628SOL    HW2 3326   7.694   1.496   4.112 -1.2353 -1.2553  0.4147
  629SOL     OW 3327   2.477   1.397   3.715  0.0048  0.1827  0.5503
  629SOL    HW1 3328   2.540   1.467   3.698  1.1021 -0.6742  0.9235
  629SOL    HW2 3329   2.392   1.436   3.696  0.7117  1.0783 -0.9575
  630SOL     OW 3330   1.596   2.252   3.508  0.0726 -0.5406 -0.1861
  630SOL    HW1 3331   1.575   2.312   3.437 -0.3604  0.0329  0.4138
  630SOL    HW2 3332   1.540   2.176   3.493  1.4145 -1.3312 -1.5861
  631SOL     OW 3333   7.169   2.761   4.961  0.3676 -0.1365  0.3075
  631SOL    HW1 3334   7.146   2.808   5.041  2.5818  2.6425 -0.5254
  631SOL    HW2 3335   7.254   2.720   4.981  0.4251 -0.3180 -0.3018
  632SOL     OW 3336   2.037   0.393   4.106 -0.7137  0.0098  0.3178
  632SOL    HW1 3337   2.056   0.486   4.095 -1.4796  0.1564  0.1838
  632SOL    HW2 3338   2.005   0.364   4.020  2.2264 -1.0815 -0.5307
  633SOL     OW 3339   0.830   7.430   7.494 -0.4575  0.4749  0.2404
  633SOL    HW1 3340   0.751   7.477   7.521 -0.0030  2.1555 -1.2149
  633SOL    HW2 3341   0.797   7.347   7.458 -1.5782  1.1605 -0.3700
  634SOL     OW 3342   0.945   3.324   2.778  0.6624 -0.4118 -0.0297
  634SOL    HW1 3343   0.949   3.380   2.856  0.7506 -2.0161  1.1761
  634SOL    HW2 3344   1.036   3.314   2.751  0.6356  0.1173 -0.3177
  635SOL     OW 3345   1.137   2.419   4.241 -0.7849 -0.3707  0.5434
  635SOL    HW1 3346   1.138   2.493   4.302  0.0550 -0.4909  0.6932
  635SOL    HW2 3347   1.160   2.458   4.156 -0.5920 -0.4180  0.5734
  636SOL     OW 3348   1.988   1.536   2.174 -0.1246  0.4548  0.0275
  636SOL    HW1 3349   2.027   1.460   2.216 -1.6647  0.1627  1.0312
  636SOL    HW2 3350   1.981   1.512   2.081  1.4683  0.3043 -0.0738
  637SOL     OW 3351   0.849   6.953   1.685 -0.0088  0.4928 -0.8059
  637SOL    HW1 3352   0.905   6.878   1.703  0.9115  1.5841  1.2065
  637SOL    HW2 3353   0.766   6.915   1.658  0.0846 -1.3068  1.1671
  638SOL     OW 3354   2.535   2.412   5.532 -0.5573  0.1775 -0.3448
  638SOL    HW1 3355   2.574   2.457   5.607 -2.2543  0.2634  0.5194
  638SOL    HW2 3356   2.470   2.474   5.498 -0.7068 -0.3836 -1.1075
  639SOL     OW 3357   7.232   3.529   5.444  0.0807 -0.5300  0.1865
  639SOL    HW1 3358   7.153   3.580   5.429  0.5799  0.6468  1.3498
  639SOL    HW2 3359   7.280   3.577   5.511  0.7772 -2.3453  1.0740
  640SOL     OW 3360   6.835   0.872   4.114  0.0001 -0.0022 -0.6463
  640SOL    HW1 3361   6.919   0.912   4.136 -0.3195  0.1370  0.4262
  640SOL    HW2 3362   6.793   0.936   4.057  0.1353  0.4935 -0.2064
  641SOL     OW 3363   1.100   1.590   3.065 -0.5660 -0.2084  0.5228
  641SOL    HW1 3364   1.082   1.664   3.122 -1.3277  0.4242 -0.5078
  641SOL    HW2 3365   1.168   1.621   3.006  1.8979 -1.5910  2.4411
  642SOL     OW 3366   1.781   1.137   5.902  0.1735  0.0425  0.0889
  642SOL    HW1 3367   1.771   1.091   5.819 -0.8810 -1.8101  1.1992
  642SOL    HW2 3368   1.873   1.124   5.925  1.0535  2.3508 -1.7238
  643SOL     OW 3369   0.644   1.143   4.000 -0.0957  0.0233  0.0035
  643SOL    HW1 3370   0.673   1.232   4.016  2.5729 -0.7076 -0.2447
  643SOL    HW2 3371   0.677   1.122   3.912  0.2280 -1.5250  0.4609
  644SOL     OW 3372   7.272   0.524   2.518 -0.2088  0.2073 -0.2125
  644SOL    HW1 3373   7.243   0.586   2.451  0.7438 -0.9549 -1.7617
  644SOL    HW2 3374   7.337   0.573   2.569 -0.8957  1.0845 -0.1491
  645SOL     OW 3375   0.256   1.361   4.625 -0.3569  0.3752 -0.4013
  645SOL    HW1 3376   0.333   1.320   4.664  0.0289  2.2297  0.9240
  645SOL    HW2 3377   0.287   1.396   4.541  1.0169  3.2282  1.1589
  646SOL     OW 3378   0.564   1.574   4.180  0.2762  0.0594 -0.6017
  646SOL    HW1 3379   0.570   1.655   4.129  1.1898  0.2015 -0.2810
  646SOL    HW2 3380   0.496   1.523   4.135 -0.9991  1.3734 -0.2627
  647SOL     OW 3381   1.659   0.054   6.086  0.2803 -0.1772  0.8615
  647SOL    HW1 3382   1.678   0.140   6.049 -0.1948 -0.7754 -0.9139
  647SOL    HW2 3383   1.636   0.071   6.177  4.2330  1.1084  1.8079
  648SOL     OW 3384   6.903   0.854   4.394 -0.9742 -0.2516 -0.1250
  648SOL    HW1 3385   6.966   0.788   4.423 -0.9163  0.5475  1.7732
  648SOL    HW2 3386   6.875   0.825   4.308 -1.1539 -2.8820  0.7332
  649SOL     OW 3387   1.618   2.081   6.413  0.2584  0.3212 -0.1943
  649SOL    HW1 3388   1.683   2.032   6.363 -1.3019 -0.6058 -1.4162
  649SOL    HW2 3389   1.669   2.127   6.480  2.0320 -1.2940 -0.3340
  650SOL     OW 3390   7.836   1.138   4.674 -0.4050  0.2760  0.0396
  650SOL    HW1 3391   7.885   1.217   4.651 -2.3758  1.3693 -0.6867
  650SOL    HW2 3392   7.819   1.095   4.590  1.1416 -1.2829  0.4754
  651SOL     OW 3393   0.772   7.860   5.134 -0.1323  0.3551 -0.5304
  651SOL    HW1 3394   0.711   7.829   5.201  2.0637  0.5424  1.7221
  651SOL    HW2 3395   0.831   7.785   5.120  2.4515  1.8362  1.5809
  652SOL     OW 3396   1.570   0.505   6.671 -0.0444 -0.0535 -0.1581
  652SOL    HW1 3397   1.486   0.473   6.637 -0.3245  1.8019 -1.3625
  652SOL    HW2 3398   1.546   0.553   6.751 -0.1756  0.6898 -0.6385
  653SOL     OW 3399   7.255   0.219   3.216  0.0870 -0.0402  0.1836
  653SOL    HW1 3400   7.244   0.273   3.138  0.4383  1.4792  1.1325
  653SOL    HW2 3401   7.288   0.136   3.183  1.7893  1.0823 -1.1920
  654SOL     OW 3402   1.443   0.502   2.925 -0.4437  0.4854 -0.4591
  654SOL    HW1 3403   1.499   0.471   2.996  0.4659 -0.4712 -1.5526
  654SOL    HW2 3404   1.485   0.583   2.895  0.4923 -0.3001 -1.3670
  655SOL     OW 3405   6.828   2.241   6.072 -0.1114  0.2419  0.1482
  655SOL    HW1 3406   6.771   2.213   6.143 -0.8508 -0.7424 -0.7834
  655SOL    HW2 3407   6.772   2.240   5.994  1.1537 -0.7889 -0.8118
  656SOL     OW 3408   7.517   1.100   4.300 -0.3054 -0.6159 -0.0848
  656SOL    HW1 3409   7.558   1.172   4.349 -0.9554  0.6638 -1.3658
  656SOL    HW2 3410   7.441   1.076   4.353 -0.0165 -0.4492  0.4165
  657SOL     OW 3411   0.038   0.168   4.430  0.3929 -1.3990  0.3021
  657SOL    HW1 3412  -0.038   0.110   4.425  0.7445 -2.0899  2.1480
  657SOL    HW2 3413   0.077   0.164   4.343 -1.6677 -1.0217 -0.6884
  658SOL     OW 3414   0.098   2.058   6.051  0.1748 -0.2466  0.0660
  658SOL    HW1 3415   0.097   1.970   6.015 -0.9287 -0.3772  0.3796
  658SOL    HW2 3416   0.118   2.045   6.144 -1.1612 -0.2817  0.3612
  659SOL     OW 3417   7.468   4.055   4.541 -0.0943  0.0225  0.1649
  659SOL    HW1 3418   7.498   4.082   4.628  0.1632  0.1641  0.0323
  659SOL    HW2 3419   7.535   4.088   4.481  0.5594 -1.4146  0.0502
  660SOL     OW 3420   7.964   0.001   4.978  0.1172  0.0917  0.4944
  660SOL    HW1 3421   7.901  -0.069   4.998  0.3660 -0.5485 -0.8165
  660SOL    HW2 3422   7.942   0.072   5.038  1.0366 -1.7680  3.2049
  661SOL     OW 3423   0.500   7.821   3.776  0.1946  0.0845  0.4300
  661SOL    HW1 3424   0.500   7.799   3.869 -1.2074 -1.6131  0.0865
  661SOL    HW2 3425   0.557   7.756   3.736  1.2768  1.1738  0.1384
  662SOL     OW 3426   6.423   7.157   3.247 -0.3434  0.3401 -0.1735
  662SOL    HW1 3427   6.355   7.187   3.308  0.4651  0.9485  0.4492
  662SOL    HW2 3428   6.398   7.194   3.163 -0.9675  0.2682 -0.0294
  663SOL     OW 3429   0.564   1.290   4.423 -0.1472 -0.2740 -0.0600
  663SOL    HW1 3430   0.608   1.210   4.450 -0.9614 -0.4497  0.7864
  663SOL    HW2 3431   0.560   1.344   4.502 -1.4770 -0.2882 -0.0903
  664SOL     OW 3432   0.805   1.581   5.493  0.2031  0.3195 -0.0760
  664SOL    HW1 3433   0.775   1.599   5.404 -2.9207 -1.9652  0.3604
  664SOL    HW2 3434   0.775   1.656   5.544 -3.3525 -0.9678 -0.0362
  665SOL     OW 3435   0.226   1.023   3.465 -0.0256 -0.0952 -0.5671
  665SOL    HW1 3436   0.214   1.117   3.451  1.6666 -0.0242 -1.7515
  665SOL    HW2 3437   0.144   0.984   3.437 -1.6575  1.1359  2.0199
  666SOL     OW 3438   0.792   3.912   2.832 -0.3709  0.0359  0.1263
  666SOL    HW1 3439   0.783   3.858   2.754 -1.4824 -0.4290  0.5664
  666SOL    HW2 3440   0.787   4.002   2.800  0.4665 -0.1167 -0.4804
  667SOL     OW 3441   1.758   3.139   4.231 -0.6115  0.5430 -0.7744
  667SOL    HW1 3442   1.816   3.067   4.206 -1.8284 -1.3582  1.4402
  667SOL    HW2 3443   1.692   3.142   4.163  0.5408  0.9425 -1.9192
  668SOL     OW 3444   1.363   1.296   2.863  0.2412 -0.2257 -0.1083
  668SOL    HW1 3445   1.319   1.211   2.851  0.9243 -0.3229 -2.2775
  668SOL    HW2 3446   1.456   1.277   2.849  0.3453  0.9695 -1.1143
  669SOL     OW 3447   0.985   0.777   4.521  0.3247  0.4778  0.3183
  669SOL    HW1 3448   1.050   0.841   4.550  0.3249  0.0129  1.3914
  669SOL    HW2 3449   0.913   0.831   4.487  0.5675  1.0340  0.6708
  670SOL     OW 3450   7.302   2.840   5.474 -0.1398  0.6245 -0.3241
  670SOL    HW1 3451   7.255   2.874   5.550 -0.1219 -0.3795  0.1480
  670SOL    HW2 3452   7.233   2.824   5.409 -0.2961  0.3864 -0.1016
  671SOL     OW 3453   1.060   2.450   3.913 -0.1144 -0.1163 -0.3577
  671SOL    HW1 3454   1.142   2.467   3.960 -0.5402  0.4962  0.1868
  671SOL    HW2 3455   1.087   2.421   3.826  0.6791  0.0334 -0.1648
  672SOL     OW 3456   0.222   1.028   5.083 -0.5056  0.0448 -0.2295
  672SOL    HW1 3457   0.224   1.104   5.141 -1.9010 -0.0397 -0.0411
  672SOL    HW2 3458   0.143   1.041   5.030 -0.5579 -1.0856 -0.4464
  673SOL     OW 3459   0.268   1.279   5.261  0.0716 -0.4504 -0.3857
  673SOL    HW1 3460   0.322   1.307   5.335 -1.4839  1.9248 -0.0478
  673SOL    HW2 3461   0.224   1.199   5.292  1.0019 -0.6413  0.4633
  674SOL     OW 3462   1.049   6.882   5.396  0.5187 -0.0773  0.4903
  674SOL    HW1 3463   1.128   6.844   5.357  0.4812  1.7343 -1.5704
  674SOL    HW2 3464   1.029   6.826   5.471  3.2589 -1.0744  0.5674
  675SOL     OW 3465   1.887   1.564   5.347 -0.0500 -0.0861  0.0845
  675SOL    HW1 3466   1.912   1.634   5.287  0.1539  0.2463  0.5450
  675SOL    HW2 3467   1.902   1.601   5.434  0.0328 -0.6928  0.3347
  676SOL     OW 3468   7.576   1.339   4.430 -0.1812  0.5633  0.3404
  676SOL    HW1 3469   7.624   1.385   4.361  1.3089  0.0615  0.9914
  676SOL    HW2 3470   7.486   1.370   4.422 -0.1872  0.1359 -2.1659
  677SOL     OW 3471   7.356   3.428   5.211  0.0642  0.4044 -0.2657
  677SOL    HW1 3472   7.363   3.340   5.248 -3.0755  0.0636 -0.1580
  677SOL    HW2 3473   7.346   3.485   5.288 -2.1567  0.2273 -0.3397
  678SOL     OW 3474   2.939   7.008   6.003 -0.0563 -0.1095  0.0434
  678SOL    HW1 3475   2.889   6.927   6.009  0.6285 -0.9427 -3.3704
  678SOL    HW2 3476   2.893   7.061   5.938  0.5656  1.4443  0.8104
  679SOL     OW 3477   0.891   7.816   4.193 -0.4065  0.0779  0.8289
  679SOL    HW1 3478   0.928   7.788   4.277 -0.3725  0.3666  0.9127
  679SOL    HW2 3479   0.833   7.889   4.216 -0.3539  0.1945  0.5978
  680SOL     OW 3480   0.765   2.537   5.547 -0.0094 -0.5700  0.1433
  680SOL    HW1 3481   0.845   2.567   5.590  0.3216 -1.3710  0.1178
  680SOL    HW2 3482   0.695   2.562   5.606  0.2946 -0.1788  0.3410
  681SOL     OW 3483   1.183   2.969   4.989 -0.5379 -0.8524  0.4284
  681SOL    HW1 3484   1.252   3.033   5.004 -0.2343 -0.7812 -1.0771
  681SOL    HW2 3485   1.112   2.997   5.046 -0.3508  0.7596 -0.0586
  682SOL     OW 3486   2.462   0.011   3.577 -0.6210 -0.0292 -0.1954
  682SOL    HW1 3487   2.512   0.083   3.540  1.6867 -0.7447  1.3348
  682SOL    HW2 3488   2.374   0.046   3.588 -0.0799  1.8548 -1.3917
  683SOL     OW 3489   0.205   2.947   4.113 -0.3858 -0.0200 -0.1792
  683SOL    HW1 3490   0.199   2.863   4.065  0.1705 -0.1790  0.0281
  683SOL    HW2 3491   0.147   3.006   4.064 -0.0554 -0.2637 -0.8830
  684SOL     OW 3492   2.457   7.788   3.421  0.2902  0.5539  0.0163
  684SOL    HW1 3493   2.389   7.785   3.354  0.4943  0.8769 -0.2031
  684SOL    HW2 3494   2.477   7.881   3.432  0.0500  0.5323  0.7362
  685SOL     OW 3495   2.667   1.188   4.644 -0.1308 -0.3098 -0.2524
  685SOL    HW1 3496   2.714   1.182   4.727 -0.6882 -0.2627  0.0760
  685SOL    HW2 3497   2.719   1.136   4.583  1.0604  0.8456 -0.2533
  686SOL     OW 3498   0.850   1.093   3.011 -0.6244  0.0429  0.1474
  686SOL    HW1 3499   0.896   1.067   2.931 -0.0529 -0.2976  0.5800
  686SOL    HW2 3500   0.888   1.178   3.035 -1.2363  0.4513 -0.2764
  687SOL     OW 3501   1.274   7.987   5.919 -0.6699 -0.0242  0.1600
  687SOL    HW1 3502   1.188   7.955   5.893 -0.8463  0.5281  0.0403
  687SOL    HW2 3503   1.289   8.063   5.863 -1.0891  1.2359  1.6787
  688SOL     OW 3504   6.601   1.336   3.560 -0.6478  0.3607 -0.3767
  688SOL    HW1 3505   6.676   1.311   3.506 -0.0428  0.4117  0.4210
  688SOL    HW2 3506   6.608   1.280   3.638 -0.6324  1.3460  0.3414
  689SOL     OW 3507   7.769   7.852   6.736  0.0471 -0.5936  0.0986
  689SOL    HW1 3508   7.737   7.771   6.697 -1.9887  0.0473  0.3344
  689SOL    HW2 3509   7.745   7.846   6.829  0.6800 -0.0926  0.3074
  690SOL     OW 3510   1.488   2.576   8.878 -0.4446 -0.1095  0.6241
  690SOL    HW1 3511   1.399   2.608   8.865  0.2066  1.2494 -0.9086
  690SOL    HW2 3512   1.540   2.656   8.891  0.7053 -0.8097  0.4156
  691SOL     OW 3513   2.224   1.989   8.346  0.4625  0.0673  0.8194
  691SOL    HW1 3514   2.165   2.035   8.406 -0.8913 -0.7025  0.1375
  691SOL    HW2 3515   2.261   1.918   8.399 -1.3075 -1.0743  0.6286
  692SOL     OW 3516   6.292   1.962   5.386 -0.6655  0.2513 -0.5889
  692SOL    HW1 3517   6.257   1.940   5.472 -1.8952  0.0159 -1.1206
  692SOL    HW2 3518   6.217   1.999   5.339 -0.4043 -0.9689 -2.0287
  693SOL     OW 3519   1.822   0.866   4.212  0.0771  0.4545  0.2898
  693SOL    HW1 3520   1.758   0.889   4.146  0.3601 -1.0478 -0.5648
  693SOL    HW2 3521   1.795   0.779   4.242  0.7629  0.5163  1.1394
  694SOL     OW 3522   0.740   1.100   7.224 -0.0047  0.2979 -0.0012
  694SOL    HW1 3523   0.764   1.019   7.180  0.6541 -1.7573  3.7569
  694SOL    HW2 3524   0.716   1.074   7.312 -1.0326  4.1037  1.0529
  695SOL     OW 3525   2.028   0.181   5.355 -0.0471  0.7693  0.2849
  695SOL    HW1 3526   2.015   0.138   5.439 -0.3662 -0.8362 -0.5410
  695SOL    HW2 3527   2.122   0.170   5.337  0.3943  2.6516  1.1883
  696SOL     OW 3528   1.489   1.668   6.531 -0.3491 -0.0403 -0.3845
  696SOL    HW1 3529   1.516   1.577   6.538 -0.2883  0.0770  1.9451
  696SOL    HW2 3530   1.407   1.666   6.482  0.0567 -1.2371 -1.0507
  697SOL     OW 3531   0.167   0.701   7.705  0.0740 -0.8504 -0.0648
  697SOL    HW1 3532   0.195   0.627   7.651  0.0086 -0.3978 -0.7254
  697SOL    HW2 3533   0.083   0.729   7.668  1.5094  1.5142 -1.8626
  698SOL     OW 3534   0.696   1.984   6.620 -0.5430  0.0690 -0.5568
  698SOL    HW1 3535   0.641   2.036   6.562  0.1823  0.6626 -0.7283
  698SOL    HW2 3536   0.743   1.924   6.563 -1.2926 -0.7144 -0.3704
  699SOL     OW 3537   0.728   2.031   8.211 -0.1223 -0.1713  0.4128
  699SOL    HW1 3538   0.716   2.080   8.129 -1.4719  0.1548  0.7776
  699SOL    HW2 3539   0.809   2.066   8.248  1.1861 -1.1673 -1.3438
  700SOL     OW 3540   7.100   7.038   5.827 -0.1026 -0.0608  0.0719
  700SOL    HW1 3541   7.048   6.992   5.893 -1.7118 -0.1334 -1.1854
  700SOL    HW2 3542   7.190   7.035   5.861 -0.7965 -0.5067  1.9999
  701SOL     OW 3543   3.585   6.623   7.071 -0.2885 -0.3497 -0.7935
  701SOL    HW1 3544   3.587   6.534   7.106 -0.6055 -0.5055 -1.1660
  701SOL    HW2 3545   3.557   6.613   6.981  0.9016  0.0129 -1.2271
  702SOL     OW 3546   7.992   1.333   6.664  0.3953  0.5294 -0.4730
  702SOL    HW1 3547   8.071   1.350   6.716  2.2676 -0.9951 -2.6013
  702SOL    HW2 3548   7.953   1.256   6.705  0.6596  0.6061 -0.0674
  703SOL     OW 3549   2.072   7.712   6.284  0.7313  0.1348  0.3219
  703SOL    HW1 3550   2.146   7.754   6.238  0.3649  1.3768  0.8339
  703SOL    HW2 3551   1.995   7.760   6.254  0.3288  0.0264  1.1658
  704SOL     OW 3552   0.877   1.813   6.378  0.0231  0.0301  0.3844
  704SOL    HW1 3553   0.953   1.816   6.435  0.2667  0.6504  0.0395
  704SOL    HW2 3554   0.897   1.745   6.314  1.4291  1.8507 -1.2368
  705SOL     OW 3555   7.653   1.383   5.121 -0.6490  0.1330  0.2159
  705SOL    HW1 3556   7.674   1.331   5.043 -1.2691  0.2357 -0.0274
  705SOL    HW2 3557   7.722   1.361   5.183 -0.0575  0.1567 -0.4111
  706SOL     OW 3558   3.149   1.730   7.847 -0.4073 -0.6641 -0.4171
  706SOL    HW1 3559   3.241   1.716   7.826  0.3313  1.3697  1.1290
  706SOL    HW2 3560   3.117   1.787   7.777 -0.4073 -1.0708 -0.7536
  707SOL     OW 3561   7.146   0.736   4.749  0.3618 -0.1160 -0.4694
  707SOL    HW1 3562   7.121   0.800   4.815  2.4616 -0.0441  0.3263
  707SOL    HW2 3563   7.240   0.726   4.760  0.1987 -2.8604 -1.0256
  708SOL     OW 3564   2.059   7.216   5.114  0.0815  0.3235  0.4832
  708SOL    HW1 3565   2.142   7.195   5.156  0.3059 -0.5623 -0.3575
  708SOL    HW2 3566   2.043   7.308   5.136  2.2170  1.0790 -0.8479
  709SOL     OW 3567   0.934   0.372   5.494  0.3147  0.0051  0.1557
  709SOL    HW1 3568   0.879   0.307   5.451 -0.7980  0.5239  0.7508
  709SOL    HW2 3569   0.872   0.434   5.533  1.2950  0.1788  1.5179
  710SOL     OW 3570   1.759   1.714   6.483  0.2202 -0.4064 -0.7922
  710SOL    HW1 3571   1.799   1.633   6.452 -1.8713 -1.2243 -1.5099
  710SOL    HW2 3572   1.667   1.691   6.497 -0.0766  1.4298  0.6064
  711SOL     OW 3573   7.905   0.356   4.847 -0.1664  0.7246  0.0041
  711SOL    HW1 3574   7.932   0.408   4.922  0.0989  0.1396  0.3245
  711SOL    HW2 3575   7.834   0.301   4.879 -0.6936  1.1420 -0.4282
  712SOL     OW 3576   0.564   1.746   6.343  0.1587  0.6393 -0.0593
  712SOL    HW1 3577   0.656   1.752   6.316 -0.6558  1.0986 -3.2191
  712SOL    HW2 3578   0.547   1.652   6.349  0.2585  0.4570 -2.0283
  713SOL     OW 3579   2.896   7.637   5.550  0.2132  0.1233 -0.0172
  713SOL    HW1 3580   2.824   7.630   5.487  0.8797 -0.4893 -0.7217
  713SOL    HW2 3581   2.891   7.556   5.602  0.0857  0.3129  0.2687
  714SOL     OW 3582   1.247   6.875   6.590 -0.3004 -0.4267 -0.4363
  714SOL    HW1 3583   1.220   6.935   6.661  0.2385  0.0504 -0.6284
  714SOL    HW2 3584   1.165   6.850   6.548 -0.6474 -0.8714  0.4824
  715SOL     OW 3585   1.346   2.203   6.923 -0.1452  0.0157  0.4114
  715SOL    HW1 3586   1.434   2.198   6.886 -0.5172 -0.7262 -0.3990
  715SOL    HW2 3587   1.360   2.216   7.017  0.8913 -2.7372  0.7108
  716SOL     OW 3588   7.391   3.057   5.811 -0.0437 -0.5109 -0.0311
  716SOL    HW1 3589   7.386   3.026   5.901 -0.4915  0.1352  0.1754
  716SOL    HW2 3590   7.309   3.028   5.770  0.2695 -1.0200 -0.3050
  717SOL     OW 3591   1.316   7.635   5.754 -0.1504  0.2950 -0.1763
  717SOL    HW1 3592   1.350   7.723   5.770  0.6416 -0.0782  0.2287
  717SOL    HW2 3593   1.368   7.579   5.810 -0.9392 -0.3890 -0.1094
  718SOL     OW 3594   0.969   1.575   5.926 -0.2318  0.2151  0.1164
  718SOL    HW1 3595   1.019   1.582   5.845  0.7146 -0.3661  0.6343
  718SOL    HW2 3596   0.888   1.624   5.908 -0.5960 -0.9209 -1.5757
  719SOL     OW 3597   7.256   1.377   5.044  0.0580  0.5419 -0.3428
  719SOL    HW1 3598   7.326   1.440   5.026  0.8831 -0.4167 -0.5790
  719SOL    HW2 3599   7.301   1.293   5.052 -0.8008  0.2192  1.7546
  720SOL     OW 3600   0.433   2.575   7.249  0.4099 -0.6365 -0.1227
  720SOL    HW1 3601   0.440   2.562   7.343 -0.8076 -0.4373  0.0049
  720SOL    HW2 3602   0.399   2.664   7.238 -1.7389 -1.4681 -0.6461
  721SOL     OW 3603   0.909   1.313   7.895 -0.1263  0.8253 -0.0332
  721SOL    HW1 3604   0.919   1.383   7.960  0.5548  0.3029  0.4303
  721SOL    HW2 3605   0.971   1.245   7.922 -0.9664 -0.0833 -0.3272
  722SOL     OW 3606   1.357   0.399   6.515  0.0106  0.7716 -0.3375
  722SOL    HW1 3607   1.304   0.478   6.506  2.1297  2.4217  0.6583
  722SOL    HW2 3608   1.294   0.330   6.534 -1.7520  2.7939  1.8230
  723SOL     OW 3609   0.716   1.746   5.947  0.3406  0.4295 -0.8228
  723SOL    HW1 3610   0.736   1.828   5.992 -0.8114  1.0181 -1.3254
  723SOL    HW2 3611   0.632   1.718   5.983  0.4983 -0.2887 -0.9894
  724SOL     OW 3612   7.667   0.220   4.399  0.0818  0.1394 -0.7194
  724SOL    HW1 3613   7.685   0.175   4.481  0.3369  0.1469 -0.7680
  724SOL    HW2 3614   7.624   0.155   4.344  1.9099 -0.5746 -1.3793
  725SOL     OW 3615   1.822   0.227   6.479 -1.2629 -0.0216  0.4194
  725SOL    HW1 3616   1.853   0.317   6.489 -0.6274 -0.0101 -1.3004
  725SOL    HW2 3617   1.740   0.235   6.430 -2.5041 -0.2556  2.3621
  726SOL     OW 3618   2.089   1.245   4.677 -0.4038  0.2387  0.0175
  726SOL    HW1 3619   2.001   1.266   4.706  0.2435 -0.3989  2.7866
  726SOL    HW2 3620   2.141   1.242   4.758  2.4989  2.0209 -1.5693
  727SOL     OW 3621   1.195   1.314   7.749  0.4453  0.0515 -0.3362
  727SOL    HW1 3622   1.252   1.360   7.687 -0.5921  1.8726  0.0109
  727SOL    HW2 3623   1.136   1.381   7.782 -0.3121 -1.2921  1.1651
  728SOL     OW 3624   2.747   7.691   7.980 -0.2572 -0.0686 -0.9444
  728SOL    HW1 3625   2.799   7.730   7.910  2.8142 -0.7415  0.7874
  728SOL    HW2 3626   2.713   7.766   8.029 -0.8272  0.3801 -1.9918
  729SOL     OW 3627   0.589   0.188   6.153 -0.5117 -1.0169 -0.1094
  729SOL    HW1 3628   0.589   0.257   6.087  2.1327 -0.9840 -0.2070
  729SOL    HW2 3629   0.545   0.226   6.229 -1.4243 -0.1949 -1.0229
  730SOL     OW 3630   2.615   2.592   6.648  0.2577  0.7750  0.3318
  730SOL    HW1 3631   2.690   2.535   6.631 -1.3897 -1.2323 -0.6830
  730SOL    HW2 3632   2.616   2.655   6.577  0.1892 -0.1521 -0.5145
  731SOL     OW 3633   0.437   0.248   6.377 -0.2620 -0.4285 -0.2858
  731SOL    HW1 3634   0.457   0.289   6.462  0.1954  1.2773 -1.1741
  731SOL    HW2 3635   0.426   0.155   6.398  1.0341 -0.2509  1.4600
  732SOL     OW 3636   1.833   0.730   7.010  0.0582  0.7279  0.0797
  732SOL    HW1 3637   1.812   0.819   6.982  1.8396  1.4173  0.8045
  732SOL    HW2 3638   1.925   0.734   7.036 -0.5957 -0.6077  2.9979
  733SOL     OW 3639   7.599   2.331   6.915  0.1972  0.2800  0.3176
  733SOL    HW1 3640   7.582   2.303   7.005 -0.7547 -1.2910 -0.3133
  733SOL    HW2 3641   7.593   2.427   6.918 -2.4020  0.1544  1.4418
  734SOL     OW 3642   0.553   1.017   5.871 -0.5440 -0.4725 -0.4572
  734SOL    HW1 3643   0.557   0.976   5.958 -0.2756  1.8402  0.6847
  734SOL    HW2 3644   0.633   0.988   5.827  0.7761  0.5530  1.1622
  735SOL     OW 3645   3.713   7.950   7.968  0.0331 -0.4433  0.2859
  735SOL    HW1 3646   3.623   7.960   8.001  0.9678 -0.7939  3.1688
  735SOL    HW2 3647   3.735   8.037   7.934 -1.0904 -0.1262  0.3027
  736SOL     OW 3648   2.530   1.536   3.391 -0.3461  0.1090  0.6022
  736SOL    HW1 3649   2.571   1.540   3.304  0.4104 -1.3315  0.8605
  736SOL    HW2 3650   2.600   1.560   3.452 -0.1093 -1.4565  0.9815
  737SOL     OW 3651   1.316   1.195   6.503  0.2954  0.8541  0.2504
  737SOL    HW1 3652   1.263   1.205   6.583 -0.1519  2.4216 -0.2041
  737SOL    HW2 3653   1.321   1.100   6.489 -1.3354  0.6212  1.0179
  738SOL     OW 3654   0.955   0.373   6.166 -0.1123  0.1786  0.1971
  738SOL    HW1 3655   1.027   0.311   6.154 -0.7645 -0.8680  1.5081
  738SOL    HW2 3656   0.940   0.375   6.260 -1.4494  0.7998 -0.0086
  739SOL     OW 3657   0.725   2.144   6.829 -0.4867  0.7666  0.1008
  739SOL    HW1 3658   0.761   2.203   6.763  0.2701  1.2132  0.8884
  739SOL    HW2 3659   0.725   2.058   6.787  0.1297  1.0169 -0.4306
  740SOL     OW 3660   2.504   0.885   5.862  0.2436  0.3032 -0.2674
  740SOL    HW1 3661   2.538   0.813   5.809  0.7046  0.9441 -0.8601
  740SOL    HW2 3662   2.581   0.921   5.906  0.0421  0.5337 -0.1012
  741SOL     OW 3663   1.209   1.571   5.325  0.2309 -0.0226 -0.1182
  741SOL    HW1 3664   1.183   1.528   5.407 -0.4535 -0.8377 -0.7354
  741SOL    HW2 3665   1.294   1.533   5.304  0.6894  0.6338  0.5135
  742SOL     OW 3666   7.541   2.507   6.146 -0.1082  0.8031  0.4882
  742SOL    HW1 3667   7.636   2.505   6.141 -0.0828 -1.1451  0.8435
  742SOL    HW2 3668   7.520   2.462   6.227 -1.3304  2.2767  1.0385
  743SOL     OW 3669   0.331   0.865   4.606 -0.3104  0.6344  0.2251
  743SOL    HW1 3670   0.424   0.852   4.623  0.1117  2.0072 -0.8202
  743SOL    HW2 3671   0.292   0.778   4.618  1.3222 -0.2731 -0.6438
  744SOL     OW 3672   7.641   1.451   6.358 -0.0996 -0.3318 -0.2905
  744SOL    HW1 3673   7.660   1.385   6.292  2.0506 -1.3082  1.1806
  744SOL    HW2 3674   7.713   1.514   6.349 -0.3580  0.0778  0.4255
  745SOL     OW 3675   2.467   3.734   4.824  0.3192  0.4670 -0.3731
  745SOL    HW1 3676   2.379   3.740   4.861  0.6943 -1.2947  0.9277
  745SOL    HW2 3677   2.479   3.641   4.803  1.8466  0.6630 -0.5303
  746SOL     OW 3678   0.946   7.892   6.740  0.3120 -0.8909 -0.4538
  746SOL    HW1 3679   1.026   7.931   6.707  0.2656  0.7034  1.1345
  746SOL    HW2 3680   0.974   7.832   6.809  0.1686 -0.0896  0.3279
  747SOL     OW 3681   0.589   2.689   5.743  0.0849 -0.4484  0.1891
  747SOL    HW1 3682   0.598   2.631   5.819  0.3236  0.6156  0.9996
  747SOL    HW2 3683   0.501   2.672   5.710 -0.0766 -0.8265  0.7915
  748SOL     OW 3684   0.355   4.158   5.577  0.0660  0.4167  0.4745
  748SOL    HW1 3685   0.438   4.139   5.621  0.2935 -1.0856 -0.5242
  748SOL    HW2 3686   0.377   4.161   5.484 -0.7339  1.6483  0.2985
  749SOL     OW 3687   0.732   6.936   4.365 -0.9898  0.3483  0.6260
  749SOL    HW1 3688   0.725   6.861   4.306 -0.0870  1.4444 -0.9391
  749SOL    HW2 3689   0.642   6.968   4.374 -1.2767 -0.4646  0.6947
  750SOL     OW 3690   7.672   3.935   6.773 -0.2159 -0.2130 -0.0113
  750SOL    HW1 3691   7.610   3.931   6.701  1.2539  1.8682 -1.5031
  750SOL    HW2 3692   7.647   4.013   6.822  0.6439  0.1092 -0.0766
  751SOL     OW 3693   0.914   3.218   7.301  0.2549 -0.6662 -0.0240
  751SOL    HW1 3694   0.894   3.245   7.391  0.4594  0.1844 -0.2252
  751SOL    HW2 3695   0.877   3.130   7.294  0.2383 -0.7481  0.8940
  752SOL     OW 3696   7.506   1.355   4.698  0.5735  0.0405 -0.0332
  752SOL    HW1 3697   7.549   1.342   4.614  2.8775  0.3516  1.0432
  752SOL    HW2 3698   7.484   1.448   4.700  0.8416  0.1061 -0.1360
  753SOL     OW 3699   3.032   0.128   5.694  0.5343 -0.1360  0.5142
  753SOL    HW1 3700   2.996   0.053   5.647 -1.4861  0.8345  0.4229
  753SOL    HW2 3701   3.002   0.204   5.645  1.6491  0.7955  1.2129
  754SOL     OW 3702   1.587   1.101   6.116  0.0834  0.3077  0.4899
  754SOL    HW1 3703   1.493   1.113   6.110  0.1894  1.0351  0.2564
  754SOL    HW2 3704   1.622   1.138   6.035  0.6261  0.6343  0.8676
  755SOL     OW 3705   2.468   0.608   7.434  0.2288 -0.4183 -0.2080
  755SOL    HW1 3706   2.479   0.558   7.515 -2.7353 -0.9722 -0.0399
  755SOL    HW2 3707   2.490   0.547   7.364  2.3219 -0.0892  0.1155
  756SOL     OW 3708   1.755   0.613   5.806  0.2029  0.0242  0.1685
  756SOL    HW1 3709   1.753   0.527   5.764 -0.0500 -0.1441  0.5196
  756SOL    HW2 3710   1.677   0.615   5.862  0.0793  0.5738 -0.0149
  757SOL     OW 3711   1.757   7.156   5.581  0.1054  0.2286  0.3329
  757SOL    HW1 3712   1.763   7.073   5.533  0.5073  0.7119 -0.4891
  757SOL    HW2 3713   1.795   7.221   5.521  0.2439  0.9284  1.1511
  758SOL     OW 3714   0.827   0.996   5.740 -0.0152  0.2529 -0.2242
  758SOL    HW1 3715   0.806   1.085   5.713  2.6724  0.9359 -0.4364
  758SOL    HW2 3716   0.856   0.952   5.660 -0.6802 -0.6161 -0.0032
  759SOL     OW 3717   0.775   6.983   4.639 -0.2097 -0.4860 -0.8719
  759SOL    HW1 3718   0.743   6.893   4.629  0.9559 -0.7418 -2.6804
  759SOL    HW2 3719   0.749   7.027   4.558 -0.1703  0.6353 -0.2996
  760SOL     OW 3720   0.798   2.211   5.333 -0.1803  0.6409 -0.6458
  760SOL    HW1 3721   0.758   2.162   5.261  1.4578  0.9777 -1.8487
  760SOL    HW2 3722   0.751   2.294   5.334 -2.1573 -0.4216  0.6130
  761SOL     OW 3723   2.333   0.758   5.492 -0.0883  0.2892  0.3085
  761SOL    HW1 3724   2.380   0.813   5.430 -1.2751  2.0298  0.8896
  761SOL    HW2 3725   2.399   0.731   5.556  0.4204  1.4577  0.2847
  762SOL     OW 3726   1.461   7.480   5.431 -0.5030 -0.8454  0.4481
  762SOL    HW1 3727   1.384   7.517   5.476  0.6756  0.5489  1.4119
  762SOL    HW2 3728   1.532   7.488   5.495  1.3350  1.4959 -1.6911
  763SOL     OW 3729   2.259   0.452   5.601 -0.5619 -0.3963 -0.0537
  763SOL    HW1 3730   2.241   0.485   5.513 -0.2227 -1.9234 -0.7222
  763SOL    HW2 3731   2.174   0.428   5.636 -0.6365 -0.3630 -0.2119
  764SOL     OW 3732   1.137   0.518   5.995 -0.2853  0.3395 -0.3896
  764SOL    HW1 3733   1.061   0.480   6.038 -0.8336 -0.4514 -2.0073
  764SOL    HW2 3734   1.211   0.463   6.023 -0.6618 -0.2727 -0.5797
  765SOL     OW 3735   1.135   2.056   5.180 -0.0094 -0.0992 -0.2101
  765SOL    HW1 3736   1.107   2.046   5.089 -0.1626 -0.3178 -0.1395
  765SOL    HW2 3737   1.133   1.968   5.216  2.9769 -0.5542 -0.8247
  766SOL     OW 3738   0.943   0.882   5.173  0.3938 -0.2619  0.4117
  766SOL    HW1 3739   1.004   0.813   5.145  0.8284 -0.0005  0.7016
  766SOL    HW2 3740   0.954   0.951   5.107  0.2829 -0.2864  0.3678
  767SOL     OW 3741   2.709   1.765   8.313  0.3977 -0.2610 -0.4318
  767SOL    HW1 3742   2.768   1.840   8.312 -0.4945  0.5058  0.8025
  767SOL    HW2 3743   2.692   1.749   8.406 -1.3951 -0.3805 -0.7465
  768SOL     OW 3744   0.937   7.544   4.792  0.0500  0.2106 -0.0532
  768SOL    HW1 3745   1.005   7.504   4.740 -0.3436 -0.0578 -0.3637
  768SOL    HW2 3746   0.916   7.479   4.859  1.3865  1.0137  1.1992
  769SOL     OW 3747   1.567   1.180   7.345 -1.0129  0.2630 -0.0212
  769SOL    HW1 3748   1.595   1.250   7.286  1.4466  0.1982  0.9572
  769SOL    HW2 3749   1.477   1.162   7.319  0.2796 -0.7182 -4.6899
  770SOL     OW 3750   0.960   7.502   6.159 -0.2324  0.1515 -0.3945
  770SOL    HW1 3751   0.965   7.494   6.254 -2.3776 -1.5843 -0.3383
  770SOL    HW2 3752   1.044   7.467   6.128 -0.4745 -1.7043  0.8351
  771SOL     OW 3753   7.598   2.167   7.184 -0.1460  0.6809  0.3426
  771SOL    HW1 3754   7.581   2.077   7.156 -0.1291  0.5773  0.6606
  771SOL    HW2 3755   7.593   2.164   7.279 -0.8752  1.1620  0.3340
  772SOL     OW 3756   1.303   7.933   6.446 -0.7578  0.6015 -0.0776
  772SOL    HW1 3757   1.235   7.935   6.378  0.5771 -1.0068 -1.5465
  772SOL    HW2 3758   1.270   7.869   6.510 -0.6738 -0.1503 -0.7652
  773SOL     OW 3759   3.122   1.702   7.319  0.2109 -0.0735  0.1335
  773SOL    HW1 3760   3.052   1.691   7.383 -0.0566  0.5370 -0.0479
  773SOL    HW2 3761   3.127   1.618   7.274 -3.5790  1.1355 -3.0374
  774SOL     OW 3762   2.461   1.370   6.618  0.0042 -0.5245  0.4357
  774SOL    HW1 3763   2.493   1.434   6.554 -2.6540  0.9504  0.4027
  774SOL    HW2 3764   2.450   1.421   6.698 -0.2396 -1.4478  0.9989
  775SOL     OW 3765   1.182   7.897   3.551 -0.6497  0.4700 -0.2537
  775SOL    HW1 3766   1.224   7.811   3.546  0.5728  1.0127  0.3000
  775SOL    HW2 3767   1.116   7.888   3.620  0.9567  0.5457  1.3713
  776SOL     OW 3768   1.319   7.345   5.219 -0.3641 -0.1385 -0.5832
  776SOL    HW1 3769   1.384   7.396   5.267  0.7516 -0.8342 -1.3075
  776SOL    HW2 3770   1.319   7.383   5.131 -1.0547 -0.0541 -0.5550
  777SOL     OW 3771   2.200   0.671   6.521  0.4564  0.4351 -0.3452
  777SOL    HW1 3772   2.194   0.735   6.449  0.5284  0.8260 -0.0070
  777SOL    HW2 3773   2.293   0.671   6.544  0.1865  1.5396  0.8458
  778SOL     OW 3774   7.739   1.514   4.275  0.2185 -0.3665 -0.5047
  778SOL    HW1 3775   7.808   1.578   4.293 -0.6916  0.6602 -0.5349
  778SOL    HW2 3776   7.658   1.566   4.275 -0.7309 -1.7645  0.9704
  779SOL     OW 3777   2.197   6.369   5.350 -0.2878 -0.2260  0.7687
  779SOL    HW1 3778   2.268   6.407   5.401  0.9774  0.0872 -1.1268
  779SOL    HW2 3779   2.168   6.439   5.291 -0.1519 -1.1868 -0.4952
  780SOL     OW 3780   2.283   7.814   6.131  0.1160  0.4644 -0.2423
  780SOL    HW1 3781   2.242   7.822   6.046 -1.8388  0.7642  0.6763
  780SOL    HW2 3782   2.351   7.747   6.120 -1.0674 -0.5462 -1.6761
  781SOL     OW 3783   1.633   0.338   8.057  0.6631 -0.3885 -0.2070
  781SOL    HW1 3784   1.676   0.402   7.999  1.8719 -0.2497  0.8027
  781SOL    HW2 3785   1.540   0.350   8.040  0.9477  0.2888 -1.4548
  782SOL     OW 3786   0.035   2.334   4.580  0.5728 -0.1866 -0.0422
  782SOL    HW1 3787  -0.024   2.364   4.650  0.6891  1.5757 -0.6498
  782SOL    HW2 3788   0.123   2.354   4.612  0.7730 -1.4949  0.2574
  783SOL     OW 3789   0.496   1.306   4.854  0.2493 -0.0019 -0.5077
  783SOL    HW1 3790   0.499   1.334   4.945 -1.7350  0.9418 -0.6894
  783SOL    HW2 3791   0.443   1.226   4.855 -0.4151  0.4242 -0.9130
  784SOL     OW 3792   1.375   0.838   5.915 -0.4704  0.0865 -0.7264
  784SOL    HW1 3793   1.316   0.853   5.990  0.4743  2.7803 -0.4009
  784SOL    HW2 3794   1.421   0.921   5.905  2.7685 -1.6605 -1.4225
  785SOL     OW 3795   0.336   6.816   8.034  0.2278 -0.1356  0.0187
  785SOL    HW1 3796   0.309   6.865   8.111  0.6871  0.3457 -0.1170
  785SOL    HW2 3797   0.431   6.810   8.041  0.1443 -1.5264  0.3326
  786SOL     OW 3798   2.205   1.512   7.888 -0.8410  0.7053 -0.0528
  786SOL    HW1 3799   2.223   1.563   7.967 -1.4020  0.4930  0.2193
  786SOL    HW2 3800   2.134   1.453   7.914 -0.3692 -0.0420 -0.4379
  787SOL     OW 3801   1.077   2.175   5.432 -0.3825 -0.2851 -0.0595
  787SOL    HW1 3802   0.982   2.175   5.424 -0.5203 -1.4239  1.1075
  787SOL    HW2 3803   1.109   2.167   5.342 -1.3381  1.3277 -0.5740
  788SOL     OW 3804   0.870   2.427   5.871 -0.1445  0.5327 -0.3900
  788SOL    HW1 3805   0.913   2.489   5.811  1.2058  0.0707  0.0591
  788SOL    HW2 3806   0.862   2.346   5.819  1.1474  0.0909  0.0471
  789SOL     OW 3807   1.762   0.600   6.480 -0.0469  0.3428 -0.1206
  789SOL    HW1 3808   1.757   0.695   6.471 -0.9172  0.5241  1.7677
  789SOL    HW2 3809   1.684   0.577   6.530  0.5366 -1.2688  0.1025
  790SOL     OW 3810   7.910   0.774   7.604  0.3440 -0.0622  0.1125
  790SOL    HW1 3811   7.921   0.781   7.509  1.5656  1.2708  0.3202
  790SOL    HW2 3812   7.860   0.851   7.629  0.4224 -0.1691  0.6071
  791SOL     OW 3813   1.833   0.677   8.473  0.4907  0.7894  0.8071
  791SOL    HW1 3814   1.879   0.679   8.557  0.6006  0.5689  0.7540
  791SOL    HW2 3815   1.892   0.723   8.412  0.5360  0.7142  0.7926
  792SOL     OW 3816   0.114   1.129   6.911  0.2933 -0.8429  0.0457
  792SOL    HW1 3817   0.147   1.142   7.000 -3.1990  2.6131  1.0911
  792SOL    HW2 3818   0.133   1.211   6.866 -2.3674 -0.5597 -0.7345
  793SOL     OW 3819   2.023   1.608   5.807  0.3622  0.3320  0.4216
  793SOL    HW1 3820   2.029   1.658   5.889  1.1199 -0.6992  1.0149
  793SOL    HW2 3821   2.054   1.520   5.830  2.6634  0.5628 -1.4397
  794SOL     OW 3822   2.019   1.421   4.934  0.2967  0.1613 -0.1662
  794SOL    HW1 3823   1.985   1.510   4.941  0.3790  0.2679 -0.9991
  794SOL    HW2 3824   1.942   1.367   4.919 -0.2544 -0.4490  3.8029
  795SOL     OW 3825   2.490   0.623   5.688 -0.0760 -0.0393 -0.5093
  795SOL    HW1 3826   2.523   0.562   5.754 -0.9053  1.0456  0.9682
  795SOL    HW2 3827   2.412   0.580   5.652  0.7111 -0.8958 -1.2409
  796SOL     OW 3828   7.134   0.964   7.383 -0.4939 -0.3797  0.5261
  796SOL    HW1 3829   7.214   0.922   7.413 -0.6076  0.2118  1.7207
  796SOL    HW2 3830   7.064   0.921   7.431 -1.0722 -1.7624 -1.4200
  797SOL     OW 3831   0.307   1.894   8.125  0.1001  0.2621 -0.3216
  797SOL    HW1 3832   0.398   1.862   8.129  0.3195  0.8558 -0.5174
  797SOL    HW2 3833   0.315   1.985   8.096 -0.6689 -0.1752 -1.9881
  798SOL     OW 3834   0.716   1.395   7.526 -0.5739  0.3515  0.1672
  798SOL    HW1 3835   0.690   1.437   7.444 -0.2216  0.9324  0.3440
  798SOL    HW2 3836   0.749   1.467   7.580  1.1135 -0.2864  0.0618
  799SOL     OW 3837   1.641   0.397   7.248 -0.1949  0.1210  0.5030
  799SOL    HW1 3838   1.623   0.335   7.318  1.8981  1.0352  1.9603
  799SOL    HW2 3839   1.736   0.400   7.242 -0.2603  2.1311 -0.4930
  800SOL     OW 3840   1.419   0.068   9.610  0.2772 -0.3351  0.0007
  800SOL    HW1 3841   1.421   0.105   9.698  2.0006  1.1239 -0.5705
  800SOL    HW2 3842   1.335   0.024   9.603 -0.2663  0.3061  2.0548
  801SOL     OW 3843   1.449   0.572   7.753  0.8890  0.0471  0.5281
  801SOL    HW1 3844   1.421   0.496   7.803  0.6093  0.0066  0.3122
  801SOL    HW2 3845   1.472   0.537   7.666 -1.3939  0.4941 -0.3215
  802SOL     OW 3846   0.897   1.916   5.452  0.1668 -0.2943 -0.4745
  802SOL    HW1 3847   0.825   1.880   5.503 -0.6044  2.5567  0.6457
  802SOL    HW2 3848   0.856   1.946   5.371 -0.1395  1.9842  0.4628
  803SOL     OW 3849   2.039   0.027   5.590 -0.4425  0.3930  0.4481
  803SOL    HW1 3850   2.008   0.013   5.679 -0.7164 -1.9256  0.0499
  803SOL    HW2 3851   2.025  -0.057   5.546  1.9293  0.6927 -1.0920
  804SOL     OW 3852   7.988   6.027   7.292 -0.5333 -0.3556 -0.0651
  804SOL    HW1 3853   7.961   6.062   7.378  1.0302  2.1436 -0.4810
  804SOL    HW2 3854   7.947   5.941   7.288 -1.4328 -0.1953  2.7976
  805SOL     OW 3855   6.870   1.804   7.094  0.0800  1.1729  0.1279
  805SOL    HW1 3856   6.875   1.716   7.055  0.6785  0.6053  1.4127
  805SOL    HW2 3857   6.954   1.814   7.139  0.4064  2.8072 -0.7650
  806SOL     OW 3858   0.152   1.510   7.034  0.0179  0.4806 -0.2002
  806SOL    HW1 3859   0.243   1.496   7.061 -0.3978 -0.7236  0.6347
  806SOL    HW2 3860   0.113   1.557   7.108 -0.1319  0.6710 -0.4001
  807SOL     OW 3861   3.129   2.041   7.978 -0.3198 -0.5544 -0.2594
  807SOL    HW1 3862   3.190   2.073   7.911 -0.7969  1.5488  0.2386
  807SOL    HW2 3863   3.044   2.041   7.936 -0.0651 -3.5103 -0.9572
  808SOL     OW 3864   0.492   0.717   6.522  0.3254 -0.2561  0.3459
  808SOL    HW1 3865   0.451   0.720   6.608  1.5748 -0.3858  0.9596
  808SOL    HW2 3866   0.467   0.799   6.480  0.1765  0.0552  1.0422
  809SOL     OW 3867   1.292   0.636   4.788  0.1815 -0.4807  0.2049
  809SOL    HW1 3868   1.342   0.695   4.845 -0.3853  0.8453 -0.6293
  809SOL    HW2 3869   1.330   0.550   4.804  2.1992  0.3425  0.1928
  810SOL     OW 3870   7.803   0.347   5.785  0.3862  0.5681 -0.4748
  810SOL    HW1 3871   7.834   0.327   5.874  0.2485  2.1299 -0.0379
  810SOL    HW2 3872   7.750   0.272   5.760 -0.2767  0.4675  1.1158
  811SOL     OW 3873   1.331   1.861   6.914  0.6022  0.4107  0.0567
  811SOL    HW1 3874   1.290   1.910   6.843 -1.7264 -0.7740  0.4834
  811SOL    HW2 3875   1.387   1.926   6.959 -1.6191  2.4718  0.0473
  812SOL     OW 3876   1.080   1.846   7.062 -0.3610  0.0442 -0.6810
  812SOL    HW1 3877   1.155   1.863   7.005  0.1537  0.0552 -0.0025
  812SOL    HW2 3878   1.021   1.792   7.009  0.8492 -1.3447 -0.6647
  813SOL     OW 3879   1.601   1.318   7.659 -0.1795  0.5056 -0.0486
  813SOL    HW1 3880   1.531   1.358   7.609 -0.8630 -0.5740  0.0164
  813SOL    HW2 3881   1.637   1.251   7.601 -0.6153 -0.3851  0.6869
  814SOL     OW 3882   1.702   0.499   3.565  0.1841 -0.3911  0.3899
  814SOL    HW1 3883   1.653   0.462   3.491  1.0385  0.6327 -0.7152
  814SOL    HW2 3884   1.758   0.427   3.595 -1.9512 -1.6168  1.7304
  815SOL     OW 3885   2.855   7.990   6.350  0.3975 -0.1633  0.1198
  815SOL    HW1 3886   2.836   7.912   6.299 -0.0625 -2.0821  3.0206
  815SOL    HW2 3887   2.779   8.001   6.407  0.6173  2.2229  0.0788
  816SOL     OW 3888   1.953   0.931   6.649  0.1898 -0.2068  0.1903
  816SOL    HW1 3889   2.024   0.891   6.698  0.8399  0.2989 -0.3223
  816SOL    HW2 3890   1.994   1.003   6.601 -0.9132  0.9416  0.9253
  817SOL     OW 3891   0.914   0.901   5.458 -0.0738 -0.0316 -0.0790
  817SOL    HW1 3892   0.932   0.923   5.367  0.0484 -2.0123 -0.5652
  817SOL    HW2 3893   0.978   0.951   5.508 -0.2442  1.1987 -1.0474
  818SOL     OW 3894   0.737   0.986   6.551 -0.2991  0.3037  0.2156
  818SOL    HW1 3895   0.831   0.968   6.551 -0.4167 -0.4011  0.7129
  818SOL    HW2 3896   0.713   0.991   6.459  0.4117  1.5952  0.0802
  819SOL     OW 3897   1.477   7.865   5.566 -0.2239 -0.8356  0.0650
  819SOL    HW1 3898   1.455   7.950   5.604  2.1956  0.2993 -0.8380
  819SOL    HW2 3899   1.478   7.881   5.471  1.5148 -1.4839 -0.0704
  820SOL     OW 3900   2.014   0.627   7.449 -0.2262 -0.3159  0.0632
  820SOL    HW1 3901   2.046   0.561   7.510  0.8617 -0.7275 -0.9157
  820SOL    HW2 3902   2.090   0.683   7.432 -1.2694  1.6221  1.3612
  821SOL     OW 3903   7.877   2.208   6.238  0.3498 -0.3619 -0.1892
  821SOL    HW1 3904   7.953   2.164   6.200 -0.6343  0.1003 -2.8783
  821SOL    HW2 3905   7.840   2.144   6.298  1.4757 -1.5003 -0.6611
  822SOL     OW 3906   7.906   0.933   9.099 -0.1845 -0.5784  0.1064
  822SOL    HW1 3907   7.979   0.954   9.041 -0.0551 -0.5991  0.2580
  822SOL    HW2 3908   7.944   0.942   9.187 -0.6040  0.3045  0.2090
  823SOL     OW 3909   0.051   1.092   5.311  0.5483 -0.1441 -0.1343
  823SOL    HW1 3910   0.008   1.016   5.272 -0.8984  0.9258 -0.7347
  823SOL    HW2 3911   0.081   1.062   5.397  0.6108 -1.5634 -0.6322
  824SOL     OW 3912   1.004   1.168   6.718  0.0950  0.3085  0.4106
  824SOL    HW1 3913   1.085   1.206   6.751  2.0123 -1.7941 -1.5645
  824SOL    HW2 3914   0.987   1.212   6.635 -0.1885  0.0134  0.3048
  825SOL     OW 3915   7.509   7.398   8.304  0.2200 -0.3210 -0.7203
  825SOL    HW1 3916   7.598   7.364   8.298  0.2798 -0.4266  0.5681
  825SOL    HW2 3917   7.492   7.406   8.398 -0.7949  0.5811 -0.9611
  826SOL     OW 3918   7.265   1.103   7.720  0.2093  0.2025 -0.1443
  826SOL    HW1 3919   7.318   1.024   7.710 -0.1630 -0.0271 -0.3381
  826SOL    HW2 3920   7.175   1.073   7.703  0.1981  0.9055 -1.4782
  827SOL     OW 3921   1.065   0.291   7.428 -0.2044  0.1613 -0.2648
  827SOL    HW1 3922   1.147   0.306   7.476  0.2726  3.1398 -1.7652
  827SOL    HW2 3923   0.999   0.336   7.480 -0.4241 -0.0248 -0.3832
  828SOL     OW 3924   2.032   0.366   4.709 -0.8083 -0.6951  0.2932
  828SOL    HW1 3925   2.040   0.452   4.667  0.6505 -0.2401  1.3825
  828SOL    HW2 3926   2.064   0.304   4.644 -0.2125 -0.1984  0.0978
  829SOL     OW 3927   3.130   2.709   5.627  0.2087  0.2993 -0.7218
  829SOL    HW1 3928   3.176   2.792   5.617  0.6929 -0.0488 -1.5191
  829SOL    HW2 3929   3.048   2.732   5.670  0.7134  1.0625 -0.1418
  830SOL     OW 3930   0.398   1.952   6.277  0.0430  0.1217  0.3547
  830SOL    HW1 3931   0.458   2.026   6.278 -0.9291  0.9805  2.4423
  830SOL    HW2 3932   0.445   1.881   6.320  0.8117 -0.3740 -1.2431
  831SOL     OW 3933   0.684   7.168   6.232  0.3033 -0.7973 -0.4128
  831SOL    HW1 3934   0.662   7.080   6.204  1.7156 -1.2195 -0.2736
  831SOL    HW2 3935   0.778   7.165   6.250  0.7620  1.1755 -2.0833
  832SOL     OW 3936   1.459   1.065   9.402 -0.1941 -1.0078 -0.1867
  832SOL    HW1 3937   1.371   1.039   9.375 -0.4977  0.3015 -0.5435
  832SOL    HW2 3938   1.513   1.054   9.324 -0.2028 -1.1031 -0.1789
  833SOL     OW 3939   0.060   0.085   5.908 -0.6941  0.1770  0.4526
  833SOL    HW1 3940   0.080  -0.009   5.899 -0.0889  0.1792  1.5799
  833SOL    HW2 3941   0.011   0.106   5.829  0.3215 -0.7814 -0.4725
  834SOL     OW 3942   0.360   1.114   7.725  0.3539  0.1649 -0.0666
  834SOL    HW1 3943   0.340   1.149   7.638  0.0959  1.2821  0.4255
  834SOL    HW2 3944   0.398   1.028   7.708  1.4328  0.8555 -1.3515
  835SOL     OW 3945   0.820   7.952   5.735 -0.0619 -0.2148 -0.2926
  835SOL    HW1 3946   0.725   7.940   5.740 -0.3347  1.4819 -0.6168
  835SOL    HW2 3947   0.853   7.917   5.818 -1.1421  0.4304  0.4464
  836SOL     OW 3948   2.178   0.501   4.516  0.7821 -0.3234 -0.1756
  836SOL    HW1 3949   2.157   0.594   4.503  1.4108 -0.5317 -3.6707
  836SOL    HW2 3950   2.272   0.501   4.533  0.4870 -0.2531  1.5684
  837SOL     OW 3951   1.526   0.094   6.944  0.1266  0.0332  0.0224
  837SOL    HW1 3952   1.617   0.062   6.948 -0.0892 -0.7504 -1.0055
  837SOL    HW2 3953   1.500   0.081   6.853 -1.7480 -1.8450  0.7505
  838SOL     OW 3954   2.682   3.365   6.335 -0.9858  0.6518  0.1189
  838SOL    HW1 3955   2.717   3.407   6.413 -0.1221  0.1326  0.0228
  838SOL    HW2 3956   2.650   3.280   6.366  1.2975 -0.4817 -0.4011
  839SOL     OW 3957   0.820   2.613   7.225  0.3922 -0.2494 -0.2477
  839SOL    HW1 3958   0.771   2.661   7.292  1.0744 -0.2795  0.2868
  839SOL    HW2 3959   0.758   2.549   7.191  0.4288 -1.1654  1.3257
  840SOL     OW 3960   7.813   0.790   8.112  0.0354  0.7807 -0.5684
  840SOL    HW1 3961   7.868   0.782   8.034  0.4625 -1.2864 -0.1259
  840SOL    HW2 3962   7.772   0.704   8.122  0.0564  0.9435  1.5234
  841SOL     OW 3963   0.552   0.490   4.892  0.3536  0.3706 -0.1356
  841SOL    HW1 3964   0.563   0.501   4.986  2.6581  1.4922 -0.4742
  841SOL    HW2 3965   0.525   0.577   4.861 -0.3805  0.0136 -0.5343
  842SOL     OW 3966   7.887   2.305   5.014  0.2260 -0.4392  0.2097
  842SOL    HW1 3967   7.818   2.272   5.072 -0.5828 -0.0116 -0.4813
  842SOL    HW2 3968   7.926   2.378   5.063 -1.5123  0.9588 -0.3777
  843SOL     OW 3969   0.811   0.107   6.271 -0.1904  0.1368  0.1702
  843SOL    HW1 3970   0.768   0.127   6.188  2.5324 -0.1058 -1.4249
  843SOL    HW2 3971   0.837   0.192   6.307 -1.2294  0.2301  0.7577
  844SOL     OW 3972   1.721   2.256   4.807  0.1288 -0.2398 -0.0299
  844SOL    HW1 3973   1.708   2.164   4.831 -0.9339  0.0288  0.4794
  844SOL    HW2 3974   1.644   2.301   4.841 -0.2472  0.5639 -1.8020
  845SOL     OW 3975   2.752   2.715   8.535 -0.1266  0.1586 -0.9088
  845SOL    HW1 3976   2.833   2.665   8.522  1.1510  1.8531  0.0658
  845SOL    HW2 3977   2.707   2.711   8.451  1.0464 -0.6987 -1.5184
  846SOL     OW 3978   0.577   2.492   6.228  0.4365 -0.5325 -0.4124
  846SOL    HW1 3979   0.549   2.431   6.160  2.2749 -2.3084  0.2955
  846SOL    HW2 3980   0.583   2.577   6.185 -0.1044 -1.2844 -2.0151
  847SOL     OW 3981   2.452   0.233   5.107  0.0062 -0.1273  0.0337
  847SOL    HW1 3982   2.391   0.244   5.034  1.1265  2.6638 -0.6365
  847SOL    HW2 3983   2.529   0.192   5.069  0.4604  1.0259 -0.3527
  848SOL     OW 3984   2.766   0.013   6.033 -0.2044 -0.0578  0.1219
  848SOL    HW1 3985   2.811  -0.066   6.006  0.3889  0.4479 -0.3991
  848SOL    HW2 3986   2.676   0.002   6.000 -0.8184 -1.5579  2.1243
  849SOL     OW 3987   0.727   1.331   7.105 -0.8312 -0.2985 -0.2719
  849SOL    HW1 3988   0.751   1.257   7.161  3.1722  0.6428 -0.4383
  849SOL    HW2 3989   0.744   1.300   7.016 -0.5542  0.3224 -0.4421
  850SOL     OW 3990   0.230   2.638   6.407 -0.0139 -0.0244  0.0175
  850SOL    HW1 3991   0.239   2.545   6.388 -0.1949 -0.3063  1.2587
  850SOL    HW2 3992   0.320   2.670   6.415  0.0489 -0.4466  1.1804
  851SOL     OW 3993   1.461   7.992   8.408  0.0289 -0.7485 -0.1213
  851SOL    HW1 3994   1.500   7.938   8.477  0.3324 -0.5608 -0.1467
  851SOL    HW2 3995   1.417   7.929   8.350 -1.9079 -0.7782  1.2868
  852SOL     OW 3996   1.290   0.341   4.639 -0.4173  0.1914 -0.1727
  852SOL    HW1 3997   1.363   0.385   4.594 -2.3594  3.5582 -0.3686
  852SOL    HW2 3998   1.316   0.339   4.731  0.7192 -0.4987 -0.4897
  853SOL     OW 3999   0.276   1.510   5.865 -0.1318  0.5755  0.3442
  853SOL    HW1 4000   0.355   1.457   5.861  0.0838  0.8348  0.9841
  853SOL    HW2 4001   0.222   1.479   5.793  1.1983  1.4565 -1.0860
  854SOL     OW 4002   0.160   0.985   7.349 -0.0225 -0.0931  0.4246
  854SOL    HW1 4003   0.226   0.916   7.356  0.2853  0.0759 -0.6106
  854SOL    HW2 4004   0.076   0.940   7.358  0.2128 -0.3738  1.2834
  855SOL     OW 4005   2.347   1.489   8.843  0.3682  0.1359  0.5631
  855SOL    HW1 4006   2.376   1.399   8.832 -0.5175 -0.5970  3.4302
  855SOL    HW2 4007   2.259   1.491   8.806  0.5674 -0.0257  0.0682
  856SOL     OW 4008   0.797   1.278   4.861 -0.3483 -0.3151  0.0737
  856SOL    HW1 4009   0.702   1.273   4.847 -0.6179  2.0509  0.5355
  856SOL    HW2 4010   0.820   1.193   4.898 -2.4060 -0.7390  0.5362
  857SOL     OW 4011   7.951   2.713   5.074 -0.2639  0.2332 -0.2161
  857SOL    HW1 4012   7.972   2.639   5.132  0.4844 -0.9945 -1.9702
  857SOL    HW2 4013   7.882   2.679   5.016  1.1817  0.3413 -2.0782
  858SOL     OW 4014   1.149   1.520   6.796  0.0321 -0.6508  0.4142
  858SOL    HW1 4015   1.244   1.509   6.803  0.1676 -0.0133 -0.2968
  858SOL    HW2 4016   1.133   1.535   6.703 -0.7306 -0.4335  0.5713
  859SOL     OW 4017   3.421   1.797   6.753  0.7354  0.3963 -0.4396
  859SOL    HW1 4018   3.486   1.799   6.683 -0.2787  0.4282 -1.4124
  859SOL    HW2 4019   3.466   1.835   6.828  1.2408  2.2794 -1.6151
  860SOL     OW 4020   0.790   1.645   5.226  0.5038  0.1237  0.0173
  860SOL    HW1 4021   0.808   1.585   5.155  0.3260 -0.4061  0.4124
  860SOL    HW2 4022   0.700   1.674   5.211 -0.4825 -1.9630  1.3999
  861SOL     OW 4023   2.261   1.271   6.347  0.6541  0.2392 -0.2531
  861SOL    HW1 4024   2.356   1.266   6.349  0.6327 -0.3097  1.8331
  861SOL    HW2 4025   2.232   1.191   6.391 -0.6770  1.5517  1.4199
  862SOL     OW 4026   0.119   6.239   7.808 -0.4478 -0.1054  0.0180
  862SOL    HW1 4027   0.104   6.332   7.826 -0.0857  0.0193 -0.3004
  862SOL    HW2 4028   0.215   6.230   7.806 -0.3247  0.3432 -3.7782
  863SOL     OW 4029   7.820   0.706   4.830  0.4855  0.4487  0.1675
  863SOL    HW1 4030   7.912   0.725   4.812  0.6164 -1.3950 -1.5039
  863SOL    HW2 4031   7.772   0.770   4.778  0.7846  1.7111  1.3996
  864SOL     OW 4032   0.705   1.790   5.621  0.3384 -0.2256 -0.0369
  864SOL    HW1 4033   0.704   1.800   5.717 -1.1994 -0.8398  0.0326
  864SOL    HW2 4034   0.618   1.818   5.593  0.8771  0.2692 -1.3140
  865SOL     OW 4035   1.485   7.810   4.901 -0.0128  0.0348  0.1320
  865SOL    HW1 4036   1.460   7.870   4.832 -1.6245 -0.6242  0.0985
  865SOL    HW2 4037   1.526   7.736   4.856 -1.6156 -0.6773 -0.2204
  866SOL     OW 4038   7.563   2.879   5.627 -0.4001  0.0885  0.5804
  866SOL    HW1 4039   7.477   2.885   5.586 -0.1385  0.8336  0.1146
  866SOL    HW2 4040   7.560   2.942   5.699 -0.4783 -0.4018  1.0127
  867SOL     OW 4041   7.587   1.446   8.344  0.1066 -0.0155  0.1516
  867SOL    HW1 4042   7.498   1.420   8.365 -0.0750  0.7571  0.3855
  867SOL    HW2 4043   7.600   1.529   8.391  1.6706 -1.1473  1.8650
  868SOL     OW 4044   1.966   1.669   7.676  0.0719 -0.5300  0.2310
  868SOL    HW1 4045   1.871   1.667   7.685 -0.2146  0.7843 -1.8383
  868SOL    HW2 4046   1.990   1.580   7.653 -1.0922 -0.2965 -2.2502
  869SOL     OW 4047   1.101   7.632   6.757 -0.3583  0.0149  0.2775
  869SOL    HW1 4048   1.108   7.539   6.733 -2.5906  0.1206 -1.0261
  869SOL    HW2 4049   1.035   7.634   6.826  0.2772  0.5793  0.8851
  870SOL     OW 4050   7.972   1.276   3.715 -0.1158 -0.5133  0.6600
  870SOL    HW1 4051   7.942   1.189   3.742 -0.3385 -0.4991  0.4578
  870SOL    HW2 4052   7.892   1.323   3.691 -0.0300 -0.1513  1.0587
  871SOL     OW 4053   1.116   3.250   7.116 -0.0030  0.1434 -0.4770
  871SOL    HW1 4054   1.205   3.261   7.151 -0.0338  1.2428 -0.7188
  871SOL    HW2 4055   1.060   3.245   7.194  0.1279  0.7631 -0.3396
  872SOL     OW 4056   0.196   0.813   5.256 -0.0887  0.5237 -0.2304
  872SOL    HW1 4057   0.274   0.791   5.307 -0.7722  0.1785  0.6992
  872SOL    HW2 4058   0.219   0.894   5.211  2.3922 -1.7815 -3.5540
  873SOL     OW 4059   0.076   1.327   5.656  0.0129 -0.0415 -0.0964
  873SOL    HW1 4060   0.119   1.383   5.591 -1.0753  1.2101  0.2369
  873SOL    HW2 4061   0.145   1.266   5.683  0.7367 -0.0081 -1.7474
  874SOL     OW 4062   1.518   1.139   7.024 -0.4307  0.2874  0.6773
  874SOL    HW1 4063   1.435   1.106   6.991 -0.7178  1.2384  0.4159
  874SOL    HW2 4064   1.495   1.219   7.072  0.1584 -0.2539  1.9190
  875SOL     OW 4065   1.280   0.523   6.855  0.3312 -0.2368  0.1229
  875SOL    HW1 4066   1.356   0.574   6.880  0.4390 -0.2011 -0.2775
  875SOL    HW2 4067   1.297   0.436   6.892  0.4070 -0.1413  0.3179
  876SOL     OW 4068   1.718   0.307   6.005  0.0460 -0.7766  0.9789
  876SOL    HW1 4069   1.810   0.333   6.008 -0.1555 -0.1393  1.7810
  876SOL    HW2 4070   1.671   0.380   6.043 -1.0456  0.0054 -1.6305
  877SOL     OW 4071   0.508   0.687   5.673  0.2701 -0.7545 -0.9447
  877SOL    HW1 4072   0.472   0.602   5.696  1.5962 -1.2426 -0.6079
  877SOL    HW2 4073   0.569   0.708   5.744 -1.4744  1.4152  0.0576
  878SOL     OW 4074   7.235   2.524   6.228  0.5931  0.2658  0.3449
  878SOL    HW1 4075   7.290   2.522   6.306 -0.6856 -0.9201  1.2843
  878SOL    HW2 4076   7.193   2.610   6.230 -0.0466 -0.0446  1.4561
  879SOL     OW 4077   0.029   2.937   5.732  0.0962 -0.0464 -0.4267
  879SOL    HW1 4078   0.112   2.898   5.705 -0.1661  0.3902 -2.0374
  879SOL    HW2 4079   0.036   2.946   5.827  1.9838  0.1733 -0.5306
  880SOL     OW 4080   7.633   1.970   4.907 -0.1928 -0.5346 -0.1362
  880SOL    HW1 4081   7.723   1.998   4.888 -0.4892  0.3182 -0.3035
  880SOL    HW2 4082   7.644   1.896   4.967  0.6051  0.6230  1.2091
  881SOL     OW 4083   2.139   0.971   8.488 -0.5881  0.5122  0.0747
  881SOL    HW1 4084   2.049   0.985   8.518 -1.1379 -1.3531 -0.5608
  881SOL    HW2 4085   2.130   0.950   8.395  0.4487 -0.3011  0.1436
  882SOL     OW 4086   7.329   1.292   8.433 -0.1314 -0.4067  0.2360
  882SOL    HW1 4087   7.252   1.316   8.485 -0.7342 -1.3809 -0.1825
  882SOL    HW2 4088   7.302   1.304   8.342  1.2690  2.3692  0.0596
  883SOL     OW 4089   1.199   0.957   7.663 -0.3943 -0.1655  0.3947
  883SOL    HW1 4090   1.288   0.967   7.628 -0.5984 -1.5536 -0.6466
  883SOL    HW2 4091   1.168   0.874   7.624 -1.3190 -0.8655  2.5023
  884SOL     OW 4092   7.891   1.660   8.832  0.1021 -0.2791 -0.6356
  884SOL    HW1 4093   7.894   1.734   8.893  0.4806 -1.1733  0.4602
  884SOL    HW2 4094   7.978   1.658   8.793  0.6430 -1.1077  0.5469
  885SOL     OW 4095   7.038   0.657   4.511  0.4581  0.0924  0.2258
  885SOL    HW1 4096   6.960   0.610   4.539  0.3462  0.2357  0.1534
  885SOL    HW2 4097   7.084   0.677   4.593 -0.1183  0.9455  0.3517
  886SOL     OW 4098   2.184   7.153   4.576  0.1859  0.4529  0.4567
  886SOL    HW1 4099   2.268   7.111   4.592  0.1433  0.0216 -0.3989
  886SOL    HW2 4100   2.193   7.240   4.614  0.7097  0.1162  1.1396
  887SOL     OW 4101   3.057   7.974   5.312  0.1629  0.3628  0.5788
  887SOL    HW1 4102   3.050   7.906   5.245 -0.5632 -0.5962  1.6021
  887SOL    HW2 4103   3.019   7.935   5.390  0.0497  1.8357  1.2867
  888SOL     OW 4104   1.688   6.502   5.894 -0.0310 -0.2258 -0.0156
  888SOL    HW1 4105   1.684   6.563   5.820  0.7087  0.5422  0.5518
  888SOL    HW2 4106   1.744   6.431   5.863 -0.3945 -0.3190 -0.4715
  889SOL     OW 4107   7.057   1.160   7.214  0.2680  0.1598  0.5277
  889SOL    HW1 4108   7.078   1.132   7.125 -1.1207  1.0340 -0.1120
  889SOL    HW2 4109   7.049   1.079   7.264  2.4486 -0.3035  0.2297
  890SOL     OW 4110   1.839   6.620   6.106 -0.0638  0.3803  0.4687
  890SOL    HW1 4111   1.809   6.561   6.037  1.1892 -1.1438  1.1762
  890SOL    HW2 4112   1.899   6.680   6.061  0.5397 -0.4337  0.1753
  891SOL     OW 4113   1.915   7.957   6.385 -0.4317 -0.1678  0.4010
  891SOL    HW1 4114   2.004   7.966   6.417  0.7145  0.7879 -2.6624
  891SOL    HW2 4115   1.875   8.043   6.402 -0.7773 -0.5672  1.6934
  892SOL     OW 4116   1.838   1.653   4.951  0.1605  0.0217  0.4667
  892SOL    HW1 4117   1.906   1.713   4.920  1.4723 -0.8652  1.4831
  892SOL    HW2 4118   1.769   1.710   4.984  1.2342  0.9969  1.1275
  893SOL     OW 4119   0.231   2.996   7.531  0.1264  0.4380 -0.1924
  893SOL    HW1 4120   0.226   3.058   7.458  0.1084 -0.8777 -1.3654
  893SOL    HW2 4121   0.240   3.050   7.609 -3.1585  2.0769 -0.7795
  894SOL     OW 4122   1.715   6.746   4.198  0.6532 -0.2595 -0.5330
  894SOL    HW1 4123   1.638   6.715   4.150  0.5204  1.3773 -1.4409
  894SOL    HW2 4124   1.770   6.668   4.209 -1.2405 -1.5411  0.4297
  895SOL     OW 4125   3.887   7.375   7.693 -0.2385  0.5156 -0.1205
  895SOL    HW1 4126   3.898   7.414   7.780  0.8901 -1.1188  0.5262
  895SOL    HW2 4127   3.793   7.382   7.675 -0.0566  4.5528 -0.6404
  896SOL     OW 4128   7.770   2.644   4.879 -0.2178 -0.2779  0.1418
  896SOL    HW1 4129   7.677   2.628   4.863 -0.7608 -0.6601  3.0324
  896SOL    HW2 4130   7.783   2.736   4.858 -1.4010 -0.0661  0.2770
  897SOL     OW 4131   1.019   0.904   6.569  0.4939 -0.2431 -0.4663
  897SOL    HW1 4132   1.038   0.979   6.627 -1.6429 -0.4634  0.6046
  897SOL    HW2 4133   1.022   0.828   6.628 -1.0407 -0.5476 -0.7482
  898SOL     OW 4134   0.714   1.686   4.860  0.0491  0.0213 -0.0640
  898SOL    HW1 4135   0.744   1.616   4.918 -0.7991 -1.0827 -0.9256
  898SOL    HW2 4136   0.663   1.744   4.917 -0.1067 -0.6196  0.4622
  899SOL     OW 4137   1.010   0.313   7.155 -0.3939 -0.6224  0.2231
  899SOL    HW1 4138   1.095   0.277   7.131  0.1170  0.2639  0.6493
  899SOL    HW2 4139   1.009   0.312   7.251 -0.3996  0.3871  0.2454
  900SOL     OW 4140   1.153   0.096   8.587  0.4085  0.1165  0.2918
  900SOL    HW1 4141   1.146   0.131   8.498 -1.2915  0.6397  0.5813
  900SOL    HW2 4142   1.198   0.165   8.637  1.6134 -0.2965 -0.1994
  901SOL     OW 4143   7.914   0.544   8.944  0.0851 -0.2400  0.0703
  901SOL    HW1 4144   7.942   0.629   8.977 -0.7198 -0.3688  1.1004
  901SOL    HW2 4145   7.861   0.565   8.867  0.5007  0.1446 -0.1171
  902SOL     OW 4146   7.697   2.174   8.545 -0.0565 -0.1739  0.0679
  902SOL    HW1 4147   7.692   2.138   8.634  0.1618 -0.9641 -0.2259
  902SOL    HW2 4148   7.610   2.210   8.529  0.2387  1.0144  1.0173
  903SOL     OW 4149   2.296   3.457   8.103  0.6408 -0.1468 -0.2971
  903SOL    HW1 4150   2.314   3.507   8.023 -1.1259  1.0646 -0.0180
  903SOL    HW2 4151   2.279   3.368   8.073 -3.3248  0.9109 -1.8468
  904SOL     OW 4152   7.897   1.941   7.357 -0.3645 -0.5470  0.3777
  904SOL    HW1 4153   7.878   1.847   7.349  1.3337 -0.8774  0.0006
  904SOL    HW2 4154   7.957   1.960   7.285  0.8157  0.4144  1.5819
  905SOL     OW 4155   3.129   7.141   6.641  0.2271 -0.3910  1.0786
  905SOL    HW1 4156   3.043   7.181   6.632  0.8257  1.3537  2.4628
  905SOL    HW2 4157   3.148   7.146   6.735  1.1840 -2.2234  1.0308
  906SOL     OW 4158   6.794   1.426   6.677 -0.1423 -0.2085  0.0942
  906SOL    HW1 4159   6.755   1.509   6.648  1.7973  1.0198  0.8137
  906SOL    HW2 4160   6.882   1.427   6.640 -0.4066 -2.4616 -0.7139
  907SOL     OW 4161   6.704   2.514   7.674 -0.1948  0.2080 -0.4939
  907SOL    HW1 4162   6.789   2.496   7.634 -0.2937 -0.6161 -0.3542
  907SOL    HW2 4163   6.722   2.582   7.739  0.3226  0.1856 -0.6083
  908SOL     OW 4164   1.475   1.202   9.027 -0.4132  0.4775 -0.0772
  908SOL    HW1 4165   1.458   1.220   8.934 -1.5098 -0.3080 -0.0509
  908SOL    HW2 4166   1.468   1.288   9.069  2.6714  1.3144 -1.0122
  909SOL     OW 4167   7.326   3.940   7.826  0.0430 -0.3176  0.0171
  909SOL    HW1 4168   7.242   3.944   7.780  0.5899 -0.3314 -1.0320
  909SOL    HW2 4169   7.368   3.861   7.792  1.2756  0.6995 -0.9505
  910SOL     OW 4170   7.768   1.935   8.985  0.3422 -0.0533  0.4086
  910SOL    HW1 4171   7.851   1.948   8.939 -0.5424  0.0477 -1.2192
  910SOL    HW2 4172   7.756   2.015   9.037  2.6004 -1.2103  2.9657
  911SOL     OW 4173   0.395   0.661   8.261  0.2184 -0.4227 -0.1404
  911SOL    HW1 4174   0.440   0.587   8.301 -2.8817 -2.2196  0.3239
  911SOL    HW2 4175   0.412   0.652   8.168  2.3388  0.1160  0.1559
  912SOL     OW 4176   1.646   1.064   9.167  0.4649 -0.0672  0.4127
  912SOL    HW1 4177   1.676   0.991   9.113 -0.3294 -0.9789  1.1734
  912SOL    HW2 4178   1.591   1.116   9.109 -0.5558 -1.1525  0.3774
  913SOL     OW 4179   2.033   0.292   6.850  0.9347 -0.2784 -0.0051
  913SOL    HW1 4180   1.954   0.343   6.833 -1.0484 -3.0068  0.4189
  913SOL    HW2 4181   2.083   0.298   6.768  1.3325  3.0215  0.3477
  914SOL     OW 4182   0.745   1.477   8.391  0.3190 -0.1211  0.0863
  914SOL    HW1 4183   0.658   1.514   8.402  0.0660 -0.1599 -1.4921
  914SOL    HW2 4184   0.803   1.554   8.384  0.1514 -0.0492 -0.6137
  915SOL     OW 4185   2.250   7.541   5.266  0.2689 -0.0179 -0.1304
  915SOL    HW1 4186   2.164   7.534   5.224  0.6999 -0.8625 -0.9009
  915SOL    HW2 4187   2.234   7.595   5.344 -0.5204  1.7906 -1.4560
  916SOL     OW 4188   7.979   1.585   8.099 -0.1926 -0.0816 -0.3901
  916SOL    HW1 4189   7.978   1.676   8.129 -0.5094 -0.5977  1.3023
  916SOL    HW2 4190   8.067   1.554   8.121 -0.5199 -0.5528  0.2896
  917SOL     OW 4191   0.814   1.775   8.919 -0.3413  0.4233 -0.2569
  917SOL    HW1 4192   0.826   1.844   8.853 -0.9127  0.0390 -0.7671
  917SOL    HW2 4193   0.890   1.717   8.906 -0.1845  0.6222 -0.2368
  918SOL     OW 4194   7.822   1.643  10.122  0.0113 -0.4150  0.3385
  918SOL    HW1 4195   7.764   1.665  10.049 -1.1023 -1.5023  0.8431
  918SOL    HW2 4196   7.898   1.699  10.111  0.8288 -1.9280 -2.8412
  919SOL     OW 4197   0.105   1.150  10.427  0.2027 -0.5782 -0.0121
  919SOL    HW1 4198   0.194   1.133  10.396  0.0126 -1.0595 -0.2962
  919SOL    HW2 4199   0.116   1.178  10.518  0.8506  1.7675 -0.7384
  920SOL     OW 4200   1.555   7.045   6.869 -0.2633 -0.6902  0.1637
  920SOL    HW1 4201   1.622   7.054   6.937 -0.1306 -0.7376  0.0390
  920SOL    HW2 4202   1.476   7.083   6.908 -0.4245 -1.5353  0.6916
  921SOL     OW 4203   0.096   1.022   8.930  0.0341  0.5656 -0.3265
  921SOL    HW1 4204   0.045   1.056   8.856 -0.0775  0.4074 -0.3230
  921SOL    HW2 4205   0.159   1.091   8.950  1.1847 -0.0492 -1.6401
  922SOL     OW 4206   2.657   4.003   8.187  0.1096  0.1324  0.2726
  922SOL    HW1 4207   2.592   4.058   8.143  1.0133  0.2100 -1.0305
  922SOL    HW2 4208   2.686   3.942   8.120  4.8342  3.0794 -0.8629
  923SOL     OW 4209   1.735   2.081   8.462 -0.4378 -0.4106  0.0439
  923SOL    HW1 4210   1.723   2.013   8.395  1.0428 -0.3083 -0.3647
  923SOL    HW2 4211   1.800   2.140   8.425 -0.4347  0.2818  1.1136
  924SOL     OW 4212   1.518   0.864   5.309  0.0227 -0.0969  0.4015
  924SOL    HW1 4213   1.551   0.806   5.378  2.4275  0.1115 -0.4818
  924SOL    HW2 4214   1.477   0.805   5.246 -0.0132 -0.5426  0.8370
  925SOL     OW 4215   2.431   1.631   9.053 -0.5086  0.0512 -0.1205
  925SOL    HW1 4216   2.390   1.614   8.968 -1.8063  1.8590  0.0879
  925SOL    HW2 4217   2.517   1.589   9.047 -0.3612  0.5846 -2.5141
  926SOL     OW 4218   0.210   0.959   9.620  0.2922  0.8136  0.5373
  926SOL    HW1 4219   0.220   0.873   9.661  0.1195  0.8860  0.7361
  926SOL    HW2 4220   0.127   0.991   9.653  0.4221  1.1168  0.5707
  927SOL     OW 4221   1.453   1.840   8.717 -0.1319 -0.6437 -0.6600
  927SOL    HW1 4222   1.375   1.826   8.662  0.2413 -1.9884 -0.8951
  927SOL    HW2 4223   1.509   1.765   8.697  1.1904  0.2510 -0.4187
  928SOL     OW 4224   1.397   0.762   9.100  0.3593 -0.1846 -0.0824
  928SOL    HW1 4225   1.480   0.779   9.055 -0.3455 -0.3507 -1.5298
  928SOL    HW2 4226   1.343   0.839   9.080 -0.0601 -0.3786  0.2798
  929SOL     OW 4227   1.376   1.211   5.991  0.2467  0.3857 -0.3816
  929SOL    HW1 4228   1.282   1.193   5.998 -0.0372  1.1861 -1.7218
  929SOL    HW2 4229   1.383   1.270   5.916  2.0670 -1.4998 -1.8033
  930SOL     OW 4230   1.518   1.422   9.154  0.2853  0.1769 -0.6428
  930SOL    HW1 4231   1.511   1.507   9.111  1.1518  0.5170 -0.1320
  930SOL    HW2 4232   1.486   1.438   9.243  2.0184  0.3917 -0.0277
  931SOL     OW 4233   0.852   0.494   7.839 -0.4202 -0.3079 -0.8559
  931SOL    HW1 4234   0.849   0.401   7.860  1.0796  0.1636  1.7760
  931SOL    HW2 4235   0.939   0.522   7.867 -1.6507  2.3423  0.5885
  932SOL     OW 4236   2.523   1.614   9.603  0.1324 -0.6539 -0.3235
  932SOL    HW1 4237   2.506   1.653   9.518 -0.1230 -0.8726 -0.3739
  932SOL    HW2 4238   2.457   1.545   9.612 -0.5429  0.0852  0.5174
  933SOL     OW 4239   2.004   7.360  10.268 -0.6972 -0.7591  0.5321
  933SOL    HW1 4240   2.091   7.401  10.266 -0.6993 -0.7496 -1.2175
  933SOL    HW2 4241   2.020   7.271  10.299 -0.0348 -0.8010  0.0829
  934SOL     OW 4242   1.690   1.086   8.751  0.3225  0.4489  0.0607
  934SOL    HW1 4243   1.749   1.128   8.814 -1.0413  1.0864  0.9703
  934SOL    HW2 4244   1.611   1.139   8.753 -1.5639 -2.1588  1.3752
  935SOL     OW 4245   1.888   2.839   6.682 -0.3090  0.2502 -0.2960
  935SOL    HW1 4246   1.878   2.823   6.776 -0.8620 -3.5449 -0.8264
  935SOL    HW2 4247   1.976   2.806   6.662 -1.4245 -2.1986 -1.5348
  936SOL     OW 4248   1.716   0.998   6.933  0.1540 -0.3426  0.4010
  936SOL    HW1 4249   1.636   1.036   6.970 -0.5892 -0.5134 -0.9903
  936SOL    HW2 4250   1.780   1.070   6.937 -1.0562  0.9357 -1.6060
  937SOL     OW 4251   2.872   7.800   9.178 -0.5917 -0.2579 -0.4283
  937SOL    HW1 4252   2.853   7.799   9.272 -0.4601 -0.0659 -0.3997
  937SOL    HW2 4253   2.824   7.725   9.144 -3.5413  1.5846 -0.7417
  938SOL     OW 4254   0.989   2.668   7.961  0.3050 -0.1840  0.1818
  938SOL    HW1 4255   0.998   2.683   7.867 -0.0464  2.3847  0.4793
  938SOL    HW2 4256   0.921   2.601   7.968  0.3064 -0.3939 -1.3893
  939SOL     OW 4257   0.248   0.763   9.807  0.2785 -0.0997 -0.2792
  939SOL    HW1 4258   0.194   0.731   9.879 -0.3007  1.9603  0.2769
  939SOL    HW2 4259   0.338   0.757   9.840  0.0792  0.0572  0.3026
  940SOL     OW 4260   2.771   7.527   8.186  0.1577 -0.2832 -0.3058
  940SOL    HW1 4261   2.758   7.593   8.119  0.7486 -1.3735 -1.5348
  940SOL    HW2 4262   2.828   7.461   8.145  0.2221 -1.1682  1.1260
  941SOL     OW 4263   0.473   0.556   9.631 -0.1934 -0.4826  0.1614
  941SOL    HW1 4264   0.518   0.564   9.547 -0.5973 -3.4048 -0.4353
  941SOL    HW2 4265   0.381   0.545   9.609 -0.5708  0.6525  1.1073
  942SOL     OW 4266   0.748   7.460   6.332 -0.2447  0.2936 -0.0236
  942SOL    HW1 4267   0.664   7.502   6.314  0.7829  2.5262  0.0230
  942SOL    HW2 4268   0.787   7.447   6.245 -0.7675 -1.0595 -0.0645
  943SOL     OW 4269   2.071   0.009   6.835  0.6374 -0.4307  0.0347
  943SOL    HW1 4270   2.060   0.094   6.878  1.3965 -1.0220  1.4636
  943SOL    HW2 4271   2.166  -0.001   6.827  0.5355 -0.9412 -0.5439
  944SOL     OW 4272   0.826   7.307   6.533 -0.4298  0.3666 -0.1499
  944SOL    HW1 4273   0.920   7.321   6.545 -0.6164  0.4952  1.4595
  944SOL    HW2 4274   0.802   7.364   6.460  0.7729  0.1461 -0.7524
  945SOL     OW 4275   6.882   3.234   9.717  0.0046 -0.1596 -0.4009
  945SOL    HW1 4276   6.889   3.330   9.712  0.1006 -0.1642 -0.3566
  945SOL    HW2 4277   6.910   3.204   9.630  0.5836 -0.1802 -0.2110
  946SOL     OW 4278   0.907   1.295   9.182  0.6951 -0.2136  0.1105
  946SOL    HW1 4279   0.857   1.326   9.106 -1.7595  0.3392  1.8169
  946SOL    HW2 4280   0.990   1.342   9.178  0.4898  0.0562 -2.0030
  947SOL     OW 4281   0.226   0.815   9.378  0.9759  0.6017 -0.0430
  947SOL    HW1 4282   0.242   0.856   9.463  0.8232 -0.5899  0.5717
  947SOL    HW2 4283   0.202   0.888   9.321 -1.6561  1.1697  1.6089
  948SOL     OW 4284   1.003   1.440  10.463  0.1464 -0.7577 -0.2621
  948SOL    HW1 4285   0.984   1.394  10.545 -0.9223 -0.2355 -0.1982
  948SOL    HW2 4286   0.964   1.385  10.395 -1.0121 -0.0667 -0.1971
  949SOL     OW 4287   2.213   7.163   8.650 -0.3467  0.1513 -0.0353
  949SOL    HW1 4288   2.242   7.079   8.686  1.8293  0.6070 -0.5463
  949SOL    HW2 4289   2.281   7.225   8.677  0.2134  0.9455 -2.8768
  950SOL     OW 4290   0.995   1.922   7.886 -0.0524  0.4011 -0.1475
  950SOL    HW1 4291   1.059   1.872   7.835  0.1927  0.9768 -0.4132
  950SOL    HW2 4292   1.000   2.010   7.850 -0.3715  0.6532  0.4197
  951SOL     OW 4293   2.311   0.880   8.997 -1.0305  0.0298 -0.2961
  951SOL    HW1 4294   2.278   0.894   8.908  0.2856 -0.0736 -0.8285
  951SOL    HW2 4295   2.360   0.960   9.018 -0.4629 -0.3637 -0.0833
  952SOL     OW 4296   1.090   7.686   7.227 -0.4490  0.3990 -0.4501
  952SOL    HW1 4297   1.106   7.779   7.216 -1.0276  0.3907 -1.4684
  952SOL    HW2 4298   1.010   7.681   7.280 -0.5702  0.4815 -0.6264
  953SOL     OW 4299   1.875   1.030   8.573  0.2617 -0.0192 -0.1279
  953SOL    HW1 4300   1.878   1.007   8.665  0.7622  0.4907 -0.0108
  953SOL    HW2 4301   1.787   1.064   8.559  0.1791 -0.1165  0.1576
  954SOL     OW 4302   7.192   7.438   8.496 -0.4942 -0.6691 -0.1565
  954SOL    HW1 4303   7.257   7.369   8.510  0.7529  0.5279  0.1887
  954SOL    HW2 4304   7.174   7.436   8.402  0.9671 -0.2478 -0.4725
  955SOL     OW 4305   1.940   0.003   5.833 -0.3125 -0.3898  0.2286
  955SOL    HW1 4306   1.846   0.013   5.820 -0.3802 -0.0996  0.8977
  955SOL    HW2 4307   1.954   0.023   5.926  0.5961  0.9996 -0.1679
  956SOL     OW 4308   0.171   0.772  10.085  0.6284 -0.3801 -0.2892
  956SOL    HW1 4309   0.125   0.764  10.168 -0.1320 -0.8293 -0.7426
  956SOL    HW2 4310   0.233   0.699  10.085  0.9472 -0.1160  0.0678
  957SOL     OW 4311   1.422   1.133   7.798 -0.1034  0.7410  0.4026
  957SOL    HW1 4312   1.342   1.179   7.774  0.4615  1.3528 -0.3995
  957SOL    HW2 4313   1.492   1.195   7.776  0.7169 -0.6747 -1.1723
  958SOL     OW 4314   7.953   7.947   9.043  0.9096 -0.4270  0.6294
  958SOL    HW1 4315   7.903   8.027   9.058 -0.7369 -0.5353 -3.0897
  958SOL    HW2 4316   8.044   7.972   9.062  0.7132  2.9680 -1.8424
  959SOL     OW 4317   0.774   0.640   6.519 -0.0032  0.1852  0.4603
  959SOL    HW1 4318   0.710   0.710   6.531 -1.6756 -1.2879  0.4783
  959SOL    HW2 4319   0.795   0.612   6.608 -0.7621 -0.5474  0.4227
  960SOL     OW 4320   1.061   2.870   8.157 -0.0628  0.0873  0.0395
  960SOL    HW1 4321   1.035   2.806   8.092 -2.3613 -0.3769  1.3100
  960SOL    HW2 4322   1.088   2.947   8.106 -0.5126 -0.7223 -1.4610
  961SOL     OW 4323   1.023   6.714   7.732  0.7154  0.3382  0.2442
  961SOL    HW1 4324   1.086   6.747   7.668  0.2179  2.2852  0.6945
  961SOL    HW2 4325   0.995   6.630   7.697  2.5513  0.0567 -0.6488
  962SOL     OW 4326   7.563   1.247  10.062 -0.3275 -0.4249 -0.0098
  962SOL    HW1 4327   7.511   1.245  10.142 -0.5811 -1.0672 -0.1896
  962SOL    HW2 4328   7.543   1.165  10.017  0.6349 -0.5642 -0.2125
  963SOL     OW 4329   1.441   1.672  10.823 -0.0082 -0.2931 -0.5884
  963SOL    HW1 4330   1.388   1.664  10.744 -1.4068 -2.3049  0.4641
  963SOL    HW2 4331   1.513   1.611  10.811 -1.4632 -2.3642  0.5226
  964SOL     OW 4332   1.133   0.553   7.833  0.3150 -0.8814  0.1527
  964SOL    HW1 4333   1.150   0.492   7.905  1.9095 -0.2209  0.3753
  964SOL    HW2 4334   1.193   0.526   7.764  0.3452 -0.1774 -0.1034
  965SOL     OW 4335   1.091   6.326   9.766 -0.5938  0.2374  0.3520
  965SOL    HW1 4336   1.091   6.252   9.705 -1.8420 -0.3809  1.0738
  965SOL    HW2 4337   1.086   6.287   9.853 -0.0453  1.1511  0.8212
  966SOL     OW 4338   7.825   7.915   7.181  0.5147 -0.3862 -0.0598
  966SOL    HW1 4339   7.759   7.861   7.138  1.1275  0.2346 -1.8777
  966SOL    HW2 4340   7.786   8.003   7.182  0.9671 -0.1845 -0.3371
  967SOL     OW 4341   3.252   2.434  10.866 -0.4918  0.3358 -0.0283
  967SOL    HW1 4342   3.252   2.462  10.774  0.7865 -0.8395 -0.4271
  967SOL    HW2 4343   3.325   2.482  10.905  0.4712 -0.8904 -0.2429
  968SOL     OW 4344   0.023   0.682  10.831  0.2740  0.4913  0.0806
  968SOL    HW1 4345  -0.062   0.726  10.830  0.4007  0.7391 -0.1667
  968SOL    HW2 4346   0.073   0.726  10.762  0.4172 -0.0225 -0.1489
  969SOL     OW 4347   7.195   5.884   9.731  0.2422 -0.5711  0.4952
  969SOL    HW1 4348   7.182   5.977   9.748 -0.7397 -0.6942  0.4716
  969SOL    HW2 4349   7.238   5.880   9.646 -0.5026 -0.1655  0.0942
  970SOL     OW 4350   2.639   1.344   9.798  0.1965  0.0714 -0.1455
  970SOL    HW1 4351   2.637   1.287   9.721  2.6773 -0.6608  0.2344
  970SOL    HW2 4352   2.655   1.284   9.871 -1.2940  0.8513  0.8794
  971SOL     OW 4353   1.278   1.241   6.775  0.1301 -0.2918  0.7667
  971SOL    HW1 4354   1.329   1.317   6.803 -0.9168  0.8416 -0.2459
  971SOL    HW2 4355   1.265   1.189   6.854 -0.1440  1.2126  1.7446
  972SOL     OW 4356   0.842   0.032   7.254 -0.1552 -0.0506  0.1364
  972SOL    HW1 4357   0.804  -0.049   7.288 -0.9495 -0.0256 -0.6485
  972SOL    HW2 4358   0.830   0.095   7.325 -0.0763 -0.4673  0.5243
  973SOL     OW 4359   2.333   1.060   7.070  0.6942  0.1074 -0.2778
  973SOL    HW1 4360   2.267   1.042   7.002  2.3195  0.8405 -2.1299
  973SOL    HW2 4361   2.379   0.976   7.080  0.6680  0.0865 -0.3271
  974SOL     OW 4362   0.748   1.369   6.345  0.1216 -0.3401 -0.2646
  974SOL    HW1 4363   0.828   1.338   6.386 -0.5145 -0.8743  0.6090
  974SOL    HW2 4364   0.777   1.417   6.268  1.4871  1.9428  1.5256
  975SOL     OW 4365   0.109   0.866   6.862 -0.0796 -0.1444  0.0719
  975SOL    HW1 4366   0.019   0.846   6.835 -0.6175  0.5259  1.3032
  975SOL    HW2 4367   0.115   0.961   6.857  1.0342 -0.2556 -1.3608
  976SOL     OW 4368   2.858   7.259   8.392  0.1279 -0.0827  0.8971
  976SOL    HW1 4369   2.934   7.203   8.406 -0.7933 -1.4663  0.4517
  976SOL    HW2 4370   2.853   7.272   8.298 -0.0518  0.2158  0.9430
  977SOL     OW 4371   0.303   2.193   8.180 -0.1791 -0.0537 -0.5134
  977SOL    HW1 4372   0.235   2.245   8.223  2.0538  2.4213  0.2101
  977SOL    HW2 4373   0.272   2.185   8.089 -0.9236  2.0282 -0.4987
  978SOL     OW 4374   7.267   0.794   8.808 -0.1220 -0.3709  0.0634
  978SOL    HW1 4375   7.288   0.797   8.901  0.5335 -0.2370 -0.0789
  978SOL    HW2 4376   7.172   0.794   8.804 -0.1534 -1.2406  0.7544
  979SOL     OW 4377   2.666   0.499   8.150  0.2501  0.2538  0.4182
  979SOL    HW1 4378   2.689   0.424   8.204  1.4406  1.3506  1.5167
  979SOL    HW2 4379   2.660   0.572   8.213 -1.2042  1.0204 -0.5566
  980SOL     OW 4380   1.184   0.731   7.092  0.2921  0.4983  0.5760
  980SOL    HW1 4381   1.210   0.719   7.184  0.4705  1.2334  0.6366
  980SOL    HW2 4382   1.212   0.651   7.048 -0.6566 -0.2690  1.3373
  981SOL     OW 4383   0.636   0.002   8.275 -0.3203 -0.0084 -0.0776
  981SOL    HW1 4384   0.673   0.025   8.360  2.3978 -1.5315 -0.6900
  981SOL    HW2 4385   0.688   0.052   8.212 -1.4077  0.1056 -0.9111
  982SOL     OW 4386   0.908   0.165   7.891  0.1011  0.2105  0.1412
  982SOL    HW1 4387   0.966   0.119   7.829 -0.8521 -0.5129 -0.2335
  982SOL    HW2 4388   0.968   0.215   7.946  0.9945  0.8748 -1.3510
  983SOL     OW 4389   1.119   0.715   9.745 -0.6988  0.5470  0.7642
  983SOL    HW1 4390   1.207   0.706   9.709 -1.1669 -1.5495  0.0235
  983SOL    HW2 4391   1.088   0.799   9.710  0.5262  0.7196  0.0139
  984SOL     OW 4392   1.439   6.824   8.659  0.5146 -0.5061  0.2213
  984SOL    HW1 4393   1.364   6.795   8.607 -0.0094  1.5442 -0.2464
  984SOL    HW2 4394   1.456   6.752   8.719 -1.4652 -1.2624 -0.0614
  985SOL     OW 4395   1.350   7.708   6.945 -0.2261  0.1081  0.0820
  985SOL    HW1 4396   1.432   7.732   6.989  0.2299  0.3449 -0.8655
  985SOL    HW2 4397   1.376   7.689   6.854 -1.4340  1.7401 -0.6599
  986SOL     OW 4398   2.008   0.950   9.559 -0.1815  0.2742  0.2667
  986SOL    HW1 4399   1.918   0.927   9.537  0.1106 -0.1592 -0.5435
  986SOL    HW2 4400   2.007   1.044   9.573 -1.2562 -0.0397  2.8395
  987SOL     OW 4401   0.712   0.767   8.542 -0.3452  0.1447 -0.1759
  987SOL    HW1 4402   0.789   0.801   8.587  1.0705 -1.7321 -1.0271
  987SOL    HW2 4403   0.689   0.836   8.480  1.7401  0.1075 -1.0921
  988SOL     OW 4404   2.110   2.674   8.597 -0.2631 -0.4406 -0.3612
  988SOL    HW1 4405   2.049   2.748   8.598 -0.5549 -0.6843  0.3795
  988SOL    HW2 4406   2.189   2.709   8.556  0.2227  0.7969  1.5105
  989SOL     OW 4407   2.955   7.683   6.260 -0.5809  0.5113 -1.1975
  989SOL    HW1 4408   3.044   7.712   6.241  0.2117 -1.7067 -1.1714
  989SOL    HW2 4409   2.959   7.651   6.351 -1.1865 -0.3109 -1.4418
  990SOL     OW 4410   1.763   0.390   8.512 -0.6259  0.2325  0.1627
  990SOL    HW1 4411   1.695   0.363   8.574 -0.6689 -0.7985 -0.3233
  990SOL    HW2 4412   1.737   0.479   8.486 -0.0344  1.1307  2.4021
  991SOL     OW 4413   0.016   7.922   6.465  0.3418  0.1746  0.1142
  991SOL    HW1 4414  -0.054   7.967   6.417  0.6475  0.2352 -0.2861
  991SOL    HW2 4415   0.023   7.969   6.548 -0.1673  0.0976  0.2032
  992SOL     OW 4416   2.164   0.711   5.808  0.0481 -0.1430  0.4554
  992SOL    HW1 4417   2.076   0.731   5.776  0.9938 -0.3536 -2.5124
  992SOL    HW2 4418   2.181   0.623   5.776  2.1739  0.7602 -1.0781
  993SOL     OW 4419   2.504   0.440   7.201 -0.1743 -0.3256  0.1345
  993SOL    HW1 4420   2.470   0.488   7.126  0.7432  1.3919  0.7590
  993SOL    HW2 4421   2.599   0.437   7.188  0.0722  0.6019  1.5271
  994SOL     OW 4422   3.172   1.743   8.849  0.1591  0.6224 -0.7008
  994SOL    HW1 4423   3.160   1.712   8.759 -0.5117  0.7711 -0.6694
  994SOL    HW2 4424   3.251   1.699   8.879 -1.2954 -1.9372 -0.2904
  995SOL     OW 4425   0.627   1.167   8.727  0.5052 -0.7135 -0.3172
  995SOL    HW1 4426   0.549   1.136   8.680 -0.9532 -1.9095  2.6560
  995SOL    HW2 4427   0.686   1.092   8.725  0.6743 -0.5754 -0.6555
  996SOL     OW 4428   1.340   2.046   9.656  0.8254  0.2856  0.0116
  996SOL    HW1 4429   1.355   1.976   9.593 -0.1621  0.7791 -0.7937
  996SOL    HW2 4430   1.314   2.001   9.736 -0.5290 -0.2618 -0.7100
  997SOL     OW 4431   0.630   0.868   9.512 -0.1300  0.2416  0.6977
  997SOL    HW1 4432   0.674   0.927   9.451 -0.3149  0.0398  0.3706
  997SOL    HW2 4433   0.550   0.915   9.536 -0.6696 -0.2139 -0.1737
  998SOL     OW 4434   1.474   1.926   7.914  0.3500 -0.0461 -0.0757
  998SOL    HW1 4435   1.411   1.944   7.844 -0.2557 -1.3048  0.1164
  998SOL    HW2 4436   1.494   1.833   7.905  0.9668 -0.0204  0.8557
  999SOL     OW 4437   1.842   0.009   6.718 -0.0800 -0.5920  0.6554
  999SOL    HW1 4438   1.837   0.082   6.656 -0.7214  0.1615  1.5734
  999SOL    HW2 4439   1.933   0.012   6.750  0.3575 -1.2007 -0.4766
 1000SOL     OW 4440   0.984   1.671   9.372  0.3899 -0.4185 -0.1902
 1000SOL    HW1 4441   1.039   1.648   9.296 -0.2855  0.5755 -1.0049
 1000SOL    HW2 4442   0.903   1.703   9.333 -0.6341 -1.4958  0.9918
 1001SOL     OW 4443   0.105   0.483   8.321 -0.1151 -0.3271  1.0867
 1001SOL    HW1 4444   0.172   0.466   8.388  0.6720  0.2314  0.4655
 1001SOL    HW2 4445   0.141   0.445   8.241 -0.7143 -0.3499  0.8212
 1002SOL     OW 4446   7.055   0.955  10.465  0.2507  0.2063 -0.6605
 1002SOL    HW1 4447   7.058   1.038  10.513  0.5110 -0.8046  1.1436
 1002SOL    HW2 4448   6.962   0.943  10.445  0.1333  0.6367 -0.4017
 1003SOL     OW 4449   0.193   0.071   8.117 -0.0072  0.0160  0.0425
 1003SOL    HW1 4450   0.270   0.103   8.070 -0.9727 -0.2663 -1.8322
 1003SOL    HW2 4451   0.143   0.149   8.138 -1.1370  0.0135 -2.3268
 1004SOL     OW 4452   2.222   1.966   6.531  0.6813  0.0063  0.3988
 1004SOL    HW1 4453   2.178   1.896   6.580  0.4806  0.4181  0.8121
 1004SOL    HW2 4454   2.262   1.921   6.457  1.2293 -0.6748  1.0923
 1005SOL     OW 4455   1.927   1.301   8.683  0.0867  0.1120 -0.2632
 1005SOL    HW1 4456   1.926   1.214   8.644 -0.3867  0.6758 -1.5773
 1005SOL    HW2 4457   1.855   1.347   8.640  0.1072  1.0497  0.6675
 1006SOL     OW 4458   2.184   1.161   9.927  0.2140  0.2888  0.2392
 1006SOL    HW1 4459   2.242   1.139   9.854  0.6749  1.9899  0.0692
 1006SOL    HW2 4460   2.234   1.223   9.980 -0.9178  0.6918  0.8742
 1007SOL     OW 4461   1.490   2.401   5.922  0.2201  0.1119  0.2273
 1007SOL    HW1 4462   1.487   2.448   6.006 -0.7006 -0.3306  0.4511
 1007SOL    HW2 4463   1.481   2.309   5.946 -0.2362 -0.0020 -0.3750
 1008SOL     OW 4464   1.303   7.862   8.211 -0.1817  0.3603 -0.0938
 1008SOL    HW1 4465   1.254   7.910   8.145 -1.6036 -0.4350  0.3346
 1008SOL    HW2 4466   1.256   7.879   8.293 -0.7421 -1.7044  0.0742
 1009SOL     OW 4467   0.841   2.010  11.313  0.3287 -0.4815  0.3312
 1009SOL    HW1 4468   0.904   2.043  11.377  0.1285 -0.7220  0.6536
 1009SOL    HW2 4469   0.879   2.033  11.228 -0.7205  2.3139  0.5151
 1010SOL     OW 4470   1.052   0.541   8.818 -0.5377 -0.0937 -0.5896
 1010SOL    HW1 4471   1.019   0.518   8.905  0.1775 -0.6721 -0.4614
 1010SOL    HW2 4472   1.115   0.611   8.834 -1.7417  1.0867 -0.8447
 1011SOL     OW 4473   0.790   6.753   9.808  0.3189 -0.3768  0.0104
 1011SOL    HW1 4474   0.744   6.687   9.756  1.3618 -1.2688  0.1636
 1011SOL    HW2 4475   0.873   6.710   9.832  0.5124  0.5691  1.1149
 1012SOL     OW 4476   7.710   7.944   9.977  0.8691 -0.1284  0.1923
 1012SOL    HW1 4477   7.757   7.883  10.033  0.5371 -1.0321 -0.4948
 1012SOL    HW2 4478   7.624   7.954  10.020  0.3491 -1.3862 -0.5182
 1013SOL     OW 4479   1.772   1.043   7.478  0.2355  0.3427  0.2154
 1013SOL    HW1 4480   1.699   1.096   7.445  1.0816  2.2210  1.2390
 1013SOL    HW2 4481   1.761   0.958   7.435 -1.2868  1.2716 -1.3453
 1014SOL     OW 4482   2.459   0.484   9.015 -0.2257  0.2216  0.2374
 1014SOL    HW1 4483   2.530   0.428   9.048 -0.5863 -0.3368  0.0754
 1014SOL    HW2 4484   2.499   0.571   9.008 -0.1366  0.3946  2.2034
 1015SOL     OW 4485   2.057   1.386   7.188  0.3435 -0.2647  0.8719
 1015SOL    HW1 4486   1.967   1.372   7.159  1.0361 -1.2905 -0.9555
 1015SOL    HW2 4487   2.086   1.464   7.140  0.2939  0.3895  1.8637
 1016SOL     OW 4488   0.643   0.051   7.977  0.2138  0.3907  0.7024
 1016SOL    HW1 4489   0.733   0.079   7.993  0.0493  1.3172  0.0930
 1016SOL    HW2 4490   0.651  -0.042   7.952  1.0040  0.4810  0.5745
 1017SOL     OW 4491   0.334   0.631   8.668 -0.5380  0.5385  0.0563
 1017SOL    HW1 4492   0.364   0.704   8.722  0.6120  0.6243 -0.6711
 1017SOL    HW2 4493   0.315   0.670   8.583 -1.3602  0.2276  0.0796
 1018SOL     OW 4494   0.471   1.069   9.850  0.0496  0.7082 -0.0967
 1018SOL    HW1 4495   0.488   1.033   9.763 -0.5513 -0.0591  0.0896
 1018SOL    HW2 4496   0.486   0.995   9.909 -2.1952  0.4372  0.2220
 1019SOL     OW 4497   1.637   0.841   8.657 -0.1282 -0.0544  0.1818
 1019SOL    HW1 4498   1.712   0.797   8.617  0.2053  0.0307  0.7036
 1019SOL    HW2 4499   1.670   0.928   8.681  0.1177 -0.5789  1.9365
 1020SOL     OW 4500   0.664   7.980   6.454  0.3717  0.1152 -0.1266
 1020SOL    HW1 4501   0.725   8.021   6.392 -0.6120  1.0290 -0.5153
 1020SOL    HW2 4502   0.580   7.979   6.409 -0.0714 -0.4439  0.6844
 1021SOL     OW 4503   1.938   1.908   7.530 -0.2547  0.4608  0.5199
 1021SOL    HW1 4504   2.001   1.948   7.590  0.6216 -1.5264  1.0123
 1021SOL    HW2 4505   1.934   1.816   7.558 -0.4899 -0.3259 -1.8919
 1022SOL     OW 4506   1.955   2.424   9.711 -0.7218  0.2618 -0.1243
 1022SOL    HW1 4507   1.910   2.342   9.731 -0.4589 -0.0592 -0.7887
 1022SOL    HW2 4508   1.893   2.492   9.735 -0.9853 -0.1350  0.3420
 1023SOL     OW 4509   0.322   2.776   7.810  0.1023 -0.4830  0.3743
 1023SOL    HW1 4510   0.304   2.869   7.824 -0.3086 -0.5733  0.4465
 1023SOL    HW2 4511   0.418   2.770   7.811  0.1193 -0.1982  1.2608
 1024SOL     OW 4512   2.845   1.504   8.328  0.3522 -0.8999 -0.5475
 1024SOL    HW1 4513   2.926   1.522   8.281  0.9174 -1.0008  0.3568
 1024SOL    HW2 4514   2.790   1.581   8.313  2.2674  1.2206  2.3126
 1025SOL     OW 4515   0.204   1.493   9.077 -0.3858 -0.4180  0.2261
 1025SOL    HW1 4516   0.270   1.455   9.136 -0.1605  0.1422  0.3402
 1025SOL    HW2 4517   0.138   1.424   9.068 -0.0521 -0.7877  0.5415
 1026SOL     OW 4518   0.780   1.118   8.400  0.3100  0.2581 -0.3613
 1026SOL    HW1 4519   0.767   1.162   8.484  0.6119  0.0151 -0.1874
 1026SOL    HW2 4520   0.700   1.068   8.386  0.1541  0.5020 -0.3407
 1027SOL     OW 4521   1.672   1.435   5.904 -0.0697 -0.0530 -0.7096
 1027SOL    HW1 4522   1.673   1.526   5.875 -0.1447 -0.1975 -1.1788
 1027SOL    HW2 4523   1.748   1.427   5.961  0.1640  0.2050 -0.9799
 1028SOL     OW 4524   7.526   3.672   6.396 -0.5684 -0.1262  0.2488
 1028SOL    HW1 4525   7.614   3.650   6.365 -0.6184 -1.2672  0.8441
 1028SOL    HW2 4526   7.497   3.743   6.338  0.6630  0.1387 -0.0699
 1029SOL     OW 4527   7.427   7.067   6.946 -0.1289 -0.2150  0.0048
 1029SOL    HW1 4528   7.496   7.045   7.009 -0.0959 -1.0257 -0.2977
 1029SOL    HW2 4529   7.368   6.991   6.948 -1.8655  1.1072  1.3760
 1030SOL     OW 4530   0.883   2.356   8.740  0.4086  0.3878 -0.2650
 1030SOL    HW1 4531   0.797   2.337   8.703  0.5208  3.2408 -2.3274
 1030SOL    HW2 4532   0.865   2.385   8.830 -0.8790  1.3096 -0.7868
 1031SOL     OW 4533   1.494   0.179   8.779 -0.5750  0.3230 -0.0109
 1031SOL    HW1 4534   1.459   0.193   8.691 -1.9582  0.9559  0.5973
 1031SOL    HW2 4535   1.533   0.262   8.803 -0.9797  0.4336  0.2875
 1032SOL     OW 4536   2.164   6.904   8.424 -0.3733  0.7854 -0.1182
 1032SOL    HW1 4537   2.172   6.884   8.518 -2.1966 -0.9029 -0.2629
 1032SOL    HW2 4538   2.226   6.975   8.410  1.9287 -0.6743  1.8238
 1033SOL     OW 4539   6.767   0.155   7.184  0.9060 -0.3251 -0.1182
 1033SOL    HW1 4540   6.810   0.080   7.224  2.9047  1.0319  0.4110
 1033SOL    HW2 4541   6.821   0.230   7.208 -0.2898  1.1305 -1.7016
 1034SOL     OW 4542   1.506   3.098   9.055  0.1507  0.0292 -0.1590
 1034SOL    HW1 4543   1.525   3.133   8.968  0.0298  3.5500  1.0919
 1034SOL    HW2 4544   1.410   3.095   9.060  0.0468  2.6277  0.7406
 1035SOL     OW 4545   6.683   0.315  10.079  0.3839  0.2808  0.0792
 1035SOL    HW1 4546   6.777   0.296  10.082  0.4066  0.4037  0.1779
 1035SOL    HW2 4547   6.650   0.286  10.164  0.6176  1.6809  0.6792
 1036SOL     OW 4548   1.199   7.502   7.041  0.5794 -0.4011  0.2140
 1036SOL    HW1 4549   1.255   7.562   6.992  0.7831 -0.1556  0.7422
 1036SOL    HW2 4550   1.170   7.553   7.117  0.7671 -0.9715  0.6738
 1037SOL     OW 4551   1.080   1.130   7.988 -0.3358  0.1866 -0.2141
 1037SOL    HW1 4552   1.063   1.087   8.071 -0.9443  1.5641  0.4137
 1037SOL    HW2 4553   1.174   1.121   7.975 -0.0379  0.9367  1.2148
 1038SOL     OW 4554   0.328   0.373   8.795 -0.0439  0.3976  0.0538
 1038SOL    HW1 4555   0.420   0.347   8.792 -0.3104 -0.6317  0.4437
 1038SOL    HW2 4556   0.311   0.411   8.709  0.6470  0.2637 -0.1456
 1039SOL     OW 4557   1.257   0.240  10.250 -0.3602  0.3566  0.0919
 1039SOL    HW1 4558   1.226   0.312  10.194  0.5426 -0.0856 -1.0271
 1039SOL    HW2 4559   1.241   0.270  10.339 -1.4800  1.2593 -0.3838
 1040SOL     OW 4560   0.247   5.981   7.427 -0.2481 -0.0347  0.0105
 1040SOL    HW1 4561   0.210   6.008   7.512  0.1975  1.7913 -0.3171
 1040SOL    HW2 4562   0.176   5.997   7.365 -0.1841 -0.2495 -0.1162
 1041SOL     OW 4563   2.097   1.143   9.281  0.0799  0.2870  0.3497
 1041SOL    HW1 4564   2.082   1.179   9.193 -1.1689  0.1521  0.4887
 1041SOL    HW2 4565   2.009   1.121   9.313  0.5742 -0.2138  1.4026
 1042SOL     OW 4566   6.348   2.765   9.536  0.1430 -0.6661  0.1383
 1042SOL    HW1 4567   6.367   2.701   9.605  0.8915 -0.0902  0.4820
 1042SOL    HW2 4568   6.268   2.733   9.495 -1.7384  0.2128  2.8256
 1043SOL     OW 4569   0.624   2.142  10.152 -0.0731  0.4646  0.2043
 1043SOL    HW1 4570   0.713   2.112  10.134 -0.8521 -1.9586 -0.1227
 1043SOL    HW2 4571   0.592   2.174  10.067 -0.3503 -1.2159 -0.3689
 1044SOL     OW 4572   0.100   2.627  10.232 -0.1557 -0.3861  0.1556
 1044SOL    HW1 4573   0.122   2.629  10.325 -0.4954 -0.6411  0.2434
 1044SOL    HW2 4574   0.067   2.715  10.213 -0.1402 -0.3513  0.2868
 1045SOL     OW 4575   1.938   7.277   6.410  0.2056  0.0965  0.0395
 1045SOL    HW1 4576   2.006   7.341   6.388  0.2209  0.5699  1.3426
 1045SOL    HW2 4577   1.955   7.254   6.501 -0.7298 -0.6078  0.0587
 1046SOL     OW 4578   1.855   6.211  10.702 -0.3359  0.0858 -0.2613
 1046SOL    HW1 4579   1.885   6.286  10.753  1.3206  0.8653 -2.2459
 1046SOL    HW2 4580   1.924   6.146  10.711 -1.0382 -0.6180  0.1857
 1047SOL     OW 4581   2.675   1.824   5.678 -0.2883 -0.5825 -0.2791
 1047SOL    HW1 4582   2.722   1.886   5.734 -0.2310 -1.1964  0.3568
 1047SOL    HW2 4583   2.724   1.824   5.596 -0.1075 -0.0215 -0.1777
 1048SOL     OW 4584   1.748   1.964   7.992 -0.6730 -0.1187  0.1659
 1048SOL    HW1 4585   1.773   1.872   7.986 -0.5920  0.0198 -2.6214
 1048SOL    HW2 4586   1.662   1.969   7.951 -0.9245  0.9815  0.7833
 1049SOL     OW 4587   0.801   2.877  10.577  0.0626 -0.2695  0.0339
 1049SOL    HW1 4588   0.734   2.904  10.513 -0.0756 -1.2717 -0.2515
 1049SOL    HW2 4589   0.869   2.944  10.569 -1.4068  1.4691  1.1897
 1050SOL     OW 4590   6.781   1.065   8.615 -0.7250  0.1187  0.2534
 1050SOL    HW1 4591   6.735   1.078   8.698 -3.0076 -0.8091 -0.7814
 1050SOL    HW2 4592   6.804   1.153   8.586 -0.6560  0.5058  1.4311
 1051SOL     OW 4593   0.980   1.739   7.605  0.1875 -0.2292 -0.1948
 1051SOL    HW1 4594   0.938   1.688   7.535  0.2663 -0.4358 -0.0901
 1051SOL    HW2 4595   0.995   1.825   7.565 -0.7580 -0.0046 -0.0958
 1052SOL     OW 4596   2.384   1.405   7.429 -0.3461  0.2636 -0.0766
 1052SOL    HW1 4597   2.322   1.339   7.397  0.3948  0.0368 -1.0737
 1052SOL    HW2 4598   2.455   1.404   7.366  1.2278 -0.2396  1.6196
 1053SOL     OW 4599   1.280   0.744   7.987  0.1382 -0.2946  0.3173
 1053SOL    HW1 4600   1.335   0.800   7.931 -0.7638  0.0461 -0.2670
 1053SOL    HW2 4601   1.211   0.713   7.928  0.2372 -1.4853  0.8052
 1054SOL     OW 4602   0.813   2.483   7.630 -0.2537 -0.2394 -0.4186
 1054SOL    HW1 4603   0.763   2.542   7.572  0.1875  0.9267  0.3485
 1054SOL    HW2 4604   0.830   2.535   7.708 -0.2138 -1.5538  0.4770
 1055SOL     OW 4605   0.239   0.302  10.955 -0.3703  0.0224 -0.6663
 1055SOL    HW1 4606   0.234   0.324  11.048  1.5844 -1.0348 -0.2551
 1055SOL    HW2 4607   0.150   0.275  10.932 -0.7361 -0.4045  1.0862
 1056SOL     OW 4608   2.381   0.784   7.091 -0.0039 -0.3872 -0.3993
 1056SOL    HW1 4609   2.448   0.784   7.159 -0.1859  0.1360 -0.2075
 1056SOL    HW2 4610   2.411   0.720   7.027  1.1785  0.5188 -0.7970
 1057SOL     OW 4611   1.583   1.268   8.211 -0.2838 -0.4789  0.1168
 1057SOL    HW1 4612   1.521   1.317   8.157  0.7455  0.3775 -0.3380
 1057SOL    HW2 4613   1.631   1.213   8.148 -0.2147 -0.7304  0.3872
 1058SOL     OW 4614   1.177   0.185   6.568 -0.0899 -0.0856  0.4176
 1058SOL    HW1 4615   1.133   0.160   6.649  2.3006 -0.9636  1.5565
 1058SOL    HW2 4616   1.227   0.107   6.544  1.1485  0.9650 -0.5255
 1059SOL     OW 4617   2.089   1.266   8.172  0.0079  0.7670 -0.4737
 1059SOL    HW1 4618   2.099   1.232   8.083  4.4651 -0.1508  0.1503
 1059SOL    HW2 4619   2.041   1.198   8.218  1.1199 -0.6468 -1.3240
 1060SOL     OW 4620   6.756   6.356   8.321  0.1311 -0.0943 -0.0982
 1060SOL    HW1 4621   6.712   6.361   8.236 -0.5422  0.6882  0.2894
 1060SOL    HW2 4622   6.813   6.280   8.313  1.6977  1.1731 -2.0155
 1061SOL     OW 4623   1.239   1.691   8.568  0.0028  0.8091 -0.0214
 1061SOL    HW1 4624   1.239   1.627   8.639  0.8235  0.9907  0.1535
 1061SOL    HW2 4625   1.274   1.643   8.492 -1.8536  0.3142 -0.6060
 1062SOL     OW 4626   1.187   7.947   7.263 -0.0247 -0.3537 -0.1604
 1062SOL    HW1 4627   1.160   8.038   7.256  0.1672 -0.3601 -1.0927
 1062SOL    HW2 4628   1.275   7.945   7.226 -0.8875 -1.3012 -2.3343
 1063SOL     OW 4629   2.646   1.143   7.401 -0.0476 -0.0009 -0.5870
 1063SOL    HW1 4630   2.737   1.136   7.429 -0.2113  1.1004  0.2608
 1063SOL    HW2 4631   2.642   1.226   7.353 -0.6726  0.1220 -0.3328
 1064SOL     OW 4632   2.299   0.468   7.758  0.3101  0.0123 -0.4802
 1064SOL    HW1 4633   2.307   0.511   7.843 -2.8298  0.1933 -0.1377
 1064SOL    HW2 4634   2.379   0.491   7.712  1.3696  1.3121  1.8115
 1065SOL     OW 4635   1.205   1.481   8.759 -0.7478  0.0315 -0.2224
 1065SOL    HW1 4636   1.225   1.400   8.713  0.0582 -1.3144  2.2639
 1065SOL    HW2 4637   1.123   1.464   8.805 -1.0315  0.9568 -0.3522
 1066SOL     OW 4638   1.059   2.198   7.876 -0.2604  0.5474 -0.2484
 1066SOL    HW1 4639   1.119   2.234   7.942  0.6742  0.2123 -0.8809
 1066SOL    HW2 4640   0.972   2.209   7.913  0.2936 -0.9385  1.7080
 1067SOL     OW 4641   0.996   1.842   6.610  0.2449  0.2801  0.1489
 1067SOL    HW1 4642   0.959   1.815   6.694  0.3459 -0.9159 -0.1686
 1067SOL    HW2 4643   1.052   1.916   6.631  0.7833 -0.4108  1.2526
 1068SOL     OW 4644   1.332   1.144   8.048 -0.1633  0.1343 -0.4214
 1068SOL    HW1 4645   1.363   1.089   8.120 -3.1648 -0.7588  0.3156
 1068SOL    HW2 4646   1.399   1.134   7.980  2.2130  0.1554  1.7885
 1069SOL     OW 4647   7.951   2.346   8.542  0.1247  0.2412 -0.9145
 1069SOL    HW1 4648   7.919   2.415   8.601  0.8829  1.2311 -1.6267
 1069SOL    HW2 4649   7.871   2.308   8.506 -0.3271  0.1967  0.0969
 1070SOL     OW 4650   2.713   1.184   9.521 -0.3591  0.4356 -0.0804
 1070SOL    HW1 4651   2.780   1.189   9.589  0.9579  1.2274 -1.3937
 1070SOL    HW2 4652   2.729   1.101   9.478 -0.8330  0.1985  0.1888
 1071SOL     OW 4653   0.468   1.539   7.403  0.3055  0.2402  0.3362
 1071SOL    HW1 4654   0.527   1.567   7.333  0.7416 -0.8992  0.2415
 1071SOL    HW2 4655   0.430   1.457   7.372 -2.1766  1.4359 -0.0779
 1072SOL     OW 4656   7.801   1.979  10.849  0.2151 -0.7591  0.0593
 1072SOL    HW1 4657   7.823   1.926  10.926  0.0950  1.3894  1.6690
 1072SOL    HW2 4658   7.705   1.976  10.845  0.0983  0.5153  1.1122
 1073SOL     OW 4659   2.854   7.269   6.676  0.2300  0.0656  0.1914
 1073SOL    HW1 4660   2.833   7.342   6.735 -1.6159 -1.0146  0.9576
 1073SOL    HW2 4661   2.773   7.254   6.627  1.2199 -0.1565 -1.4446
 1074SOL     OW 4662   1.222   7.334   6.799 -0.1414  0.2818  0.2351
 1074SOL    HW1 4663   1.236   7.396   6.870  2.3597 -0.2766  0.3212
 1074SOL    HW2 4664   1.308   7.324   6.758 -0.7145 -2.1379 -0.5761
 1075SOL     OW 4665   2.426   0.580   8.431  0.1905  0.3895  0.3365
 1075SOL    HW1 4666   2.501   0.617   8.383  0.7483  0.5216  1.2945
 1075SOL    HW2 4667   2.432   0.618   8.518 -0.3895 -0.4229  0.7410
 1076SOL     OW 4668   7.836   0.202   8.975  0.7480  0.3135 -0.2026
 1076SOL    HW1 4669   7.898   0.266   8.941  1.5761  0.0877  0.8420
 1076SOL    HW2 4670   7.781   0.253   9.036  0.3222  0.3796 -0.6423
 1077SOL     OW 4671   1.926   2.213   8.314 -0.6534  0.1707 -0.0474
 1077SOL    HW1 4672   1.920   2.125   8.278 -0.6430  0.4202 -0.6805
 1077SOL    HW2 4673   1.944   2.269   8.238  0.0622  0.6310  0.4409
 1078SOL     OW 4674   7.871   1.430   9.338 -0.0326  0.3815  0.5278
 1078SOL    HW1 4675   7.875   1.524   9.320 -1.1908  0.4610  0.5983
 1078SOL    HW2 4676   7.935   1.416   9.408 -0.2305  1.2136  0.8823
 1079SOL     OW 4677   1.090   1.349   8.203  0.1479 -0.2633  0.0557
 1079SOL    HW1 4678   1.003   1.388   8.192 -0.1622 -0.5586  1.2962
 1079SOL    HW2 4679   1.128   1.351   8.116 -0.0899  2.2372 -0.0627
 1080SOL     OW 4680   7.671   0.802  10.383  0.2583 -0.3379  0.7886
 1080SOL    HW1 4681   7.765   0.811  10.395  0.2451 -1.1260  1.5055
 1080SOL    HW2 4682   7.661   0.780  10.290  0.9578 -2.5503  1.1907
 1081SOL     OW 4683   2.589   1.931   9.159  0.3068  0.5643  0.0445
 1081SOL    HW1 4684   2.663   1.991   9.147 -0.8065  1.5997 -2.2791
 1081SOL    HW2 4685   2.625   1.844   9.143  1.2736  0.9253  0.2162
 1082SOL     OW 4686   2.504   0.170   7.185  0.6846  0.1521 -0.0736
 1082SOL    HW1 4687   2.413   0.141   7.196  0.4271 -0.3732 -2.8527
 1082SOL    HW2 4688   2.505   0.258   7.223 -0.2129 -0.8381  2.5090
 1083SOL     OW 4689   0.984   1.123  10.174 -0.2263  0.0266  0.3875
 1083SOL    HW1 4690   0.993   1.217  10.157 -1.1883 -0.0935 -0.9864
 1083SOL    HW2 4691   0.910   1.116  10.234 -0.6175  0.1080 -0.0826
 1084SOL     OW 4692   1.746   7.787   7.215 -0.1997 -0.1203 -0.5884
 1084SOL    HW1 4693   1.722   7.784   7.122 -0.7728 -0.6758 -0.4245
 1084SOL    HW2 4694   1.668   7.758   7.261 -0.5471  1.8420  0.1866
 1085SOL     OW 4695   0.291   7.926   6.735 -0.4157 -1.0038 -0.1455
 1085SOL    HW1 4696   0.297   7.992   6.665 -0.3312  0.8338  1.5008
 1085SOL    HW2 4697   0.295   7.842   6.689  1.2972  0.1052 -2.2094
 1086SOL     OW 4698   2.023   0.432   8.555  0.3258  0.0280  0.3563
 1086SOL    HW1 4699   2.075   0.363   8.514  0.0460  0.3962 -0.6651
 1086SOL    HW2 4700   1.935   0.419   8.521  0.3855  1.2286 -0.3483
 1087SOL     OW 4701   1.181   1.228   8.627  0.1070  0.4348 -0.5454
 1087SOL    HW1 4702   1.147   1.153   8.578  1.2249  0.4435 -1.3562
 1087SOL    HW2 4703   1.196   1.295   8.561 -0.3721  1.1954  0.1056
 1088SOL     OW 4704   1.744   1.110   8.032 -0.0375  0.4080  0.4383
 1088SOL    HW1 4705   1.725   1.016   8.028 -0.0076  0.3926  0.6389
 1088SOL    HW2 4706   1.803   1.125   7.958 -0.6869  0.4265 -0.0771
 1089SOL     OW 4707   7.106   2.210   8.260 -0.3636  0.3763  0.1405
 1089SOL    HW1 4708   7.130   2.182   8.172 -0.8194 -1.3614  0.5410
 1089SOL    HW2 4709   7.108   2.306   8.256  1.2881  0.3365 -1.2882
 1090SOL     OW 4710   0.655   7.623   9.516 -0.1736  0.8597 -0.0582
 1090SOL    HW1 4711   0.659   7.566   9.439  2.5023 -0.2262  0.7382
 1090SOL    HW2 4712   0.680   7.709   9.483  1.8098  0.2301 -0.3736
 1091SOL     OW 4713   0.311   2.011   6.686 -0.9514  0.8116  0.1645
 1091SOL    HW1 4714   0.367   2.016   6.763 -0.7381 -0.1297  0.0829
 1091SOL    HW2 4715   0.347   1.938   6.635  0.7161  3.1398 -2.2780
 1092SOL     OW 4716   2.870   2.004   8.315  0.3001  0.0937 -0.3487
 1092SOL    HW1 4717   2.871   2.032   8.407  0.0604  0.1627 -0.3677
 1092SOL    HW2 4718   2.942   2.053   8.275  3.4481 -3.1790  0.7402
 1093SOL     OW 4719   1.057   6.800  10.767  0.2581 -0.3413  0.0433
 1093SOL    HW1 4720   1.087   6.823  10.679  2.7542  0.1536  0.9473
 1093SOL    HW2 4721   0.963   6.782  10.756 -0.1976  2.6682 -2.1446
 1094SOL     OW 4722   0.369   0.934   8.003  1.0273 -0.1878 -0.1038
 1094SOL    HW1 4723   0.366   0.924   7.908  2.7595  0.2018 -0.2387
 1094SOL    HW2 4724   0.317   0.861   8.036 -0.1780  0.0638 -1.3515
 1095SOL     OW 4725   7.657   1.287   9.431 -0.2350  0.0150 -0.5968
 1095SOL    HW1 4726   7.596   1.348   9.390 -0.8727  0.3336  0.7585
 1095SOL    HW2 4727   7.743   1.330   9.424 -0.4300  0.3354 -1.0332
 1096SOL     OW 4728   1.657   7.669   8.364  0.7015  0.2625 -0.1620
 1096SOL    HW1 4729   1.697   7.586   8.340  2.1579  0.9085 -0.1569
 1096SOL    HW2 4730   1.710   7.735   8.318  0.4837  1.2421  0.9215
 1097SOL     OW 4731   7.800   0.732   9.475 -0.1044  0.2277 -0.4717
 1097SOL    HW1 4732   7.835   0.678   9.404 -1.1266  0.7837 -1.4410
 1097SOL    HW2 4733   7.792   0.819   9.436  0.3371  0.7930  0.6794
 1098SOL     OW 4734   7.844   1.093  10.073 -0.4550 -0.4547 -0.4135
 1098SOL    HW1 4735   7.782   1.166  10.068  0.6103  0.6905  1.7026
 1098SOL    HW2 4736   7.875   1.094  10.164  2.0152 -1.5128 -1.1606
 1099SOL     OW 4737   2.522   1.995   8.459 -0.7682 -0.0847 -0.3008
 1099SOL    HW1 4738   2.613   2.002   8.484 -0.8303  0.3834 -0.1967
 1099SOL    HW2 4739   2.520   2.022   8.367 -0.7819 -0.2203 -0.3404
 1100SOL     OW 4740   2.327   2.051   8.116 -0.0852 -0.1376  0.1167
 1100SOL    HW1 4741   2.294   2.024   8.201 -0.7701  0.3011 -0.0041
 1100SOL    HW2 4742   2.397   1.988   8.096 -0.7338 -0.9778  0.4440
 1101SOL     OW 4743   1.506   7.099   7.244 -0.0896 -0.8098  0.1471
 1101SOL    HW1 4744   1.575   7.113   7.308 -1.0700 -0.0585  1.0700
 1101SOL    HW2 4745   1.492   7.185   7.205  0.8273 -1.3376 -1.4789
 1102SOL     OW 4746   2.142   1.271  10.409  0.1547 -0.0120 -0.2441
 1102SOL    HW1 4747   2.091   1.326  10.350 -1.1507  0.2035  1.0343
 1102SOL    HW2 4748   2.189   1.212  10.350 -0.1926  0.9435 -1.5457
 1103SOL     OW 4749   0.517   2.573   6.749  0.2894  0.1389  0.0908
 1103SOL    HW1 4750   0.534   2.556   6.656  0.1710 -1.1215  0.2737
 1103SOL    HW2 4751   0.433   2.619   6.751  0.4235  0.4112 -0.4372
 1104SOL     OW 4752   0.517   1.709   8.511  0.7523 -0.0992  0.7025
 1104SOL    HW1 4753   0.493   1.667   8.593 -0.4881  0.3339  0.5851
 1104SOL    HW2 4754   0.477   1.655   8.443 -0.3407  0.8936  0.5210
 1105SOL     OW 4755   2.312   1.085   6.628  0.2683 -0.4392  0.2085
 1105SOL    HW1 4756   2.388   1.116   6.677 -0.1642  0.0120  0.6136
 1105SOL    HW2 4757   2.242   1.147   6.651 -0.5235 -1.5064  0.7671
 1106SOL     OW 4758   0.678   0.944   7.976 -0.4192  0.2407  0.5232
 1106SOL    HW1 4759   0.678   1.032   7.936  1.4094  0.2323  0.4177
 1106SOL    HW2 4760   0.585   0.922   7.984 -0.9083  1.3175 -1.3710
 1107SOL     OW 4761   4.023   7.648   8.015  0.0758  0.5947 -0.6647
 1107SOL    HW1 4762   4.017   7.653   8.111 -0.3676 -1.9518 -0.5073
 1107SOL    HW2 4763   4.099   7.593   7.999 -0.4423  0.1814 -1.7647
 1108SOL     OW 4764   0.965   2.101   8.807  0.6132 -0.0855  0.4728
 1108SOL    HW1 4765   0.911   2.067   8.878  0.0007 -0.6621 -0.2470
 1108SOL    HW2 4766   0.934   2.190   8.793 -1.2375 -0.8798 -0.9214
 1109SOL     OW 4767   0.435   2.395  10.518  0.5936 -0.0136 -0.6668
 1109SOL    HW1 4768   0.485   2.337  10.460  0.2649 -0.6341 -0.3374
 1109SOL    HW2 4769   0.492   2.408  10.594  0.9672  0.6897 -1.0520
 1110SOL     OW 4770   1.338   7.927   9.969  0.8286  0.2807  0.1497
 1110SOL    HW1 4771   1.399   7.995   9.942  0.9645 -0.0881 -0.5121
 1110SOL    HW2 4772   1.357   7.854   9.910 -0.9987  0.5410 -0.8207
 1111SOL     OW 4773   7.747   0.651  11.543  1.0227 -0.3402  0.5014
 1111SOL    HW1 4774   7.800   0.687  11.614  2.1150 -2.1848  0.6779
 1111SOL    HW2 4775   7.789   0.682  11.463 -0.2220  1.7570  0.5924
 1112SOL     OW 4776   0.124   7.581  10.887 -0.2640 -0.3538  0.3494
 1112SOL    HW1 4777   0.202   7.604  10.938 -0.3016  2.7036 -0.7567
 1112SOL    HW2 4778   0.142   7.493  10.854  0.1022 -2.2221  4.8038
 1113SOL     OW 4779   7.021   7.980   9.294 -0.6071 -0.0814 -0.6395
 1113SOL    HW1 4780   6.957   7.950   9.359  0.6229  0.7373  1.0189
 1113SOL    HW2 4781   7.027   7.907   9.232 -2.5045 -0.5216 -0.3774
 1114SOL     OW 4782   2.429   3.217  10.691  0.4015  0.8800  0.1743
 1114SOL    HW1 4783   2.384   3.137  10.664 -0.2283  1.2924  0.0047
 1114SOL    HW2 4784   2.397   3.284  10.631  0.1229  1.4847  0.9900
 1115SOL     OW 4785   1.368   2.918  10.619 -0.0520 -0.0911 -0.0012
 1115SOL    HW1 4786   1.287   2.869  10.633 -0.5060  0.7038  0.2069
 1115SOL    HW2 4787   1.414   2.914  10.703  0.1207 -0.5298 -0.1156
 1116SOL     OW 4788   4.478   0.867   8.424  0.3805 -0.5703 -0.3720
 1116SOL    HW1 4789   4.398   0.915   8.445  0.2235 -0.2830 -1.5779
 1116SOL    HW2 4790   4.448   0.787   8.382  0.6781 -1.3090  0.7947
 1117SOL     OW 4791   1.897   0.110  11.537  0.4827  0.1878  0.5832
 1117SOL    HW1 4792   1.887   0.178  11.471 -2.1509 -0.9238 -0.3121
 1117SOL    HW2 4793   1.815   0.112  11.586 -0.7180 -3.5608 -0.8496
 1118SOL     OW 4794   1.125   7.935  10.770  0.0063 -0.0458 -0.1297
 1118SOL    HW1 4795   1.168   7.988  10.703  0.6499  0.2488  0.5073
 1118SOL    HW2 4796   1.038   7.917  10.734 -0.2587  1.5113 -0.3159
 1119SOL     OW 4797   7.992   2.630   9.830 -0.0962  0.0009  0.3226
 1119SOL    HW1 4798   7.977   2.624   9.736 -2.1135 -0.3202  0.6174
 1119SOL    HW2 4799   8.056   2.561   9.848  0.7213  0.4147 -0.8616
 1120SOL     OW 4800   1.045   7.740  11.204 -0.2183 -0.1187 -0.3284
 1120SOL    HW1 4801   1.061   7.645  11.207 -0.4873 -0.1455  1.5620
 1120SOL    HW2 4802   1.080   7.772  11.287 -0.1980  1.4470 -0.9217
 1121SOL     OW 4803   1.582   1.622  11.298  0.6334  0.2160  0.0893
 1121SOL    HW1 4804   1.657   1.586  11.252  0.5285 -2.9925  2.1000
 1121SOL    HW2 4805   1.604   1.614  11.391 -1.2893  1.3281  0.7118
 1122SOL     OW 4806   2.237   1.043  10.843 -0.1535  0.4129  0.5278
 1122SOL    HW1 4807   2.256   0.965  10.894 -0.5572  0.3919  0.6461
 1122SOL    HW2 4808   2.181   1.096  10.899 -0.6098  0.3842  0.1067
 1123SOL     OW 4809   1.753   7.585  11.032  0.1083  0.1901 -0.2242
 1123SOL    HW1 4810   1.659   7.602  11.033  0.2641  1.0701  0.0374
 1123SOL    HW2 4811   1.766   7.515  11.096 -0.6073 -1.3390 -1.6686
 1124SOL     OW 4812   1.143   1.139   9.649  0.1306 -0.3126 -0.2245
 1124SOL    HW1 4813   1.236   1.134   9.671  0.2330 -2.0594 -0.8939
 1124SOL    HW2 4814   1.121   1.232   9.657  1.1983 -0.2092  2.8288
 1125SOL     OW 4815   7.521   2.892   9.856 -0.1118 -0.1058  0.2473
 1125SOL    HW1 4816   7.523   2.836   9.779 -2.1696  0.6167 -0.3754
 1125SOL    HW2 4817   7.609   2.930   9.860  1.6717 -3.8408  1.1485
 1126SOL     OW 4818   1.795   1.652  11.877  0.2217  0.6154  0.0007
 1126SOL    HW1 4819   1.748   1.591  11.933 -1.1201  1.6681  0.0855
 1126SOL    HW2 4820   1.880   1.612  11.864 -0.3561 -0.9096  0.6426
 1127SOL     OW 4821   2.287   2.201   8.746  0.2684  0.6351  0.8254
 1127SOL    HW1 4822   2.333   2.120   8.722  1.5013  0.9444  1.9686
 1127SOL    HW2 4823   2.217   2.210   8.682  1.8365  0.1425 -1.0377
 1128SOL     OW 4824   7.820   1.090  10.736  0.0782  0.6000 -0.0131
 1128SOL    HW1 4825   7.800   1.106  10.643  1.5938  1.2427 -0.2530
 1128SOL    HW2 4826   7.861   1.171  10.766  1.2673 -0.2524  0.7300
 1129SOL     OW 4827   0.168   7.903  11.139 -0.0643 -0.2223  0.0042
 1129SOL    HW1 4828   0.079   7.885  11.107 -0.8070 -0.7686  2.2050
 1129SOL    HW2 4829   0.162   7.990  11.178  0.5648  0.0115 -0.4033
 1130SOL     OW 4830   0.665   1.756  10.086 -0.3662  0.1673 -0.0449
 1130SOL    HW1 4831   0.653   1.826  10.021 -1.4985 -0.6897 -0.7940
 1130SOL    HW2 4832   0.760   1.746  10.092 -0.2194  0.8814 -0.9044
 1131SOL     OW 4833   1.841   1.376  10.593  0.5285 -0.2918 -0.0419
 1131SOL    HW1 4834   1.793   1.294  10.605 -1.8517  0.9553 -0.3821
 1131SOL    HW2 4835   1.907   1.355  10.527  1.6292 -2.5102  1.6442
 1132SOL     OW 4836   1.263   0.727  10.070  0.1875 -0.1761  0.5923
 1132SOL    HW1 4837   1.189   0.692  10.120  0.4007  0.7831  1.5993
 1132SOL    HW2 4838   1.228   0.808  10.030  0.6195  0.1521  0.8766
 1133SOL     OW 4839   3.564   3.412  10.514 -0.2068 -0.0270 -0.2215
 1133SOL    HW1 4840   3.595   3.491  10.470 -3.8257  1.0023 -1.3139
 1133SOL    HW2 4841   3.569   3.433  10.607 -0.4339  1.2545 -0.4745
 1134SOL     OW 4842   7.733   2.446   8.396 -0.1720 -0.0333  0.0072
 1134SOL    HW1 4843   7.670   2.501   8.349  0.7383  0.9631 -0.0777
 1134SOL    HW2 4844   7.679   2.379   8.438 -1.4394  1.4656  0.8923
 1135SOL     OW 4845   4.204   2.840   9.810  0.2161 -0.0088  0.1891
 1135SOL    HW1 4846   4.108   2.832   9.808  0.1650  0.5798  0.0324
 1135SOL    HW2 4847   4.220   2.934   9.813  0.7875 -0.1160  0.7567
 1136SOL     OW 4848   0.499   1.319   9.946 -0.9676 -0.5606  0.4240
 1136SOL    HW1 4849   0.497   1.231   9.910  2.4242 -0.4282 -0.4914
 1136SOL    HW2 4850   0.530   1.307  10.036  1.3076 -0.3311 -0.2485
 1137SOL     OW 4851   0.629   1.807  12.404  0.3373  0.1617 -0.3873
 1137SOL    HW1 4852   0.576   1.868  12.353 -0.6599 -0.1627  0.2310
 1137SOL    HW2 4853   0.641   1.731  12.348  0.5373  0.4188 -0.6956
 1138SOL     OW 4854   1.513   1.091  12.037  0.4014  0.2296 -0.0118
 1138SOL    HW1 4855   1.545   1.107  11.949  1.4112  0.5232  0.3993
 1138SOL    HW2 4856   1.507   1.178  12.077 -1.7528  0.2841 -0.3381
 1139SOL     OW 4857   0.816   2.538  11.071 -0.6720  0.0209 -0.6800
 1139SOL    HW1 4858   0.873   2.519  10.996 -3.4562 -0.6166 -2.7739
 1139SOL    HW2 4859   0.785   2.452  11.099 -1.0659  0.3964  0.0405
 1140SOL     OW 4860   0.805   1.730  11.233 -0.3591 -0.4647 -0.2075
 1140SOL    HW1 4861   0.849   1.811  11.260  0.4517 -0.1067 -2.3841
 1140SOL    HW2 4862   0.712   1.751  11.238 -0.1969  0.1614  0.4745
 1141SOL     OW 4863   0.294   0.455  12.107 -0.5712 -0.0043  0.1062
 1141SOL    HW1 4864   0.209   0.469  12.148 -0.1447  0.3574  0.8853
 1141SOL    HW2 4865   0.354   0.437  12.179  0.1987  0.6713 -0.3365
 1142SOL     OW 4866   1.747   2.029   8.762 -0.0480  0.3440 -0.5438
 1142SOL    HW1 4867   1.799   2.108   8.747 -1.1851  1.0118 -1.0425
 1142SOL    HW2 4868   1.691   2.022   8.685  0.3930 -1.2534 -0.7584
 1143SOL     OW 4869   0.842   0.926  11.122  0.1791  0.1035  0.0481
 1143SOL    HW1 4870   0.853   0.875  11.202  0.0729 -0.6010 -0.3785
 1143SOL    HW2 4871   0.768   0.885  11.078  1.1113 -0.4187 -1.0858
 1144SOL     OW 4872   2.648   0.990  11.283  0.3838  0.7743  0.1178
 1144SOL    HW1 4873   2.733   1.008  11.324 -0.4898  0.7283  2.0720
 1144SOL    HW2 4874   2.665   0.998  11.189  2.3833  1.4391  0.4732
 1145SOL     OW 4875   7.891   0.986  10.412  0.5127  0.2594  0.2202
 1145SOL    HW1 4876   7.841   1.068  10.414 -0.0022 -0.0538  0.8203
 1145SOL    HW2 4877   7.982   1.013  10.420  0.4223  0.8220 -0.5366
 1146SOL     OW 4878   2.747   2.032  11.521  0.9466 -0.1225 -0.0412
 1146SOL    HW1 4879   2.653   2.039  11.533  0.9091 -0.6274 -0.0404
 1146SOL    HW2 4880   2.759   2.026  11.426  1.1259  2.0422 -0.2143
 1147SOL     OW 4881   0.664   2.691   7.467  0.0476  0.2318 -0.1073
 1147SOL    HW1 4882   0.680   2.779   7.502 -0.0253  0.2037 -0.0046
 1147SOL    HW2 4883   0.571   2.677   7.479  0.2719 -0.3707  1.0717
 1148SOL     OW 4884   2.272   0.811  11.221 -0.6448 -0.4614  0.2731
 1148SOL    HW1 4885   2.282   0.719  11.244 -0.4637 -0.2747  0.9884
 1148SOL    HW2 4886   2.310   0.819  11.134  1.5775 -0.6137  1.1661
 1149SOL     OW 4887   1.526   1.612  10.505  0.1410 -0.5524 -0.1747
 1149SOL    HW1 4888   1.584   1.650  10.570 -0.4436  0.1285 -0.0284
 1149SOL    HW2 4889   1.584   1.569  10.442  0.7093 -1.2005  0.7818
 1150SOL     OW 4890   2.294   3.439  10.841 -0.1573 -0.1125 -0.4500
 1150SOL    HW1 4891   2.346   3.427  10.762  0.6318  1.9078 -0.2939
 1150SOL    HW2 4892   2.310   3.530  10.867 -1.0015 -0.4936  1.6032
 1151SOL     OW 4893   2.474   0.362  11.200 -0.0959 -0.6103  0.6008
 1151SOL    HW1 4894   2.496   0.312  11.122 -1.4585 -1.5188  0.7683
 1151SOL    HW2 4895   2.544   0.426  11.208  0.5123 -1.0575 -0.8761
 1152SOL     OW 4896   2.862   0.272  11.309 -0.2801  0.7353  0.2861
 1152SOL    HW1 4897   2.801   0.330  11.355 -0.5340 -0.1992  1.1756
 1152SOL    HW2 4898   2.920   0.240  11.378 -0.9107 -1.0093  0.0504
 1153SOL     OW 4899   2.977   7.720  10.328 -0.1418 -0.2514  0.1700
 1153SOL    HW1 4900   2.928   7.755  10.253 -0.1130 -1.5331 -0.4735
 1153SOL    HW2 4901   2.910   7.685  10.386 -0.0477 -2.5645 -0.9962
 1154SOL     OW 4902   2.735   2.199   9.986  0.1399  0.1664 -0.0845
 1154SOL    HW1 4903   2.708   2.151   9.908  0.2918  0.9680 -0.6325
 1154SOL    HW2 4904   2.736   2.132  10.055  0.1213 -0.5738 -0.7826
 1155SOL     OW 4905   0.008   0.455  11.954 -0.3583  0.0173  0.0676
 1155SOL    HW1 4906  -0.037   0.429  12.034  1.4998 -2.2872  0.4545
 1155SOL    HW2 4907  -0.048   0.424  11.883 -0.2258 -1.3714  0.5378
 1156SOL     OW 4908   7.993   1.109  11.288 -0.2268 -0.1179 -0.0512
 1156SOL    HW1 4909   7.986   1.025  11.335  1.1104 -0.5224 -0.5224
 1156SOL    HW2 4910   8.085   1.134  11.298 -0.5393  1.1528 -0.1911
 1157SOL     OW 4911   1.254   7.550  10.235 -0.4378 -0.4322 -0.2884
 1157SOL    HW1 4912   1.309   7.521  10.162 -0.1775 -0.3628 -0.1231
 1157SOL    HW2 4913   1.184   7.485  10.240 -0.5092 -0.3848 -0.6599
 1158SOL     OW 4914   3.047   6.979  11.303 -0.2386  0.4204  0.0782
 1158SOL    HW1 4915   3.026   7.067  11.273  0.4093  0.4644 -0.2623
 1158SOL    HW2 4916   3.082   6.935  11.225 -0.7607 -0.2084  0.1845
 1159SOL     OW 4917   1.624   2.773  10.487  0.2262  0.2726 -0.8919
 1159SOL    HW1 4918   1.534   2.789  10.516  0.0557 -0.7729 -0.7976
 1159SOL    HW2 4919   1.614   2.725  10.405  0.6506 -1.6075  0.0904
 1160SOL     OW 4920   0.728   0.047   8.902  0.1490  0.3044  0.1286
 1160SOL    HW1 4921   0.785  -0.010   8.953 -0.2724 -0.6715 -0.4506
 1160SOL    HW2 4922   0.753   0.030   8.811 -0.0916  0.9276 -0.0574
 1161SOL     OW 4923   7.669   2.725   9.109 -0.1091  0.2166 -0.1382
 1161SOL    HW1 4924   7.632   2.802   9.066 -0.8313  0.0958  0.2538
 1161SOL    HW2 4925   7.595   2.685   9.154  0.5989  0.3057  1.1594
 1162SOL     OW 4926   0.326   1.171   8.991  0.2224  0.5598 -0.5718
 1162SOL    HW1 4927   0.410   1.134   9.020  0.6791  1.1477 -1.1036
 1162SOL    HW2 4928   0.349   1.259   8.960 -0.5043  0.5324 -1.2126
 1163SOL     OW 4929   2.052   1.791   9.691  0.0679  0.0392  0.4661
 1163SOL    HW1 4930   2.044   1.879   9.655 -1.3283  0.2034  1.1150
 1163SOL    HW2 4931   2.146   1.779   9.705  0.6538  0.0930 -2.7870
 1164SOL     OW 4932   7.227   1.760   9.182 -0.4580  0.3577  0.2628
 1164SOL    HW1 4933   7.169   1.692   9.217 -0.3659  0.9243  1.5814
 1164SOL    HW2 4934   7.175   1.805   9.116 -0.1950 -1.6046 -1.3779
 1165SOL     OW 4935   0.904   0.432   9.430  0.0658 -0.6499  0.2297
 1165SOL    HW1 4936   0.884   0.526   9.428  3.5773  0.2220 -1.1342
 1165SOL    HW2 4937   0.946   0.419   9.515  0.2006 -0.8471  0.1311
 1166SOL     OW 4938   1.065   4.695   9.456 -0.0719 -0.4615 -0.2462
 1166SOL    HW1 4939   0.987   4.705   9.401 -0.9875  0.2068  1.1317
 1166SOL    HW2 4940   1.058   4.606   9.491 -0.7583 -0.0847  0.6289
 1167SOL     OW 4941   7.242   1.789  10.746  0.7902 -0.4566 -0.1772
 1167SOL    HW1 4942   7.302   1.730  10.793  0.9495 -0.3651 -0.2655
 1167SOL    HW2 4943   7.154   1.758  10.770  0.8422  0.4700  1.3435
 1168SOL     OW 4944   1.472   1.711  10.166  0.6198  0.0860 -0.1579
 1168SOL    HW1 4945   1.476   1.768  10.243 -0.2741 -1.3771  1.0176
 1168SOL    HW2 4946   1.533   1.640  10.185 -1.1594 -1.4265  0.2290
 1169SOL     OW 4947   0.759   7.091  10.869  0.4402 -0.4344  0.2487
 1169SOL    HW1 4948   0.766   7.020  10.933  1.1498 -0.4265  0.1928
 1169SOL    HW2 4949   0.759   7.171  10.921  0.3753 -0.4499  0.2724
 1170SOL     OW 4950   1.219   0.270   7.779 -0.3529 -0.1530 -0.0929
 1170SOL    HW1 4951   1.207   0.272   7.874 -0.5591 -0.6971 -0.1051
 1170SOL    HW2 4952   1.201   0.179   7.754  0.0842 -0.1076 -0.6031
 1171SOL     OW 4953   7.985   3.926   9.590 -0.2813  0.2278 -0.8251
 1171SOL    HW1 4954   7.959   4.000   9.534  1.5745  0.5227 -1.3636
 1171SOL    HW2 4955   7.964   3.848   9.539 -1.5336  0.3768 -0.5752
 1172SOL     OW 4956   2.508   0.065   7.786 -0.4212 -0.3624 -0.1473
 1172SOL    HW1 4957   2.416   0.087   7.769 -1.5084 -2.2203  2.5491
 1172SOL    HW2 4958   2.505  -0.024   7.821  2.3668 -0.2488  0.6293
 1173SOL     OW 4959   0.663   0.280  10.757  0.1351  0.5019  0.3849
 1173SOL    HW1 4960   0.576   0.240  10.748 -0.3037  1.5404 -0.1123
 1173SOL    HW2 4961   0.720   0.223  10.705 -0.7306  1.2201 -1.4421
 1174SOL     OW 4962   0.345   0.285   9.179 -0.3684 -0.1384  0.0420
 1174SOL    HW1 4963   0.362   0.338   9.101 -0.2186  1.9289  1.3958
 1174SOL    HW2 4964   0.262   0.318   9.213 -1.3292 -2.2104 -0.1476
 1175SOL     OW 4965   1.310   6.166   8.919 -0.0531 -0.5246  0.5024
 1175SOL    HW1 4966   1.269   6.080   8.912  0.7978 -0.8549 -0.6586
 1175SOL    HW2 4967   1.332   6.174   9.012 -0.2192 -1.5241  0.6431
 1176SOL     OW 4968   0.789   7.724  11.107  0.1825 -0.3472 -0.2091
 1176SOL    HW1 4969   0.878   7.756  11.122 -0.1063 -0.1524  1.2680
 1176SOL    HW2 4970   0.784   7.643  11.159 -1.1936  0.8770  1.7282
 1177SOL     OW 4971   6.638   7.164   9.822 -0.3792 -0.1709  0.6764
 1177SOL    HW1 4972   6.723   7.134   9.855 -0.1585  0.2743  0.5247
 1177SOL    HW2 4973   6.598   7.086   9.783  0.8142  0.0163 -1.0437
 1178SOL     OW 4974   0.962   7.168  10.707 -0.3523  0.4830  0.6202
 1178SOL    HW1 4975   0.891   7.123  10.753  0.8835 -0.7680  1.3643
 1178SOL    HW2 4976   1.006   7.099  10.657  1.4242  0.8704  1.5688
 1179SOL     OW 4977   1.604   2.220  10.442 -0.3899 -0.0590  0.4152
 1179SOL    HW1 4978   1.687   2.243  10.401  0.3362 -0.6321  1.5386
 1179SOL    HW2 4979   1.624   2.143  10.496 -1.6980 -0.3513  0.5221
 1180SOL     OW 4980   2.282   1.851   9.898  0.5110  0.0365 -0.6347
 1180SOL    HW1 4981   2.267   1.768   9.852 -0.6111 -0.7713  1.0766
 1180SOL    HW2 4982   2.369   1.843   9.936 -0.0418 -0.9182  0.5169
 1181SOL     OW 4983   1.207   1.901   9.096  0.2645 -0.5288 -0.0248
 1181SOL    HW1 4984   1.255   1.823   9.068  1.9287 -0.0463  1.2877
 1181SOL    HW2 4985   1.218   1.962   9.023  1.9050 -0.3583  0.3174
 1182SOL     OW 4986   0.809   0.618  10.864  0.2569 -0.0671 -0.5031
 1182SOL    HW1 4987   0.786   0.589  10.776  0.4513  1.0723 -0.9397
 1182SOL    HW2 4988   0.727   0.611  10.914  0.0897 -0.4812 -0.8376
 1183SOL     OW 4989   1.208   0.339   9.891 -0.0203 -0.1234  0.0397
 1183SOL    HW1 4990   1.198   0.417   9.947  0.9065  0.0869 -0.0769
 1183SOL    HW2 4991   1.138   0.348   9.826 -1.1149 -0.3674  1.1322
 1184SOL     OW 4992   1.140   1.958   9.385  0.1881  0.1116  0.3916
 1184SOL    HW1 4993   1.111   1.867   9.387  1.7861 -0.4301  1.0200
 1184SOL    HW2 4994   1.166   1.973   9.294 -1.4916  0.4541 -0.0658
 1185SOL     OW 4995   0.422   7.468  11.016  0.0508 -0.1357  0.0805
 1185SOL    HW1 4996   0.390   7.550  11.055 -0.6218 -0.7034  0.7551
 1185SOL    HW2 4997   0.516   7.469  11.034 -0.0501  0.2072  0.6384
 1186SOL     OW 4998   0.126   7.567   8.612 -0.1587 -0.2657 -0.0831
 1186SOL    HW1 4999   0.120   7.659   8.585 -1.8505 -0.5550 -0.8431
 1186SOL    HW2 5000   0.133   7.571   8.708  0.1929  0.6599 -0.1375
 1187SOL     OW 5001   1.758   1.941  11.509  0.4422 -0.0908  0.1238
 1187SOL    HW1 5002   1.784   2.033  11.500  1.4309 -0.3598  0.1156
 1187SOL    HW2 5003   1.784   1.901  11.426 -0.9995 -0.1618 -0.3206
 1188SOL     OW 5004   1.626   1.083  10.233  0.1589  0.5381  0.0731
 1188SOL    HW1 5005   1.598   1.001  10.193  1.5094  0.3917 -0.6118
 1188SOL    HW2 5006   1.548   1.115  10.278 -0.0444 -1.8219  1.5719
 1189SOL     OW 5007   7.976   1.100  11.882  0.1357  0.0753  0.1726
 1189SOL    HW1 5008   7.940   1.109  11.971  0.5928 -1.0097  0.4931
 1189SOL    HW2 5009   8.031   1.177  11.870  0.3406  0.0649  0.9735
 1190SOL     OW 5010   4.224   2.190  10.183 -0.4715 -0.5662 -0.8136
 1190SOL    HW1 5011   4.169   2.119  10.150 -1.2600  0.1983 -1.1735
 1190SOL    HW2 5012   4.205   2.194  10.277  0.9058 -1.9779 -0.4367
 1191SOL     OW 5013   0.956   1.528   8.935  0.5573 -0.0897 -0.3412
 1191SOL    HW1 5014   0.868   1.491   8.934  1.0592 -1.3775 -1.3180
 1191SOL    HW2 5015   0.977   1.540   9.028 -1.0551  1.3623 -0.1242
 1192SOL     OW 5016   6.907   1.817  10.583 -1.0626  0.2676  0.4009
 1192SOL    HW1 5017   6.918   1.789  10.674 -1.3037  0.3375  0.4514
 1192SOL    HW2 5018   6.953   1.900  10.577  0.9713 -0.8206 -0.1212
 1193SOL     OW 5019   1.129   0.797  10.650 -0.0329 -0.4389 -0.4169
 1193SOL    HW1 5020   1.076   0.851  10.709 -0.0019 -0.9983  0.1271
 1193SOL    HW2 5021   1.076   0.720  10.633  0.5827 -0.9901  0.1087
 1194SOL     OW 5022   1.136   0.991  10.439  0.0210 -0.0102 -0.0713
 1194SOL    HW1 5023   1.081   0.979  10.362  0.5509 -0.3063 -0.4097
 1194SOL    HW2 5024   1.162   0.902  10.464 -0.4730  0.0466  0.6957
 1195SOL     OW 5025   0.025   1.271   8.338 -0.0447  0.8931  0.1079
 1195SOL    HW1 5026  -0.010   1.182   8.334  2.2317 -0.0227 -2.3478
 1195SOL    HW2 5027  -0.052   1.327   8.349 -1.6162 -1.3045  0.9471
 1196SOL     OW 5028   7.921   0.911   9.857  0.0822  0.1847 -0.0832
 1196SOL    HW1 5029   7.957   0.884   9.942 -0.1291  0.2073  0.0152
 1196SOL    HW2 5030   7.909   0.829   9.809 -0.5333  0.1013  0.2060
 1197SOL     OW 5031   1.370   2.567  10.650 -0.1509  0.3617 -0.0813
 1197SOL    HW1 5032   1.331   2.491  10.693  0.4868  0.9693  1.6639
 1197SOL    HW2 5033   1.297   2.613  10.610 -0.9106  0.2413  1.1361
 1198SOL     OW 5034   3.087   0.177   9.367 -0.2655  0.3798  0.0695
 1198SOL    HW1 5035   3.094   0.166   9.272 -1.1733 -1.2284  0.1607
 1198SOL    HW2 5036   3.042   0.261   9.377 -0.4842  0.4044 -0.9411
 1199SOL     OW 5037   0.864   1.641   9.769 -0.1562  0.7298 -0.0624
 1199SOL    HW1 5038   0.948   1.671   9.737 -0.3923  0.8827 -0.5341
 1199SOL    HW2 5039   0.862   1.669   9.861 -0.5866  2.6106 -0.6083
 1200SOL     OW 5040   1.695   2.028   9.857  0.2636 -0.2326 -0.2039
 1200SOL    HW1 5041   1.614   2.000   9.901  0.2243  1.1214  0.6070
 1200SOL    HW2 5042   1.757   1.958   9.877 -0.1787 -0.3796  0.7356
 1201SOL     OW 5043   2.839   7.631   9.463  0.2748  0.2257 -0.6864
 1201SOL    HW1 5044   2.892   7.566   9.417 -0.3271 -0.5255 -0.3453
 1201SOL    HW2 5045   2.775   7.579   9.512 -0.8648  1.0929 -1.1940
 1202SOL     OW 5046   1.755   1.478   8.582 -0.0104 -0.3522  0.0858
 1202SOL    HW1 5047   1.839   1.516   8.558  1.4322 -2.6978  1.0177
 1202SOL    HW2 5048   1.713   1.545   8.636  0.3073  1.6558 -2.0012
 1203SOL     OW 5049   1.783   1.395  12.021 -0.0464  0.6798  0.1128
 1203SOL    HW1 5050   1.733   1.371  11.943 -0.4019 -0.8866  0.7713
 1203SOL    HW2 5051   1.874   1.387  11.995 -0.1528 -0.8867  0.1113
 1204SOL     OW 5052   0.147   7.965  12.266 -0.2417 -0.2139  0.6910
 1204SOL    HW1 5053   0.196   8.031  12.217  0.9483 -0.6586  1.2310
 1204SOL    HW2 5054   0.108   7.909  12.199  0.8863 -0.4652  0.2154
 1205SOL     OW 5055   1.247   0.873  11.201 -0.3469 -0.3105  0.4325
 1205SOL    HW1 5056   1.205   0.959  11.195 -1.5913 -0.9249  0.0082
 1205SOL    HW2 5057   1.334   0.886  11.164 -1.3011  0.2895 -1.7697
 1206SOL     OW 5058   1.498   2.710  10.149 -0.0681 -0.0247  0.2264
 1206SOL    HW1 5059   1.470   2.670  10.232 -2.1458 -0.3768 -0.5892
 1206SOL    HW2 5060   1.494   2.804  10.166  0.6857 -0.1028  0.8787
 1207SOL     OW 5061   1.379   2.080  12.162 -0.5055 -0.1518 -0.1813
 1207SOL    HW1 5062   1.425   2.076  12.246 -1.8164  0.4191  0.5991
 1207SOL    HW2 5063   1.355   2.172  12.152 -3.8679 -0.7877  0.8469
 1208SOL     OW 5064   1.262   6.600   0.106  0.0978 -0.3540 -0.2519
 1208SOL    HW1 5065   1.186   6.572   0.056  0.3581 -2.0223  0.2099
 1208SOL    HW2 5066   1.296   6.676   0.060 -0.8776 -0.6013 -1.4026
 1209SOL     OW 5067   3.329   7.836  12.200  0.1680 -0.0461 -0.1950
 1209SOL    HW1 5068   3.251   7.890  12.212  0.2764  0.7241 -2.5085
 1209SOL    HW2 5069   3.305   7.774  12.131  0.4564 -2.2508  1.5593
 1210SOL     OW 5070   0.978   0.535   8.550 -1.0240 -0.4572  0.3391
 1210SOL    HW1 5071   1.018   0.518   8.635 -0.5984 -1.7478 -0.0974
 1210SOL    HW2 5072   1.049   0.570   8.496 -1.2464  0.1685  0.4333
 1211SOL     OW 5073   1.805   1.421   9.072 -0.4243  0.5191 -0.5202
 1211SOL    HW1 5074   1.809   1.517   9.067  0.1752  0.6524  1.4807
 1211SOL    HW2 5075   1.735   1.403   9.134  0.1491 -0.3031 -0.0972
 1212SOL     OW 5076   1.666   0.442  10.808 -0.2178 -0.0759 -0.4486
 1212SOL    HW1 5077   1.743   0.495  10.827  0.5758 -1.1291 -0.6541
 1212SOL    HW2 5078   1.684   0.405  10.722 -1.5573  0.7120 -1.1009
 1213SOL     OW 5079   7.800   0.830  10.834  0.2829 -0.1076 -0.7815
 1213SOL    HW1 5080   7.801   0.925  10.821  1.1515 -0.0898 -0.5925
 1213SOL    HW2 5081   7.733   0.799  10.772 -1.3266  0.7905  0.4171
 1214SOL     OW 5082   0.482   1.550  10.468 -0.3613  0.0823  0.3406
 1214SOL    HW1 5083   0.452   1.461  10.448  0.0055  0.0066  0.1086
 1214SOL    HW2 5084   0.407   1.592  10.511 -0.3912 -0.4667  0.8300
 1215SOL     OW 5085   4.432   1.931  10.074 -0.2763 -0.5831 -0.1543
 1215SOL    HW1 5086   4.413   1.884   9.993  0.7590 -0.6846 -0.3541
 1215SOL    HW2 5087   4.430   2.024  10.049  1.1091 -0.6397 -0.5684
 1216SOL     OW 5088   2.249   2.025  10.106 -0.2435 -0.0614  0.5656
 1216SOL    HW1 5089   2.250   1.989  10.018 -0.8222  1.9647 -0.3389
 1216SOL    HW2 5090   2.276   1.953  10.163  1.1322 -1.1493 -1.3648
 1217SOL     OW 5091   2.251   2.122  11.103 -0.1562 -0.1424  0.0573
 1217SOL    HW1 5092   2.172   2.145  11.055  0.6338  0.2671 -1.0839
 1217SOL    HW2 5093   2.280   2.204  11.143 -1.6095 -0.7397  2.5525
 1218SOL     OW 5094   1.898   1.862   9.918  0.7825  0.1158  0.2835
 1218SOL    HW1 5095   1.943   1.837   9.837  0.4379 -1.4627  0.5533
 1218SOL    HW2 5096   1.964   1.850   9.986  0.9594  1.0880  0.2946
 1219SOL     OW 5097   1.155   0.788  11.439  0.0188 -0.2771 -0.5362
 1219SOL    HW1 5098   1.172   0.809  11.347  0.9535  1.7339  0.0476
 1219SOL    HW2 5099   1.153   0.872  11.483 -0.9887 -1.1740  1.2281
 1220SOL     OW 5100   0.153   0.570  12.390  0.9592  0.0148 -0.3922
 1220SOL    HW1 5101   0.185   0.559  12.479  0.4513  0.9725 -0.0734
 1220SOL    HW2 5102   0.212   0.635  12.351  2.4256 -1.8415 -1.4432
 1221SOL     OW 5103   0.987   7.947   9.379 -0.0579  0.4950 -0.3745
 1221SOL    HW1 5104   0.921   8.017   9.376  1.2676  1.8495  0.5870
 1221SOL    HW2 5105   1.059   7.981   9.326  0.4129 -0.3677 -0.2874
 1222SOL     OW 5106   0.994   7.855  10.254  0.0003 -0.8757 -0.4482
 1222SOL    HW1 5107   1.084   7.882  10.270  0.0615  0.1832 -2.3494
 1222SOL    HW2 5108   0.973   7.799  10.329  1.6141  0.2890  0.9769
 1223SOL     OW 5109   2.114   0.342  11.332 -0.4540 -0.3751  0.3755
 1223SOL    HW1 5110   2.138   0.280  11.401 -0.3815 -0.4412  0.2919
 1223SOL    HW2 5111   2.021   0.325  11.316  0.1764 -2.4811 -1.6369
 1224SOL     OW 5112   1.273   7.925  10.264  0.3998 -0.0413  0.3370
 1224SOL    HW1 5113   1.289   8.018  10.281  1.2091 -0.0002 -0.5932
 1224SOL    HW2 5114   1.290   7.914  10.171 -2.9828 -0.4708 -0.3229
 1225SOL     OW 5115   7.844   0.562   9.240  0.3422 -0.1145  0.1050
 1225SOL    HW1 5116   7.869   0.519   9.158 -2.5751 -3.3601  0.6622
 1225SOL    HW2 5117   7.762   0.608   9.219 -0.5064 -1.0779  1.1116
 1226SOL     OW 5118   0.489   2.012  12.241  0.1144 -0.5859 -0.3954
 1226SOL    HW1 5119   0.461   2.054  12.159  0.6741 -1.2837 -0.9512
 1226SOL    HW2 5120   0.408   1.979  12.279 -0.3399  0.9304  0.0349
 1227SOL     OW 5121   1.448   0.539  10.035 -0.2214  0.3741 -0.6720
 1227SOL    HW1 5122   1.435   0.506   9.946  0.2642  0.6420 -0.8415
 1227SOL    HW2 5123   1.384   0.610  10.044 -2.0627 -1.2858  0.0742
 1228SOL     OW 5124   6.938   2.122  10.514  0.1133 -0.4254 -0.6247
 1228SOL    HW1 5125   6.989   2.121  10.595  0.5047 -3.0096 -0.8017
 1228SOL    HW2 5126   6.862   2.176  10.534 -0.6006 -2.2092  2.0624
 1229SOL     OW 5127   1.130   2.756  10.206 -0.3620 -0.2568 -0.1033
 1229SOL    HW1 5128   1.049   2.808  10.214 -1.2772 -1.2019 -2.3289
 1229SOL    HW2 5129   1.099   2.666  10.194  0.9008 -0.4820 -2.2909
 1230SOL     OW 5130   3.471   7.741  11.681  0.4722 -0.2467 -0.5644
 1230SOL    HW1 5131   3.396   7.796  11.703 -0.8146 -2.1450 -0.0045
 1230SOL    HW2 5132   3.539   7.803  11.654 -1.1851  1.5417 -0.8136
 1231SOL     OW 5133   0.746   6.625   9.124  0.0452 -0.1632  0.2856
 1231SOL    HW1 5134   0.693   6.548   9.102 -1.4877  1.0638 -0.5443
 1231SOL    HW2 5135   0.742   6.680   9.045  1.6720  0.4821  0.6115
 1232SOL     OW 5136   0.986   7.211   8.598 -0.0450  0.1034 -0.2329
 1232SOL    HW1 5137   1.079   7.209   8.576  0.3680 -1.5221  1.4143
 1232SOL    HW2 5138   0.964   7.120   8.619 -1.9263  0.5117 -0.2334
 1233SOL     OW 5139   0.784   1.109   8.987  0.2622  0.3517 -0.1756
 1233SOL    HW1 5140   0.774   1.043   8.918  0.3193  0.2832 -0.1186
 1233SOL    HW2 5141   0.755   1.190   8.947 -1.8028 -0.0618  0.3844
 1234SOL     OW 5142   1.028   0.773  12.307  0.0703 -0.8199 -0.2810
 1234SOL    HW1 5143   0.990   0.740  12.226 -2.8653 -1.5367  1.2477
 1234SOL    HW2 5144   1.001   0.865  12.310  2.4701  0.0004 -1.2938
 1235SOL     OW 5145   2.070   0.921  10.250 -0.2413 -0.0272  0.1154
 1235SOL    HW1 5146   2.162   0.947  10.253 -0.3052  0.1361  2.0578
 1235SOL    HW2 5147   2.021   1.003  10.253 -0.4811 -0.1117 -0.9249
 1236SOL     OW 5148   7.080   0.488  11.187  0.3460 -0.3562  0.4165
 1236SOL    HW1 5149   7.073   0.514  11.095  0.9252  0.1527  0.5116
 1236SOL    HW2 5150   6.990   0.492  11.219  0.0854 -0.9230 -0.2273
 1237SOL     OW 5151   2.620   7.738   8.824  0.2676  0.2898  0.8109
 1237SOL    HW1 5152   2.555   7.680   8.786  1.4407  0.0904 -0.9955
 1237SOL    HW2 5153   2.573   7.821   8.837 -0.7922 -0.3549  1.2057
 1238SOL     OW 5154   1.663   1.666   8.780  0.0679 -0.4047 -0.3710
 1238SOL    HW1 5155   1.628   1.634   8.863  0.8765  1.2347  0.6706
 1238SOL    HW2 5156   1.755   1.687   8.799  0.2712  0.0110 -1.6795
 1239SOL     OW 5157   2.126   3.115   9.686  0.4301 -0.2671  0.2057
 1239SOL    HW1 5158   2.137   3.210   9.681  2.0045 -0.2271  2.7397
 1239SOL    HW2 5159   2.141   3.085   9.596  0.8281  1.7887 -0.4803
 1240SOL     OW 5160   7.872   0.680   9.726 -0.3622 -0.3241 -0.3655
 1240SOL    HW1 5161   7.811   0.612   9.754 -0.0909 -0.3412  0.1845
 1240SOL    HW2 5162   7.845   0.699   9.636 -0.7052 -0.8606 -0.3855
 1241SOL     OW 5163   0.704   1.377   8.921  0.3437 -0.8825 -0.3229
 1241SOL    HW1 5164   0.638   1.445   8.908  1.1979 -0.0481 -0.3441
 1241SOL    HW2 5165   0.695   1.320   8.844  1.4009  0.7220 -1.7083
 1242SOL     OW 5166   2.492   2.762  10.596  0.3101 -0.6080 -0.5654
 1242SOL    HW1 5167   2.587   2.771  10.607  0.1696  1.7753 -0.7226
 1242SOL    HW2 5168   2.483   2.718  10.511  1.2622 -0.9018 -0.5327
 1243SOL     OW 5169   3.121   0.583  10.128 -0.1915 -0.6325  0.2059
 1243SOL    HW1 5170   3.107   0.496  10.088  2.7872 -0.9110 -0.4156
 1243SOL    HW2 5171   3.198   0.572  10.183  0.3974  1.6957 -0.0760
 1244SOL     OW 5172   0.695   2.898   9.942  0.1654 -0.0851  0.8339
 1244SOL    HW1 5173   0.662   2.854   9.864 -3.1594 -3.5471  3.8222
 1244SOL    HW2 5174   0.790   2.900   9.930 -0.2067  0.6551 -3.6385
 1245SOL     OW 5175   7.116   1.890   8.162  0.5671  0.2296 -0.1218
 1245SOL    HW1 5176   7.059   1.891   8.085 -1.0146 -0.1732  0.9819
 1245SOL    HW2 5177   7.181   1.958   8.146 -0.3979  0.8946 -1.3126
 1246SOL     OW 5178   7.646   1.262   9.695  0.4202 -0.2904 -0.6314
 1246SOL    HW1 5179   7.554   1.236   9.697  0.5618 -0.7990 -0.6294
 1246SOL    HW2 5180   7.668   1.267   9.602 -0.4518  2.9129 -0.7791
 1247SOL     OW 5181   1.455   0.522   9.770  0.1616 -0.5771  0.1901
 1247SOL    HW1 5182   1.417   0.584   9.708 -0.4649 -0.3394  0.8007
 1247SOL    HW2 5183   1.491   0.452   9.715  3.1624  1.4805 -0.7174
 1248SOL     OW 5184   6.778   7.601  10.287 -0.1356  0.4723 -0.1245
 1248SOL    HW1 5185   6.814   7.554  10.211  0.1633 -0.6977  0.7180
 1248SOL    HW2 5186   6.789   7.694  10.265 -1.8357  0.2448 -2.3805
 1249SOL     OW 5187   1.311   1.395  10.477 -0.3628  0.1108 -0.1524
 1249SOL    HW1 5188   1.226   1.437  10.467  0.5191  1.9071 -0.4231
 1249SOL    HW2 5189   1.375   1.464  10.460  1.1761 -1.4825 -1.2323
 1250SOL     OW 5190   2.306   0.550  11.306  0.1886  0.0641 -0.2172
 1250SOL    HW1 5191   2.387   0.505  11.284  0.4882  0.0584  0.8584
 1250SOL    HW2 5192   2.239   0.481  11.302  0.3919 -0.1381 -0.1548
 1251SOL     OW 5193   1.193   0.348  10.479  0.3323  0.3548 -0.0797
 1251SOL    HW1 5194   1.120   0.385  10.528  0.0827  1.5425 -1.2997
 1251SOL    HW2 5195   1.268   0.403  10.502  0.7647 -0.5881  0.8267
 1252SOL     OW 5196   2.764   0.907  10.209  0.4851 -0.0255  0.4249
 1252SOL    HW1 5197   2.804   0.902  10.122  2.0301  1.8662  0.9653
 1252SOL    HW2 5198   2.685   0.854  10.201 -0.0157  0.9293 -2.4735
 1253SOL     OW 5199   7.110   2.239   9.982 -0.0770  0.2760  0.5927
 1253SOL    HW1 5200   7.078   2.175   9.919 -0.2997 -0.4344  1.4053
 1253SOL    HW2 5201   7.050   2.232  10.056 -1.0036  2.4984  0.1128
 1254SOL     OW 5202   1.718   0.579  10.027 -0.8575  0.1776 -0.2948
 1254SOL    HW1 5203   1.774   0.518   9.979  1.0253 -0.2835  2.2557
 1254SOL    HW2 5204   1.630   0.560   9.997 -0.3708 -3.7539  0.2199
 1255SOL     OW 5205   6.984   1.163  11.310  0.0932  0.3696  0.0677
 1255SOL    HW1 5206   7.021   1.211  11.384  0.0194  0.1630  0.2383
 1255SOL    HW2 5207   7.042   1.184  11.237  1.4314 -1.1211  0.6460
 1256SOL     OW 5208   0.376   0.549   9.027  0.0241 -0.3642  0.2987
 1256SOL    HW1 5209   0.370   0.512   8.939 -2.0991 -0.3211  0.3759
 1256SOL    HW2 5210   0.332   0.634   9.020  0.2950 -0.1245  1.3091
 1257SOL     OW 5211   7.623   5.985   9.327  0.4979 -0.0878  0.1857
 1257SOL    HW1 5212   7.589   6.074   9.319  1.7840  0.5725  1.5481
 1257SOL    HW2 5213   7.554   5.937   9.373  0.2463  0.4829  0.4120
 1258SOL     OW 5214   3.484   2.553  10.990 -0.2709  0.0255  0.3897
 1258SOL    HW1 5215   3.485   2.607  10.911  0.3173  0.8796  0.9728
 1258SOL    HW2 5216   3.510   2.612  11.060  1.5548 -1.2617  0.8816
 1259SOL     OW 5217   1.916   0.763   7.887 -0.2404 -0.2123 -0.0229
 1259SOL    HW1 5218   1.865   0.773   7.807 -0.9030  1.1759  0.5473
 1259SOL    HW2 5219   1.862   0.801   7.956  0.8939 -0.1413  0.8666
 1260SOL     OW 5220   2.724   2.743  10.103  0.7832  0.2312 -0.1423
 1260SOL    HW1 5221   2.645   2.696  10.076  1.0945 -1.5750  1.8010
 1260SOL    HW2 5222   2.795   2.683  10.081  1.4490  0.9831 -0.0638
 1261SOL     OW 5223   1.291   1.706  10.611  0.1249 -0.1514 -0.0059
 1261SOL    HW1 5224   1.366   1.727  10.555  0.3997 -1.7201 -0.2742
 1261SOL    HW2 5225   1.217   1.751  10.570  1.0599  2.4929  0.9624
 1262SOL     OW 5226   0.539   1.794  11.287  0.3287 -0.1885  0.8445
 1262SOL    HW1 5227   0.446   1.803  11.267  0.0412 -1.9464  1.2740
 1262SOL    HW2 5228   0.556   1.865  11.349 -1.1922 -0.9444  2.2115
 1263SOL     OW 5229   1.084   1.097  11.156 -0.1058  0.1895 -0.0224
 1263SOL    HW1 5230   1.024   1.023  11.148  0.8932 -0.6475  0.0123
 1263SOL    HW2 5231   1.056   1.158  11.088 -2.8163  1.1742  1.8568
 1264SOL     OW 5232   1.298   0.038  10.968 -0.4049 -0.2081  0.5270
 1264SOL    HW1 5233   1.376   0.002  10.926 -0.3792 -1.1650  1.3584
 1264SOL    HW2 5234   1.231  -0.029  10.955 -1.3324  0.9247 -0.8339
 1265SOL     OW 5235   1.149   1.245  10.842  0.1126  0.3233  0.5112
 1265SOL    HW1 5236   1.205   1.200  10.905  2.4633  0.5960 -1.2533
 1265SOL    HW2 5237   1.182   1.335  10.840 -0.6454  0.6039 -0.3264
 1266SOL     OW 5238   7.340   0.984  10.298 -0.5064  0.0145  0.5598
 1266SOL    HW1 5239   7.358   1.016  10.386 -3.1222 -0.3008  1.2944
 1266SOL    HW2 5240   7.251   1.015  10.279 -1.1956 -2.4785 -0.7267
 1267SOL     OW 5241   1.041   2.038   8.567 -0.5499  0.2953  0.0939
 1267SOL    HW1 5242   1.135   2.051   8.558 -0.6674  0.2980 -1.3505
 1267SOL    HW2 5243   1.023   2.054   8.659  1.0854 -1.1560  0.7192
 1268SOL     OW 5244   0.557   0.784  10.754  0.2631 -0.8152 -0.0219
 1268SOL    HW1 5245   0.615   0.708  10.754  0.6332 -0.5312 -0.4393
 1268SOL    HW2 5246   0.470   0.747  10.738  0.2395 -1.3001  1.1044
 1269SOL     OW 5247   0.396   2.045   9.370 -0.0393  0.1066 -0.2402
 1269SOL    HW1 5248   0.481   2.019   9.405 -0.0809 -2.3297 -1.7221
 1269SOL    HW2 5249   0.414   2.126   9.321  0.8810  0.9741  1.4468
 1270SOL     OW 5250   1.535   4.365  10.121  0.4481 -0.8595 -0.3364
 1270SOL    HW1 5251   1.550   4.373  10.215 -1.9224  1.1493 -0.0362
 1270SOL    HW2 5252   1.616   4.399  10.081  0.2889  1.3462  1.0383
 1271SOL     OW 5253   2.022   7.146  10.484  0.7609 -0.1254 -0.2192
 1271SOL    HW1 5254   2.030   7.052  10.469 -0.1728 -0.1537 -0.5959
 1271SOL    HW2 5255   2.009   7.154  10.579 -1.5683 -0.5819 -0.4503
 1272SOL     OW 5256   0.200   1.770   9.856  0.2264 -0.3698 -0.1268
 1272SOL    HW1 5257   0.205   1.677   9.835 -2.0684 -0.3683 -0.9205
 1272SOL    HW2 5258   0.175   1.812   9.774 -0.7261  0.6937  0.6801
 1273SOL     OW 5259   0.860   0.976   8.732 -0.1993 -0.4062 -0.3686
 1273SOL    HW1 5260   0.885   0.938   8.816  0.3448  2.1816  0.7566
 1273SOL    HW2 5261   0.933   0.956   8.673  0.0423 -1.0680  0.1504
 1274SOL     OW 5262   1.805   1.894  11.236 -0.2584  0.6338  0.2396
 1274SOL    HW1 5263   1.755   1.959  11.187 -0.6535  0.0160 -0.1930
 1274SOL    HW2 5264   1.895   1.905  11.206 -0.2168  1.3920  0.6295
 1275SOL     OW 5265   1.272   7.532   9.501  0.0090  0.4492 -0.0824
 1275SOL    HW1 5266   1.283   7.520   9.595  0.9706  0.9147 -0.1221
 1275SOL    HW2 5267   1.359   7.516   9.464 -0.2337  0.7982 -0.8319
 1276SOL     OW 5268   0.316   1.978  11.041 -0.0204 -0.3517  0.1563
 1276SOL    HW1 5269   0.412   1.975  11.038  0.1250 -0.7942  2.5829
 1276SOL    HW2 5270   0.292   2.050  10.983  1.7913 -0.1825 -0.4420
 1277SOL     OW 5271   7.927   2.456  12.153 -0.3594  0.1327  0.1024
 1277SOL    HW1 5272   7.859   2.433  12.216  0.9098 -1.8127  0.8421
 1277SOL    HW2 5273   7.982   2.520  12.199 -0.8819  0.6601  0.0059
 1278SOL     OW 5274   3.097   0.827  10.311 -0.0635  0.0315  0.1259
 1278SOL    HW1 5275   3.111   0.746  10.261  0.6249  0.0232  0.3232
 1278SOL    HW2 5276   3.089   0.895  10.244  0.7008 -0.0023 -0.0122
 1279SOL     OW 5277   2.675   0.331   8.719  0.1515 -0.4964  0.3037
 1279SOL    HW1 5278   2.705   0.346   8.808 -0.4314 -0.2885  0.4736
 1279SOL    HW2 5279   2.737   0.379   8.664  0.1298 -0.0663  0.6460
 1280SOL     OW 5280   0.546   0.742   9.815  0.6412 -0.4925  0.0083
 1280SOL    HW1 5281   0.520   0.669   9.759  1.1476 -1.3714  0.8882
 1280SOL    HW2 5282   0.629   0.773   9.778 -0.7511  1.2590 -1.8246
 1281SOL     OW 5283   7.218   7.793   9.773  0.6375 -0.7112  0.1330
 1281SOL    HW1 5284   7.174   7.812   9.856 -0.5026  0.2494 -0.6433
 1281SOL    HW2 5285   7.297   7.745   9.797  1.5416  1.5387  1.9448
 1282SOL     OW 5286   0.300   0.804  11.493  0.0728  0.1210  0.0247
 1282SOL    HW1 5287   0.392   0.826  11.503  0.4680 -1.4866  0.1222
 1282SOL    HW2 5288   0.256   0.846  11.567  0.6815  1.0996 -0.1630
 1283SOL     OW 5289   0.533   1.109   9.152 -0.2960 -0.2384 -0.0236
 1283SOL    HW1 5290   0.543   1.016   9.169 -1.6361 -0.3353  0.3745
 1283SOL    HW2 5291   0.622   1.142   9.140  0.1075 -1.8993 -1.9962
 1284SOL     OW 5292   1.982   7.946  10.816 -0.0396  0.1586  0.4870
 1284SOL    HW1 5293   2.007   7.890  10.742 -0.1269  1.6150 -0.6838
 1284SOL    HW2 5294   1.990   7.889  10.893  0.1945 -1.3544 -0.6173
 1285SOL     OW 5295   0.216   7.417  10.084 -0.4535  0.4913  0.0458
 1285SOL    HW1 5296   0.193   7.469  10.161  0.1048  0.1961  0.4160
 1285SOL    HW2 5297   0.164   7.455  10.014  0.9888  2.4883 -0.0168
 1286SOL     OW 5298   6.909   7.997   8.221 -0.0768  0.6077  0.1809
 1286SOL    HW1 5299   6.913   8.055   8.145  0.0936  1.0130  0.4919
 1286SOL    HW2 5300   6.870   7.916   8.188  0.8981  0.4187 -0.5628
 1287SOL     OW 5301   1.587   1.511   0.498 -0.1886  0.1715  0.0329
 1287SOL    HW1 5302   1.619   1.593   0.460 -1.3157  0.3163 -0.6434
 1287SOL    HW2 5303   1.568   1.532   0.589 -2.3740  1.2334 -0.6170
 1288SOL     OW 5304   0.840   0.127  10.617  0.1427 -0.1338  0.2905
 1288SOL    HW1 5305   0.867   0.036  10.629 -0.1253 -0.2034  0.3706
 1288SOL    HW2 5306   0.808   0.130  10.527  2.7608  0.5380 -0.7084
 1289SOL     OW 5307   2.358   0.609   9.748 -0.0277  0.4889  0.6581
 1289SOL    HW1 5308   2.445   0.576   9.769 -0.4651  0.6391  3.0068
 1289SOL    HW2 5309   2.335   0.566   9.666  1.9968 -0.0098  0.2943
 1290SOL     OW 5310   0.439   1.530  12.073 -0.3404 -0.5469  0.1179
 1290SOL    HW1 5311   0.421   1.590  12.001 -0.1703 -0.2543  0.3149
 1290SOL    HW2 5312   0.394   1.449  12.049  0.3693 -0.7112 -0.6822
 1291SOL     OW 5313   1.203   2.040  11.886  0.0584 -0.2476 -0.1760
 1291SOL    HW1 5314   1.218   2.022  11.979  0.4760  0.0386 -0.1827
 1291SOL    HW2 5315   1.151   2.120  11.885 -0.3345 -0.5045 -0.1789
 1292SOL     OW 5316   1.888   1.128  10.202  0.0451  0.2393 -0.2571
 1292SOL    HW1 5317   1.905   1.222  10.198 -0.8109  0.3880 -0.5606
 1292SOL    HW2 5318   1.792   1.121  10.206  0.1077 -0.4954  2.7045
 1293SOL     OW 5319   1.426   1.618   0.202  0.3682 -0.3130  0.1498
 1293SOL    HW1 5320   1.363   1.690   0.209 -0.1858 -0.4428 -2.4318
 1293SOL    HW2 5321   1.490   1.636   0.271 -0.1562  2.2515  0.0890
 1294SOL     OW 5322   1.035   0.780  11.847 -0.6163 -0.2053  0.2964
 1294SOL    HW1 5323   1.022   0.772  11.942 -1.6595  2.1016  0.4244
 1294SOL    HW2 5324   0.971   0.719  11.809 -1.4341  0.1293  1.0817
 1295SOL     OW 5325   1.636   0.375  11.506  0.4961  0.1600  0.1009
 1295SOL    HW1 5326   1.683   0.318  11.566  0.1755 -0.2852 -0.0613
 1295SOL    HW2 5327   1.669   0.463  11.525  2.0636 -0.2459 -0.6594
 1296SOL     OW 5328   0.214   0.405   8.063 -0.2594 -0.0307  0.2437
 1296SOL    HW1 5329   0.292   0.349   8.062  1.3360  2.0693 -0.7267
 1296SOL    HW2 5330   0.170   0.385   7.981 -1.0112 -1.4807  0.9520
 1297SOL     OW 5331   0.242   1.402  10.794 -0.4723 -0.4985  0.1137
 1297SOL    HW1 5332   0.198   1.474  10.839  0.1165 -1.8821  3.1662
 1297SOL    HW2 5333   0.329   1.400  10.832  1.2112 -0.0137 -3.3066
 1298SOL     OW 5334   2.303   0.008  12.113 -0.0465 -0.9734  0.0881
 1298SOL    HW1 5335   2.280  -0.084  12.123 -0.0982 -0.8616  1.0821
 1298SOL    HW2 5336   2.283   0.048  12.198  2.2774 -0.5400  0.5099
 1299SOL     OW 5337   1.077   1.667  10.322  0.2273 -0.4002 -0.0631
 1299SOL    HW1 5338   1.045   1.632  10.239 -1.3542  0.5997  0.0744
 1299SOL    HW2 5339   1.053   1.601  10.387 -0.1503 -0.3653 -0.1680
 1300SOL     OW 5340   1.124   2.796  10.631 -0.2322 -0.3190  0.0052
 1300SOL    HW1 5341   1.086   2.852  10.563  1.0044  0.1661 -0.3229
 1300SOL    HW2 5342   1.063   2.803  10.705  0.0916  1.8453  0.1354
 1301SOL     OW 5343   1.413   0.767  10.674  0.1575  0.0663  0.1095
 1301SOL    HW1 5344   1.328   0.809  10.680 -0.9716 -2.1741  1.4867
 1301SOL    HW2 5345   1.398   0.690  10.619  1.1210 -0.6602  0.8127
 1302SOL     OW 5346   7.673   0.766  10.113  0.5233 -0.0058 -0.6569
 1302SOL    HW1 5347   7.614   0.701  10.075 -0.4536 -0.3219  1.2491
 1302SOL    HW2 5348   7.670   0.840  10.053 -2.6218  0.3807 -0.1751
 1303SOL     OW 5349   2.561   3.188  10.257 -0.1833 -0.0029 -0.0349
 1303SOL    HW1 5350   2.588   3.205  10.347 -0.0573  2.3322 -0.4422
 1303SOL    HW2 5351   2.487   3.128  10.265  0.3404 -0.4841  1.5572
 1304SOL     OW 5352   7.639   1.938   9.994  0.1117 -0.1793  0.2226
 1304SOL    HW1 5353   7.592   1.923  10.076  1.5005 -0.6121  0.9748
 1304SOL    HW2 5354   7.640   1.852   9.951 -0.0474 -0.1042  0.0711
 1305SOL     OW 5355   6.745   1.894  11.350  0.3372 -0.4703  0.4329
 1305SOL    HW1 5356   6.667   1.922  11.398  2.0157  1.4620  2.2275
 1305SOL    HW2 5357   6.759   1.804  11.379  0.3533  0.1029  2.3535
 1306SOL     OW 5358   0.649   1.841   0.183  0.3501  0.5698  0.5677
 1306SOL    HW1 5359   0.640   1.819   0.090  0.3353  0.7869  0.5188
 1306SOL    HW2 5360   0.613   1.765   0.229  1.2265  0.0500  0.4124
 1307SOL     OW 5361   2.726   0.624   8.803  0.3909 -0.6072  0.1816
 1307SOL    HW1 5362   2.742   0.579   8.720  0.4121 -0.3009  0.0191
 1307SOL    HW2 5363   2.715   0.553   8.867  1.6812 -0.8483  0.1711
 1308SOL     OW 5364   7.208   7.556  10.137 -0.3859 -0.0902 -0.8854
 1308SOL    HW1 5365   7.147   7.552  10.211 -0.2887 -1.6489 -0.8636
 1308SOL    HW2 5366   7.241   7.467  10.128  0.9550  0.4571 -1.6964
 1309SOL     OW 5367   2.890   3.185  10.946 -0.1462  0.3887  0.0882
 1309SOL    HW1 5368   2.829   3.153  10.880  1.3907  0.2196 -1.3190
 1309SOL    HW2 5369   2.963   3.124  10.944  1.2446  1.9709 -0.1425
 1310SOL     OW 5370   1.472   1.437  11.081 -0.1033 -0.0402 -0.3584
 1310SOL    HW1 5371   1.562   1.467  11.093 -0.4670  1.0297 -0.2327
 1310SOL    HW2 5372   1.466   1.414  10.989 -0.2609  1.8496 -0.8541
 1311SOL     OW 5373   7.322   2.056   9.538  0.0418 -0.3371 -0.2667
 1311SOL    HW1 5374   7.267   2.038   9.462 -0.2479  0.2410 -0.2027
 1311SOL    HW2 5375   7.290   2.140   9.571  1.1035  0.1139 -0.3451
 1312SOL     OW 5376   7.061   7.830   9.553  0.2897 -0.3340  0.0344
 1312SOL    HW1 5377   7.102   7.773   9.488  3.1623  1.3214  0.2084
 1312SOL    HW2 5378   7.107   7.808   9.635 -0.7576  0.0849  0.7468
 1313SOL     OW 5379   2.519   6.664   9.697 -0.1780 -0.3244 -0.1775
 1313SOL    HW1 5380   2.533   6.754   9.668 -0.3742 -0.0804  0.4723
 1313SOL    HW2 5381   2.432   6.665   9.737  0.0836 -0.6518  0.4101
 1314SOL     OW 5382   1.682   1.682   9.912  0.5734 -0.3034 -0.1379
 1314SOL    HW1 5383   1.610   1.741   9.936 -0.9360 -1.6843 -1.0768
 1314SOL    HW2 5384   1.760   1.735   9.924 -0.7086  1.9696 -1.0645
 1315SOL     OW 5385   0.236   1.569  10.583  0.3281 -0.1095 -0.0744
 1315SOL    HW1 5386   0.218   1.496  10.643  0.3079 -0.8409 -0.9490
 1315SOL    HW2 5387   0.239   1.646  10.640 -0.9410 -0.6053  0.7216
 1316SOL     OW 5388   0.451   6.596   7.394 -0.2000 -0.4016 -0.0130
 1316SOL    HW1 5389   0.393   6.524   7.422  0.0866  0.0032  1.7841
 1316SOL    HW2 5390   0.507   6.612   7.470  1.7288 -0.2077 -1.3950
 1317SOL     OW 5391   3.705   0.597  11.029 -0.1520 -0.5907  0.3739
 1317SOL    HW1 5392   3.715   0.552  11.113  0.3553 -1.1723  0.0156
 1317SOL    HW2 5393   3.715   0.528  10.964 -1.1846 -0.2525 -0.1567
 1318SOL     OW 5394   1.128   2.259  10.123 -0.8376 -0.1026  0.2541
 1318SOL    HW1 5395   1.200   2.310  10.087 -0.9648  0.1249  0.3222
 1318SOL    HW2 5396   1.050   2.312  10.107 -0.7839  0.4775  1.7712
 1319SOL     OW 5397   1.819   7.596   9.429  0.5796  0.7285 -0.5968
 1319SOL    HW1 5398   1.852   7.581   9.341  0.5026  1.0767 -0.6872
 1319SOL    HW2 5399   1.894   7.578   9.486  0.5994  0.4063 -0.7273
 1320SOL     OW 5400   2.008   0.682   8.668 -0.1990 -0.0520  0.9606
 1320SOL    HW1 5401   2.026   0.595   8.631  1.7939  0.2662  1.0791
 1320SOL    HW2 5402   2.093   0.726   8.668 -1.1586  1.8924  0.9575
 1321SOL     OW 5403   7.914   1.426  11.571 -0.3313  0.0997 -0.4572
 1321SOL    HW1 5404   7.860   1.348  11.563  0.1298 -0.1678 -1.1454
 1321SOL    HW2 5405   7.881   1.486  11.504  1.0163 -0.5745 -1.7925
 1322SOL     OW 5406   6.487   7.824  11.423  0.2296 -0.1113  0.2794
 1322SOL    HW1 5407   6.489   7.901  11.366  1.3129  0.9833  1.7546
 1322SOL    HW2 5408   6.546   7.845  11.495 -1.8943 -1.0085  2.3990
 1323SOL     OW 5409   0.320   0.598  10.875  0.1538 -0.2473  0.1498
 1323SOL    HW1 5410   0.236   0.645  10.877 -0.2932 -0.7301 -2.8806
 1323SOL    HW2 5411   0.299   0.509  10.901 -0.0270 -0.0834  0.5739
 1324SOL     OW 5412   2.425   1.500  10.981  0.0655 -0.1324  0.4613
 1324SOL    HW1 5413   2.388   1.582  11.014  0.7766  1.0794 -1.5389
 1324SOL    HW2 5414   2.395   1.495  10.891  0.3906 -1.8800  0.4205
 1325SOL     OW 5415   1.922   0.434   0.256  0.1164  0.6805  0.0386
 1325SOL    HW1 5416   2.002   0.440   0.308 -0.4852 -1.2798  1.3045
 1325SOL    HW2 5417   1.865   0.502   0.291 -0.2832 -0.6195  2.0548
 1326SOL     OW 5418   2.003   0.545  10.299  0.3192 -0.0612 -0.1530
 1326SOL    HW1 5419   1.988   0.580  10.211  0.4652 -0.1322 -0.2072
 1326SOL    HW2 5420   1.982   0.452  10.291 -1.4368  0.2705  0.3360
 1327SOL     OW 5421   1.176   7.692  10.507  0.1424  0.4128 -0.0414
 1327SOL    HW1 5422   1.214   7.735  10.431  0.4572  1.2954  0.6060
 1327SOL    HW2 5423   1.086   7.671  10.480  0.1207  1.0955 -0.5141
 1328SOL     OW 5424   0.984   2.538  12.025  0.5108 -0.2390  0.1255
 1328SOL    HW1 5425   1.032   2.521  12.106  0.1017  0.9618  0.6380
 1328SOL    HW2 5426   1.006   2.464  11.968  1.9167 -0.3788  0.8152
 1329SOL     OW 5427   2.453   7.596  11.662  0.5863  0.0326  0.0842
 1329SOL    HW1 5428   2.487   7.523  11.610 -0.1794  0.7900 -1.5495
 1329SOL    HW2 5429   2.529   7.652  11.676  0.6909  0.1142 -0.7572
 1330SOL     OW 5430   3.572   0.314   0.386  0.1414  0.0417  0.1407
 1330SOL    HW1 5431   3.595   0.221   0.381  0.4732  0.1854 -1.6648
 1330SOL    HW2 5432   3.589   0.338   0.477  3.2552 -0.8707 -0.0939
 1331SOL     OW 5433   0.191   1.691  11.800 -0.3692 -0.0864 -0.3665
 1331SOL    HW1 5434   0.105   1.681  11.760  0.1576  0.6160 -1.7469
 1331SOL    HW2 5435   0.179   1.756  11.869 -0.7702  0.6777 -1.1473
 1332SOL     OW 5436   1.844   2.757  12.302  0.0811  0.2103  0.3457
 1332SOL    HW1 5437   1.754   2.775  12.328 -0.8536  0.3819 -2.6791
 1332SOL    HW2 5438   1.837   2.699  12.227  2.4704  0.7545 -0.3901
 1333SOL     OW 5439   2.046   1.505  11.855 -0.0451  0.0648  0.3649
 1333SOL    HW1 5440   2.072   1.451  11.930 -0.2171 -1.0207 -0.3409
 1333SOL    HW2 5441   2.126   1.516  11.804 -0.1021  0.1456  0.2932
 1334SOL     OW 5442   1.780   1.898  11.770  0.3654  0.2074 -0.0634
 1334SOL    HW1 5443   1.757   1.808  11.793  0.4767  0.0635 -0.5077
 1334SOL    HW2 5444   1.764   1.903  11.676 -0.2422  0.8318  0.0644
 1335SOL     OW 5445   0.550   7.901  11.119 -0.7301  0.2642 -0.7430
 1335SOL    HW1 5446   0.633   7.873  11.157 -1.0286 -0.2133 -0.4364
 1335SOL    HW2 5447   0.524   7.976  11.173 -0.9709 -0.1852 -0.2187
 1336SOL     OW 5448   2.931   1.257  11.372 -0.3368 -0.4645 -0.1411
 1336SOL    HW1 5449   3.021   1.254  11.403  0.3201  0.0213 -1.8698
 1336SOL    HW2 5450   2.914   1.168  11.339  0.2161 -0.0758 -1.5670
 1337SOL     OW 5451   6.107   0.063   9.977 -0.0525  0.5600 -0.4034
 1337SOL    HW1 5452   6.015   0.051   9.954 -0.6665  2.2745  0.9036
 1337SOL    HW2 5453   6.110   0.151  10.015  1.4999 -0.6040  2.4847
 1338SOL     OW 5454   4.019   7.957   0.674 -0.5201 -0.3611 -0.2539
 1338SOL    HW1 5455   4.110   7.933   0.694 -0.5230 -1.0297 -0.9602
 1338SOL    HW2 5456   4.026   8.033   0.616 -0.4583  0.4207  0.7670
 1339SOL     OW 5457   1.350   0.587  11.769 -0.1023  0.2068  0.5104
 1339SOL    HW1 5458   1.280   0.589  11.834  0.2490  2.7811  0.9106
 1339SOL    HW2 5459   1.305   0.581  11.685 -0.6525 -0.7380  0.8486
 1340SOL     OW 5460   7.201   7.604   1.002 -0.0442 -0.0047 -0.3134
 1340SOL    HW1 5461   7.134   7.603   1.071  1.9011  0.1230  1.7046
 1340SOL    HW2 5462   7.188   7.522   0.954 -0.3747 -0.9666  1.3373
 1341SOL     OW 5463   1.097   0.470   0.477 -0.5579  0.0799 -0.5062
 1341SOL    HW1 5464   1.010   0.506   0.463  0.2649  2.2392 -0.4126
 1341SOL    HW2 5465   1.090   0.422   0.560 -1.2180  1.9429  0.5900
 1342SOL     OW 5466   0.281   0.496   0.119  0.1046  0.1324 -0.2784
 1342SOL    HW1 5467   0.363   0.546   0.128 -1.0253  1.8606  1.2266
 1342SOL    HW2 5468   0.305   0.407   0.146  1.2397  0.8973  1.4480
 1343SOL     OW 5469   1.093   1.514   0.394  0.2709  0.0249 -0.3338
 1343SOL    HW1 5470   1.189   1.508   0.395  0.3613  0.7503 -1.6964
 1343SOL    HW2 5471   1.065   1.452   0.461  1.6452 -1.8419 -1.3596
 1344SOL     OW 5472   1.137   0.580  11.600 -0.5230 -0.6374  0.5951
 1344SOL    HW1 5473   1.107   0.660  11.557  0.6092 -0.5867 -0.1425
 1344SOL    HW2 5474   1.183   0.531  11.531 -1.9431 -2.3637  0.7900
 1345SOL     OW 5475   2.240   7.721  11.920  0.0303 -0.1484  0.4960
 1345SOL    HW1 5476   2.332   7.746  11.913 -0.0888  0.4616  0.9728
 1345SOL    HW2 5477   2.221   7.724  12.013 -0.4166 -0.4909  0.4216
 1346SOL     OW 5478   2.673   1.897  11.775  0.2880  0.0550  0.1462
 1346SOL    HW1 5479   2.716   1.917  11.693  1.7610 -1.4618  0.4961
 1346SOL    HW2 5480   2.707   1.961  11.837  1.5635 -0.7189  0.2651
 1347SOL     OW 5481   2.034   2.155  10.944  0.2834 -0.2569 -0.3794
 1347SOL    HW1 5482   1.977   2.231  10.957  0.3674  0.1102 -1.9680
 1347SOL    HW2 5483   1.981   2.092  10.895  0.3650 -1.0536  0.5254
 1348SOL     OW 5484   2.480   0.452  11.802  0.0049 -0.2904  0.0761
 1348SOL    HW1 5485   2.467   0.379  11.743  1.8355  0.4996 -1.4189
 1348SOL    HW2 5486   2.560   0.495  11.771 -0.3891  1.7054  1.5464
 1349SOL     OW 5487   3.611   1.651   0.290  0.3078 -0.5370  0.2597
 1349SOL    HW1 5488   3.672   1.614   0.353  1.2323  0.7732  0.1602
 1349SOL    HW2 5489   3.546   1.697   0.343  1.0069  0.4486  0.2684
 1350SOL     OW 5490   5.889   7.900  11.097 -0.2031 -0.0945  0.0505
 1350SOL    HW1 5491   5.870   7.972  11.156 -2.3718  0.4679 -1.2104
 1350SOL    HW2 5492   5.804   7.858  11.083  0.5550 -1.2491 -1.3093
 1351SOL     OW 5493   1.290   0.372  12.222 -0.1430  0.2622 -0.3829
 1351SOL    HW1 5494   1.255   0.442  12.166 -1.4765 -2.1911 -2.8542
 1351SOL    HW2 5495   1.368   0.341  12.175 -0.2682 -0.6971  0.0224
 1352SOL     OW 5496   7.679   1.835  10.487  0.3709  0.0759 -0.5980
 1352SOL    HW1 5497   7.728   1.852  10.567 -0.5558  0.3674 -0.0742
 1352SOL    HW2 5498   7.683   1.918  10.439  0.2691  0.1506 -0.4808
 1353SOL     OW 5499   7.484   0.362   0.261 -0.1786  0.2569 -0.3003
 1353SOL    HW1 5500   7.578   0.366   0.242  0.0821  0.0878  0.8882
 1353SOL    HW2 5501   7.479   0.358   0.356 -1.4629  2.3676 -0.2039
 1354SOL     OW 5502   1.797   7.631  10.760 -0.4593  0.0989  0.3415
 1354SOL    HW1 5503   1.829   7.554  10.712  2.3477  1.2079  0.2973
 1354SOL    HW2 5504   1.782   7.599  10.849 -2.1810 -1.1065 -0.3076
 1355SOL     OW 5505   1.775   1.244  12.271 -0.2539  0.1522  0.8704
 1355SOL    HW1 5506   1.703   1.227  12.332 -0.7740  0.2556  0.2900
 1355SOL    HW2 5507   1.735   1.292  12.199  0.4359  0.3815  0.6296
 1356SOL     OW 5508   2.021   0.555   0.013  0.0422 -0.6113 -0.1899
 1356SOL    HW1 5509   1.982   0.523  -0.068  2.0050 -1.6751 -0.7735
 1356SOL    HW2 5510   2.011   0.482   0.075 -0.8501 -0.0512  0.3514
 1357SOL     OW 5511   3.296   0.919  11.867  0.0436  0.0860  0.2336
 1357SOL    HW1 5512   3.317   0.826  11.879  1.4981  0.5273  1.4593
 1357SOL    HW2 5513   3.204   0.926  11.893  0.2308 -0.8380  1.2466
 1358SOL     OW 5514   1.571   2.782  12.341 -0.1717 -0.0280  0.3353
 1358SOL    HW1 5515   1.533   2.807  12.425 -0.3107  0.5302  0.1073
 1358SOL    HW2 5516   1.578   2.686  12.346 -1.5435 -0.1467  0.4181
 1359SOL     OW 5517   2.083   1.347  12.080  0.1069  0.0164  0.4047
 1359SOL    HW1 5518   2.124   1.385  12.158  1.7645 -0.0548 -0.3864
 1359SOL    HW2 5519   2.089   1.253  12.094 -0.9614 -0.0007  0.8453
 1360SOL     OW 5520   1.294   1.598  11.210 -0.0612  0.4482  0.2728
 1360SOL    HW1 5521   1.308   1.612  11.117  0.7022  1.6082  0.5371
 1360SOL    HW2 5522   1.379   1.565  11.242 -0.0172  0.9680  0.7090
 1361SOL     OW 5523   1.463   1.355   1.044 -0.1050  0.0120 -0.2638
 1361SOL    HW1 5524   1.460   1.440   1.087 -0.9253 -0.7624  1.2988
 1361SOL    HW2 5525   1.555   1.327   1.054  0.0474  0.4861 -0.3155
 1362SOL     OW 5526   2.138   2.099  10.385 -0.1448  0.6168 -0.1436
 1362SOL    HW1 5527   2.202   2.154  10.340  2.5347 -1.7353  0.4562
 1362SOL    HW2 5528   2.118   2.029  10.322  2.2033 -1.6543  1.3891
 1363SOL     OW 5529   2.566   7.394  11.535  0.2228 -0.4307  0.4298
 1363SOL    HW1 5530   2.496   7.343  11.493  1.4637 -0.4296 -1.7881
 1363SOL    HW2 5531   2.636   7.330  11.550  0.4278 -0.0773  0.9784
 1364SOL     OW 5532   6.830   0.843   0.598 -0.2384  0.3169 -0.2438
 1364SOL    HW1 5533   6.755   0.873   0.547  0.0302 -0.1844 -0.9424
 1364SOL    HW2 5534   6.808   0.753   0.622  0.3531 -0.0047 -0.8802
 1365SOL     OW 5535   0.650   1.266  10.184 -0.0565 -0.5075 -0.3011
 1365SOL    HW1 5536   0.682   1.222  10.263 -0.8657  0.3920  0.5573
 1365SOL    HW2 5537   0.660   1.360  10.204 -1.3631 -0.2465 -0.7780
 1366SOL     OW 5538   1.295   0.819   0.184 -0.0423 -0.1310 -0.1185
 1366SOL    HW1 5539   1.346   0.897   0.164 -2.0790  1.1627 -0.6553
 1366SOL    HW2 5540   1.310   0.805   0.278  2.3138 -0.6615 -0.5159
 1367SOL     OW 5541   1.063   1.781   0.086  0.2788  0.0213 -0.3056
 1367SOL    HW1 5542   0.986   1.838   0.081  0.7567  0.9228  1.5731
 1367SOL    HW2 5543   1.108   1.792   0.003  0.3627  2.4482  0.0130
 1368SOL     OW 5544   0.786   2.325  11.736  0.5584 -0.3200  0.3228
 1368SOL    HW1 5545   0.841   2.336  11.658 -0.4163 -0.4162 -0.3868
 1368SOL    HW2 5546   0.702   2.293  11.703 -0.5405  1.5035  1.2111
 1369SOL     OW 5547   7.536   7.720   9.873 -0.4981 -0.1577 -0.1354
 1369SOL    HW1 5548   7.628   7.694   9.882 -0.7959 -0.8152  1.3299
 1369SOL    HW2 5549   7.518   7.714   9.780 -0.0864 -3.7695 -0.1254
 1370SOL     OW 5550   1.572   7.177  11.364  0.4749  0.0579  0.6492
 1370SOL    HW1 5551   1.571   7.087  11.395  0.9011 -0.4193 -0.6524
 1370SOL    HW2 5552   1.664   7.196  11.347  0.2842  0.3584 -0.1096
 1371SOL     OW 5553   0.974   7.006  12.099 -0.0821 -0.2481  0.4481
 1371SOL    HW1 5554   0.935   6.938  12.154  2.1718  1.0450  3.9658
 1371SOL    HW2 5555   0.930   7.087  12.127  0.7703  0.4011 -0.0556
 1372SOL     OW 5556   0.437   6.690  11.749 -0.3418 -0.0252  0.3711
 1372SOL    HW1 5557   0.385   6.733  11.682 -0.5902 -1.2877 -0.2769
 1372SOL    HW2 5558   0.527   6.708  11.725 -0.4474  0.7666  0.5474
 1373SOL     OW 5559   3.646   0.228  11.533  0.0057  0.4840  0.7948
 1373SOL    HW1 5560   3.688   0.283  11.467 -1.8085  0.8823 -0.0934
 1373SOL    HW2 5561   3.619   0.289  11.602  0.2053  0.3387  1.0028
 1374SOL     OW 5562   3.329   7.769  11.069  0.1991 -0.1183  0.0092
 1374SOL    HW1 5563   3.357   7.801  11.154  1.3390  0.7347 -0.6555
 1374SOL    HW2 5564   3.355   7.837  11.007 -0.2554 -0.8860 -1.0750
 1375SOL     OW 5565   3.158   1.274   0.677 -0.2482  0.2321  0.3221
 1375SOL    HW1 5566   3.251   1.297   0.669 -0.5010  1.6440  1.1017
 1375SOL    HW2 5567   3.158   1.198   0.734  0.5027 -0.6061 -0.7518
 1376SOL     OW 5568   0.739   1.841   1.474  0.1447 -0.4056  0.5118
 1376SOL    HW1 5569   0.782   1.821   1.557  0.6130 -2.1318 -0.1028
 1376SOL    HW2 5570   0.645   1.838   1.494  0.2250  1.9524  1.5392
 1377SOL     OW 5571   7.870   0.888  11.725  0.3439 -0.7023  0.2225
 1377SOL    HW1 5572   7.865   0.835  11.805 -1.6284 -0.7799  0.1071
 1377SOL    HW2 5573   7.887   0.977  11.757  0.7659 -0.9279  0.6384
 1378SOL     OW 5574   1.390   0.713  12.112 -0.4019 -0.4198 -0.0108
 1378SOL    HW1 5575   1.347   0.775  12.172 -0.8738 -0.9675  0.2239
 1378SOL    HW2 5576   1.319   0.676  12.061 -0.1091 -0.7095 -0.2088
 1379SOL     OW 5577   2.145   6.601   9.041 -0.6758 -0.3131 -0.3751
 1379SOL    HW1 5578   2.204   6.587   8.966 -1.3779  0.4311 -1.0816
 1379SOL    HW2 5579   2.139   6.696   9.049 -0.1036 -0.3757  1.0480
 1380SOL     OW 5580   0.413   6.748  10.124 -0.8467  0.2428 -0.3568
 1380SOL    HW1 5581   0.507   6.762  10.121 -0.6665 -0.3666  1.3289
 1380SOL    HW2 5582   0.400   6.664  10.079 -0.2288 -0.9513  1.5522
 1381SOL     OW 5583   4.074   1.698  10.500 -0.1520  0.3123 -0.1802
 1381SOL    HW1 5584   3.989   1.700  10.455 -1.0710  0.1062  1.4596
 1381SOL    HW2 5585   4.084   1.607  10.528  0.0462  0.5624  0.6038
 1382SOL     OW 5586   2.408   6.657   1.284 -0.4306 -0.6273  0.1583
 1382SOL    HW1 5587   2.318   6.683   1.262  0.0043  1.1086  0.2563
 1382SOL    HW2 5588   2.447   6.737   1.319  1.0883 -1.4287  0.3517
 1383SOL     OW 5589   2.467   2.009   1.796  0.2142  0.2757 -0.4668
 1383SOL    HW1 5590   2.556   1.975   1.801 -0.7238 -2.6669 -1.4456
 1383SOL    HW2 5591   2.465   2.058   1.714  1.2262  1.4869  0.2021
 1384SOL     OW 5592   1.679   0.885  12.068  0.7488  0.1887 -0.4106
 1384SOL    HW1 5593   1.613   0.954  12.065 -0.4246 -0.8689  0.3116
 1384SOL    HW2 5594   1.722   0.889  11.983  0.4566  1.5501 -0.5197
 1385SOL     OW 5595   1.446   0.175   9.888 -0.0466 -0.0169  0.0691
 1385SOL    HW1 5596   1.368   0.230   9.881  0.8094  1.0111 -2.3387
 1385SOL    HW2 5597   1.518   0.237   9.903  0.5221 -0.8293  0.8261
 1386SOL     OW 5598   0.922   0.608  11.115  0.1520 -0.4108  0.5561
 1386SOL    HW1 5599   1.016   0.601  11.100  0.5834  0.3431  2.6286
 1386SOL    HW2 5600   0.883   0.571  11.036  2.1676 -2.3896  0.3930
 1387SOL     OW 5601   2.665   2.985   0.546  0.7268  0.3771  0.1696
 1387SOL    HW1 5602   2.692   2.959   0.458  0.6472  0.2257  0.1887
 1387SOL    HW2 5603   2.724   2.936   0.604 -0.9266 -1.6027  0.2725
 1388SOL     OW 5604   4.554   0.675   1.805 -0.1007 -0.7771  0.3039
 1388SOL    HW1 5605   4.639   0.688   1.762  0.2687 -0.0074  1.2174
 1388SOL    HW2 5606   4.494   0.654   1.734  0.6287 -0.2032 -0.5071
 1389SOL     OW 5607   3.236   0.097  10.000  0.5352  0.2601  0.2906
 1389SOL    HW1 5608   3.329   0.074   9.988  0.4941 -0.1953  0.8142
 1389SOL    HW2 5609   3.190   0.014   9.990  0.0859  0.6372 -0.9008
 1390SOL     OW 5610   1.024   0.406  12.316 -0.2331  0.0798 -0.2004
 1390SOL    HW1 5611   1.024   0.314  12.343 -0.0074  0.2206  0.2876
 1390SOL    HW2 5612   1.102   0.414  12.260 -1.3145 -0.4777 -1.8530
 1391SOL     OW 5613   2.423   0.109  11.848 -0.2324 -0.5492  0.3036
 1391SOL    HW1 5614   2.501   0.161  11.860 -0.7910  0.1136  1.1601
 1391SOL    HW2 5615   2.381   0.107  11.934 -0.6950 -1.6555  0.0813
 1392SOL     OW 5616   0.870   7.910   0.691  0.0981 -0.7526  0.5240
 1392SOL    HW1 5617   0.877   7.833   0.747 -0.0094 -0.5180  0.8672
 1392SOL    HW2 5618   0.776   7.929   0.688 -0.1863 -2.1027 -1.5979
 1393SOL     OW 5619   2.583   1.343  11.130 -0.4080 -0.6148 -0.4799
 1393SOL    HW1 5620   2.536   1.402  11.071 -1.5597 -1.5068 -0.5102
 1393SOL    HW2 5621   2.545   1.257  11.112 -0.3565 -1.0077  1.1322
 1394SOL     OW 5622   2.006   0.034  12.106 -0.8047 -1.0994  0.2134
 1394SOL    HW1 5623   2.040   0.123  12.113 -0.9511 -0.8771 -1.4374
 1394SOL    HW2 5624   2.035   0.004  12.020 -1.7640 -2.2114  0.2484
 1395SOL     OW 5625   2.634   0.375   9.807 -0.2317  0.0967 -0.0338
 1395SOL    HW1 5626   2.595   0.372   9.894  2.3122  1.8211  1.2901
 1395SOL    HW2 5627   2.629   0.467   9.781  0.5757 -0.0988 -0.9376
 1396SOL     OW 5628   2.517   0.439  10.880  0.1754 -0.0248  0.5194
 1396SOL    HW1 5629   2.430   0.401  10.893  0.6984 -2.4205 -1.9985
 1396SOL    HW2 5630   2.572   0.365  10.854  2.0977  1.9503 -1.4779
 1397SOL     OW 5631   1.622   0.584  12.199  0.4078 -0.0199 -0.2866
 1397SOL    HW1 5632   1.592   0.575  12.108 -0.4636 -1.6846  0.1212
 1397SOL    HW2 5633   1.566   0.651  12.237 -0.3611 -0.4961 -0.5503
 1398SOL     OW 5634   1.763   1.005  11.213 -0.8722  0.0019 -0.2116
 1398SOL    HW1 5635   1.773   1.070  11.283 -0.9906  2.0587 -2.0084
 1398SOL    HW2 5636   1.852   0.976  11.193 -0.8985 -1.3961  1.3984
 1399SOL     OW 5637   3.068   1.412   0.452  0.1671 -0.0833  0.2750
 1399SOL    HW1 5638   2.985   1.406   0.403  0.2540  0.9090 -0.0335
 1399SOL    HW2 5639   3.061   1.346   0.520 -0.4822 -0.6590 -0.3351
 1400SOL     OW 5640   0.652   0.742   1.488  0.1315  0.0266 -0.1085
 1400SOL    HW1 5641   0.638   0.659   1.534 -1.6997  0.9827  1.1903
 1400SOL    HW2 5642   0.702   0.795   1.551  0.3578  0.2734 -0.4949
 1401SOL     OW 5643   1.958   1.058  12.143  0.4576 -0.3643 -0.0370
 1401SOL    HW1 5644   1.939   1.134  12.197  0.4624  0.2882 -0.9255
 1401SOL    HW2 5645   1.914   0.985  12.186  0.5995  0.1066  0.9193
 1402SOL     OW 5646   2.717   1.020  11.021  0.0930  0.3370  0.3801
 1402SOL    HW1 5647   2.675   0.991  10.940 -0.7825  2.2298  0.1116
 1402SOL    HW2 5648   2.811   1.005  11.006 -0.2081 -0.9893 -0.2644
 1403SOL     OW 5649   2.626   0.671  10.956 -0.4528 -0.5562 -0.2767
 1403SOL    HW1 5650   2.607   0.579  10.938  0.0867 -1.1863  2.1152
 1403SOL    HW2 5651   2.707   0.689  10.908 -1.4813 -0.7567 -2.1991
 1404SOL     OW 5652   1.165   0.044   0.274 -0.2005  0.9384  0.0274
 1404SOL    HW1 5653   1.247   0.002   0.298 -1.5054 -1.3162  0.8136
 1404SOL    HW2 5654   1.097  -0.014   0.307 -2.1515  2.7654 -0.5093
 1405SOL     OW 5655   7.643   6.503   1.042 -0.4888  0.1321 -0.1053
 1405SOL    HW1 5656   7.581   6.449   0.994 -0.6319  0.3882 -0.2078
 1405SOL    HW2 5657   7.636   6.590   1.002  0.5070 -0.0182 -0.6537
 1406SOL     OW 5658   0.679   0.355  11.892 -0.1810  0.3212 -0.4248
 1406SOL    HW1 5659   0.648   0.265  11.904 -1.3367  0.9791  2.4472
 1406SOL    HW2 5660   0.735   0.371  11.968  1.2038  1.5983 -1.6517
 1407SOL     OW 5661   6.319   7.031  11.347  0.1700  0.0760 -0.4212
 1407SOL    HW1 5662   6.349   6.954  11.300 -1.0258 -0.7419  0.1181
 1407SOL    HW2 5663   6.225   7.017  11.360 -0.0293  1.5039 -0.0914
 1408SOL     OW 5664   3.676   0.051   0.382  0.4751  0.0055 -0.5277
 1408SOL    HW1 5665   3.668   0.020   0.292 -3.0176 -1.5258  0.1200
 1408SOL    HW2 5666   3.672  -0.029   0.435  0.0314  1.0114  1.0158
 1409SOL     OW 5667   2.838   7.841   0.474 -0.3376 -0.0547  0.1606
 1409SOL    HW1 5668   2.796   7.771   0.524 -0.4683  0.5186  0.8805
 1409SOL    HW2 5669   2.776   7.860   0.403 -1.0616  0.4073  0.8961
 1410SOL     OW 5670   1.456   7.547  10.744 -0.2400  0.3162  0.2777
 1410SOL    HW1 5671   1.539   7.517  10.707 -0.5795  0.7583 -0.8985
 1410SOL    HW2 5672   1.473   7.557  10.838  0.2407 -2.3557  0.5661
 1411SOL     OW 5673   1.506   1.874  12.087  0.3063 -0.6432 -0.2019
 1411SOL    HW1 5674   1.460   1.957  12.100  1.3513  0.0171 -0.5360
 1411SOL    HW2 5675   1.466   1.836  12.008  1.3556  0.6929 -1.4349
 1412SOL     OW 5676   7.369   1.217   1.628 -0.2444 -0.0672 -0.2028
 1412SOL    HW1 5677   7.430   1.276   1.672 -2.3182  0.7273  1.8114
 1412SOL    HW2 5678   7.410   1.131   1.633  0.9996  0.5415  0.4657
 1413SOL     OW 5679   1.072   0.964   0.118  0.0864  0.1611 -0.3016
 1413SOL    HW1 5680   1.012   0.902   0.078 -1.8558  0.8291  1.3764
 1413SOL    HW2 5681   1.149   0.912   0.143 -0.2026 -0.9246 -1.5617
 1414SOL     OW 5682   1.406   0.456  12.466  0.1342 -0.6674 -0.3525
 1414SOL    HW1 5683   1.371   0.417  12.386  0.0689 -0.4848 -0.4128
 1414SOL    HW2 5684   1.487   0.408  12.483 -0.3992 -1.4329  0.0659
 1415SOL     OW 5685   1.272   1.948  10.778 -0.2627  0.1205 -0.1788
 1415SOL    HW1 5686   1.335   1.936  10.849  0.7198 -0.6165 -1.1428
 1415SOL    HW2 5687   1.287   1.874  10.720  0.5999  1.8702 -2.3602
 1416SOL     OW 5688   6.829   0.842  11.297  0.0294  0.2644 -0.0324
 1416SOL    HW1 5689   6.783   0.884  11.370 -2.0312 -1.3646 -0.2932
 1416SOL    HW2 5690   6.892   0.783  11.338  0.7725  1.2963  0.3569
 1417SOL     OW 5691   0.232   1.231  11.619  0.0533 -0.0702 -0.1075
 1417SOL    HW1 5692   0.167   1.163  11.602 -0.2803  0.4850 -1.0712
 1417SOL    HW2 5693   0.275   1.245  11.535  0.1415  0.9061  0.0935
 1418SOL     OW 5694   1.018   2.017  11.551 -0.0888  0.2221 -0.0943
 1418SOL    HW1 5695   1.070   1.949  11.595 -0.3808 -0.0715 -0.1974
 1418SOL    HW2 5696   0.931   2.009  11.591  0.3007  1.6828  1.1489
 1419SOL     OW 5697   1.812   7.745   0.025 -0.1629  0.0185 -0.7983
 1419SOL    HW1 5698   1.848   7.794  -0.048  1.0832  1.2806  0.5920
 1419SOL    HW2 5699   1.729   7.789   0.045  0.8358  1.5065  0.2913
 1420SOL     OW 5700   1.769   1.433   1.230  0.2725 -0.2569 -0.4255
 1420SOL    HW1 5701   1.769   1.380   1.150  1.0702 -1.1972  0.1621
 1420SOL    HW2 5702   1.859   1.426   1.263  0.1978  0.8837  0.0595
 1421SOL     OW 5703   3.264   0.271  11.652  0.1205 -0.6260  0.1207
 1421SOL    HW1 5704   3.267   0.361  11.621 -0.6546 -1.3050 -2.0808
 1421SOL    HW2 5705   3.295   0.276  11.743 -0.2702  1.8752  0.1749
 1422SOL     OW 5706   2.211   7.002   0.487  0.0075 -0.0983 -0.1852
 1422SOL    HW1 5707   2.195   6.922   0.536  0.4503 -0.1723 -0.1520
 1422SOL    HW2 5708   2.125   7.040   0.473 -0.1574 -0.2893  0.2952
 1423SOL     OW 5709   0.651   5.896   0.875  0.3838 -0.3497 -0.2499
 1423SOL    HW1 5710   0.567   5.903   0.919  0.3563  0.3066 -0.3927
 1423SOL    HW2 5711   0.634   5.839   0.800 -0.0210  0.0444 -0.4668
 1424SOL     OW 5712   1.781   1.136  10.943 -0.4813 -0.9387  0.0498
 1424SOL    HW1 5713   1.737   1.082  11.009 -0.7745 -1.0275 -0.2205
 1424SOL    HW2 5714   1.858   1.172  10.989 -0.4330 -1.3683  0.3053
 1425SOL     OW 5715   1.357   0.397  11.484 -0.2350  0.7450 -0.4494
 1425SOL    HW1 5716   1.452   0.395  11.471 -0.2914 -0.5371 -0.8290
 1425SOL    HW2 5717   1.321   0.419  11.398 -0.2835  0.9742 -0.3688
 1426SOL     OW 5718   2.040   1.044   1.687 -0.4043  0.1009  0.0714
 1426SOL    HW1 5719   1.988   1.084   1.758 -2.8286 -1.5381 -0.6524
 1426SOL    HW2 5720   2.088   1.117   1.648 -1.6191  1.6102  1.2687
 1427SOL     OW 5721   3.271   7.034   1.021  0.5178 -0.5823 -0.0247
 1427SOL    HW1 5722   3.284   7.089   0.944  0.8557 -0.0007  0.4446
 1427SOL    HW2 5723   3.271   7.095   1.095 -0.8150 -1.0131  0.3557
 1428SOL     OW 5724   3.287   2.592   2.273 -0.1316  0.3715  0.4418
 1428SOL    HW1 5725   3.346   2.667   2.261 -0.8115  0.8701  0.1883
 1428SOL    HW2 5726   3.220   2.603   2.206  0.2392 -0.9514 -0.1877
 1429SOL     OW 5727   0.568   7.917   0.706  0.9460  0.0134 -0.5264
 1429SOL    HW1 5728   0.493   7.858   0.711 -0.8820  2.1471 -1.2410
 1429SOL    HW2 5729   0.537   7.999   0.745  2.1555  1.6393 -2.7496
 1430SOL     OW 5730   0.748   0.855   0.290 -0.0342  0.4980  0.8264
 1430SOL    HW1 5731   0.810   0.896   0.350 -0.3292  0.6672  1.0193
 1430SOL    HW2 5732   0.704   0.788   0.343 -0.9115  1.2297  1.0538
 1431SOL     OW 5733   1.966   7.741  11.003 -0.9012  0.0466  0.5764
 1431SOL    HW1 5734   2.022   7.672  10.965 -0.5622  1.3134 -1.4055
 1431SOL    HW2 5735   1.897   7.694  11.048  0.9236 -1.5857  1.8262
 1432SOL     OW 5736   2.009   1.472  10.805  0.4505  0.2871  0.8442
 1432SOL    HW1 5737   1.962   1.430  10.733  1.8256 -0.8648  0.5541
 1432SOL    HW2 5738   2.024   1.561  10.775 -1.0846  0.5416  0.7555
 1433SOL     OW 5739   2.415   0.935  10.493  0.5068 -0.0285  0.3784
 1433SOL    HW1 5740   2.495   0.884  10.502  0.5851 -0.0886 -0.6373
 1433SOL    HW2 5741   2.420   0.999  10.564  0.1336 -1.7480  2.0452
 1434SOL     OW 5742   1.428   7.970  12.344  0.3810 -0.3875 -0.6248
 1434SOL    HW1 5743   1.380   7.909  12.289  0.6468 -0.2098 -1.0620
 1434SOL    HW2 5744   1.481   8.021  12.283 -1.2305  1.5681 -0.5029
 1435SOL     OW 5745   1.773   7.915   0.333 -0.2150 -0.5267  0.2155
 1435SOL    HW1 5746   1.782   8.007   0.311 -1.0955 -0.8469 -1.6897
 1435SOL    HW2 5747   1.729   7.876   0.257 -2.4217 -1.9874  2.0954
 1436SOL     OW 5748   2.692   6.836  10.004 -0.2330 -0.0063 -0.0181
 1436SOL    HW1 5749   2.735   6.823  10.089  1.2078 -1.3575 -0.9170
 1436SOL    HW2 5750   2.764   6.837   9.940 -1.4328 -1.3147 -1.4644
 1437SOL     OW 5751   2.176   0.521  12.179  0.1184  0.2486  0.3836
 1437SOL    HW1 5752   2.208   0.577  12.250  0.0630 -0.3461  0.8906
 1437SOL    HW2 5753   2.249   0.463  12.160 -0.1236 -0.0907  0.4782
 1438SOL     OW 5754   1.626   1.766   1.256 -0.0597  0.1218  0.6023
 1438SOL    HW1 5755   1.644   1.851   1.215  0.6030 -0.3958 -0.2099
 1438SOL    HW2 5756   1.711   1.721   1.256 -0.3177 -0.3829  1.4104
 1439SOL     OW 5757   1.220   1.252   0.257 -0.4603 -0.6232 -0.1514
 1439SOL    HW1 5758   1.272   1.270   0.335  1.1344 -1.5232 -0.9602
 1439SOL    HW2 5759   1.133   1.288   0.277  0.1198 -0.1615  1.7137
 1440SOL     OW 5760   2.913   4.027  10.560 -0.2154  0.1514 -0.2950
 1440SOL    HW1 5761   2.967   3.949  10.565  1.6246  1.4065  0.6366
 1440SOL    HW2 5762   2.905   4.045  10.466 -0.7246 -1.1487 -0.5184
 1441SOL     OW 5763   0.235   1.975  10.416  0.5928  0.7901 -0.5369
 1441SOL    HW1 5764   0.233   2.064  10.452  0.8159  1.3549 -1.8376
 1441SOL    HW2 5765   0.143   1.951  10.404  0.5202  0.6057  0.3654
 1442SOL     OW 5766   1.683   7.878  11.266  0.1218 -0.0041  0.0442
 1442SOL    HW1 5767   1.709   7.881  11.174 -1.4855 -1.7450 -0.5159
 1442SOL    HW2 5768   1.681   7.970  11.293 -0.3806  0.6294 -1.9598
 1443SOL     OW 5769   0.899   2.759  11.197 -0.0998  0.2406 -0.5499
 1443SOL    HW1 5770   0.883   2.747  11.290 -0.6232  0.6630 -0.5820
 1443SOL    HW2 5771   0.863   2.679  11.156  2.7861 -1.3849 -0.1609
 1444SOL     OW 5772   3.796   6.920   1.452 -0.0641 -0.0186 -0.2403
 1444SOL    HW1 5773   3.872   6.863   1.462 -0.4700 -0.9575 -2.1890
 1444SOL    HW2 5774   3.829   7.008   1.474  1.9328 -0.2052 -2.1821
 1445SOL     OW 5775   0.055   7.733  12.497  0.3122  0.1939 -0.3098
 1445SOL    HW1 5776   0.057   7.829  12.498  0.6940  0.2256 -1.6228
 1445SOL    HW2 5777   0.147   7.707  12.491  0.2484 -0.2854  0.5798
 1446SOL     OW 5778   7.735   0.060   9.311  0.6524  0.1244  0.2905
 1446SOL    HW1 5779   7.692  -0.024   9.297  1.5917 -0.6553  1.8416
 1446SOL    HW2 5780   7.824   0.038   9.337  1.5776  1.6665 -1.3161
 1447SOL     OW 5781   7.009   0.407   8.562  0.0982 -0.4090  0.2834
 1447SOL    HW1 5782   6.979   0.492   8.529  0.0761  0.0510  1.4272
 1447SOL    HW2 5783   7.104   0.411   8.555  0.0576 -0.6210 -0.4273
 1448SOL     OW 5784   1.855   1.646   0.164 -0.3486 -0.7294 -0.4303
 1448SOL    HW1 5785   1.801   1.643   0.085 -0.4191  1.6916 -0.5600
 1448SOL    HW2 5786   1.915   1.572   0.156 -1.0230 -1.1170 -2.2440
 1449SOL     OW 5787   2.006   1.909  11.945 -0.6492 -0.4144  0.8552
 1449SOL    HW1 5788   1.912   1.892  11.951 -0.8968 -0.6614 -2.2444
 1449SOL    HW2 5789   2.037   1.851  11.875  1.6660  0.2432  1.2462
 1450SOL     OW 5790   1.795   0.715   1.209 -0.2060  0.2244 -0.0136
 1450SOL    HW1 5791   1.773   0.679   1.123 -0.6052  0.8395 -0.1718
 1450SOL    HW2 5792   1.828   0.802   1.191 -0.5718  0.4687  0.4769
 1451SOL     OW 5793   1.310   7.702  11.425  0.0838 -1.0312 -0.4148
 1451SOL    HW1 5794   1.376   7.729  11.360  0.6228 -0.4396  0.3559
 1451SOL    HW2 5795   1.248   7.775  11.426  0.4084 -0.7611  0.1703
 1452SOL     OW 5796   2.388   7.618  10.994  0.2951  0.1828  0.4454
 1452SOL    HW1 5797   2.406   7.692  11.052  1.7158  0.0871  0.1654
 1452SOL    HW2 5798   2.344   7.656  10.918 -1.2527  0.3570  1.4021
 1453SOL     OW 5799   2.077   0.478   0.479  0.1243  0.0598 -0.7716
 1453SOL    HW1 5800   2.125   0.423   0.541  1.4208  0.5475 -1.3166
 1453SOL    HW2 5801   1.999   0.506   0.527 -0.4722 -2.0658 -0.4071
 1454SOL     OW 5802   3.597   6.819  12.269  0.7156 -0.1730 -0.5091
 1454SOL    HW1 5803   3.671   6.879  12.261  0.7551  0.0362  1.0963
 1454SOL    HW2 5804   3.526   6.862  12.221  0.6831  1.3055  0.7801
 1455SOL     OW 5805   1.725   1.283   0.365  0.7424  0.2904  0.0969
 1455SOL    HW1 5806   1.744   1.317   0.277  1.2297 -0.8662 -0.2651
 1455SOL    HW2 5807   1.670   1.350   0.405 -0.1100  0.5022 -1.3588
 1456SOL     OW 5808   1.762   0.346  10.549 -0.2894  0.5362  0.5097
 1456SOL    HW1 5809   1.748   0.289  10.473  3.5172 -0.5401  0.4157
 1456SOL    HW2 5810   1.804   0.290  10.614 -0.1495  2.2994  2.0210
 1457SOL     OW 5811   2.065   0.908  10.571 -0.7217  0.8515 -0.1970
 1457SOL    HW1 5812   2.041   0.896  10.663 -1.1571 -0.5095 -0.4665
 1457SOL    HW2 5813   2.134   0.974  10.573 -0.1207  0.2162  1.1770
 1458SOL     OW 5814   2.189   2.444  11.479 -0.2207  0.7131 -0.5876
 1458SOL    HW1 5815   2.246   2.376  11.516 -1.0948 -0.9208 -2.1008
 1458SOL    HW2 5816   2.176   2.505  11.551  1.1369 -0.3662  0.6506
 1459SOL     OW 5817   2.571   0.234  12.186  0.0850  0.2872 -0.0263
 1459SOL    HW1 5818   2.487   0.280  12.195 -0.0354  0.0646 -0.0087
 1459SOL    HW2 5819   2.626   0.295  12.136 -0.1273  0.3824 -0.1476
 1460SOL     OW 5820   2.329   0.352   0.864 -0.4670 -0.2305  0.1980
 1460SOL    HW1 5821   2.412   0.321   0.827 -0.6893 -1.3393  0.6007
 1460SOL    HW2 5822   2.262   0.316   0.805 -0.6375  2.0346 -1.1104
 1461SOL     OW 5823   1.366   6.020   0.677  0.0208 -0.0225  0.2326
 1461SOL    HW1 5824   1.316   6.101   0.669 -0.9055 -0.4013  1.6572
 1461SOL    HW2 5825   1.450   6.039   0.636  0.2195  2.0287  1.4441
 1462SOL     OW 5826   0.943   7.218  11.221 -0.1577  0.0410  0.2787
 1462SOL    HW1 5827   0.974   7.236  11.133 -0.4128 -0.3502  0.1059
 1462SOL    HW2 5828   0.862   7.168  11.208 -0.1205 -0.1402  0.7331
 1463SOL     OW 5829   2.755   3.432   0.102 -0.2229 -0.0642  0.3985
 1463SOL    HW1 5830   2.818   3.392   0.162 -0.0923  1.0761  1.0464
 1463SOL    HW2 5831   2.808   3.463   0.029 -0.1260  0.2403  0.5966
 1464SOL     OW 5832   3.245   6.020  12.218  0.2978  0.4544 -0.3908
 1464SOL    HW1 5833   3.249   6.115  12.231 -0.6483  0.4645 -0.1027
 1464SOL    HW2 5834   3.314   5.985  12.274  0.2442  0.9324 -0.0221
 1465SOL     OW 5835   2.141   7.980   0.790  0.1499  0.3373 -0.0734
 1465SOL    HW1 5836   2.227   7.973   0.750  0.3060  1.5031  0.0318
 1465SOL    HW2 5837   2.147   7.929   0.871  0.0706 -1.3714 -1.0922
 1466SOL     OW 5838   0.547   2.410  12.210 -0.0496  0.2819  0.1339
 1466SOL    HW1 5839   0.599   2.474  12.162  0.2857 -0.5921 -0.6881
 1466SOL    HW2 5840   0.460   2.449  12.216 -0.7606 -0.5350 -3.2123
 1467SOL     OW 5841   2.843   7.909  11.957  0.5399  0.1831 -0.6332
 1467SOL    HW1 5842   2.840   7.988  11.902  1.4569  1.5431  1.1798
 1467SOL    HW2 5843   2.772   7.921  12.020  0.0313 -0.9565 -0.9735
 1468SOL     OW 5844   2.508   7.831  11.855  0.3056  0.2461  0.3373
 1468SOL    HW1 5845   2.583   7.823  11.796  0.9408 -0.5203  1.2241
 1468SOL    HW2 5846   2.489   7.925  11.856 -0.0838  0.2293 -1.5015
 1469SOL     OW 5847   4.399   0.433  12.470 -0.1387 -0.2526 -0.0045
 1469SOL    HW1 5848   4.433   0.343  12.472 -1.8190 -0.9871 -1.6188
 1469SOL    HW2 5849   4.414   0.462  12.381 -0.6500  0.6637  0.2016
 1470SOL     OW 5850   1.697   1.349   0.111 -0.3880 -0.0036 -0.3549
 1470SOL    HW1 5851   1.602   1.359   0.123 -0.0007  1.5586  2.0458
 1470SOL    HW2 5852   1.721   1.420   0.052 -0.6033  0.0615 -0.3664
 1471SOL     OW 5853   2.520   7.755  12.332 -0.0844  0.0305  0.1571
 1471SOL    HW1 5854   2.606   7.750  12.289 -0.6515  2.0690 -1.3970
 1471SOL    HW2 5855   2.540   7.781  12.422  0.9159  1.6716 -0.4973
 1472SOL     OW 5856   0.907   2.238   0.876  0.6739 -0.5002 -0.5753
 1472SOL    HW1 5857   0.878   2.317   0.920  1.5595 -1.0240  1.0240
 1472SOL    HW2 5858   0.840   2.172   0.898  0.8717 -0.6461 -0.4099
 1473SOL     OW 5859   1.076   2.321   0.591  0.1792 -0.1071  0.1985
 1473SOL    HW1 5860   1.095   2.336   0.684  0.3460  0.9588  0.0080
 1473SOL    HW2 5861   1.010   2.387   0.569  3.5230  3.0263 -1.5788
 1474SOL     OW 5862   2.044   1.958   0.254 -0.0788 -0.0815 -0.1784
 1474SOL    HW1 5863   2.033   1.949   0.160  1.5085 -0.2505 -0.3821
 1474SOL    HW2 5864   2.087   2.043   0.265 -0.0955 -0.1407  0.3664
 1475SOL     OW 5865   1.927   4.752   0.428  0.0050 -0.9862  0.5525
 1475SOL    HW1 5866   2.005   4.735   0.482  1.0065 -1.6728 -1.0408
 1475SOL    HW2 5867   1.853   4.733   0.486  1.0104 -0.4576  2.0653
 1476SOL     OW 5868   7.890   2.969   0.948 -0.1429 -0.4671 -0.4012
 1476SOL    HW1 5869   7.927   2.989   1.034 -0.1983 -0.4211 -0.3880
 1476SOL    HW2 5870   7.836   3.045   0.927 -0.7350 -0.8056 -0.1356
 1477SOL     OW 5871   7.798   2.189   0.970 -0.6212 -0.5388 -0.3109
 1477SOL    HW1 5872   7.806   2.260   0.906  1.0829 -0.2050  0.2182
 1477SOL    HW2 5873   7.704   2.183   0.988 -1.1199 -0.4931 -2.6396
 1478SOL     OW 5874   1.703   1.934   1.019 -0.2407 -0.2266 -0.0001
 1478SOL    HW1 5875   1.720   1.974   0.933 -1.7200  0.8847  0.1854
 1478SOL    HW2 5876   1.689   2.009   1.077 -2.0556 -0.9747  0.5903
 1479SOL     OW 5877   1.748   0.684   0.242  0.1702  0.0742  0.5539
 1479SOL    HW1 5878   1.660   0.649   0.259  0.2419  0.3100  1.4871
 1479SOL    HW2 5879   1.733   0.772   0.207  0.0052 -0.5880 -1.0873
 1480SOL     OW 5880   7.912   0.477   0.598 -0.2580 -0.2810 -0.1796
 1480SOL    HW1 5881   7.865   0.395   0.613  2.4514 -1.5330  2.3148
 1480SOL    HW2 5882   8.001   0.460   0.628  0.4620  3.5658  0.3580
 1481SOL     OW 5883   1.740   7.825   1.274  0.4017  0.5993  0.4546
 1481SOL    HW1 5884   1.655   7.781   1.278  0.3548  0.7297  0.9238
 1481SOL    HW2 5885   1.794   7.782   1.339  0.5363  0.8551  0.5165
 1482SOL     OW 5886   6.977   2.607   1.264 -0.0967  0.0722 -0.1690
 1482SOL    HW1 5887   6.974   2.524   1.312 -3.3194  0.0207 -0.2617
 1482SOL    HW2 5888   7.030   2.664   1.319 -0.5987 -1.0808  1.6034
 1483SOL     OW 5889   1.266   4.071   1.819 -0.2069 -0.3011 -0.1066
 1483SOL    HW1 5890   1.189   4.072   1.761 -1.0197 -0.4114  0.9345
 1483SOL    HW2 5891   1.229   4.063   1.907  0.8436  2.5942  0.6868
 1484SOL     OW 5892   1.952   2.122   3.538 -0.3888 -0.3468 -0.6415
 1484SOL    HW1 5893   1.950   2.032   3.505 -0.7222 -0.2991 -0.7509
 1484SOL    HW2 5894   1.871   2.161   3.507 -1.4825 -0.7558  1.5001
 1485SOL     OW 5895   7.107   1.002   2.424 -0.1040 -0.7287 -0.2325
 1485SOL    HW1 5896   7.090   0.949   2.501  0.9739 -1.5525 -0.5360
 1485SOL    HW2 5897   7.118   0.939   2.353 -0.3131 -0.0198 -0.9151
 1486SOL     OW 5898   1.037   1.351   0.608 -0.5626 -0.4731  0.5639
 1486SOL    HW1 5899   0.970   1.284   0.592  1.2912 -2.2897  0.0202
 1486SOL    HW2 5900   1.080   1.323   0.688  0.7510 -0.3941 -0.0914
 1487SOL     OW 5901   1.038   3.419   0.057 -0.0884  0.3100  0.7319
 1487SOL    HW1 5902   0.971   3.354   0.035 -0.6474  0.9028  0.6426
 1487SOL    HW2 5903   1.091   3.426  -0.022  0.4077 -0.5341  0.9713
 1488SOL     OW 5904   0.700   3.510   1.571 -0.3997 -0.1793  0.7359
 1488SOL    HW1 5905   0.769   3.563   1.612 -0.3254  0.6260 -0.3949
 1488SOL    HW2 5906   0.620   3.538   1.614 -0.3096  0.5741  0.4192
 1489SOL     OW 5907   7.142   3.918   1.235 -0.5503  0.1946  0.3251
 1489SOL    HW1 5908   7.224   3.875   1.258 -0.6033  0.0814  0.3009
 1489SOL    HW2 5909   7.168   3.989   1.177 -0.7722 -1.9806 -2.6433
 1490SOL     OW 5910   0.209   4.075   2.389  1.0570  0.1884  0.0394
 1490SOL    HW1 5911   0.296   4.049   2.358  0.9646 -1.1006  0.8078
 1490SOL    HW2 5912   0.153   3.999   2.372  0.7571 -0.1440  2.2872
 1491SOL     OW 5913   0.535   2.682   0.786  0.4317 -0.1221 -0.2474
 1491SOL    HW1 5914   0.567   2.740   0.855 -1.5133 -1.1404  1.6334
 1491SOL    HW2 5915   0.552   2.729   0.704  0.9374  2.0600  1.0498
 1492SOL     OW 5916   0.217   3.439   1.113 -0.1799 -0.4260  0.1729
 1492SOL    HW1 5917   0.142   3.425   1.055 -1.3485  0.3992  1.4156
 1492SOL    HW2 5918   0.207   3.374   1.182  0.2267 -0.2785  0.3733
 1493SOL     OW 5919   3.442   3.382   1.271 -0.2512 -0.0005  0.3732
 1493SOL    HW1 5920   3.505   3.452   1.255  0.4576 -0.8164 -0.5201
 1493SOL    HW2 5921   3.393   3.411   1.348  0.7926  0.9328  0.7132
 1494SOL     OW 5922   1.233   1.930  12.361  0.8309  0.5290  0.0867
 1494SOL    HW1 5923   1.230   1.876  12.282  0.8786  1.3694 -0.5028
 1494SOL    HW2 5924   1.169   1.999  12.344  0.8953  0.7552  0.7569
 1495SOL     OW 5925   1.892   3.176   2.480  0.7148  0.2841  0.0319
 1495SOL    HW1 5926   1.919   3.089   2.451  1.2354  0.1550  0.8678
 1495SOL    HW2 5927   1.906   3.232   2.404 -0.3903 -0.5019 -0.7654
 1496SOL     OW 5928   7.412   5.393   0.157  0.0638  0.0114 -0.5627
 1496SOL    HW1 5929   7.452   5.413   0.073 -2.5864 -2.3584 -2.5410
 1496SOL    HW2 5930   7.323   5.427   0.151 -0.0460  0.2881  1.5651
 1497SOL     OW 5931   0.921   2.563   1.384 -0.1960  0.1885 -0.0048
 1497SOL    HW1 5932   1.014   2.575   1.368 -0.2131 -0.9557 -1.1669
 1497SOL    HW2 5933   0.905   2.471   1.365 -1.4464  0.1874  0.8678
 1498SOL     OW 5934   1.371   1.068   0.106  0.2191  0.0314 -0.2834
 1498SOL    HW1 5935   1.444   1.125   0.082  1.3702 -0.8950  0.9236
 1498SOL    HW2 5936   1.315   1.124   0.161  0.9371  0.2480  0.2435
 1499SOL     OW 5937   2.065   2.861   1.434 -0.7460  0.9871 -0.3031
 1499SOL    HW1 5938   2.125   2.846   1.361  0.9072  1.8398  0.8086
 1499SOL    HW2 5939   2.122   2.885   1.507 -2.2431 -0.8810  1.5963
 1500SOL     OW 5940   1.180   3.538  11.994 -0.2952  0.3359  0.3330
 1500SOL    HW1 5941   1.197   3.632  11.998 -0.3417  0.3661 -0.0762
 1500SOL    HW2 5942   1.190   3.516  11.901  2.5923 -0.6186  0.7981
 1501SOL     OW 5943   1.051   4.025   2.085  0.3011  0.0645  0.2773
 1501SOL    HW1 5944   1.043   4.065   2.171  1.9538  0.3375  0.3412
 1501SOL    HW2 5945   1.142   4.039   2.060 -0.2628  0.4708 -1.7710
 1502SOL     OW 5946   0.899   0.904   0.498  0.0230  0.4600 -1.1273
 1502SOL    HW1 5947   0.825   0.932   0.553 -1.2909 -1.7088 -1.6643
 1502SOL    HW2 5948   0.903   0.810   0.512  1.7848  0.3437 -2.2628
 1503SOL     OW 5949   7.883   2.393  11.188  0.0276  0.4491 -0.0322
 1503SOL    HW1 5950   7.867   2.418  11.280  1.8804 -0.5206  0.6089
 1503SOL    HW2 5951   7.891   2.298  11.190  4.0191  0.5746 -0.3727
 1504SOL     OW 5952   2.623   3.214   0.242 -0.2253 -0.0852  0.3700
 1504SOL    HW1 5953   2.717   3.203   0.254 -0.1970  0.2549  0.4838
 1504SOL    HW2 5954   2.614   3.301   0.203 -0.5303  0.1380  0.9244
 1505SOL     OW 5955   2.841   4.306   1.759 -0.8533 -0.1872  0.0191
 1505SOL    HW1 5956   2.851   4.299   1.854  0.0358  0.5051 -0.0103
 1505SOL    HW2 5957   2.747   4.324   1.747 -1.1928 -1.4076  0.6765
 1506SOL     OW 5958   1.780   2.083   3.882  0.3573  0.1982  0.3990
 1506SOL    HW1 5959   1.861   2.131   3.862  0.9149  0.8580  3.6958
 1506SOL    HW2 5960   1.710   2.144   3.860  0.8390  0.5519 -0.1981
 1507SOL     OW 5961   2.854   2.826  12.114  0.0346  0.8571  0.2140
 1507SOL    HW1 5962   2.887   2.793  12.031  1.0405 -0.5332  1.1265
 1507SOL    HW2 5963   2.873   2.757  12.177 -0.5367  1.9514  1.6491
 1508SOL     OW 5964   3.878   1.740   0.110 -0.1667  0.0811 -0.0369
 1508SOL    HW1 5965   3.865   1.832   0.134 -0.0734  0.3900 -1.0973
 1508SOL    HW2 5966   3.861   1.738   0.016 -0.5358 -1.0675  0.0510
 1509SOL     OW 5967   7.748   1.622   1.348 -0.2192  0.1123  0.0436
 1509SOL    HW1 5968   7.789   1.536   1.352 -1.1089 -0.3104  0.5227
 1509SOL    HW2 5969   7.661   1.609   1.388  0.3717  1.6785  2.0255
 1510SOL     OW 5970   1.787   1.726   2.154  0.6569  0.0523  0.1060
 1510SOL    HW1 5971   1.855   1.664   2.180  0.8960  0.9465  1.7065
 1510SOL    HW2 5972   1.773   1.780   2.231 -0.6446  1.0084 -0.7642
 1511SOL     OW 5973   2.237   3.598   0.331 -0.5520  0.2515 -0.3706
 1511SOL    HW1 5974   2.167   3.618   0.268 -1.0547  0.7233  0.3157
 1511SOL    HW2 5975   2.250   3.504   0.322 -1.9464 -0.0204  0.1419
 1512SOL     OW 5976   0.048   1.125   1.005  0.1491 -0.1603  0.1325
 1512SOL    HW1 5977   0.111   1.196   1.006  2.0660 -1.7695  0.6336
 1512SOL    HW2 5978   0.093   1.053   0.961 -1.7992 -1.0220 -0.5695
 1513SOL     OW 5979   0.875   1.722   1.689 -0.4218  0.4283 -0.5218
 1513SOL    HW1 5980   0.871   1.627   1.677  1.0976  0.3588 -0.7699
 1513SOL    HW2 5981   0.960   1.737   1.730 -1.2706  1.5734  0.9026
 1514SOL     OW 5982   0.937   0.184   0.234 -0.0344  0.3038 -0.0910
 1514SOL    HW1 5983   0.902   0.165   0.321  1.0073  1.5788  0.6411
 1514SOL    HW2 5984   1.008   0.120   0.223 -0.7783 -0.4875 -0.4351
 1515SOL     OW 5985   0.810   1.894   2.338 -0.0040  0.7283 -0.4040
 1515SOL    HW1 5986   0.850   1.881   2.252  1.7948 -3.0568  0.8090
 1515SOL    HW2 5987   0.739   1.831   2.342  0.6609  0.0214  1.2458
 1516SOL     OW 5988   2.680   4.372   0.684  0.5438 -0.1202 -0.1921
 1516SOL    HW1 5989   2.760   4.387   0.634  0.2604 -0.7650 -0.8578
 1516SOL    HW2 5990   2.618   4.338   0.620  0.0147 -0.4670  0.4953
 1517SOL     OW 5991   1.323   1.591   1.581  0.1866  0.6348  0.4677
 1517SOL    HW1 5992   1.355   1.634   1.501  0.8743 -0.3831  0.1735
 1517SOL    HW2 5993   1.379   1.514   1.591 -1.3631 -0.5130  0.6629
 1518SOL     OW 5994   7.447   3.949   0.391  0.1029  0.0268 -0.1051
 1518SOL    HW1 5995   7.384   3.996   0.336 -1.9306 -0.5180  1.6409
 1518SOL    HW2 5996   7.527   3.945   0.338 -0.3298  3.4016 -1.2441
 1519SOL     OW 5997   2.177   1.432   0.433  0.1047  0.6728  0.1703
 1519SOL    HW1 5998   2.170   1.519   0.394  3.7553  0.6325 -0.9962
 1519SOL    HW2 5999   2.164   1.372   0.360 -0.2781  0.3074  0.5345
 1520SOL     OW 6000   1.196   3.986   0.984 -0.0418  0.4584  0.5129
 1520SOL    HW1 6001   1.107   3.970   0.952 -0.1402  0.5524  0.7382
 1520SOL    HW2 6002   1.249   3.920   0.939  0.1331  1.7067 -1.2129
 1521SOL     OW 6003   0.486   1.708   0.382 -0.6284 -0.4540 -0.3024
 1521SOL    HW1 6004   0.500   1.643   0.313 -1.8637 -1.3220  0.2176
 1521SOL    HW2 6005   0.416   1.764   0.348  1.9373  2.1318 -1.7364
 1522SOL     OW 6006   6.549   2.287   1.384  0.1444  0.6830  0.1999
 1522SOL    HW1 6007   6.473   2.325   1.428  0.4137  2.4052 -0.7137
 1522SOL    HW2 6008   6.589   2.229   1.449 -2.2551 -0.7425  0.4938
 1523SOL     OW 6009   1.558   4.931   0.752 -0.4540  0.1623  0.3601
 1523SOL    HW1 6010   1.583   5.016   0.717  0.4280  0.3195  1.3218
 1523SOL    HW2 6011   1.464   4.926   0.736 -0.4346  1.1036 -0.1474
 1524SOL     OW 6012   1.923   3.368  12.348  1.2030 -0.1788 -0.0356
 1524SOL    HW1 6013   1.971   3.424  12.287  1.3301 -0.4020 -0.1383
 1524SOL    HW2 6014   1.920   3.283  12.306 -0.5942  0.1791 -0.7445
 1525SOL     OW 6015   2.497   2.424   1.109 -0.0115  0.2073 -0.0240
 1525SOL    HW1 6016   2.470   2.512   1.134  0.0061  0.0340  0.6061
 1525SOL    HW2 6017   2.564   2.400   1.172 -0.6340 -0.5950  0.3515
 1526SOL     OW 6018   2.005   1.562  12.254 -0.2026 -0.1275 -0.0953
 1526SOL    HW1 6019   2.064   1.621  12.302 -0.8154 -0.7489  1.4841
 1526SOL    HW2 6020   2.002   1.599  12.166  1.0613  1.0020  0.2885
 1527SOL     OW 6021   1.922   1.940   1.454 -0.1697  0.5374 -0.0181
 1527SOL    HW1 6022   1.886   1.890   1.381 -0.4615 -1.0764  1.1821
 1527SOL    HW2 6023   1.849   1.945   1.517 -0.0960  2.3541 -0.0143
 1528SOL     OW 6024   1.987   3.512   1.250  0.3007  0.0346 -0.0040
 1528SOL    HW1 6025   2.050   3.442   1.231  1.0413  1.0544 -1.5466
 1528SOL    HW2 6026   2.016   3.548   1.334  1.0096 -0.3191 -0.0880
 1529SOL     OW 6027   1.761   2.792   0.731  0.6157  0.1278  0.2415
 1529SOL    HW1 6028   1.802   2.707   0.739 -0.4588 -0.3572  0.8485
 1529SOL    HW2 6029   1.693   2.793   0.798  0.7892  1.5740  0.4417
 1530SOL     OW 6030   0.299   2.455   1.377  0.0189  0.2471  0.1975
 1530SOL    HW1 6031   0.275   2.395   1.307 -1.5685  0.4870  0.5094
 1530SOL    HW2 6032   0.367   2.511   1.338  1.5930 -1.7425 -0.0692
 1531SOL     OW 6033   0.248   2.381   0.337  0.0961 -0.2696 -0.4493
 1531SOL    HW1 6034   0.307   2.376   0.262  0.7778 -0.5901  0.0919
 1531SOL    HW2 6035   0.285   2.319   0.400 -1.2462 -1.0504 -0.3884
 1532SOL     OW 6036   2.425   4.617  11.058 -0.0445 -0.1109  0.1908
 1532SOL    HW1 6037   2.344   4.618  11.109 -1.2626 -0.2178 -1.6833
 1532SOL    HW2 6038   2.406   4.670  10.981  0.6479 -2.4831 -1.7428
 1533SOL     OW 6039   0.838   3.540   1.922 -0.3461 -0.4177 -0.0438
 1533SOL    HW1 6040   0.916   3.593   1.936 -0.6518  0.0168  0.0276
 1533SOL    HW2 6041   0.865   3.450   1.942  0.1239 -0.2637  0.0051
 1534SOL     OW 6042   1.777   2.898   0.422  0.2812  0.2101  0.7000
 1534SOL    HW1 6043   1.713   2.831   0.445 -1.0559  0.8994 -0.8619
 1534SOL    HW2 6044   1.817   2.867   0.341 -1.4784  1.9435 -0.9371
 1535SOL     OW 6045   6.986   2.722   2.178  0.2557 -0.4543 -0.2411
 1535SOL    HW1 6046   6.925   2.693   2.110 -1.7798  0.7985  0.9580
 1535SOL    HW2 6047   6.995   2.816   2.165  0.8181 -0.3988  0.4554
 1536SOL     OW 6048   2.660   4.598   1.784  0.4715 -0.2362 -0.3000
 1536SOL    HW1 6049   2.600   4.648   1.839  1.8596  0.4429  0.6787
 1536SOL    HW2 6050   2.649   4.635   1.696 -0.8611 -0.4546 -0.2386
 1537SOL     OW 6051   0.949   1.798   0.905 -0.2302 -0.1274 -0.1029
 1537SOL    HW1 6052   0.935   1.775   0.997 -0.5145 -0.3142 -0.1910
 1537SOL    HW2 6053   1.022   1.743   0.878 -0.3681 -0.3218 -0.0830
 1538SOL     OW 6054   2.516   0.392   2.101  0.3719  0.2250 -0.4995
 1538SOL    HW1 6055   2.447   0.374   2.037  0.3995 -0.9785 -0.2143
 1538SOL    HW2 6056   2.513   0.486   2.113 -1.6767  0.1520 -0.0055
 1539SOL     OW 6057   0.272   1.079   1.334 -0.3667 -0.7190  0.7377
 1539SOL    HW1 6058   0.334   1.060   1.264 -0.2361  1.5829  0.1287
 1539SOL    HW2 6059   0.208   1.009   1.329 -0.7347 -0.3193 -2.1751
 1540SOL     OW 6060   2.339   2.729   2.781  0.0721  0.3096  0.1931
 1540SOL    HW1 6061   2.271   2.687   2.729 -0.1124  2.4128 -1.4075
 1540SOL    HW2 6062   2.413   2.669   2.778 -1.8275 -2.4434  2.6652
 1541SOL     OW 6063   0.282   3.945   1.664 -0.6005 -0.2241 -0.2486
 1541SOL    HW1 6064   0.341   3.986   1.600 -0.0744  0.5923  0.7223
 1541SOL    HW2 6065   0.291   3.851   1.648  2.4314 -0.2781  1.0393
 1542SOL     OW 6066   1.638   1.878   3.385  0.1603 -0.3486  0.1753
 1542SOL    HW1 6067   1.570   1.905   3.445  1.1701  0.7103  0.8850
 1542SOL    HW2 6068   1.650   1.784   3.401 -1.6813 -0.7469 -0.5734
 1543SOL     OW 6069   1.352   3.703   1.447  0.1656  0.1505  0.0216
 1543SOL    HW1 6070   1.407   3.638   1.403 -0.2463 -1.5234  1.8472
 1543SOL    HW2 6071   1.262   3.674   1.428 -0.0381  0.8130 -0.0316
 1544SOL     OW 6072   6.604   3.193   1.279 -0.0418 -0.2620  0.3562
 1544SOL    HW1 6073   6.565   3.242   1.207  2.4536  0.0193 -0.8755
 1544SOL    HW2 6074   6.587   3.101   1.257 -3.5694 -0.1897  2.0134
 1545SOL     OW 6075   0.547   0.982   2.349 -0.0965 -0.2468 -0.1978
 1545SOL    HW1 6076   0.641   0.997   2.343  0.3137 -2.5683 -0.3390
 1545SOL    HW2 6077   0.533   0.949   2.438 -0.6325 -0.8738 -0.5103
 1546SOL     OW 6078   0.610   3.554   0.920  0.2997  0.2064  0.2934
 1546SOL    HW1 6079   0.694   3.527   0.957 -1.7063 -5.1250  1.7677
 1546SOL    HW2 6080   0.556   3.574   0.996 -1.0286 -1.0750 -0.2698
 1547SOL     OW 6081   0.630   2.089   0.353  0.0729 -0.0224  0.1628
 1547SOL    HW1 6082   0.707   2.061   0.404  1.2154 -0.1958 -1.5778
 1547SOL    HW2 6083   0.609   2.014   0.298 -0.2328  0.6342 -0.6372
 1548SOL     OW 6084   7.128   0.021   0.180  0.0479  0.3214 -0.1735
 1548SOL    HW1 6085   7.216   0.050   0.158  1.6339 -2.0627  2.4539
 1548SOL    HW2 6086   7.110  -0.050   0.118 -0.5078  1.4484 -1.3501
 1549SOL     OW 6087   1.142   3.091   1.043 -0.7203 -0.2585 -0.4339
 1549SOL    HW1 6088   1.121   3.181   1.067 -0.9653 -0.4311  0.0183
 1549SOL    HW2 6089   1.207   3.063   1.108 -2.7604 -1.3472  1.2711
 1550SOL     OW 6090   0.490   3.406   1.846 -0.3001 -0.3983  0.2710
 1550SOL    HW1 6091   0.542   3.428   1.923  1.0338  1.0897 -1.0012
 1550SOL    HW2 6092   0.497   3.482   1.789 -2.1549 -1.0154 -0.8837
 1551SOL     OW 6093   6.806   3.527  11.196 -0.2191  0.0389 -0.1361
 1551SOL    HW1 6094   6.753   3.447  11.192  0.4427 -0.3822 -1.3932
 1551SOL    HW2 6095   6.866   3.519  11.121  0.0030  1.6282 -0.1624
 1552SOL     OW 6096   2.500   2.706   0.020  0.5307 -0.0189 -0.4028
 1552SOL    HW1 6097   2.435   2.670   0.082  1.4168 -1.5135 -0.2997
 1552SOL    HW2 6098   2.487   2.656  -0.060  1.9480 -0.7787 -0.1886
 1553SOL     OW 6099   1.873   1.511   1.607 -0.5791 -0.4880 -0.0892
 1553SOL    HW1 6100   1.865   1.605   1.626 -1.7526 -0.5999 -0.0098
 1553SOL    HW2 6101   1.953   1.505   1.555  0.8674  0.2517  1.8946
 1554SOL     OW 6102   1.304   2.337   1.036  0.0417 -0.4870  0.6186
 1554SOL    HW1 6103   1.356   2.372   1.108  0.8879 -1.3740  0.4624
 1554SOL    HW2 6104   1.344   2.375   0.957 -0.5283  0.0390  0.5761
 1555SOL     OW 6105   1.524   1.033   1.427  0.0690  0.6267 -0.0421
 1555SOL    HW1 6106   1.567   1.041   1.342 -1.3876 -0.1683 -0.8791
 1555SOL    HW2 6107   1.574   0.966   1.473  2.1910  2.5299  0.6291
 1556SOL     OW 6108   2.169   0.968  11.838  0.0919  0.1713 -0.2435
 1556SOL    HW1 6109   2.108   0.922  11.896  0.4032 -1.4853 -1.1717
 1556SOL    HW2 6110   2.199   0.901  11.777 -0.8389  1.9961 -2.8985
 1557SOL     OW 6111   7.784   1.452   2.323  0.5390  0.2518  0.0028
 1557SOL    HW1 6112   7.745   1.369   2.296 -0.4264  0.7637 -0.2190
 1557SOL    HW2 6113   7.730   1.480   2.397  2.0489 -0.2542  1.3468
 1558SOL     OW 6114   0.729   0.863   0.913 -0.2828  0.2173 -0.1223
 1558SOL    HW1 6115   0.809   0.915   0.920  0.7664 -1.4661  1.0485
 1558SOL    HW2 6116   0.694   0.859   1.002 -0.6272 -0.6513 -0.2859
 1559SOL     OW 6117   2.874   2.833  11.701 -0.6644 -0.1996 -0.0624
 1559SOL    HW1 6118   2.909   2.754  11.742  0.5621  0.6392  0.5739
 1559SOL    HW2 6119   2.933   2.851  11.629  0.1297  1.1146  0.8867
 1560SOL     OW 6120   0.789   4.346   0.776  0.3895 -0.4769  0.0935
 1560SOL    HW1 6121   0.814   4.343   0.684  1.7047 -1.4962  0.4662
 1560SOL    HW2 6122   0.699   4.379   0.774  0.4444 -0.3152 -1.5334
 1561SOL     OW 6123   2.371   4.847   0.185  0.3397 -0.6049  0.5203
 1561SOL    HW1 6124   2.341   4.756   0.181 -0.4615 -0.3258  0.0952
 1561SOL    HW2 6125   2.352   4.883   0.099  0.1084  0.1404  0.8771
 1562SOL     OW 6126   0.572   2.364   0.457 -0.0545 -0.1822 -0.2256
 1562SOL    HW1 6127   0.557   2.286   0.403 -0.2955  0.4345 -1.0595
 1562SOL    HW2 6128   0.611   2.329   0.538 -1.6928 -1.3541  0.1214
 1563SOL     OW 6129   7.224   1.538   1.448 -0.1810 -0.2521  0.0924
 1563SOL    HW1 6130   7.133   1.510   1.457 -0.1446  0.0348  1.6452
 1563SOL    HW2 6131   7.220   1.633   1.447  0.2313 -0.1522  2.5294
 1564SOL     OW 6132   4.131   1.125   1.776  0.1259  0.2344 -0.2357
 1564SOL    HW1 6133   4.222   1.096   1.766  0.3665  1.4303 -2.0296
 1564SOL    HW2 6134   4.129   1.212   1.737 -1.7646  0.3339 -0.0272
 1565SOL     OW 6135   0.948   3.739   2.350 -0.0790 -0.2266 -0.1111
 1565SOL    HW1 6136   1.028   3.793   2.345 -1.2122  1.9850  2.7035
 1565SOL    HW2 6137   0.978   3.656   2.388  1.0150  0.2370  0.0929
 1566SOL     OW 6138   2.901   4.128   0.309  0.2622 -0.1716 -0.7170
 1566SOL    HW1 6139   2.826   4.147   0.364 -0.6363 -1.9449 -1.2711
 1566SOL    HW2 6140   2.975   4.126   0.370 -0.2369  0.7897 -0.0466
 1567SOL     OW 6141   7.877   3.246   0.655 -0.1423 -0.1962  0.6583
 1567SOL    HW1 6142   7.971   3.232   0.668  0.0165  1.2883  1.2950
 1567SOL    HW2 6143   7.870   3.335   0.621 -1.2600 -0.7107 -0.5453
 1568SOL     OW 6144   1.532   2.286   1.919  0.4485  0.1997 -0.1902
 1568SOL    HW1 6145   1.547   2.301   1.825 -5.2765 -0.4807 -1.5766
 1568SOL    HW2 6146   1.543   2.192   1.930 -0.8281 -0.0145 -0.6898
 1569SOL     OW 6147   1.067   4.172   2.683  0.3913  0.0432  0.1386
 1569SOL    HW1 6148   1.124   4.245   2.708 -1.8597  2.4904 -1.3589
 1569SOL    HW2 6149   0.981   4.195   2.718 -0.6503 -1.2868 -1.3608
 1570SOL     OW 6150   7.922   2.537   1.363  0.0896 -0.1264 -0.2426
 1570SOL    HW1 6151   7.831   2.516   1.340  0.1403  0.8427 -1.3651
 1570SOL    HW2 6152   7.931   2.630   1.343  1.6575 -0.4709 -1.2262
 1571SOL     OW 6153   7.940   3.083   1.190  0.1169 -0.2313 -0.1197
 1571SOL    HW1 6154   7.929   3.050   1.279 -2.0424 -0.5036 -0.4244
 1571SOL    HW2 6155   7.984   3.167   1.201 -0.7023  0.0557  1.2854
 1572SOL     OW 6156   1.907   7.916  12.322  0.2712 -0.2901  0.5333
 1572SOL    HW1 6157   1.859   7.992  12.355 -1.4179 -0.4167 -1.4162
 1572SOL    HW2 6158   1.956   7.949  12.247 -0.8971 -1.1649 -0.6659
 1573SOL     OW 6159   7.914   1.433   1.422  0.4147 -0.2868 -0.3326
 1573SOL    HW1 6160   7.907   1.343   1.452  0.0174 -0.6188 -1.3788
 1573SOL    HW2 6161   7.982   1.472   1.478 -0.9960 -0.5566  1.6676
 1574SOL     OW 6162   0.703   2.018   0.880  0.3180 -0.1061 -0.3090
 1574SOL    HW1 6163   0.730   1.926   0.885 -1.0352 -0.5869 -1.4130
 1574SOL    HW2 6164   0.659   2.026   0.796  0.5891  1.6248 -0.3304
 1575SOL     OW 6165   2.252   2.324   1.012  0.6212 -0.1245  0.4650
 1575SOL    HW1 6166   2.284   2.274   0.937  0.8472  2.3003 -1.1624
 1575SOL    HW2 6167   2.328   2.372   1.043  0.5572 -1.1989  2.4167
 1576SOL     OW 6168   0.560   1.082   1.795 -0.2296 -0.4112 -0.5317
 1576SOL    HW1 6169   0.535   1.167   1.832 -2.7137 -0.9163 -0.8593
 1576SOL    HW2 6170   0.527   1.085   1.705  0.0238 -1.5497 -0.6738
 1577SOL     OW 6171   1.060   1.489  12.467  0.3139  0.5102  0.3454
 1577SOL    HW1 6172   0.991   1.515  12.528  0.7809  2.9860 -0.0697
 1577SOL    HW2 6173   1.051   1.394  12.459 -0.9730  0.3525  2.7723
 1578SOL     OW 6174   7.729   2.408   1.212 -0.5050 -0.1279 -0.2978
 1578SOL    HW1 6175   7.704   2.422   1.120 -0.6163 -1.1815 -0.4453
 1578SOL    HW2 6176   7.660   2.351   1.246 -0.2053 -0.1321  0.3092
 1579SOL     OW 6177   2.134   2.271   0.171 -0.2769 -0.0760 -0.4504
 1579SOL    HW1 6178   2.176   2.259   0.256 -0.4706 -0.1050 -0.3577
 1579SOL    HW2 6179   2.040   2.265   0.190 -0.3498  0.5867 -0.5545
 1580SOL     OW 6180   6.971   3.122  12.043 -0.0126  0.0138 -0.1662
 1580SOL    HW1 6181   7.049   3.091  12.090  0.6488  2.7981  0.7889
 1580SOL    HW2 6182   6.996   3.118  11.951  1.5524  1.3875  0.1422
 1581SOL     OW 6183   7.863   1.572   0.270  0.0919  0.0754 -0.1781
 1581SOL    HW1 6184   7.787   1.630   0.257  0.0199  0.1674  0.5638
 1581SOL    HW2 6185   7.939   1.628   0.253  0.0471  0.6337  1.2856
 1582SOL     OW 6186   1.472   3.405   2.771 -0.3279 -0.0628  0.0417
 1582SOL    HW1 6187   1.536   3.338   2.749 -0.6827 -0.5196  0.3878
 1582SOL    HW2 6188   1.399   3.357   2.811 -0.6028  0.5185  0.2530
 1583SOL     OW 6189   0.492   2.573   2.513  0.3992  0.1505  0.1302
 1583SOL    HW1 6190   0.491   2.561   2.418 -0.0139 -0.6078  0.2270
 1583SOL    HW2 6191   0.427   2.642   2.529 -3.1377 -2.9156  0.2508
 1584SOL     OW 6192   0.106   0.594   2.040 -0.4082 -0.2310 -0.2216
 1584SOL    HW1 6193   0.021   0.555   2.059 -1.4407  2.2181  0.5810
 1584SOL    HW2 6194   0.124   0.568   1.949 -1.7115 -1.2555 -0.2249
 1585SOL     OW 6195   0.267   1.295   1.015 -0.1897 -0.4120  0.1294
 1585SOL    HW1 6196   0.358   1.293   0.987 -0.4137  1.7645 -0.9845
 1585SOL    HW2 6197   0.270   1.298   1.110  0.7902 -2.3982  0.2094
 1586SOL     OW 6198   1.924   2.454   0.668  0.5357  0.1474 -0.3015
 1586SOL    HW1 6199   2.012   2.474   0.638  1.8169 -2.1310  1.5872
 1586SOL    HW2 6200   1.920   2.491   0.757 -0.3912  0.1456 -0.3306
 1587SOL     OW 6201   7.707   1.323   1.226 -0.0387 -0.1432  0.2134
 1587SOL    HW1 6202   7.737   1.241   1.186  0.8421  0.3432 -0.1546
 1587SOL    HW2 6203   7.787   1.367   1.254 -0.4113  1.0151 -0.4403
 1588SOL     OW 6204   0.774   4.274  11.580  0.1584 -0.6242  0.0694
 1588SOL    HW1 6205   0.699   4.236  11.626  2.0029 -2.2886  1.9298
 1588SOL    HW2 6206   0.817   4.330  11.645 -0.7903  2.4410 -1.7377
 1589SOL     OW 6207   0.763   2.493   0.927  0.1661  0.0326 -0.0919
 1589SOL    HW1 6208   0.676   2.477   0.891  0.1302  1.0912 -0.4973
 1589SOL    HW2 6209   0.747   2.539   1.009  0.3044  5.3593 -2.6416
 1590SOL     OW 6210   1.928   2.239   1.481  0.4193 -0.7613  0.5422
 1590SOL    HW1 6211   1.954   2.170   1.419  0.7013  0.1067 -0.3360
 1590SOL    HW2 6212   1.906   2.192   1.561 -2.3364 -2.1915 -0.9033
 1591SOL     OW 6213   0.304   0.228   0.499  0.4146 -0.6551  0.1174
 1591SOL    HW1 6214   0.294   0.264   0.587  1.0789 -0.1864  0.0122
 1591SOL    HW2 6215   0.396   0.202   0.495  0.5290 -0.1455 -0.6341
 1592SOL     OW 6216   2.610   1.615   2.273  0.1419  0.1219 -0.3604
 1592SOL    HW1 6217   2.621   1.701   2.233 -0.0180  0.6160  0.6384
 1592SOL    HW2 6218   2.617   1.630   2.367  1.7323 -1.2011 -0.2241
 1593SOL     OW 6219   0.870   1.976   1.287 -0.4778 -0.1979  0.2367
 1593SOL    HW1 6220   0.790   1.993   1.238 -0.5239 -5.5112 -2.2326
 1593SOL    HW2 6221   0.842   1.924   1.362  0.3188  2.1896  2.3198
 1594SOL     OW 6222   0.709   4.338   2.230  0.6950  0.1243 -0.0213
 1594SOL    HW1 6223   0.787   4.316   2.178  0.2449 -0.8573 -0.3125
 1594SOL    HW2 6224   0.739   4.405   2.291  1.8698 -0.5188  0.1353
 1595SOL     OW 6225   2.210   3.504   3.191 -0.1549 -0.5727 -0.3333
 1595SOL    HW1 6226   2.263   3.457   3.255  2.0041  1.1911 -0.7241
 1595SOL    HW2 6227   2.125   3.516   3.234  0.3627 -1.7640  1.0899
 1596SOL     OW 6228   1.085   2.229   1.561 -0.1489 -0.1082 -0.3076
 1596SOL    HW1 6229   1.105   2.312   1.518 -2.2626  0.3085 -0.6095
 1596SOL    HW2 6230   1.083   2.165   1.490  0.0842 -0.1606 -0.2697
 1597SOL     OW 6231   1.695   1.578   0.786 -0.4864 -0.4233 -0.5691
 1597SOL    HW1 6232   1.757   1.550   0.719 -0.1972 -0.2934 -0.3600
 1597SOL    HW2 6233   1.750   1.609   0.858 -0.7919 -0.9942 -0.0843
 1598SOL     OW 6234   2.542   3.126   2.524 -0.7276  0.2653  0.2916
 1598SOL    HW1 6235   2.584   3.213   2.525  0.0905  0.0211 -2.7306
 1598SOL    HW2 6236   2.489   3.125   2.604  0.8987  2.6772  1.5760
 1599SOL     OW 6237   3.689   1.627   2.393 -0.0735  0.2257  0.0120
 1599SOL    HW1 6238   3.652   1.546   2.357 -1.0755  0.8481 -0.4199
 1599SOL    HW2 6239   3.781   1.625   2.366 -0.4990  0.0729 -1.5663
 1600SOL     OW 6240   0.937   3.799   0.557 -0.1169 -0.1811  0.3865
 1600SOL    HW1 6241   1.026   3.768   0.575  0.8928  1.8967 -0.6708
 1600SOL    HW2 6242   0.906   3.743   0.486  0.4102 -0.7931  0.6231
 1601SOL     OW 6243   2.077   1.725   1.614 -0.1664 -0.5039 -0.4003
 1601SOL    HW1 6244   2.095   1.777   1.536 -1.5797 -0.1861 -0.5402
 1601SOL    HW2 6245   2.129   1.766   1.683 -1.8137  1.6151 -0.3298
 1602SOL     OW 6246   7.426   1.202   3.159  0.0887 -0.0736 -0.0077
 1602SOL    HW1 6247   7.356   1.264   3.180  1.8609  2.2660 -0.4830
 1602SOL    HW2 6248   7.426   1.198   3.063 -0.7267 -1.8005  0.0216
 1603SOL     OW 6249   1.635   0.605   1.752 -0.2051  0.5284  0.1456
 1603SOL    HW1 6250   1.673   0.517   1.754 -0.2351  0.5150  0.1295
 1603SOL    HW2 6251   1.708   0.663   1.772 -0.0209  0.5521 -0.5877
 1604SOL     OW 6252   7.603   3.417   0.706  0.2273  0.0440  0.5666
 1604SOL    HW1 6253   7.560   3.356   0.646  1.6910 -0.5230  0.0658
 1604SOL    HW2 6254   7.683   3.443   0.661  0.5778  0.8504  1.6113
 1605SOL     OW 6255   1.086   2.381  11.282 -0.0692 -0.4117  0.8659
 1605SOL    HW1 6256   1.129   2.310  11.234  1.0956 -0.1637  1.4983
 1605SOL    HW2 6257   1.061   2.444  11.215  0.9626 -0.3703  0.4961
 1606SOL     OW 6258   1.660   3.277   0.999  0.4938 -0.0517  0.1872
 1606SOL    HW1 6259   1.582   3.292   1.052 -0.1630 -1.1624 -0.4297
 1606SOL    HW2 6260   1.723   3.342   1.030 -1.0092  1.5399  0.0221
 1607SOL     OW 6261   2.119   2.356   2.069  0.4888  0.2655 -0.2540
 1607SOL    HW1 6262   2.200   2.344   2.117  0.1096 -1.2891  0.0593
 1607SOL    HW2 6263   2.070   2.275   2.084 -1.0079  1.0553 -0.6451
 1608SOL     OW 6264   1.830   1.402   2.514 -0.2943 -0.2785  0.0925
 1608SOL    HW1 6265   1.886   1.477   2.536 -0.9183  0.0731  0.5140
 1608SOL    HW2 6266   1.873   1.362   2.438  1.0760 -0.6076  1.0009
 1609SOL     OW 6267   7.969   2.573   0.690 -0.7898  0.6013 -0.0352
 1609SOL    HW1 6268   8.045   2.593   0.745 -0.5596 -0.2606 -0.0368
 1609SOL    HW2 6269   7.902   2.635   0.719 -0.0996  1.3603 -0.0220
 1610SOL     OW 6270   0.747   2.098   1.828  0.2728  0.9134  0.0417
 1610SOL    HW1 6271   0.823   2.148   1.799  0.0997  1.1256 -0.0444
 1610SOL    HW2 6272   0.672   2.153   1.808  0.0326  0.3482 -0.6746
 1611SOL     OW 6273   1.071   1.528   1.126  0.2315  0.1904  0.1194
 1611SOL    HW1 6274   1.128   1.602   1.143  0.3651 -0.4566  2.9804
 1611SOL    HW2 6275   1.087   1.468   1.199 -2.7996 -0.8107  0.1088
 1612SOL     OW 6276   3.434   2.364   2.283 -0.3306  0.4139  0.0624
 1612SOL    HW1 6277   3.403   2.325   2.364  0.1403 -0.6520 -0.2532
 1612SOL    HW2 6278   3.379   2.442   2.271 -3.2508 -1.5690 -0.6726
 1613SOL     OW 6279   1.004   4.235   3.253  0.1807 -0.3597 -0.2239
 1613SOL    HW1 6280   0.993   4.141   3.266 -1.9524 -0.1528 -0.0981
 1613SOL    HW2 6281   1.006   4.272   3.342 -1.4431 -0.1053 -0.2614
 1614SOL     OW 6282   1.662   2.149   1.218  0.2003  0.4394 -0.1642
 1614SOL    HW1 6283   1.695   2.238   1.227  0.1882  0.5274 -0.9278
 1614SOL    HW2 6284   1.605   2.136   1.294 -0.2931  1.2994 -0.3829
 1615SOL     OW 6285   1.616   3.313   2.132 -0.0911 -0.4347  0.2218
 1615SOL    HW1 6286   1.604   3.394   2.182 -0.2678  0.0846 -0.6520
 1615SOL    HW2 6287   1.710   3.295   2.137 -0.3301 -1.4933  2.4032
 1616SOL     OW 6288   0.004   0.062   1.277 -0.2604  0.1415  0.3422
 1616SOL    HW1 6289   0.032   0.080   1.187  0.5543 -1.8149  0.1526
 1616SOL    HW2 6290   0.073   0.100   1.332  0.0265  0.0048  0.0787
 1617SOL     OW 6291   0.514   1.129   0.091 -0.5266 -0.4068  0.1635
 1617SOL    HW1 6292   0.574   1.147   0.163 -1.8796 -0.1908  1.2827
 1617SOL    HW2 6293   0.571   1.112   0.016  0.9128  0.4077  1.0187
 1618SOL     OW 6294   2.429   1.354   2.120  0.0587  0.0316 -0.1316
 1618SOL    HW1 6295   2.433   1.442   2.082  0.1871 -0.5043 -1.3868
 1618SOL    HW2 6296   2.520   1.324   2.119 -0.2552 -0.9608 -1.7811
 1619SOL     OW 6297   1.026   2.175   0.058  0.4287 -1.0742  0.5983
 1619SOL    HW1 6298   1.018   2.192  -0.036 -0.9985 -0.3649  0.8199
 1619SOL    HW2 6299   0.960   2.108   0.076  1.7515 -2.3589  0.8543
 1620SOL     OW 6300   2.200   2.544   1.644  0.4365  0.0226 -0.0024
 1620SOL    HW1 6301   2.188   2.625   1.693  0.1390  0.4622 -0.7899
 1620SOL    HW2 6302   2.238   2.571   1.561  0.5411 -0.6728 -0.1884
 1621SOL     OW 6303   1.701   3.844   1.527  0.0386 -0.0554 -0.2994
 1621SOL    HW1 6304   1.727   3.839   1.619  1.4103 -2.7357 -0.7467
 1621SOL    HW2 6305   1.620   3.793   1.523 -0.5515  0.8591 -0.4695
 1622SOL     OW 6306   0.540   3.123   0.783 -0.0303 -0.5384 -0.1965
 1622SOL    HW1 6307   0.613   3.127   0.844 -0.4279  0.7749  0.2184
 1622SOL    HW2 6308   0.522   3.214   0.760 -1.8786 -0.7851  0.1269
 1623SOL     OW 6309   7.834   2.965   3.381  0.0022  0.2691 -0.7161
 1623SOL    HW1 6310   7.795   3.052   3.391 -3.9150 -0.9593 -3.2041
 1623SOL    HW2 6311   7.840   2.931   3.471 -1.2254  1.9934  0.0790
 1624SOL     OW 6312   0.082   0.885   1.357  0.2464  0.3621  0.1089
 1624SOL    HW1 6313   0.076   0.790   1.363 -0.9633  0.4913  1.6583
 1624SOL    HW2 6314   0.041   0.917   1.437 -0.2570  2.2116 -0.8152
 1625SOL     OW 6315   1.964   2.931  12.062 -0.6235 -1.1835  0.0535
 1625SOL    HW1 6316   1.948   2.885  12.145 -0.5375 -0.6083  0.3945
 1625SOL    HW2 6317   1.897   3.000  12.060  0.5935  0.0594  0.6018
 1626SOL     OW 6318   2.465   2.010   2.903  0.1841  0.0833  0.1032
 1626SOL    HW1 6319   2.449   2.104   2.894  0.2619  0.3343  2.0149
 1626SOL    HW2 6320   2.539   1.993   2.845 -0.4650  0.9777 -1.0434
 1627SOL     OW 6321   1.875   2.158   1.787 -0.3355  0.0584  0.0579
 1627SOL    HW1 6322   1.863   2.145   1.881  1.9893  2.9622  0.8905
 1627SOL    HW2 6323   1.906   2.248   1.778 -1.1348  0.1613 -3.6036
 1628SOL     OW 6324   3.516   3.299   0.999 -0.0386 -0.5169 -0.0537
 1628SOL    HW1 6325   3.462   3.321   0.924 -0.0484  1.4971  0.4769
 1628SOL    HW2 6326   3.467   3.332   1.075  0.8747 -0.6969  0.6399
 1629SOL     OW 6327   7.724   3.681   0.683  0.1927  0.1319  0.4624
 1629SOL    HW1 6328   7.692   3.612   0.741 -0.6346  1.4897  1.7119
 1629SOL    HW2 6329   7.819   3.680   0.695  0.1107 -0.2048  1.1675
 1630SOL     OW 6330   2.289   4.075  12.343  0.0534  0.1398  0.3408
 1630SOL    HW1 6331   2.371   4.124  12.350  1.6364 -2.2228 -0.4615
 1630SOL    HW2 6332   2.268   4.076  12.250  0.7674 -1.6117  0.1230
 1631SOL     OW 6333   1.405   1.416   0.737 -0.7926 -0.3746  0.2424
 1631SOL    HW1 6334   1.490   1.457   0.753 -1.0031  0.0967  0.1702
 1631SOL    HW2 6335   1.357   1.428   0.819 -1.7723  1.7954 -0.5674
 1632SOL     OW 6336   2.147   2.757   1.150 -0.1721  0.1412 -0.5520
 1632SOL    HW1 6337   2.098   2.822   1.099 -0.3906  0.5525  0.1746
 1632SOL    HW2 6338   2.226   2.741   1.098 -1.1613 -0.7153 -1.8701
 1633SOL     OW 6339   1.874   3.302   2.161 -0.1798 -0.0870  0.3060
 1633SOL    HW1 6340   1.946   3.318   2.222 -0.3188  0.1045  0.4188
 1633SOL    HW2 6341   1.896   3.354   2.083 -0.8002  0.9315  0.7988
 1634SOL     OW 6342   7.705   3.832   1.831 -0.4318  0.8264  0.3282
 1634SOL    HW1 6343   7.729   3.810   1.921  0.7271 -0.4547 -0.2581
 1634SOL    HW2 6344   7.612   3.811   1.825  0.2884 -3.2895  0.1408
 1635SOL     OW 6345   7.395   2.394   1.486  0.0560 -0.2340 -0.2837
 1635SOL    HW1 6346   7.362   2.451   1.417  2.3221  0.6124 -0.7426
 1635SOL    HW2 6347   7.319   2.379   1.543 -1.7895 -0.7365 -2.7454
 1636SOL     OW 6348   1.237   0.488   0.255  0.2353  0.2981 -0.0746
 1636SOL    HW1 6349   1.182   0.467   0.330  0.4056 -0.5350 -0.1704
 1636SOL    HW2 6350   1.180   0.536   0.196 -0.1491  0.1896  0.2023
 1637SOL     OW 6351   1.020   3.719   1.675  0.2105 -0.4950 -0.2389
 1637SOL    HW1 6352   1.055   3.693   1.760 -0.4055 -2.1026 -0.4377
 1637SOL    HW2 6353   1.065   3.662   1.613  2.1571  2.0028 -1.2965
 1638SOL     OW 6354   1.759   2.294   0.919 -0.6058 -0.5000 -0.3115
 1638SOL    HW1 6355   1.676   2.283   0.872 -0.4563 -1.3948 -0.3835
 1638SOL    HW2 6356   1.761   2.386   0.942 -1.3375 -0.3375 -0.8495
 1639SOL     OW 6357   0.189   3.665   1.697 -0.0665  0.6334  0.0048
 1639SOL    HW1 6358   0.126   3.731   1.668  0.0276  0.2957 -1.0025
 1639SOL    HW2 6359   0.190   3.600   1.627  0.8168  0.2289  0.3717
 1640SOL     OW 6360   1.751   3.134   1.328  0.0700  0.0763 -0.4896
 1640SOL    HW1 6361   1.719   3.213   1.372 -2.5160 -1.0614 -0.1065
 1640SOL    HW2 6362   1.747   3.066   1.396 -1.1505 -1.0823 -1.6655
 1641SOL     OW 6363   7.992   3.759   1.036  0.1220  0.7423 -0.1030
 1641SOL    HW1 6364   7.900   3.786   1.044 -0.0828 -0.1536  0.6452
 1641SOL    HW2 6365   8.040   3.825   1.087 -0.2185  0.5947  0.4215
 1642SOL     OW 6366   1.367   3.052   1.200  0.0787 -0.7010 -0.1065
 1642SOL    HW1 6367   1.375   2.957   1.194  1.6554 -0.5372 -1.2516
 1642SOL    HW2 6368   1.374   3.071   1.294 -0.0036 -1.6905  0.1104
 1643SOL     OW 6369   1.623   0.478   2.552  0.1350 -0.7902 -0.0501
 1643SOL    HW1 6370   1.669   0.500   2.471 -0.5749 -0.7164 -0.4462
 1643SOL    HW2 6371   1.569   0.402   2.529 -0.3737 -0.5228  0.2291
 1644SOL     OW 6372   0.030   1.614   1.746  0.1783  0.0415 -0.4917
 1644SOL    HW1 6373  -0.009   1.667   1.676 -1.6387 -1.9375 -1.0935
 1644SOL    HW2 6374  -0.000   1.656   1.826 -0.9290  0.1837 -0.9580
 1645SOL     OW 6375   2.368   2.939   2.067 -0.1258 -0.0381 -0.1077
 1645SOL    HW1 6376   2.457   2.923   2.035  0.4862 -1.0947  1.9391
 1645SOL    HW2 6377   2.359   3.034   2.070  1.1305  0.0779  0.1613
 1646SOL     OW 6378   7.532   1.483   1.091 -0.0078  0.2726  0.1197
 1646SOL    HW1 6379   7.500   1.415   1.032 -2.1518  0.4951  0.9750
 1646SOL    HW2 6380   7.594   1.437   1.148  1.2058 -0.1901 -1.4868
 1647SOL     OW 6381   0.130   3.398   2.210 -0.3485  0.3614 -0.3027
 1647SOL    HW1 6382   0.194   3.439   2.268  0.2261 -1.2290  0.2214
 1647SOL    HW2 6383   0.141   3.445   2.127 -0.3915  1.8924  0.5093
 1648SOL     OW 6384   1.425   1.355   0.086  0.5569 -0.3846  0.2529
 1648SOL    HW1 6385   1.425   1.449   0.104 -0.1514 -0.2990 -0.1839
 1648SOL    HW2 6386   1.360   1.319   0.146  0.0830 -0.4552 -0.3022
 1649SOL     OW 6387   6.959   1.511   1.689  0.2814  0.2569  0.0573
 1649SOL    HW1 6388   6.943   1.516   1.595  1.3125 -1.6401 -0.2761
 1649SOL    HW2 6389   7.047   1.473   1.696 -0.3869 -1.1245  1.7718
 1650SOL     OW 6390   0.759   3.046  11.419  0.2828  0.4169  0.1241
 1650SOL    HW1 6391   0.730   3.021  11.507  0.5667 -0.7545 -0.1023
 1650SOL    HW2 6392   0.678   3.075  11.375 -0.1454 -0.4793  0.2878
 1651SOL     OW 6393   0.224   1.503   0.598  0.5959 -0.0410  0.2779
 1651SOL    HW1 6394   0.171   1.432   0.634  0.0046 -0.6660 -1.6830
 1651SOL    HW2 6395   0.293   1.516   0.662  0.9231 -2.6342  0.5796
 1652SOL     OW 6396   0.270   2.329   1.121  0.1496 -0.0257 -0.1119
 1652SOL    HW1 6397   0.255   2.390   1.049  2.1080  0.7424  0.0720
 1652SOL    HW2 6398   0.313   2.254   1.080  0.1529 -0.1272  0.0760
 1653SOL     OW 6399   1.676   3.007   1.091 -0.0681 -0.5880  0.3130
 1653SOL    HW1 6400   1.654   3.091   1.049 -0.6366 -1.1102 -0.4544
 1653SOL    HW2 6401   1.700   3.032   1.181 -1.0032  0.3323  0.3402
 1654SOL     OW 6402   1.215   4.609   2.272 -0.1387  0.0510 -0.4719
 1654SOL    HW1 6403   1.156   4.558   2.217 -0.6385  0.8213 -0.6733
 1654SOL    HW2 6404   1.157   4.652   2.336  0.4138 -0.6993  0.5690
 1655SOL     OW 6405   0.425   3.745   3.385  0.4774  0.1545 -0.3148
 1655SOL    HW1 6406   0.446   3.819   3.442  0.0249 -0.1834  0.3090
 1655SOL    HW2 6407   0.347   3.706   3.425  0.4039 -0.3420 -0.9311
 1656SOL     OW 6408   2.708   2.770   2.067  0.4337 -0.0894  0.4240
 1656SOL    HW1 6409   2.672   2.719   1.994  0.3995  1.3304 -0.5796
 1656SOL    HW2 6410   2.636   2.774   2.131 -0.4938  0.9483 -0.6565
 1657SOL     OW 6411   7.998   0.335  12.445 -0.0835 -0.1205  0.3800
 1657SOL    HW1 6412   8.009   0.424  12.409 -3.0234 -0.0841 -0.7304
 1657SOL    HW2 6413   8.002   0.347  12.540 -0.2577  1.1751  0.2498
 1658SOL     OW 6414   7.961   2.693   3.241 -0.2888  0.1358  0.1697
 1658SOL    HW1 6415   7.878   2.738   3.225 -0.7808 -0.8880 -0.3179
 1658SOL    HW2 6416   8.017   2.717   3.167 -0.2881  0.5306  0.3002
 1659SOL     OW 6417   0.991   6.707   1.731 -0.3784 -0.3420  0.7409
 1659SOL    HW1 6418   1.060   6.741   1.787  0.8627 -1.9812  0.2862
 1659SOL    HW2 6419   0.998   6.612   1.738 -0.6552 -0.5942 -1.5917
 1660SOL     OW 6420   1.565   4.725   1.193 -0.5745  0.5243  0.2777
 1660SOL    HW1 6421   1.583   4.817   1.178 -0.8893  0.3575 -1.3058
 1660SOL    HW2 6422   1.517   4.697   1.115 -0.1183 -1.0751  0.5389
 1661SOL     OW 6423   2.403   4.837  12.028 -0.2551 -0.0917 -0.1472
 1661SOL    HW1 6424   2.396   4.768  12.094 -1.1975 -1.7734 -1.9318
 1661SOL    HW2 6425   2.496   4.839  12.005 -0.3863 -1.5840 -0.8750
 1662SOL     OW 6426   1.094   3.825   0.055 -0.4372 -0.5981  0.0974
 1662SOL    HW1 6427   1.110   3.897   0.116  0.6039 -0.5423 -0.2232
 1662SOL    HW2 6428   1.178   3.811   0.012 -1.2949 -0.2075 -1.7919
 1663SOL     OW 6429   7.799   2.962   2.284  0.8777  0.0979  0.4429
 1663SOL    HW1 6430   7.811   2.935   2.193  0.3578  0.5601  0.2299
 1663SOL    HW2 6431   7.856   3.038   2.294 -0.3055  1.0820  0.0013
 1664SOL     OW 6432   0.023   0.325   0.950  0.3393 -0.0451  0.3576
 1664SOL    HW1 6433  -0.000   0.417   0.957  1.9994  0.6397 -2.0409
 1664SOL    HW2 6434  -0.029   0.293   0.876  1.4650 -0.4244 -0.2821
 1665SOL     OW 6435   1.787   2.919   1.524 -0.0556  0.0599  0.2959
 1665SOL    HW1 6436   1.827   2.949   1.606  1.2506  1.6820 -0.8592
 1665SOL    HW2 6437   1.855   2.867   1.481 -0.0027  0.8464 -0.6081
 1666SOL     OW 6438   1.359   2.572   1.969  0.4002  0.4600 -0.8271
 1666SOL    HW1 6439   1.443   2.527   1.960  0.4278 -0.3392  2.2192
 1666SOL    HW2 6440   1.374   2.637   2.038 -1.3791  0.5240 -0.4481
 1667SOL     OW 6441   1.005   1.756   0.354 -0.5382 -0.0312 -0.4223
 1667SOL    HW1 6442   1.048   1.672   0.363  0.0702  0.4483  1.7948
 1667SOL    HW2 6443   1.016   1.779   0.262 -0.1756 -2.0515 -0.9307
 1668SOL     OW 6444   1.326   3.126   1.455 -0.1386  0.2990 -0.1863
 1668SOL    HW1 6445   1.287   3.060   1.512 -0.0695 -0.1288 -0.6244
 1668SOL    HW2 6446   1.378   3.181   1.513 -0.5338  0.2228  0.2428
 1669SOL     OW 6447   1.957   1.856   2.483  0.3815 -0.2408  0.3181
 1669SOL    HW1 6448   1.945   1.880   2.575  0.3985  1.0042  0.0097
 1669SOL    HW2 6449   1.869   1.864   2.445  0.4970 -0.1174  0.0798
 1670SOL     OW 6450   0.447   1.069   1.539  0.2085  0.4441 -0.6178
 1670SOL    HW1 6451   0.378   1.069   1.472  0.9043  1.0438 -1.3500
 1670SOL    HW2 6452   0.524   1.036   1.495  0.2215 -1.0067  0.4247
 1671SOL     OW 6453   1.523   2.824   0.134  0.6265 -0.2318  0.2431
 1671SOL    HW1 6454   1.430   2.835   0.152  0.7737  2.2091 -0.1599
 1671SOL    HW2 6455   1.555   2.771   0.207 -0.6484  0.9053  1.7040
 1672SOL     OW 6456   1.267   1.139   0.980 -0.3159 -0.0158 -0.2719
 1672SOL    HW1 6457   1.264   1.058   1.030  0.6367 -0.3465 -0.7289
 1672SOL    HW2 6458   1.344   1.185   1.012 -2.4193  2.1548  2.0942
 1673SOL     OW 6459   5.601   2.774   0.998 -0.1640 -0.2765  0.4401
 1673SOL    HW1 6460   5.681   2.725   1.018 -0.8069 -1.6240 -0.1730
 1673SOL    HW2 6461   5.632   2.852   0.951  0.6841 -1.9254 -1.9011
 1674SOL     OW 6462   0.876   2.974   1.441 -0.1915  0.0234  0.3511
 1674SOL    HW1 6463   0.877   2.907   1.509  0.1435  0.2872  0.6173
 1674SOL    HW2 6464   0.912   2.931   1.364  0.2164 -0.0481  0.5782
 1675SOL     OW 6465   7.353   6.735   1.905  0.0846 -0.4331 -0.2624
 1675SOL    HW1 6466   7.334   6.766   1.994 -0.7967  0.1534 -0.6319
 1675SOL    HW2 6467   7.335   6.641   1.908  0.3326 -0.4669  0.2521
 1676SOL     OW 6468   0.621   1.787   0.599  0.2065 -0.2242 -0.1082
 1676SOL    HW1 6469   0.557   1.766   0.531  0.7330 -0.8343 -0.4233
 1676SOL    HW2 6470   0.695   1.823   0.551  0.5130 -0.4954  0.1570
 1677SOL     OW 6471   7.588   3.648   1.037 -1.1330  0.1016 -0.9013
 1677SOL    HW1 6472   7.630   3.718   1.087  0.3828  0.4659 -2.5687
 1677SOL    HW2 6473   7.537   3.694   0.970 -0.3354 -0.3441 -1.8436
 1678SOL     OW 6474   2.126   0.284   1.049 -0.0225  0.1585  0.0082
 1678SOL    HW1 6475   2.182   0.319   0.980  0.2498  1.8215  1.0114
 1678SOL    HW2 6476   2.182   0.223   1.097  0.4850  0.6895  0.1002
 1679SOL     OW 6477   2.385   0.925   0.063  0.6259 -0.3724  1.1038
 1679SOL    HW1 6478   2.294   0.910   0.040  1.1108 -1.3000 -0.3572
 1679SOL    HW2 6479   2.382   0.987   0.135 -1.1022  0.9965 -0.0621
 1680SOL     OW 6480   0.839   1.681   1.131 -0.3647 -0.4109 -0.2400
 1680SOL    HW1 6481   0.882   1.729   1.203 -0.2650  1.5049 -1.5215
 1680SOL    HW2 6482   0.907   1.620   1.100  1.5753  2.5062 -2.1824
 1681SOL     OW 6483   7.828   0.859   0.362  0.1963  0.3025 -0.0041
 1681SOL    HW1 6484   7.877   0.915   0.422 -1.8175  2.6952 -0.4268
 1681SOL    HW2 6485   7.737   0.882   0.377 -0.4431  0.8949 -3.7413
 1682SOL     OW 6486   3.379   3.653   2.600 -0.4888  0.1794 -1.0529
 1682SOL    HW1 6487   3.475   3.645   2.597 -0.3905  0.5672  0.4784
 1682SOL    HW2 6488   3.353   3.598   2.674 -1.3384  0.9771 -0.7452
 1683SOL     OW 6489   1.562   4.331   1.432  0.0699  0.3787 -0.2094
 1683SOL    HW1 6490   1.642   4.308   1.480 -0.0041 -0.4727 -0.4809
 1683SOL    HW2 6491   1.555   4.426   1.442  1.1933  0.4834 -0.2911
 1684SOL     OW 6492   5.547   3.303   1.729 -0.2224 -1.0467  0.3057
 1684SOL    HW1 6493   5.472   3.258   1.689 -0.1527 -0.4497 -0.5201
 1684SOL    HW2 6494   5.612   3.307   1.659 -0.8063  1.7072 -0.1863
 1685SOL     OW 6495   7.537   2.038   1.801 -0.2676 -0.2392 -0.1081
 1685SOL    HW1 6496   7.608   2.085   1.757 -1.0423  0.5424 -0.5447
 1685SOL    HW2 6497   7.558   1.946   1.787 -0.2171 -0.0184 -1.7055
 1686SOL     OW 6498   0.435   4.080   2.624 -0.2679 -0.2481 -0.4482
 1686SOL    HW1 6499   0.411   4.002   2.674  0.7699 -0.1601  0.2207
 1686SOL    HW2 6500   0.499   4.048   2.560 -1.0280 -0.2223 -1.2337
 1687SOL     OW 6501   2.193   2.570   3.804  0.1049 -0.1150  0.5724
 1687SOL    HW1 6502   2.098   2.561   3.808  0.1354 -0.0532  1.8721
 1687SOL    HW2 6503   2.213   2.644   3.862  0.8912  0.3371 -0.2523
 1688SOL     OW 6504   7.471   3.026   2.197 -0.2090  0.6292 -0.4976
 1688SOL    HW1 6505   7.409   2.957   2.175  0.1572  0.3486 -0.6531
 1688SOL    HW2 6506   7.504   3.003   2.283 -0.0903  0.6151 -0.5475
 1689SOL     OW 6507   1.794   0.511   3.928  0.6454 -0.4593  0.3837
 1689SOL    HW1 6508   1.811   0.596   3.885 -1.2005  0.5626  1.5658
 1689SOL    HW2 6509   1.866   0.502   3.990  0.5073  0.5877  0.7236
 1690SOL     OW 6510   0.624   4.006   2.414 -0.3368  0.4624 -0.2715
 1690SOL    HW1 6511   0.647   3.923   2.454 -1.6745  0.6699  1.0513
 1690SOL    HW2 6512   0.692   4.067   2.442  2.5082 -0.7226 -3.8435
 1691SOL     OW 6513   0.310   1.794   4.704 -0.3690  0.0522  0.2017
 1691SOL    HW1 6514   0.299   1.760   4.615 -1.4588 -0.8490  0.6572
 1691SOL    HW2 6515   0.362   1.874   4.693  1.6334 -1.3299 -0.9648
 1692SOL     OW 6516   0.545   4.007   4.398 -0.3740 -0.4208 -0.1372
 1692SOL    HW1 6517   0.636   4.018   4.426  0.1620  0.3624 -2.0692
 1692SOL    HW2 6518   0.493   4.039   4.473  0.9766  1.1169  0.2029
 1693SOL     OW 6519   1.558   1.760   4.417 -0.2148  0.0147  0.2231
 1693SOL    HW1 6520   1.585   1.723   4.333 -0.4692 -0.8150  0.4981
 1693SOL    HW2 6521   1.615   1.835   4.430  0.9314 -0.8149  0.0766
 1694SOL     OW 6522   0.843   4.696   2.237  0.2238 -0.2414  0.3136
 1694SOL    HW1 6523   0.854   4.680   2.144  3.0204 -0.8559  0.6497
 1694SOL    HW2 6524   0.828   4.790   2.244 -2.5990 -0.5058 -0.8309
 1695SOL     OW 6525   1.698   4.023   4.049 -0.8393 -0.3989  0.2067
 1695SOL    HW1 6526   1.717   3.931   4.067 -0.5072 -0.9363 -2.5501
 1695SOL    HW2 6527   1.604   4.025   4.030 -0.5403 -0.5194 -1.4154
 1696SOL     OW 6528   0.260   2.745   2.493  0.0851  0.3068  0.0435
 1696SOL    HW1 6529   0.166   2.767   2.491  0.2035  0.7886 -0.7531
 1696SOL    HW2 6530   0.301   2.821   2.533  0.0761 -0.1744  0.9860
 1697SOL     OW 6531   2.150   2.785   1.765  0.0431 -0.5994  0.3481
 1697SOL    HW1 6532   2.110   2.808   1.849 -1.5273  1.6130 -0.9033
 1697SOL    HW2 6533   2.227   2.842   1.759  0.1849 -0.7956  0.3112
 1698SOL     OW 6534   1.901   4.273   1.210 -0.4721  0.0617 -0.3399
 1698SOL    HW1 6535   1.864   4.189   1.238 -0.6510 -0.5887 -2.3727
 1698SOL    HW2 6536   1.830   4.314   1.159  0.4578  0.3056 -1.4719
 1699SOL     OW 6537   7.775   5.187   4.400  0.6419 -0.1589  0.7938
 1699SOL    HW1 6538   7.730   5.270   4.409  1.6912  0.5841 -0.4045
 1699SOL    HW2 6539   7.706   5.124   4.378  0.0136  0.6843  0.2994
 1700SOL     OW 6540   0.302   2.570   3.312 -0.3867 -0.0727  0.4788
 1700SOL    HW1 6541   0.366   2.550   3.244  0.2351 -0.2147  1.0995
 1700SOL    HW2 6542   0.317   2.662   3.334 -0.4264 -0.0933  0.5926
 1701SOL     OW 6543   7.081   4.779   1.572 -0.7307  0.5124  0.4125
 1701SOL    HW1 6544   7.031   4.742   1.645  1.6464 -1.0255  1.3513
 1701SOL    HW2 6545   7.117   4.704   1.527 -1.4753  1.4832 -1.9368
 1702SOL     OW 6546   0.722   4.397   4.491 -0.2235 -0.0799 -0.1634
 1702SOL    HW1 6547   0.814   4.413   4.508 -0.0627  0.3006 -1.3676
 1702SOL    HW2 6548   0.676   4.458   4.549  0.2250 -1.0953  1.3352
 1703SOL     OW 6549   6.936   4.481   2.147 -0.3340 -0.1339  0.0482
 1703SOL    HW1 6550   7.023   4.513   2.121  0.7721  1.1648  4.4150
 1703SOL    HW2 6551   6.951   4.389   2.169 -0.2158 -0.0859  0.1731
 1704SOL     OW 6552   1.796   3.684   4.494 -0.5074 -0.1821 -0.7299
 1704SOL    HW1 6553   1.848   3.764   4.490 -1.9858  0.8083 -0.6130
 1704SOL    HW2 6554   1.862   3.614   4.497  0.9080  1.0769  1.9939
 1705SOL     OW 6555   1.077   1.248   1.389  0.8958  0.1568 -0.1419
 1705SOL    HW1 6556   1.148   1.263   1.327  2.1202 -1.1376  0.8796
 1705SOL    HW2 6557   1.062   1.333   1.431 -0.5099  1.2778 -2.6778
 1706SOL     OW 6558   3.132   2.480   3.029  0.0409  0.4196 -0.8865
 1706SOL    HW1 6559   3.175   2.410   3.079 -1.1171 -0.5129 -1.1356
 1706SOL    HW2 6560   3.185   2.558   3.046  1.9123 -0.6996 -1.3527
 1707SOL     OW 6561   7.476   2.392   2.973  0.0995  0.2023  0.5695
 1707SOL    HW1 6562   7.426   2.474   2.967  1.3800  0.8947 -1.5832
 1707SOL    HW2 6563   7.558   2.411   2.927  0.3353 -2.3626 -0.1764
 1708SOL     OW 6564   1.178   2.915   2.053 -0.3102 -0.3818 -0.1943
 1708SOL    HW1 6565   1.108   2.962   2.008 -0.5185  0.8642  1.3140
 1708SOL    HW2 6566   1.208   2.977   2.120 -0.1928 -2.1794  1.5040
 1709SOL     OW 6567   1.989   3.182   3.951  0.1018 -0.0399  0.0992
 1709SOL    HW1 6568   1.980   3.173   3.856 -0.9231 -1.9423  0.3260
 1709SOL    HW2 6569   1.932   3.256   3.974  0.7540  0.7658 -0.7907
 1710SOL     OW 6570   1.439   2.416   2.862  0.3026  0.0836  0.2285
 1710SOL    HW1 6571   1.477   2.454   2.940  1.8354  0.5318 -0.7034
 1710SOL    HW2 6572   1.458   2.322   2.869  0.6049  0.1507  0.3028
 1711SOL     OW 6573   1.504   1.679   2.164 -0.2341  0.0205  0.2292
 1711SOL    HW1 6574   1.594   1.709   2.146 -0.6389  1.3451  0.2873
 1711SOL    HW2 6575   1.514   1.620   2.238  0.7077 -0.6417 -0.3985
 1712SOL     OW 6576   1.991   1.452   3.945  0.3170  0.0271 -0.3331
 1712SOL    HW1 6577   2.046   1.469   4.021  2.3741  1.3844 -2.0337
 1712SOL    HW2 6578   2.015   1.363   3.918 -0.8205 -0.6800  0.8409
 1713SOL     OW 6579   0.008   1.747   1.995 -0.6823  0.6620  0.8256
 1713SOL    HW1 6580   0.062   1.744   2.074 -1.4426  1.5712  1.4003
 1713SOL    HW2 6581  -0.046   1.825   2.005 -1.0784  0.5738 -0.4157
 1714SOL     OW 6582   7.088   2.418   1.943 -0.1491  0.4468  0.1587
 1714SOL    HW1 6583   7.118   2.478   2.011 -0.3265  0.1226  0.5230
 1714SOL    HW2 6584   7.062   2.339   1.989 -0.0290  0.1265 -0.3107
 1715SOL     OW 6585   0.238   4.137   1.381  0.4949 -0.1145  0.2503
 1715SOL    HW1 6586   0.158   4.115   1.332 -1.6004 -1.3418  3.7740
 1715SOL    HW2 6587   0.206   4.191   1.454  3.2196  0.8479  0.8203
 1716SOL     OW 6588   7.250   5.856   4.589  0.4058  0.6522  0.6030
 1716SOL    HW1 6589   7.240   5.764   4.614  3.4446  0.8868  3.4246
 1716SOL    HW2 6590   7.214   5.905   4.662 -1.7000  1.8357 -1.1184
 1717SOL     OW 6591   6.827   2.451   3.965 -0.6635 -0.9382  0.0705
 1717SOL    HW1 6592   6.866   2.367   3.989  0.4062 -0.4309  0.1969
 1717SOL    HW2 6593   6.852   2.510   4.036  2.6790  0.6368 -2.1357
 1718SOL     OW 6594   1.873   1.766   4.605 -0.2422  0.5673  0.3955
 1718SOL    HW1 6595   1.836   1.679   4.618  0.0903  0.1048 -1.4797
 1718SOL    HW2 6596   1.967   1.755   4.622 -0.1154  0.4273 -0.3904
 1719SOL     OW 6597   1.574   2.008   2.110  0.0208  0.4478 -0.7940
 1719SOL    HW1 6598   1.568   1.940   2.177  1.3369 -0.0746 -1.1772
 1719SOL    HW2 6599   1.544   1.964   2.030  0.2965  0.4999 -0.9245
 1720SOL     OW 6600   7.935   3.514   1.590  0.0932 -0.1131 -0.2359
 1720SOL    HW1 6601   7.899   3.538   1.675  0.7917  2.0690 -0.4819
 1720SOL    HW2 6602   7.956   3.421   1.597 -1.1404 -0.3035  1.4801
 1721SOL     OW 6603   1.882   4.123   3.698 -0.4130 -0.1870 -0.0132
 1721SOL    HW1 6604   1.885   4.125   3.794  0.8244  1.0413 -0.0385
 1721SOL    HW2 6605   1.973   4.132   3.671 -0.5691 -1.9943 -1.3358
 1722SOL     OW 6606   0.966   3.496   2.971 -0.2159 -0.2707 -0.4434
 1722SOL    HW1 6607   0.989   3.473   3.062  2.0016 -0.2972 -0.9592
 1722SOL    HW2 6608   0.946   3.589   2.974  1.2910  0.0628 -0.1465
 1723SOL     OW 6609   7.653   4.256   3.670  0.0418  0.2345 -0.0080
 1723SOL    HW1 6610   7.601   4.333   3.691 -0.1972  1.2946 -3.6674
 1723SOL    HW2 6611   7.724   4.289   3.615  0.9288 -1.9506 -0.2726
 1724SOL     OW 6612   1.906   2.957   3.197 -0.1689  0.3637  0.5267
 1724SOL    HW1 6613   1.971   3.021   3.169  0.1206 -0.1318  0.0259
 1724SOL    HW2 6614   1.822   3.000   3.184  0.0648  1.6335  2.7281
 1725SOL     OW 6615   0.504   3.955   3.520  0.8409  0.0980  0.1209
 1725SOL    HW1 6616   0.594   3.982   3.538  0.2970  2.0017  0.2392
 1725SOL    HW2 6617   0.450   4.021   3.564 -0.6116 -1.0365  0.0991
 1726SOL     OW 6618   1.192   2.605   1.761 -0.1373 -0.3587 -0.2177
 1726SOL    HW1 6619   1.251   2.589   1.687  0.0501  0.7982 -0.3390
 1726SOL    HW2 6620   1.249   2.601   1.838 -0.6058 -3.2060  0.0663
 1727SOL     OW 6621   1.168   2.978   2.787 -0.1909  0.7648  0.2444
 1727SOL    HW1 6622   1.105   2.971   2.715 -1.4319 -0.2502  1.3890
 1727SOL    HW2 6623   1.202   2.889   2.798  0.3318  1.0079  0.6189
 1728SOL     OW 6624   7.867   1.602   2.958  0.2858 -0.3702 -0.4214
 1728SOL    HW1 6625   7.960   1.624   2.958  0.1469  0.3400 -1.9175
 1728SOL    HW2 6626   7.860   1.527   3.017  1.4888  0.7283  1.2186
 1729SOL     OW 6627   0.051   5.331   4.406  0.1355  0.1430  0.1991
 1729SOL    HW1 6628   0.036   5.325   4.500 -2.1727  0.3160 -0.1025
 1729SOL    HW2 6629   0.113   5.404   4.396 -0.1605  0.5912  1.5244
 1730SOL     OW 6630   2.649   1.926   1.317 -0.7624  0.2702 -0.1469
 1730SOL    HW1 6631   2.606   1.984   1.253 -0.6668  0.1205 -0.3486
 1730SOL    HW2 6632   2.712   1.877   1.265  0.2766  1.1027  0.2853
 1731SOL     OW 6633   4.090   0.929   5.890  0.0321 -0.2402 -0.4019
 1731SOL    HW1 6634   4.076   0.929   5.795  0.5565  0.5240 -0.4831
 1731SOL    HW2 6635   4.131   0.845   5.908 -0.7522 -0.7077 -0.7430
 1732SOL     OW 6636   1.497   1.473   3.677 -0.1640 -0.3646 -0.3045
 1732SOL    HW1 6637   1.478   1.383   3.702 -1.5229  0.2730  1.0990
 1732SOL    HW2 6638   1.417   1.504   3.635 -0.7311  0.9685  1.6117
 1733SOL     OW 6639   0.048   3.462   2.660 -0.1849  0.4611 -0.0423
 1733SOL    HW1 6640   0.142   3.460   2.679 -0.4572 -0.2590  1.3544
 1733SOL    HW2 6641   0.005   3.453   2.745 -1.5149 -0.2862 -0.7454
 1734SOL     OW 6642   2.772   3.612   1.378  0.4791 -0.3141  0.1968
 1734SOL    HW1 6643   2.833   3.600   1.451  2.1566 -1.1552 -1.2542
 1734SOL    HW2 6644   2.718   3.534   1.377 -0.3672  0.2327  1.2197
 1735SOL     OW 6645   7.436   4.262   1.951 -0.4107  0.0531 -0.7113
 1735SOL    HW1 6646   7.521   4.219   1.945 -0.6476 -0.4453 -0.5334
 1735SOL    HW2 6647   7.455   4.348   1.988 -0.0717 -0.3446  0.0595
 1736SOL     OW 6648   2.845   1.881   0.310 -0.0122  0.3639  0.1955
 1736SOL    HW1 6649   2.935   1.851   0.303 -0.1849 -0.3627  1.0523
 1736SOL    HW2 6650   2.852   1.975   0.329  0.5215  1.0845 -2.9217
 1737SOL     OW 6651   1.215   3.466   3.628 -0.2276 -0.0082 -0.2949
 1737SOL    HW1 6652   1.281   3.479   3.561 -0.1349 -0.2887 -0.2601
 1737SOL    HW2 6653   1.210   3.550   3.675 -0.9016  0.4660 -1.1867
 1738SOL     OW 6654   1.516   3.662   1.090  0.2141 -0.3412  0.0545
 1738SOL    HW1 6655   1.502   3.658   1.185 -3.4992  2.4640 -0.1303
 1738SOL    HW2 6656   1.454   3.598   1.055  0.1326  0.0353 -0.5009
 1739SOL     OW 6657   1.308   1.486   3.883 -0.1275 -0.9535  0.4545
 1739SOL    HW1 6658   1.387   1.487   3.938  0.3072 -0.9244 -0.1662
 1739SOL    HW2 6659   1.243   1.534   3.934  0.7237  0.4229  0.2913
 1740SOL     OW 6660   0.984   3.888   3.703  0.2809  0.5898 -0.3017
 1740SOL    HW1 6661   1.039   3.951   3.657  0.3806  0.0548 -0.9287
 1740SOL    HW2 6662   1.046   3.830   3.748  0.3649 -1.0401 -2.3367
 1741SOL     OW 6663   1.492   3.154   1.855  0.4405  0.3983  0.3892
 1741SOL    HW1 6664   1.564   3.180   1.912 -0.0461 -1.1450  1.7731
 1741SOL    HW2 6665   1.481   3.061   1.871 -1.3390  0.4341 -0.4032
 1742SOL     OW 6666   1.211   3.239   2.705  0.1534 -0.4799 -0.1368
 1742SOL    HW1 6667   1.234   3.213   2.616 -0.4194 -0.2447 -0.3591
 1742SOL    HW2 6668   1.202   3.157   2.753  0.6336 -0.6011 -0.2528
 1743SOL     OW 6669   0.477   4.374   0.470 -1.0395 -0.2647  0.6239
 1743SOL    HW1 6670   0.493   4.285   0.441  0.1131 -0.3993  1.6000
 1743SOL    HW2 6671   0.563   4.416   0.471 -1.6372  1.0900 -0.4644
 1744SOL     OW 6672   1.433   3.834   1.882  0.4994  0.3635  0.1175
 1744SOL    HW1 6673   1.454   3.791   1.799  0.9856 -0.0247  0.4374
 1744SOL    HW2 6674   1.377   3.907   1.857  0.1979 -0.0718 -0.4982
 1745SOL     OW 6675   1.571   3.634   4.361  0.0027  0.3083  0.2733
 1745SOL    HW1 6676   1.596   3.566   4.299  0.0685  0.9992 -0.4706
 1745SOL    HW2 6677   1.647   3.642   4.419  0.4266  0.4846 -0.2968
 1746SOL     OW 6678   1.174   2.439   3.020 -0.1606 -0.3870 -0.3753
 1746SOL    HW1 6679   1.224   2.386   3.082 -0.0275 -1.1580 -1.1146
 1746SOL    HW2 6680   1.201   2.406   2.934 -1.7344 -0.6535 -0.8008
 1747SOL     OW 6681   1.643   2.499   2.674  0.3010 -0.2121 -0.3285
 1747SOL    HW1 6682   1.606   2.512   2.761  1.8551 -0.6129  0.4315
 1747SOL    HW2 6683   1.578   2.536   2.614 -0.8229  0.0174  0.9863
 1748SOL     OW 6684   0.256   2.174   2.253  0.3403  0.4636  0.1150
 1748SOL    HW1 6685   0.248   2.180   2.348 -0.8729 -1.3449  0.1919
 1748SOL    HW2 6686   0.333   2.118   2.239 -0.8069 -1.2074  0.1645
 1749SOL     OW 6687   1.139   3.619   4.406  0.2737 -0.0344 -0.0094
 1749SOL    HW1 6688   1.082   3.557   4.359 -0.6774  0.2994  0.6652
 1749SOL    HW2 6689   1.079   3.688   4.436  1.2486  0.9816 -0.3579
 1750SOL     OW 6690   0.846   1.641   2.744 -0.5989  0.2103  0.1294
 1750SOL    HW1 6691   0.785   1.627   2.816  0.0079  2.0186  1.0341
 1750SOL    HW2 6692   0.802   1.601   2.668 -0.8790 -2.4798  1.5760
 1751SOL     OW 6693   0.612   2.207   6.166 -0.0482  0.2269 -0.1834
 1751SOL    HW1 6694   0.663   2.140   6.120  1.6139  2.0010 -1.0440
 1751SOL    HW2 6695   0.543   2.230   6.103  0.4626  0.5872 -0.6183
 1752SOL     OW 6696   1.350   4.496   4.576 -0.1902  0.2206  0.3969
 1752SOL    HW1 6697   1.348   4.443   4.497  0.1001  0.2784  0.3485
 1752SOL    HW2 6698   1.357   4.433   4.648 -1.1790  0.1359  0.4231
 1753SOL     OW 6699   1.817   3.174   4.498 -0.1078 -0.2983  0.4146
 1753SOL    HW1 6700   1.911   3.179   4.512 -0.1368  1.1275  0.1714
 1753SOL    HW2 6701   1.806   3.188   4.404 -0.5842 -0.3129  0.4645
 1754SOL     OW 6702   1.060   3.102   1.828  0.1380  0.1363  0.5455
 1754SOL    HW1 6703   1.136   3.058   1.790 -0.1522 -0.1540  0.2953
 1754SOL    HW2 6704   0.985   3.058   1.788 -0.2168 -1.0602  2.4180
 1755SOL     OW 6705   7.208   0.987   2.909 -0.2332  0.1558 -0.0277
 1755SOL    HW1 6706   7.140   0.994   2.976  1.1619  0.4336  1.4263
 1755SOL    HW2 6707   7.229   0.894   2.905  1.6885  0.3881  2.1345
 1756SOL     OW 6708   6.649   2.513   1.569  0.8993 -0.1813 -0.3124
 1756SOL    HW1 6709   6.705   2.439   1.594  0.2055 -0.5678  0.1533
 1756SOL    HW2 6710   6.696   2.590   1.598  1.1795 -0.5026  0.0974
 1757SOL     OW 6711   1.105   4.389   1.493 -0.9972 -0.1372 -0.2198
 1757SOL    HW1 6712   1.151   4.433   1.564 -1.5908 -0.7911  0.5791
 1757SOL    HW2 6713   1.019   4.430   1.492 -0.6126  0.7123 -1.3698
 1758SOL     OW 6714   2.273   3.430   3.466  0.4375 -0.2895 -0.1459
 1758SOL    HW1 6715   2.280   3.426   3.562 -3.2691  0.5613  0.3003
 1758SOL    HW2 6716   2.180   3.419   3.448  0.6748  1.8431 -3.5346
 1759SOL     OW 6717   5.966   1.385   3.364  0.0576 -0.3045  0.4630
 1759SOL    HW1 6718   5.936   1.357   3.451  0.2076 -1.6100  0.1161
 1759SOL    HW2 6719   6.051   1.426   3.381 -0.0830 -0.2146  0.9821
 1760SOL     OW 6720   2.586   1.218   2.523  0.0772 -0.2787 -0.2279
 1760SOL    HW1 6721   2.538   1.193   2.602  0.8627 -1.9661 -0.2239
 1760SOL    HW2 6722   2.563   1.150   2.459  0.4624  0.3396 -1.0425
 1761SOL     OW 6723   2.121   4.033   4.275  0.4460 -0.3840 -0.1140
 1761SOL    HW1 6724   2.099   4.085   4.197  1.5361  1.7137  0.9048
 1761SOL    HW2 6725   2.213   4.011   4.264  0.0842 -1.8636 -0.3595
 1762SOL     OW 6726   0.937   2.380   2.782 -0.1899 -0.2083 -0.4186
 1762SOL    HW1 6727   0.917   2.288   2.768  0.3892 -0.1983 -1.3673
 1762SOL    HW2 6728   0.954   2.415   2.695 -0.5329  0.8313 -0.0871
 1763SOL     OW 6729   1.949   2.634   4.030  0.3709 -0.9177 -0.1669
 1763SOL    HW1 6730   1.935   2.547   3.992  0.9750 -1.4634  0.8222
 1763SOL    HW2 6731   2.005   2.619   4.106  0.7696  0.3851 -0.1713
 1764SOL     OW 6732   1.579   2.104   2.405  0.8567  0.4466 -0.1979
 1764SOL    HW1 6733   1.606   2.173   2.345 -0.0641  0.8745 -0.1274
 1764SOL    HW2 6734   1.622   2.127   2.488  1.0269  0.6052 -0.3287
 1765SOL     OW 6735   1.057   3.216   3.668  0.5489  0.2723 -0.1093
 1765SOL    HW1 6736   1.038   3.208   3.761 -0.9605  0.8422 -0.3316
 1765SOL    HW2 6737   1.118   3.290   3.662 -2.4498  3.0204  0.1937
 1766SOL     OW 6738   1.287   1.473   3.445 -0.4423  0.3030  0.3339
 1766SOL    HW1 6739   1.323   1.502   3.361  1.9198  0.5015  1.3522
 1766SOL    HW2 6740   1.287   1.377   3.440  1.3487  0.2536  0.7066
 1767SOL     OW 6741   1.082   1.495   1.501  0.4618  0.4577  0.4360
 1767SOL    HW1 6742   1.167   1.517   1.539  0.8770  0.9450 -0.6994
 1767SOL    HW2 6743   1.057   1.574   1.452 -0.0972 -0.0839 -0.1722
 1768SOL     OW 6744   1.363   1.886   1.663 -0.0529  0.1524  0.5011
 1768SOL    HW1 6745   1.402   1.834   1.593  0.1772  0.2517  0.5535
 1768SOL    HW2 6746   1.387   1.841   1.744 -1.1459 -0.5099  0.4766
 1769SOL     OW 6747   0.904   3.240   1.468  0.8713 -0.0057  0.2013
 1769SOL    HW1 6748   0.898   3.147   1.445  0.4981  0.0590  0.0225
 1769SOL    HW2 6749   0.883   3.243   1.561 -0.3829  0.0239 -0.0517
 1770SOL     OW 6750   1.617   1.600   3.375  0.2677  0.5281 -0.1101
 1770SOL    HW1 6751   1.554   1.591   3.304  0.8418  0.0481 -0.5625
 1770SOL    HW2 6752   1.574   1.559   3.450 -0.0672  0.4432 -0.3467
 1771SOL     OW 6753   3.071   1.585   1.581 -0.7753  0.2125 -0.6874
 1771SOL    HW1 6754   3.002   1.600   1.646  0.3560 -1.2250  0.9427
 1771SOL    HW2 6755   3.124   1.664   1.584  0.3248 -0.5238  1.6003
 1772SOL     OW 6756   1.920   1.488   1.897  0.0185  0.0050 -1.0937
 1772SOL    HW1 6757   1.890   1.475   1.807  1.8811 -1.3046 -1.5748
 1772SOL    HW2 6758   2.001   1.538   1.888  0.2029 -0.1070 -0.1452
 1773SOL     OW 6759   0.374   5.362   3.471 -0.2438  0.5724 -0.0240
 1773SOL    HW1 6760   0.399   5.286   3.523  0.2306  0.9376  0.2950
 1773SOL    HW2 6761   0.388   5.437   3.529  1.9260  1.1564 -1.1797
 1774SOL     OW 6762   1.415   3.151   3.274 -0.6190 -0.2872  0.1685
 1774SOL    HW1 6763   1.384   3.134   3.185  0.6383  0.0613 -0.3573
 1774SOL    HW2 6764   1.374   3.083   3.328 -0.1176 -1.5178 -0.9541
 1775SOL     OW 6765   7.965   1.633  12.374 -0.2973  0.1345 -0.3725
 1775SOL    HW1 6766   7.936   1.724  12.378 -0.2341  0.1102  1.0303
 1775SOL    HW2 6767   8.058   1.636  12.396 -0.5205 -0.3576  0.7056
 1776SOL     OW 6768   1.028   3.162   3.938 -0.0765 -0.3880  0.6125
 1776SOL    HW1 6769   1.036   3.074   3.975  0.7389 -0.5394  0.0965
 1776SOL    HW2 6770   1.091   3.215   3.988 -0.5351 -0.1000  0.8945
 1777SOL     OW 6771   0.643   3.247   5.086  0.3195  0.5903 -0.3867
 1777SOL    HW1 6772   0.736   3.269   5.092 -0.1833  3.8128 -2.0852
 1777SOL    HW2 6773   0.627   3.235   4.992 -0.9253 -0.3398 -0.0892
 1778SOL     OW 6774   1.081   3.475   5.247  0.7106 -0.0839  0.3925
 1778SOL    HW1 6775   1.045   3.449   5.162 -0.0616  3.5094 -0.5793
 1778SOL    HW2 6776   1.005   3.495   5.301  1.2247 -0.4626  1.2796
 1779SOL     OW 6777   2.003   2.230   5.560 -0.5108 -0.1001  0.1303
 1779SOL    HW1 6778   2.097   2.235   5.544 -0.4313 -0.0091  0.6192
 1779SOL    HW2 6779   1.981   2.138   5.544 -0.4822  0.0363 -0.7331
 1780SOL     OW 6780   1.368   3.203   2.493 -0.6330  0.0887  0.3910
 1780SOL    HW1 6781   1.366   3.282   2.438  1.8692  0.2398  0.4307
 1780SOL    HW2 6782   1.459   3.196   2.522 -1.0214 -2.2688  1.2137
 1781SOL     OW 6783   1.507   2.264   0.759 -0.1410  0.4597 -0.2125
 1781SOL    HW1 6784   1.539   2.260   0.669  0.0267 -0.9594 -0.1064
 1781SOL    HW2 6785   1.436   2.328   0.756 -1.1309 -0.6406 -1.6931
 1782SOL     OW 6786   2.124   2.050   5.304 -0.1036  0.2350  0.2546
 1782SOL    HW1 6787   2.140   2.085   5.392  1.1646 -1.5246  0.7815
 1782SOL    HW2 6788   2.106   2.127   5.250  1.2231  1.5573  1.6075
 1783SOL     OW 6789   6.125   2.644   2.692  0.4603 -0.2193  0.2970
 1783SOL    HW1 6790   6.204   2.692   2.671  0.6956 -0.8593 -0.2936
 1783SOL    HW2 6791   6.057   2.711   2.697  0.8119  0.1973 -0.3632
 1784SOL     OW 6792   0.651   3.963   3.235 -0.2442  0.0460 -0.0405
 1784SOL    HW1 6793   0.631   3.958   3.328  0.2338  0.2299  0.0725
 1784SOL    HW2 6794   0.746   3.951   3.230  0.2176  3.1452 -0.2406
 1785SOL     OW 6795   1.192   3.132   2.199  0.2837 -0.0983 -0.1632
 1785SOL    HW1 6796   1.166   3.221   2.221 -0.8089 -0.2782 -0.6124
 1785SOL    HW2 6797   1.287   3.134   2.196  0.4023  0.4553  2.2532
 1786SOL     OW 6798   1.030   3.994   1.656 -0.2460  0.1330  0.1033
 1786SOL    HW1 6799   1.040   3.899   1.664  1.6627  0.2002 -0.9735
 1786SOL    HW2 6800   1.015   4.009   1.563 -0.0645  0.9240  0.1938
 1787SOL     OW 6801   0.282   1.596   1.196 -0.0307 -0.1578 -0.1723
 1787SOL    HW1 6802   0.282   1.508   1.235 -0.9124 -0.2864 -0.4478
 1787SOL    HW2 6803   0.191   1.612   1.172  0.1779  0.7074 -0.4237
 1788SOL     OW 6804   7.012   1.235   1.951  0.2800 -0.4480  0.2364
 1788SOL    HW1 6805   7.042   1.244   1.861 -0.6514 -1.2659 -0.1710
 1788SOL    HW2 6806   7.091   1.216   2.001  0.9570  0.9951 -0.2361
 1789SOL     OW 6807   3.345   3.109   2.262  0.2041  0.1551 -0.4491
 1789SOL    HW1 6808   3.362   3.056   2.340 -0.7128 -0.3996 -0.6085
 1789SOL    HW2 6809   3.432   3.132   2.229  0.6125  1.4386  1.4047
 1790SOL     OW 6810   0.233   5.041   3.343  0.7338 -0.0263 -0.2155
 1790SOL    HW1 6811   0.261   5.117   3.395  0.6965  0.3582 -0.7408
 1790SOL    HW2 6812   0.235   5.073   3.253 -0.8285 -0.1563 -0.3217
 1791SOL     OW 6813   1.952   2.677   3.132  0.0492  0.0027  0.0351
 1791SOL    HW1 6814   1.879   2.615   3.129  1.1492 -1.3126 -1.6896
 1791SOL    HW2 6815   1.913   2.759   3.159 -1.6526 -1.1947  1.4314
 1792SOL     OW 6816   7.091   5.131   2.601 -0.5800 -0.4771  0.2768
 1792SOL    HW1 6817   7.109   5.041   2.575 -2.5185 -0.6853 -0.5565
 1792SOL    HW2 6818   7.099   5.182   2.520 -0.9482 -0.1544  0.4348
 1793SOL     OW 6819   0.602   3.130   3.206 -1.0808  0.2590 -0.5036
 1793SOL    HW1 6820   0.619   3.055   3.148 -0.0940  0.9823 -1.1904
 1793SOL    HW2 6821   0.663   3.197   3.176 -0.8600  0.8102  1.1085
 1794SOL     OW 6822   0.499   3.309   5.428 -0.0801  0.1485 -0.0701
 1794SOL    HW1 6823   0.443   3.243   5.468  0.3857 -1.5978 -2.1026
 1794SOL    HW2 6824   0.574   3.260   5.393  0.3658  1.7475 -1.5498
 1795SOL     OW 6825   0.119   3.128   4.940  0.1562  0.0450 -0.3226
 1795SOL    HW1 6826   0.147   3.200   4.883 -0.2191 -0.4745 -1.1941
 1795SOL    HW2 6827   0.025   3.122   4.926  0.4421 -1.8897 -1.8373
 1796SOL     OW 6828   0.306   3.465   2.697 -0.3103  0.2286 -0.0529
 1796SOL    HW1 6829   0.279   3.527   2.630 -0.6999  1.5736  1.3028
 1796SOL    HW2 6830   0.395   3.493   2.721 -0.1801 -0.2315  0.0164
 1797SOL     OW 6831   0.675   2.772   3.699 -0.0587 -0.2475 -0.2209
 1797SOL    HW1 6832   0.597   2.743   3.747  0.1392 -0.0141  0.2469
 1797SOL    HW2 6833   0.748   2.730   3.745  0.2522  1.0957  0.5673
 1798SOL     OW 6834   1.724   2.258   2.586 -0.3624 -0.1601  0.1607
 1798SOL    HW1 6835   1.699   2.344   2.619 -0.4636 -0.6509  1.4313
 1798SOL    HW2 6836   1.803   2.274   2.535 -0.7846  0.7831 -0.2182
 1799SOL     OW 6837   0.576   2.940   2.999 -0.4604  0.0351  0.1138
 1799SOL    HW1 6838   0.507   3.001   2.975 -0.1885  1.2129  2.1418
 1799SOL    HW2 6839   0.610   2.908   2.915 -0.6837  2.5712 -1.0214
 1800SOL     OW 6840   0.261   3.383   3.521  0.4452  0.3190 -0.2079
 1800SOL    HW1 6841   0.351   3.353   3.514  1.4705  2.5196  1.9327
 1800SOL    HW2 6842   0.263   3.473   3.489 -0.8356  0.5915  0.4014
 1801SOL     OW 6843   6.198   3.502   4.910  0.5161 -0.7735  0.6095
 1801SOL    HW1 6844   6.287   3.524   4.883  0.3854  0.0585  0.8193
 1801SOL    HW2 6845   6.208   3.443   4.984  0.8958 -0.7314  0.5902
 1802SOL     OW 6846   1.293   2.091   2.396 -0.4107  0.2119  0.4079
 1802SOL    HW1 6847   1.259   2.179   2.383  0.9665  1.0683  2.1640
 1802SOL    HW2 6848   1.386   2.098   2.377 -0.1974 -0.7509  1.0193
 1803SOL     OW 6849   3.384   1.735   3.950  0.0994 -0.1689 -0.7083
 1803SOL    HW1 6850   3.445   1.747   3.877  0.7143  1.9551  0.0925
 1803SOL    HW2 6851   3.376   1.640   3.958  0.5200 -0.4879 -3.0938
 1804SOL     OW 6852   7.870   1.979   1.944 -0.7461 -0.3970 -0.5257
 1804SOL    HW1 6853   7.931   2.037   1.990  0.7725 -1.8830 -0.5940
 1804SOL    HW2 6854   7.880   2.003   1.852 -1.1313  0.1224 -0.4417
 1805SOL     OW 6855   2.202   2.275   3.481  0.1323 -0.0751 -0.0953
 1805SOL    HW1 6856   2.117   2.237   3.506 -1.1802  2.8296  0.2506
 1805SOL    HW2 6857   2.253   2.274   3.561 -0.6338  0.6797  0.4248
 1806SOL     OW 6858   0.043   2.439   3.326 -0.2656 -0.6104  0.2377
 1806SOL    HW1 6859   0.136   2.452   3.307 -0.6641  0.8382 -0.8884
 1806SOL    HW2 6860  -0.000   2.516   3.289 -1.7892 -0.5945  1.9339
 1807SOL     OW 6861   0.410   3.962   4.171 -0.2440 -0.3060  0.7630
 1807SOL    HW1 6862   0.457   3.956   4.255  0.0750  3.2546  0.9850
 1807SOL    HW2 6863   0.449   4.038   4.128 -2.1915 -0.4899 -1.4846
 1808SOL     OW 6864   2.280   2.105   5.596  0.3718  1.1745 -0.3647
 1808SOL    HW1 6865   2.323   2.057   5.525  0.1231  0.3970  0.0049
 1808SOL    HW2 6866   2.327   2.079   5.675 -0.5091  0.6318 -0.0085
 1809SOL     OW 6867   1.221   4.577   2.691  0.2500 -0.0333 -0.7756
 1809SOL    HW1 6868   1.165   4.589   2.615 -1.4601  0.6446  0.5296
 1809SOL    HW2 6869   1.285   4.648   2.686 -1.7959  1.9727  0.0236
 1810SOL     OW 6870   0.739   2.616   4.057 -0.1019  0.0815  0.4301
 1810SOL    HW1 6871   0.764   2.675   4.128  0.3863 -0.0108  0.3431
 1810SOL    HW2 6872   0.795   2.642   3.983 -0.6955  0.2629  0.0353
 1811SOL     OW 6873   1.073   1.803   2.729  0.2140  0.3126  0.0180
 1811SOL    HW1 6874   1.078   1.852   2.647 -1.1344  2.3108  1.0513
 1811SOL    HW2 6875   1.011   1.732   2.711  0.9145 -0.0687 -1.0173
 1812SOL     OW 6876   1.371   2.756   2.136  0.3996  0.5886 -0.8107
 1812SOL    HW1 6877   1.358   2.781   2.228  0.1592 -0.3843 -0.5678
 1812SOL    HW2 6878   1.296   2.793   2.090  1.0334  1.9323 -0.7942
 1813SOL     OW 6879   2.573   1.648   1.683 -0.4364 -0.2434  0.2331
 1813SOL    HW1 6880   2.569   1.564   1.637 -0.1144 -1.1428  1.7907
 1813SOL    HW2 6881   2.544   1.712   1.618  0.7655 -1.3414 -1.4773
 1814SOL     OW 6882   0.799   3.579   3.212 -0.1818 -0.4471 -0.1122
 1814SOL    HW1 6883   0.872   3.582   3.275  0.6749  0.5882 -1.1041
 1814SOL    HW2 6884   0.828   3.636   3.141 -1.9734 -0.0323 -0.5393
 1815SOL     OW 6885   0.567   1.873   3.621 -0.4132 -0.3997 -0.4304
 1815SOL    HW1 6886   0.515   1.815   3.677 -0.2983  0.8734  1.0358
 1815SOL    HW2 6887   0.633   1.910   3.679 -0.6515  1.4134 -1.2564
 1816SOL     OW 6888   1.237   2.833   4.151 -0.2097  0.5390  0.1808
 1816SOL    HW1 6889   1.164   2.789   4.194  0.3770 -0.5885  0.0519
 1816SOL    HW2 6890   1.206   2.849   4.062 -0.3463  0.1891  0.1666
 1817SOL     OW 6891   2.255   4.522   1.205  0.3799 -0.4150 -0.5229
 1817SOL    HW1 6892   2.200   4.587   1.160 -0.7177 -0.8029  0.2205
 1817SOL    HW2 6893   2.193   4.464   1.249  1.3949 -0.5740  0.7631
 1818SOL     OW 6894   2.170   2.618   4.218  0.4851  0.5978 -0.1195
 1818SOL    HW1 6895   2.264   2.625   4.236  0.7809 -1.3690 -0.6451
 1818SOL    HW2 6896   2.134   2.703   4.242  1.7753  0.2260  3.7522
 1819SOL     OW 6897   0.313   3.148   2.100 -0.2544 -0.2326  0.1137
 1819SOL    HW1 6898   0.330   3.213   2.167 -0.4044  0.5318 -0.5779
 1819SOL    HW2 6899   0.241   3.185   2.048 -1.3092 -1.5748  0.5451
 1820SOL     OW 6900   0.752   4.104   4.560 -0.8974 -0.4025 -1.0540
 1820SOL    HW1 6901   0.754   4.170   4.491 -0.2600  2.0513  1.1543
 1820SOL    HW2 6902   0.841   4.070   4.565 -0.4925  0.7280 -0.3035
 1821SOL     OW 6903   6.635   2.956   2.721 -0.5509  0.3082 -0.6051
 1821SOL    HW1 6904   6.645   2.880   2.664 -2.7579 -1.1702  0.8241
 1821SOL    HW2 6905   6.558   3.002   2.688  0.5419  1.8049 -1.2237
 1822SOL     OW 6906   0.083   3.399   3.841 -0.0779 -0.2371 -0.2313
 1822SOL    HW1 6907   0.101   3.311   3.808  0.8536 -0.2977  0.3951
 1822SOL    HW2 6908   0.063   3.450   3.763  0.9806 -0.6304 -0.7756
 1823SOL     OW 6909   1.784   2.030   5.869 -0.1136  0.2885  0.2951
 1823SOL    HW1 6910   1.699   2.008   5.907 -0.0486  0.8918  0.7876
 1823SOL    HW2 6911   1.827   2.083   5.935  0.1219  1.1022 -0.4955
 1824SOL     OW 6912   0.832   2.368   3.061 -0.0372 -0.0228 -0.4412
 1824SOL    HW1 6913   0.871   2.374   2.974  0.6955 -2.4880 -0.3703
 1824SOL    HW2 6914   0.838   2.275   3.083 -0.3611  0.5074  2.1885
 1825SOL     OW 6915   1.784   2.960   2.058 -0.3458  0.2970  0.5465
 1825SOL    HW1 6916   1.733   2.883   2.032  0.1848  0.5237 -1.2742
 1825SOL    HW2 6917   1.874   2.940   2.033 -0.5027  2.3517 -2.2158
 1826SOL     OW 6918   0.796   3.275   4.263 -0.4526 -0.0065 -0.2920
 1826SOL    HW1 6919   0.736   3.327   4.315 -1.1787 -1.2444  0.1479
 1826SOL    HW2 6920   0.798   3.319   4.178 -1.0503  0.7271  0.0603
 1827SOL     OW 6921   2.760   2.492   3.510  0.4801  0.6754 -0.1198
 1827SOL    HW1 6922   2.731   2.407   3.479  0.2312  0.8804 -0.4535
 1827SOL    HW2 6923   2.717   2.555   3.452 -1.4858  1.1654  1.7107
 1828SOL     OW 6924   1.039   2.670   1.970  0.5139 -0.1081  0.1825
 1828SOL    HW1 6925   1.062   2.744   2.026 -1.5136  0.4443  0.3682
 1828SOL    HW2 6926   1.103   2.672   1.899  0.1956  2.1968 -0.1184
 1829SOL     OW 6927   0.705   2.554   2.687  0.1237 -0.6295 -0.1010
 1829SOL    HW1 6928   0.641   2.558   2.615 -1.8051  0.5000  1.5806
 1829SOL    HW2 6929   0.651   2.547   2.766  2.1172  0.0021  1.3697
 1830SOL     OW 6930   7.008   2.694   2.672 -0.0113  0.3349  0.3129
 1830SOL    HW1 6931   6.972   2.644   2.745 -2.7296  0.0978 -1.0486
 1830SOL    HW2 6932   7.057   2.630   2.620  0.0905  0.0304  0.7820
 1831SOL     OW 6933   2.066   3.866   3.881  0.5259 -0.0870  0.0438
 1831SOL    HW1 6934   2.071   3.772   3.863  1.0887 -0.1090  0.2897
 1831SOL    HW2 6935   2.126   3.905   3.818 -0.0814  0.1644 -0.3943
 1832SOL     OW 6936   2.205   1.958   4.007 -0.2603 -0.4477 -0.9653
 1832SOL    HW1 6937   2.181   2.033   4.062  2.0517 -1.0168  0.9886
 1832SOL    HW2 6938   2.278   1.989   3.954 -0.2012 -0.9234 -1.1683
 1833SOL     OW 6939   3.194   1.995   2.829 -0.2702 -0.0410 -0.3028
 1833SOL    HW1 6940   3.228   1.925   2.884  0.2065 -0.5242 -1.1886
 1833SOL    HW2 6941   3.207   1.963   2.740 -0.5537  0.9431 -0.7038
 1834SOL     OW 6942   0.838   3.824   5.056 -0.0133  0.0925  0.4505
 1834SOL    HW1 6943   0.859   3.854   5.145  1.9245  0.0073  0.0649
 1834SOL    HW2 6944   0.868   3.895   4.999  3.0423 -1.6830 -0.3750
 1835SOL     OW 6945   0.525   3.265   2.740 -0.0963  0.3410  0.1903
 1835SOL    HW1 6946   0.457   3.231   2.797  0.7875 -2.1481 -0.1455
 1835SOL    HW2 6947   0.541   3.196   2.676  1.6706  1.4712 -0.6904
 1836SOL     OW 6948   1.155   3.404   5.977 -0.1830 -0.3764  0.3677
 1836SOL    HW1 6949   1.220   3.449   5.923 -0.4453  0.0640  0.4143
 1836SOL    HW2 6950   1.092   3.369   5.914  0.6950 -1.8169  0.2277
 1837SOL     OW 6951   2.717   3.564   2.322 -0.1572 -0.3778 -0.0621
 1837SOL    HW1 6952   2.680   3.636   2.273  0.5534  0.5639  0.7430
 1837SOL    HW2 6953   2.810   3.564   2.299 -0.3109 -1.6929 -0.8267
 1838SOL     OW 6954   1.549   3.864   3.619 -0.0177 -0.8713  0.2068
 1838SOL    HW1 6955   1.506   3.946   3.640 -0.1002 -1.4328  2.4546
 1838SOL    HW2 6956   1.485   3.816   3.566  0.2412  0.6703 -1.5819
 1839SOL     OW 6957   1.770   4.437   3.458  0.3158  0.6860  0.4460
 1839SOL    HW1 6958   1.729   4.368   3.406 -1.9437  2.5321 -0.3903
 1839SOL    HW2 6959   1.861   4.410   3.466 -0.5296 -2.5481  0.5054
 1840SOL     OW 6960   1.694   2.838   4.294 -0.4294 -0.5839  0.5399
 1840SOL    HW1 6961   1.755   2.886   4.239  0.5836  0.8930  2.7887
 1840SOL    HW2 6962   1.618   2.896   4.301 -0.9377 -1.1693  0.0039
 1841SOL     OW 6963   1.247   3.737   3.741  0.0895  0.0137 -0.0930
 1841SOL    HW1 6964   1.291   3.733   3.656 -0.3548 -2.0961 -0.2612
 1841SOL    HW2 6965   1.318   3.741   3.804  0.4445  0.2436 -0.4976
 1842SOL     OW 6966   1.045   2.927   2.571 -0.2245  0.5784 -0.2905
 1842SOL    HW1 6967   0.977   2.943   2.505 -0.4043  0.5241 -0.1198
 1842SOL    HW2 6968   1.049   2.832   2.578 -0.2612  0.5866 -0.1642
 1843SOL     OW 6969   1.585   4.204   2.841  0.5860 -0.5381 -0.8936
 1843SOL    HW1 6970   1.559   4.207   2.933  0.5120  1.2634 -0.9302
 1843SOL    HW2 6971   1.533   4.133   2.804  1.4420 -2.0682  0.6594
 1844SOL     OW 6972   2.955   1.939   3.195 -0.8856 -0.2463  0.1163
 1844SOL    HW1 6973   2.912   1.933   3.281  1.6019 -1.8749  1.3668
 1844SOL    HW2 6974   2.987   2.029   3.190 -2.8091  0.4696 -0.0690
 1845SOL     OW 6975   0.840   1.901   0.506  0.1174  0.1605 -0.2506
 1845SOL    HW1 6976   0.880   1.938   0.585 -0.2372  2.7622 -1.1721
 1845SOL    HW2 6977   0.911   1.856   0.461  1.1204  1.4503 -0.0016
 1846SOL     OW 6978   1.383   3.574   0.340  0.6162 -0.1560  0.5079
 1846SOL    HW1 6979   1.341   3.503   0.292 -0.7027  1.3701 -0.7092
 1846SOL    HW2 6980   1.432   3.530   0.410 -2.3215 -2.0966  1.5136
 1847SOL     OW 6981   0.775   1.912   3.782  0.1218  0.1121  0.1025
 1847SOL    HW1 6982   0.795   2.004   3.798  0.7276  0.0319 -0.1866
 1847SOL    HW2 6983   0.850   1.878   3.734 -0.5462 -0.2819 -0.7070
 1848SOL     OW 6984   1.059   3.637   3.360  0.0961 -0.0703 -0.0968
 1848SOL    HW1 6985   1.045   3.728   3.334  0.9947  0.4895  1.2618
 1848SOL    HW2 6986   1.033   3.634   3.452 -1.3774 -1.5754 -0.5069
 1849SOL     OW 6987   0.842   2.904   2.786 -0.1911  0.0545  0.5189
 1849SOL    HW1 6988   0.891   2.963   2.843  1.3490  0.2099 -0.8964
 1849SOL    HW2 6989   0.839   2.821   2.834  1.0655  0.1840  0.8630
 1850SOL     OW 6990   0.554   2.231   2.874  0.4647 -0.0027 -0.5274
 1850SOL    HW1 6991   0.610   2.228   2.797  1.1217 -0.4455 -0.0529
 1850SOL    HW2 6992   0.578   2.152   2.924 -0.4836 -0.1224 -0.2413
 1851SOL     OW 6993   1.382   4.537   3.250 -0.7261  0.2672  0.4499
 1851SOL    HW1 6994   1.383   4.443   3.265 -2.7094 -0.0180 -0.8364
 1851SOL    HW2 6995   1.338   4.573   3.327 -1.5728 -0.0714  0.1366
 1852SOL     OW 6996   1.477   3.100   2.174  0.4357 -0.1341  0.4875
 1852SOL    HW1 6997   1.527   3.177   2.148  1.5425 -0.9249  0.1940
 1852SOL    HW2 6998   1.541   3.029   2.176 -0.5893 -1.0906  0.5651
 1853SOL     OW 6999   1.136   4.144   3.727 -0.1178  0.0948  0.2319
 1853SOL    HW1 7000   1.193   4.123   3.800 -0.4809 -1.6917  0.0511
 1853SOL    HW2 7001   1.063   4.192   3.766 -0.0285 -0.3449  0.9624
 1854SOL     OW 7002   7.509   3.898   2.469  0.1767  0.1503 -0.1246
 1854SOL    HW1 7003   7.486   3.960   2.399  0.9816  0.3978 -0.1899
 1854SOL    HW2 7004   7.543   3.822   2.422  0.1283  0.0651 -0.0196
 1855SOL     OW 7005   2.886   4.219   4.257  0.5784  0.1656 -0.4010
 1855SOL    HW1 7006   2.946   4.159   4.214  0.8233  0.0615  0.0846
 1855SOL    HW2 7007   2.921   4.230   4.345  0.7227  1.2678 -0.5770
 1856SOL     OW 7008   7.704   2.763   1.270 -0.3194  0.0003  0.3503
 1856SOL    HW1 7009   7.691   2.687   1.327 -1.2349 -2.0491 -2.3666
 1856SOL    HW2 7010   7.764   2.819   1.319 -0.5151 -1.8946  2.9962
 1857SOL     OW 7011   6.526   3.513   4.282  1.1861  0.3836  0.1167
 1857SOL    HW1 7012   6.537   3.556   4.197  0.7332  0.9766  0.3460
 1857SOL    HW2 7013   6.536   3.420   4.264  0.7326  0.4733 -0.6549
 1858SOL     OW 7014   7.745   1.964   2.780  0.5898 -0.6663  0.5761
 1858SOL    HW1 7015   7.654   1.936   2.789  0.7073 -0.8549  1.2192
 1858SOL    HW2 7016   7.739   2.051   2.740  0.2083 -1.3653 -0.9467
 1859SOL     OW 7017   0.918   1.480   1.967  0.6104  0.0993  0.7243
 1859SOL    HW1 7018   1.009   1.477   1.996  0.2943  0.2395  1.8136
 1859SOL    HW2 7019   0.868   1.458   2.046 -0.2651 -0.8917 -0.0878
 1860SOL     OW 7020   0.661   2.779   3.397  0.6660  0.2389  0.2365
 1860SOL    HW1 7021   0.656   2.875   3.391  0.1418  0.1213 -2.1632
 1860SOL    HW2 7022   0.645   2.760   3.490  0.5369  2.4478  0.7268
 1861SOL     OW 7023   7.280   2.342  11.802  0.4089  0.2191 -0.4234
 1861SOL    HW1 7024   7.252   2.433  11.801  1.1547  0.4763 -2.0169
 1861SOL    HW2 7025   7.338   2.335  11.878  1.1983  1.3634 -0.8933
 1862SOL     OW 7026   1.211   2.689   2.846  0.0845 -0.1251 -0.7486
 1862SOL    HW1 7027   1.246   2.608   2.808 -1.5980 -1.2839  0.0400
 1862SOL    HW2 7028   1.201   2.669   2.939 -0.4493  0.9653 -0.5548
 1863SOL     OW 7029   0.946   2.234   2.187 -0.2671 -0.2630  0.3764
 1863SOL    HW1 7030   0.920   2.320   2.155 -1.6983 -0.4465  0.9732
 1863SOL    HW2 7031   1.042   2.235   2.184 -0.2899  0.9622 -0.5952
 1864SOL     OW 7032   3.120   3.092   3.000 -0.9027  0.1115 -0.1438
 1864SOL    HW1 7033   3.063   3.022   3.033 -0.8265  0.4336  0.7062
 1864SOL    HW2 7034   3.209   3.059   3.015 -0.8574 -0.0435 -0.7148
 1865SOL     OW 7035   1.671   2.904   2.992  0.2591  0.1639  0.0795
 1865SOL    HW1 7036   1.712   2.839   3.048  1.0129  0.8128  0.3070
 1865SOL    HW2 7037   1.600   2.857   2.948  0.0386 -0.5050  1.1149
 1866SOL     OW 7038   3.027   2.444   5.648 -0.0811 -0.3433 -0.0443
 1866SOL    HW1 7039   3.052   2.531   5.617  1.5466 -0.8756 -0.2920
 1866SOL    HW2 7040   3.042   2.447   5.743  0.6343 -0.5596 -0.1472
 1867SOL     OW 7041   0.349   3.870   2.808  0.4329  0.7404 -0.3436
 1867SOL    HW1 7042   0.415   3.898   2.871  0.1878  0.2697  0.1264
 1867SOL    HW2 7043   0.269   3.857   2.860  0.3640 -0.1553 -0.6533
 1868SOL     OW 7044   1.693   0.953   3.292  0.0220 -0.0565  0.6129
 1868SOL    HW1 7045   1.779   0.990   3.311  0.3050 -1.5917  2.7225
 1868SOL    HW2 7046   1.638   0.981   3.365 -0.9527 -0.0448 -0.1144
 1869SOL     OW 7047   1.516   1.769   1.848 -0.0037 -0.0984  0.3420
 1869SOL    HW1 7048   1.609   1.786   1.865 -0.1373 -0.4307  1.4608
 1869SOL    HW2 7049   1.509   1.674   1.847 -0.4610 -0.0731  0.9796
 1870SOL     OW 7050   7.911   4.148   1.676  0.1082 -0.4206  0.0244
 1870SOL    HW1 7051   7.989   4.130   1.730  0.4794 -0.2016 -0.4305
 1870SOL    HW2 7052   7.917   4.241   1.657 -2.0383  0.3892  2.7419
 1871SOL     OW 7053   2.976   3.226   3.654  0.2247 -0.1149 -0.2621
 1871SOL    HW1 7054   3.037   3.295   3.678  0.9320 -0.9574  0.4421
 1871SOL    HW2 7055   2.924   3.211   3.733 -1.7700  1.4077 -1.1872
 1872SOL     OW 7056   2.460   2.076   2.289  0.0945  0.6980  0.3247
 1872SOL    HW1 7057   2.429   2.029   2.211 -0.9921  0.4868  0.8688
 1872SOL    HW2 7058   2.513   2.011   2.336  0.7381  0.8180 -0.2050
 1873SOL     OW 7059   1.497   3.601   2.976 -0.0641  0.0494  0.6977
 1873SOL    HW1 7060   1.495   3.520   2.925 -0.8152 -0.7525  1.9658
 1873SOL    HW2 7061   1.432   3.657   2.933 -1.4362 -0.9913  1.3113
 1874SOL     OW 7062   1.160   3.906   2.697 -0.3403  0.6274 -0.0074
 1874SOL    HW1 7063   1.146   3.876   2.608 -0.2975 -0.3948  0.3234
 1874SOL    HW2 7064   1.122   3.994   2.698 -1.2654  0.2636 -0.7609
 1875SOL     OW 7065   1.572   4.438   2.210  0.4633  0.0823  0.5148
 1875SOL    HW1 7066   1.537   4.430   2.298 -0.7968  0.6305  0.0883
 1875SOL    HW2 7067   1.655   4.390   2.212  0.2451 -0.2605  1.8720
 1876SOL     OW 7068   0.447   3.137   1.819 -0.5773  0.1030  0.4324
 1876SOL    HW1 7069   0.409   3.120   1.905 -1.8402  2.5345  0.4400
 1876SOL    HW2 7070   0.476   3.228   1.823 -3.3461  1.3085 -2.5785
 1877SOL     OW 7071   2.428   3.205   2.184 -0.0818  0.1213 -0.6117
 1877SOL    HW1 7072   2.521   3.209   2.159 -0.1812  0.4822 -0.9351
 1877SOL    HW2 7073   2.429   3.181   2.276  0.2906 -1.7467 -1.0438
 1878SOL     OW 7074   7.133   2.890   5.223  0.4394  0.2898  0.5988
 1878SOL    HW1 7075   7.141   2.984   5.240 -0.1094  0.7466 -1.4177
 1878SOL    HW2 7076   7.077   2.858   5.294 -0.5967  1.7839  0.5023
 1879SOL     OW 7077   7.424   3.344   1.425  0.2742 -0.1670 -0.1161
 1879SOL    HW1 7078   7.414   3.312   1.336 -0.7437  0.6394 -0.3136
 1879SOL    HW2 7079   7.455   3.269   1.475 -0.6446 -1.0481 -0.8490
 1880SOL     OW 7080   1.066   2.015   3.694  0.4642 -0.0145  0.1710
 1880SOL    HW1 7081   1.012   2.093   3.708  1.1735  0.5260 -0.0581
 1880SOL    HW2 7082   1.086   1.984   3.782 -3.0573 -2.2838  0.3947
 1881SOL     OW 7083   1.873   2.387   3.939 -0.0048  0.5814 -0.3496
 1881SOL    HW1 7084   1.932   2.319   3.907 -0.2901  0.0526  0.2359
 1881SOL    HW2 7085   1.788   2.363   3.902 -0.3768 -0.1361  0.9215
 1882SOL     OW 7086   7.647   1.794   1.758 -0.0043 -0.3656 -0.4977
 1882SOL    HW1 7087   7.645   1.764   1.848 -0.2791  0.0587 -0.3593
 1882SOL    HW2 7088   7.722   1.749   1.719  0.1652 -0.4844 -0.0370
 1883SOL     OW 7089   2.185   4.846   4.928  0.0811  0.1605 -0.4969
 1883SOL    HW1 7090   2.231   4.769   4.959 -2.0174 -1.4046 -1.0179
 1883SOL    HW2 7091   2.213   4.856   4.837  0.8203  0.4124 -0.2482
 1884SOL     OW 7092   0.763   3.776   4.125 -0.5104  0.2915  0.3209
 1884SOL    HW1 7093   0.779   3.842   4.058 -0.6554 -2.4218 -2.6449
 1884SOL    HW2 7094   0.668   3.775   4.137 -0.7188 -0.6767 -1.1795
 1885SOL     OW 7095   1.169   2.081   3.408 -0.0294 -0.1109  0.8055
 1885SOL    HW1 7096   1.128   2.065   3.494 -1.9686 -1.5772 -0.3126
 1885SOL    HW2 7097   1.098   2.117   3.355  0.7143 -0.7041 -0.6240
 1886SOL     OW 7098   0.318   2.510   4.872  0.0980 -0.1895  0.3468
 1886SOL    HW1 7099   0.298   2.422   4.840  2.0156 -0.2617 -0.7945
 1886SOL    HW2 7100   0.246   2.564   4.841 -0.0855 -1.0087 -0.7070
 1887SOL     OW 7101   7.910   4.642   2.427  0.0458 -0.0433  0.5800
 1887SOL    HW1 7102   7.834   4.594   2.462 -1.7259  2.4715  0.4416
 1887SOL    HW2 7103   7.921   4.609   2.338  1.0700 -2.5288  1.5377
 1888SOL     OW 7104   0.679   3.514   4.889 -0.3736  0.0221  0.5435
 1888SOL    HW1 7105   0.630   3.443   4.848  0.5569 -0.5720  0.4315
 1888SOL    HW2 7106   0.619   3.589   4.886 -2.2327 -1.2384  2.5618
 1889SOL     OW 7107   0.673   1.210   2.672 -0.2517  0.3293  0.3130
 1889SOL    HW1 7108   0.725   1.165   2.739 -1.4959  0.6244  1.5276
 1889SOL    HW2 7109   0.591   1.161   2.669 -0.3898  0.5973 -0.6910
 1890SOL     OW 7110   1.748   1.940   1.658  0.4826  0.6749  0.1597
 1890SOL    HW1 7111   1.738   1.868   1.720 -0.3279 -0.3676 -1.1226
 1890SOL    HW2 7112   1.802   2.004   1.704  1.4030 -0.8305  1.2689
 1891SOL     OW 7113   2.434   2.629   3.348  0.6598 -0.0544  0.0051
 1891SOL    HW1 7114   2.398   2.703   3.398 -1.0382 -0.2577 -0.8418
 1891SOL    HW2 7115   2.381   2.554   3.374  1.1266 -0.5919 -0.5454
 1892SOL     OW 7116   7.371   4.103   2.289  0.0484 -0.1103  0.1213
 1892SOL    HW1 7117   7.313   4.101   2.213 -2.2074 -2.0623  1.7496
 1892SOL    HW2 7118   7.312   4.106   2.364  2.1737  0.8848  1.8603
 1893SOL     OW 7119   7.330   3.835   2.061 -0.0804  0.1476  0.0493
 1893SOL    HW1 7120   7.381   3.771   2.012  2.0316  2.3157 -0.8045
 1893SOL    HW2 7121   7.258   3.785   2.098 -0.4219 -2.1073 -3.2025
 1894SOL     OW 7122   0.095   4.512   3.495  0.2587 -0.4776  0.4608
 1894SOL    HW1 7123   0.156   4.464   3.440  0.9188  1.1320 -0.2571
 1894SOL    HW2 7124   0.119   4.604   3.485 -1.5993  0.1237  0.9928
 1895SOL     OW 7125   6.916   3.097   5.566 -0.0678  0.3576 -0.1539
 1895SOL    HW1 7126   6.847   3.105   5.501  0.1398 -0.2108 -0.4514
 1895SOL    HW2 7127   6.945   3.187   5.582  0.3061  0.4530 -1.2994
 1896SOL     OW 7128   0.313   2.968   5.049 -0.1357 -0.2800  0.5963
 1896SOL    HW1 7129   0.240   3.025   5.024 -0.6520 -0.8158  0.8400
 1896SOL    HW2 7130   0.271   2.897   5.099  0.4384 -1.0514  0.0093
 1897SOL     OW 7131   7.436   2.592   6.446 -0.0615  0.6160 -0.0275
 1897SOL    HW1 7132   7.505   2.546   6.492  0.7382  1.1644 -0.6531
 1897SOL    HW2 7133   7.357   2.575   6.497 -0.0719 -2.4605 -0.8534
 1898SOL     OW 7134   1.093   3.969   5.275 -0.3486  0.8037  0.3324
 1898SOL    HW1 7135   1.153   3.901   5.246  0.2363  0.6661  1.7637
 1898SOL    HW2 7136   1.099   4.037   5.208  0.5986  0.3318 -0.0759
 1899SOL     OW 7137   1.958   2.338   4.724  0.0375 -0.6118  0.2507
 1899SOL    HW1 7138   1.874   2.326   4.768 -0.2010 -0.7667 -0.2392
 1899SOL    HW2 7139   2.012   2.266   4.756 -0.3662 -1.1459 -0.2559
 1900SOL     OW 7140   1.079   2.547   4.771  0.4131  0.4114 -0.3077
 1900SOL    HW1 7141   1.087   2.639   4.748  1.5260  0.1205 -1.2062
 1900SOL    HW2 7142   1.003   2.516   4.721  0.1124  0.8116 -0.0985
 1901SOL     OW 7143   1.112   3.400   2.244  0.7858 -0.0309 -0.0091
 1901SOL    HW1 7144   1.199   3.441   2.237 -0.1659  1.9714 -0.8341
 1901SOL    HW2 7145   1.078   3.431   2.328 -0.6912  2.6322 -1.4434
 1902SOL     OW 7146   0.051   2.264   6.564 -0.2155  0.0675  0.3346
 1902SOL    HW1 7147   0.068   2.307   6.648 -1.1699 -0.4381  0.8020
 1902SOL    HW2 7148  -0.007   2.325   6.518  0.2157  0.2925  0.0902
 1903SOL     OW 7149   7.558   1.736   2.893  0.6062  0.0234  0.3785
 1903SOL    HW1 7150   7.520   1.654   2.860 -0.4040  0.4539  0.4496
 1903SOL    HW2 7151   7.652   1.718   2.898  0.6073 -0.5832 -1.2191
 1904SOL     OW 7152   7.600   3.351   4.388 -0.5198  0.0233 -0.3537
 1904SOL    HW1 7153   7.541   3.275   4.382 -3.1337  1.9723 -0.9535
 1904SOL    HW2 7154   7.658   3.341   4.312 -1.2665 -1.0105 -0.8207
 1905SOL     OW 7155   7.588   2.589   6.905 -0.2738  0.5204 -0.4141
 1905SOL    HW1 7156   7.507   2.640   6.908  1.4948  3.5123  0.2639
 1905SOL    HW2 7157   7.630   2.616   6.823 -0.9784 -2.9452 -2.1240
 1906SOL     OW 7158   1.401   3.252   5.736  0.2014 -0.3790  0.3782
 1906SOL    HW1 7159   1.382   3.232   5.645  1.7242 -0.7134  0.1001
 1906SOL    HW2 7160   1.329   3.213   5.785 -0.5765 -0.2869 -0.6724
 1907SOL     OW 7161   7.331   2.709   6.912 -0.5580 -0.1561 -0.0148
 1907SOL    HW1 7162   7.296   2.777   6.854  0.2462 -0.2566 -0.6283
 1907SOL    HW2 7163   7.342   2.752   6.996 -1.2914  0.1200 -0.0548
 1908SOL     OW 7164   3.166   1.678   6.630 -0.0708 -0.2014 -1.1150
 1908SOL    HW1 7165   3.249   1.718   6.657 -1.6712  2.3725  0.3862
 1908SOL    HW2 7166   3.186   1.584   6.624  2.1870 -0.1522  2.4277
 1909SOL     OW 7167   6.579   3.785   4.535 -0.0790 -0.2544 -0.0940
 1909SOL    HW1 7168   6.543   3.865   4.496 -1.5676  0.1247  1.8982
 1909SOL    HW2 7169   6.655   3.764   4.480 -0.1515  2.0270 -1.1987
 1910SOL     OW 7170   0.195   3.277   6.504 -0.4679  0.8376 -0.3602
 1910SOL    HW1 7171   0.208   3.352   6.562  0.0784  0.3431  0.1684
 1910SOL    HW2 7172   0.105   3.249   6.522 -0.3346  0.7422  0.1875
 1911SOL     OW 7173   1.122   4.580   4.971 -1.0468  0.3255 -0.4425
 1911SOL    HW1 7174   1.121   4.581   4.875 -0.5845  0.0905 -0.4528
 1911SOL    HW2 7175   1.105   4.488   4.994 -0.8949  0.3329 -0.3036
 1912SOL     OW 7176   6.574   3.175   6.047 -0.0151 -0.3953  0.0421
 1912SOL    HW1 7177   6.574   3.182   6.143 -0.7027 -1.4516  0.1455
 1912SOL    HW2 7178   6.513   3.102   6.029 -0.0907 -0.0421 -1.2074
 1913SOL     OW 7179   0.365   5.016   6.404 -0.4717 -0.2006  0.9194
 1913SOL    HW1 7180   0.344   5.006   6.311  3.3901 -0.0449 -0.1630
 1913SOL    HW2 7181   0.430   4.947   6.421 -2.0184 -1.0543  3.9254
 1914SOL     OW 7182   0.709   3.209   1.996 -0.4953 -0.2700  0.2392
 1914SOL    HW1 7183   0.795   3.251   2.002 -0.9385  0.6650  0.2620
 1914SOL    HW2 7184   0.653   3.260   2.055 -0.6437 -2.0106  1.6660
 1915SOL     OW 7185   3.049   4.052   7.179 -0.1824 -0.1281  0.0982
 1915SOL    HW1 7186   3.071   3.960   7.165  0.1278  0.1944 -1.9051
 1915SOL    HW2 7187   3.127   4.090   7.219 -0.3325 -0.7232  0.9894
 1916SOL     OW 7188   7.012   1.404   3.494 -0.0878  0.4000  0.3112
 1916SOL    HW1 7189   7.012   1.349   3.416 -0.5865  0.8914 -0.0377
 1916SOL    HW2 7190   6.978   1.347   3.563 -1.7427  0.6077 -0.3040
 1917SOL     OW 7191   2.277   4.034   4.538  0.1230 -0.4967 -0.4469
 1917SOL    HW1 7192   2.333   4.028   4.461  0.4336 -0.2722 -0.2384
 1917SOL    HW2 7193   2.264   3.943   4.564 -0.5873 -0.6189 -1.1948
 1918SOL     OW 7194   6.881   2.820   3.759  0.2518  0.3311 -0.3809
 1918SOL    HW1 7195   6.819   2.768   3.810  0.9027 -1.2426 -1.1395
 1918SOL    HW2 7196   6.889   2.774   3.676  0.5351  1.8979 -1.2710
 1919SOL     OW 7197   2.196   3.250   4.124  0.1408  0.3442 -0.5513
 1919SOL    HW1 7198   2.135   3.223   4.055 -0.8358  0.1997  0.3494
 1919SOL    HW2 7199   2.277   3.271   4.077  0.4584 -2.5354 -1.4911
 1920SOL     OW 7200   0.928   4.037   4.867 -0.1860 -0.0883 -0.0520
 1920SOL    HW1 7201   0.871   4.109   4.840 -1.7795 -1.0367  0.6643
 1920SOL    HW2 7202   0.988   4.077   4.930 -0.8871  0.6744  0.1519
 1921SOL     OW 7203   7.398   2.232   6.640 -0.8129  0.1296  0.1106
 1921SOL    HW1 7204   7.355   2.302   6.689 -1.8392 -0.9221  0.7538
 1921SOL    HW2 7205   7.484   2.224   6.681 -0.1515  1.8992 -0.8463
 1922SOL     OW 7206   1.737   3.301   7.023  0.0991  0.1784 -0.0270
 1922SOL    HW1 7207   1.786   3.374   7.062 -0.6619  0.4259  0.4938
 1922SOL    HW2 7208   1.787   3.223   7.047 -0.3002  0.3270  1.4237
 1923SOL     OW 7209   7.628   3.729   4.918 -0.0555 -0.7539  0.3292
 1923SOL    HW1 7210   7.609   3.798   4.981  1.4416 -1.0870  1.1825
 1923SOL    HW2 7211   7.563   3.742   4.849 -0.7203  0.6018  1.1595
 1924SOL     OW 7212   1.235   3.204   4.313  0.2412 -0.2140 -0.6902
 1924SOL    HW1 7213   1.244   3.173   4.403 -0.2368 -1.8510 -1.1612
 1924SOL    HW2 7214   1.167   3.271   4.317 -1.6364 -2.0632 -0.1838
 1925SOL     OW 7215   6.454   3.172   4.218 -0.5055  0.0098  0.1052
 1925SOL    HW1 7216   6.393   3.223   4.166 -0.9527 -1.6619 -1.0885
 1925SOL    HW2 7217   6.404   3.147   4.296 -1.1056 -0.6941 -0.4949
 1926SOL     OW 7218   1.330   3.972   5.117 -0.1744  0.6685  0.6290
 1926SOL    HW1 7219   1.265   4.040   5.103 -0.5686  0.2403  0.3371
 1926SOL    HW2 7220   1.361   3.950   5.029 -2.0371 -1.4296  0.3914
 1927SOL     OW 7221   0.558   4.714   4.386  0.2303 -0.1165 -0.6076
 1927SOL    HW1 7222   0.608   4.794   4.370  0.4488 -0.1708 -0.1974
 1927SOL    HW2 7223   0.616   4.659   4.439 -0.3552 -0.0766  0.0816
 1928SOL     OW 7224   6.816   3.843   4.350  0.0820 -0.4782  0.2458
 1928SOL    HW1 7225   6.849   3.774   4.407  0.0878 -0.4252  0.3077
 1928SOL    HW2 7226   6.781   3.798   4.273 -0.8085 -0.6176  0.7186
 1929SOL     OW 7227   0.770   4.748   5.358 -0.2213 -0.4015 -0.3709
 1929SOL    HW1 7228   0.821   4.668   5.345  0.4978 -0.2474  1.2812
 1929SOL    HW2 7229   0.696   4.721   5.412 -0.6465 -0.1702 -0.8287
 1930SOL     OW 7230   1.882   1.904   4.166  0.0812 -0.1599  0.2308
 1930SOL    HW1 7231   1.897   1.879   4.075 -0.2763  1.5343 -0.3429
 1930SOL    HW2 7232   1.967   1.895   4.208  0.0699 -1.7544 -0.0400
 1931SOL     OW 7233   7.980   3.064   3.964 -0.5550  0.1678  0.1473
 1931SOL    HW1 7234   8.039   3.084   3.891 -1.0482 -0.8205 -0.5392
 1931SOL    HW2 7235   7.902   3.027   3.923 -1.2012  0.4035  1.1254
 1932SOL     OW 7236   3.803   1.062   5.892 -0.1013  0.2283  0.0345
 1932SOL    HW1 7237   3.846   1.122   5.831 -1.1597  0.7355 -0.2207
 1932SOL    HW2 7238   3.852   0.980   5.883 -0.0735  0.3765 -1.2831
 1933SOL     OW 7239   1.628   2.600   3.679  0.1461 -0.2187 -0.2332
 1933SOL    HW1 7240   1.721   2.587   3.658  0.5490  0.5688  0.9654
 1933SOL    HW2 7241   1.622   2.692   3.704 -0.6175 -0.6784  1.3767
 1934SOL     OW 7242   6.899   2.891   4.066 -0.1876 -0.1101 -0.4200
 1934SOL    HW1 7243   6.874   2.824   4.002 -0.4743 -0.8406  0.4329
 1934SOL    HW2 7244   6.828   2.890   4.130  0.0561  0.6669 -0.1308
 1935SOL     OW 7245   2.761   0.968   5.985 -0.2456 -0.3984 -0.4056
 1935SOL    HW1 7246   2.729   0.974   6.075 -0.5638  1.1523 -0.5932
 1935SOL    HW2 7247   2.850   0.935   5.993 -0.8807 -2.0097  0.3310
 1936SOL     OW 7248   6.287   2.953   5.671  0.3361  0.2594 -0.1018
 1936SOL    HW1 7249   6.260   3.027   5.725 -0.2915  1.5486 -2.1037
 1936SOL    HW2 7250   6.242   2.878   5.711 -1.0714  1.3495  0.4762
 1937SOL     OW 7251   7.496   1.951   5.379 -0.3305  0.2021  0.0085
 1937SOL    HW1 7252   7.582   1.991   5.392  0.5632 -1.5684 -0.2667
 1937SOL    HW2 7253   7.437   2.026   5.370  1.0362  1.4605  0.9789
 1938SOL     OW 7254   1.614   3.680   5.014 -0.1328 -0.4041  0.8035
 1938SOL    HW1 7255   1.638   3.696   4.923 -0.9370  1.0238  0.8167
 1938SOL    HW2 7256   1.674   3.735   5.064 -0.4466 -0.3068  1.0728
 1939SOL     OW 7257   0.100   4.081   5.692  0.0307 -0.8449  0.1632
 1939SOL    HW1 7258   0.137   4.003   5.733  1.0990 -1.0975 -1.1906
 1939SOL    HW2 7259   0.162   4.103   5.623 -0.1079  1.3802  0.6810
 1940SOL     OW 7260   0.114   3.440   6.234  0.4235 -0.2532 -0.3896
 1940SOL    HW1 7261   0.154   3.418   6.318 -0.7355 -1.0554 -0.0303
 1940SOL    HW2 7262   0.118   3.358   6.184 -1.7193 -0.6955  0.0578
 1941SOL     OW 7263   0.218   1.989   3.186 -0.0472 -0.1594 -0.1149
 1941SOL    HW1 7264   0.208   2.084   3.191  1.1079  0.0779 -1.5188
 1941SOL    HW2 7265   0.185   1.957   3.270  0.1237  1.5348  0.6460
 1942SOL     OW 7266   1.340   1.973   6.114  0.1554 -0.0455 -0.1203
 1942SOL    HW1 7267   1.316   2.055   6.071  0.9441 -0.8502 -2.2092
 1942SOL    HW2 7268   1.269   1.958   6.177 -0.9264  1.3370 -0.9390
 1943SOL     OW 7269   1.446   3.123   4.817  0.3033 -0.2276  0.0724
 1943SOL    HW1 7270   1.419   3.131   4.909  0.7559 -0.1538  0.2033
 1943SOL    HW2 7271   1.532   3.081   4.821  1.5752  2.1754 -0.1255
 1944SOL     OW 7272   7.689   1.903   5.797  0.3282 -0.8551  0.5922
 1944SOL    HW1 7273   7.595   1.889   5.793  0.3796 -1.3009  0.8246
 1944SOL    HW2 7274   7.705   1.979   5.741 -0.4154  0.4663  2.0999
 1945SOL     OW 7275   6.266   3.080   4.391  0.0455 -0.5123  0.2000
 1945SOL    HW1 7276   6.201   3.150   4.384 -0.6743 -1.2226 -0.4428
 1945SOL    HW2 7277   6.214   3.000   4.392  0.8109 -1.0291  1.7004
 1946SOL     OW 7278   7.600   4.971   5.747  0.2457  0.2649 -0.0556
 1946SOL    HW1 7279   7.551   5.052   5.732  0.3279  0.3672  0.2204
 1946SOL    HW2 7280   7.594   4.957   5.841  0.5580  0.1582 -0.0499
 1947SOL     OW 7281   2.900   3.567   7.176 -0.1265  0.0379  0.5881
 1947SOL    HW1 7282   2.974   3.516   7.144 -0.2060  0.2543  0.0539
 1947SOL    HW2 7283   2.940   3.641   7.222 -0.0084 -0.0120  0.5664
 1948SOL     OW 7284   0.284   2.393   5.134 -0.4590  0.0244 -0.2211
 1948SOL    HW1 7285   0.295   2.482   5.103 -0.2093  0.2026  0.3690
 1948SOL    HW2 7286   0.335   2.339   5.073  2.3757  0.6430  1.4220
 1949SOL     OW 7287   5.650   2.924   6.810  0.1817 -0.1007 -0.3401
 1949SOL    HW1 7288   5.640   2.947   6.902  0.1617 -0.7045 -0.1869
 1949SOL    HW2 7289   5.576   2.866   6.791 -0.0426  0.3461 -0.8437
 1950SOL     OW 7290   1.970   0.610   6.125  0.1028 -0.0475 -0.2490
 1950SOL    HW1 7291   1.974   0.519   6.154  2.0510 -0.0026 -0.2595
 1950SOL    HW2 7292   1.946   0.605   6.032 -0.1494 -0.5206 -0.1601
 1951SOL     OW 7293   1.364   4.511   6.453 -0.0148  0.0576  0.7728
 1951SOL    HW1 7294   1.340   4.525   6.544  0.5229 -1.3639  1.1514
 1951SOL    HW2 7295   1.456   4.538   6.448 -0.0480  0.1487  0.6468
 1952SOL     OW 7296   1.360   3.195   5.446 -0.1122  0.3985 -0.1013
 1952SOL    HW1 7297   1.356   3.243   5.363  0.7105  0.5080 -0.0866
 1952SOL    HW2 7298   1.273   3.158   5.456 -0.1450  0.1538 -1.1583
 1953SOL     OW 7299   1.055   3.162   5.178  0.2306  0.5914 -0.0082
 1953SOL    HW1 7300   1.013   3.122   5.254  1.2860  0.2667  0.4321
 1953SOL    HW2 7301   0.995   3.231   5.151  0.6084  1.8873  2.1982
 1954SOL     OW 7302   1.159   4.884   5.760 -0.4047 -0.4344  0.5365
 1954SOL    HW1 7303   1.227   4.851   5.819 -1.0467  0.6542  1.9503
 1954SOL    HW2 7304   1.078   4.877   5.811 -0.6260  3.0625  0.9155
 1955SOL     OW 7305   7.191   3.202   4.302  0.1515 -0.6490  0.6866
 1955SOL    HW1 7306   7.103   3.194   4.339 -0.0521 -0.2904  0.2973
 1955SOL    HW2 7307   7.195   3.292   4.270  0.2051 -1.0356 -0.4271
 1956SOL     OW 7308   6.658   2.318   6.322  0.3097  0.7266 -0.0603
 1956SOL    HW1 7309   6.623   2.248   6.267  0.6935  1.3657 -1.1619
 1956SOL    HW2 7310   6.589   2.384   6.323 -0.7828 -0.3226  2.4010
 1957SOL     OW 7311   5.339   2.904   4.104 -0.4628  0.0906 -0.2998
 1957SOL    HW1 7312   5.294   2.988   4.103  0.9229  0.8688  0.2738
 1957SOL    HW2 7313   5.336   2.876   4.196 -0.6650 -0.3670 -0.4381
 1958SOL     OW 7314   7.773   3.039   5.455  0.1614 -0.5682  0.0990
 1958SOL    HW1 7315   7.750   3.130   5.474  2.2851 -0.5803  3.5139
 1958SOL    HW2 7316   7.692   2.990   5.469 -0.3906  0.5306  0.8060
 1959SOL     OW 7317   1.014   2.780   4.307  0.0228 -0.4029 -0.4516
 1959SOL    HW1 7318   1.057   2.709   4.355 -0.7991 -1.5484 -1.3225
 1959SOL    HW2 7319   0.926   2.784   4.344  0.7263  1.7644  1.1587
 1960SOL     OW 7320   0.053   2.830   6.594  0.1384  0.1344 -0.3935
 1960SOL    HW1 7321  -0.012   2.885   6.636 -0.0039 -0.4339  0.1515
 1960SOL    HW2 7322   0.032   2.833   6.501 -0.2842  0.4421 -0.2869
 1961SOL     OW 7323   1.749   2.646   6.127 -0.2009  0.2111 -0.2495
 1961SOL    HW1 7324   1.790   2.613   6.048  1.6397  2.2809 -0.2368
 1961SOL    HW2 7325   1.816   2.698   6.170 -1.1556 -0.7562  2.6777
 1962SOL     OW 7326   0.658   0.440   6.041 -0.2731  0.0831  0.1280
 1962SOL    HW1 7327   0.701   0.456   5.957 -0.9955  0.2032 -0.2266
 1962SOL    HW2 7328   0.730   0.423   6.102  0.2442 -0.2551 -0.5671
 1963SOL     OW 7329   7.694   2.207   7.877  0.3741 -0.3652 -0.2374
 1963SOL    HW1 7330   7.768   2.223   7.817  1.6069 -0.3731  1.2148
 1963SOL    HW2 7331   7.696   2.280   7.938  2.3906 -2.7506  2.8623
 1964SOL     OW 7332   1.470   0.868   7.283  0.5606 -0.4319  1.0656
 1964SOL    HW1 7333   1.473   0.933   7.213  2.1235 -0.2648  1.2338
 1964SOL    HW2 7334   1.512   0.790   7.246 -1.0829 -1.3067  0.9404
 1965SOL     OW 7335   1.804   3.095   5.464  0.0631  0.9545 -0.5760
 1965SOL    HW1 7336   1.754   3.132   5.536  1.1815  1.9536 -0.2775
 1965SOL    HW2 7337   1.780   3.148   5.388 -1.2119 -0.1781 -1.0055
 1966SOL     OW 7338   1.626   2.426   5.295 -0.2023 -0.5091  0.4833
 1966SOL    HW1 7339   1.672   2.449   5.375  0.5306 -2.0281  0.5443
 1966SOL    HW2 7340   1.695   2.412   5.231 -0.6929 -0.7954  0.0030
 1967SOL     OW 7341   0.765   3.783   2.557  0.6711  0.3128  0.0255
 1967SOL    HW1 7342   0.815   3.764   2.477  1.5368  0.0917  0.6076
 1967SOL    HW2 7343   0.764   3.700   2.605  2.3049  1.0218  1.3947
 1968SOL     OW 7344   0.335   2.419   5.476  0.0347 -0.0199  0.0854
 1968SOL    HW1 7345   0.354   2.482   5.407  1.4793 -1.4263 -0.8748
 1968SOL    HW2 7346   0.240   2.404   5.470  0.1640 -0.2489 -1.7298
 1969SOL     OW 7347   7.149   2.036   5.197  0.1676  0.2552 -0.3687
 1969SOL    HW1 7348   7.098   2.018   5.276 -1.2404  0.5265 -1.1750
 1969SOL    HW2 7349   7.171   1.950   5.162 -0.4246  0.1244 -0.4269
 1970SOL     OW 7350   0.556   1.716   4.496  0.1671  0.3191 -0.3693
 1970SOL    HW1 7351   0.512   1.697   4.413  0.1503 -0.8274 -0.1145
 1970SOL    HW2 7352   0.547   1.636   4.547  0.7756  0.7745  0.4833
 1971SOL     OW 7353   1.206   3.006   5.841  0.1322  0.4837 -0.2976
 1971SOL    HW1 7354   1.216   3.006   5.936 -1.5823  0.1278 -0.0800
 1971SOL    HW2 7355   1.256   2.930   5.812  0.2659  0.3040  0.3792
 1972SOL     OW 7356   0.874   1.510   5.005  0.2738 -0.3311 -0.0880
 1972SOL    HW1 7357   0.969   1.501   5.006  0.1496 -1.9555  1.0443
 1972SOL    HW2 7358   0.843   1.434   4.957 -0.5059 -0.9027  1.2477
 1973SOL     OW 7359   1.290   2.666   5.799 -0.4337  0.9945  0.4734
 1973SOL    HW1 7360   1.344   2.591   5.826 -0.6181  0.7746  0.2370
 1973SOL    HW2 7361   1.352   2.739   5.792  0.2341  0.2979 -1.7871
 1974SOL     OW 7362   1.913   2.671   4.535 -0.2915  0.1696  0.4156
 1974SOL    HW1 7363   1.910   2.652   4.629  1.9736  0.0233  0.5014
 1974SOL    HW2 7364   1.850   2.609   4.497 -1.8223  0.7448  1.8633
 1975SOL     OW 7365   2.459   2.356   2.101 -0.2149  0.0728 -0.8986
 1975SOL    HW1 7366   2.537   2.358   2.047 -0.3935 -3.5124 -1.4990
 1975SOL    HW2 7367   2.410   2.280   2.070 -2.1759  0.0766  1.8395
 1976SOL     OW 7368   1.527   2.589   4.751  0.4307  0.6244  0.3348
 1976SOL    HW1 7369   1.464   2.639   4.804 -0.1349 -0.7743  1.0423
 1976SOL    HW2 7370   1.481   2.573   4.669  0.1041  0.1740  0.6000
 1977SOL     OW 7371   1.684   1.700   4.162  0.1922  0.0509 -0.1983
 1977SOL    HW1 7372   1.683   1.671   4.071 -0.1640  0.3152 -0.2819
 1977SOL    HW2 7373   1.726   1.786   4.158 -2.1298  1.2385 -0.4881
 1978SOL     OW 7374   0.020   2.010   4.053 -0.2546  0.2822  0.0631
 1978SOL    HW1 7375  -0.040   1.987   3.982 -1.8146  0.5854  1.2233
 1978SOL    HW2 7376   0.092   2.056   4.010 -0.3031 -1.0245 -1.5044
 1979SOL     OW 7377   1.987   3.638   4.123  0.2813  0.0546  0.3114
 1979SOL    HW1 7378   2.024   3.558   4.086 -1.7203 -0.6682 -0.2482
 1979SOL    HW2 7379   2.063   3.691   4.146  1.6666 -0.8169 -1.9183
 1980SOL     OW 7380   1.884   1.330   5.686  0.4246  0.0518  0.0263
 1980SOL    HW1 7381   1.920   1.357   5.771  1.4787 -3.7620  0.9877
 1980SOL    HW2 7382   1.830   1.254   5.706  1.8646 -1.8983 -2.7980
 1981SOL     OW 7383   2.118   3.000   3.737 -0.2972  0.4780  0.7963
 1981SOL    HW1 7384   2.048   2.936   3.751  0.6594 -0.6841  0.3554
 1981SOL    HW2 7385   2.186   2.977   3.800 -0.0250  1.2136  0.7913
 1982SOL     OW 7386   2.310   2.070   4.378  0.6171  0.1055  0.3454
 1982SOL    HW1 7387   2.388   2.072   4.323  0.1342 -0.7228 -0.3836
 1982SOL    HW2 7388   2.237   2.083   4.318  0.1896  1.2958  1.0721
 1983SOL     OW 7389   7.323   4.093   2.898  0.0395 -0.2339  0.6126
 1983SOL    HW1 7390   7.325   4.057   2.810 -1.0936 -1.1536  0.9378
 1983SOL    HW2 7391   7.238   4.136   2.905 -0.9717 -2.2875  2.0163
 1984SOL     OW 7392   2.356   2.898   4.851  0.1055 -0.0297 -0.0567
 1984SOL    HW1 7393   2.364   2.993   4.847  0.9898 -0.0874  0.0740
 1984SOL    HW2 7394   2.331   2.872   4.762  1.1152  0.2268 -0.4265
 1985SOL     OW 7395   2.049   2.415   2.628  0.6979 -0.4065  0.3260
 1985SOL    HW1 7396   2.037   2.375   2.714  0.9185  0.9921  1.0218
 1985SOL    HW2 7397   2.012   2.351   2.567 -0.9455 -0.7160  1.5686
 1986SOL     OW 7398   0.003   2.523   6.489 -0.2509 -0.4018 -0.4974
 1986SOL    HW1 7399   0.072   2.589   6.492 -0.6662  0.0543 -0.7931
 1986SOL    HW2 7400  -0.068   2.564   6.440 -0.4948 -1.0952 -0.7407
 1987SOL     OW 7401   0.399   2.600   5.283  0.4165 -0.0842  0.0838
 1987SOL    HW1 7402   0.333   2.661   5.251  1.6882  1.0726 -0.4298
 1987SOL    HW2 7403   0.480   2.651   5.285  1.4298 -1.6302  0.0922
 1988SOL     OW 7404   0.133   3.711   5.663  0.3451 -0.0314  0.4860
 1988SOL    HW1 7405   0.140   3.615   5.667 -2.1246 -0.2539  0.5055
 1988SOL    HW2 7406   0.209   3.742   5.714 -0.6575 -2.0614  3.4913
 1989SOL     OW 7407   1.955   2.951   5.193 -0.3985 -0.1931  0.0020
 1989SOL    HW1 7408   1.981   2.932   5.103 -0.1224 -0.7998  0.2047
 1989SOL    HW2 7409   1.859   2.947   5.191 -0.4081  0.1409 -0.3368
 1990SOL     OW 7410   0.913   1.336   5.378 -0.2221  0.5122 -1.3861
 1990SOL    HW1 7411   0.886   1.421   5.412  0.7380  0.3163 -0.0127
 1990SOL    HW2 7412   0.987   1.355   5.321  0.8052  0.5323 -0.0965
 1991SOL     OW 7413   1.819   4.178   7.330  0.1057 -0.3131  0.2155
 1991SOL    HW1 7414   1.811   4.086   7.356 -1.3656  0.4051  2.6114
 1991SOL    HW2 7415   1.890   4.212   7.383 -1.5691  0.6779  1.9573
 1992SOL     OW 7416   0.115   3.753   5.368 -0.1060  0.4639 -0.0487
 1992SOL    HW1 7417   0.127   3.762   5.462  1.4285 -0.9183 -0.0741
 1992SOL    HW2 7418   0.103   3.843   5.337 -0.7214  0.9369  1.4447
 1993SOL     OW 7419   6.734   3.799   5.736  0.2802 -0.1794 -0.1543
 1993SOL    HW1 7420   6.783   3.717   5.746  2.1789  0.8962 -0.0238
 1993SOL    HW2 7421   6.730   3.835   5.824  0.4960  0.4036 -0.3746
 1994SOL     OW 7422   0.526   5.261   5.849  0.3219 -0.5998 -0.1983
 1994SOL    HW1 7423   0.459   5.324   5.874  0.3018 -0.0015 -1.6620
 1994SOL    HW2 7424   0.480   5.177   5.847 -0.0053 -0.4363  0.3152
 1995SOL     OW 7425   0.193   4.137   3.543 -0.0882 -0.7610 -0.5864
 1995SOL    HW1 7426   0.205   4.191   3.465  1.9873  0.8037  0.7131
 1995SOL    HW2 7427   0.135   4.188   3.599  1.3435 -0.0962  0.3650
 1996SOL     OW 7428   0.944   2.874   5.130 -0.4393 -0.4907 -0.2580
 1996SOL    HW1 7429   0.942   2.853   5.223 -0.9643 -0.1959 -0.1972
 1996SOL    HW2 7430   0.885   2.810   5.090 -0.9481 -0.0363 -0.2547
 1997SOL     OW 7431   7.050   3.899   3.818  0.4315 -0.4198 -0.3916
 1997SOL    HW1 7432   7.124   3.874   3.874  0.3485  0.5468  0.1612
 1997SOL    HW2 7433   6.994   3.953   3.874  0.3135  0.5187 -1.3775
 1998SOL     OW 7434   6.490   3.324   5.328  0.3294  0.5328  0.4831
 1998SOL    HW1 7435   6.482   3.231   5.349 -0.0740  0.6860  1.0217
 1998SOL    HW2 7436   6.502   3.367   5.413  1.7612  0.8537  0.1439
 1999SOL     OW 7437   6.009   2.982   3.648  0.2915 -0.0413 -0.2610
 1999SOL    HW1 7438   6.083   2.924   3.665  1.0710  0.8918 -0.3728
 1999SOL    HW2 7439   5.964   2.989   3.733  2.0725  1.7199  0.6334
 2000SOL     OW 7440   1.634   3.267   4.651 -0.1753  0.5245  0.3775
 2000SOL    HW1 7441   1.692   3.290   4.723  0.9466  2.5516 -1.0934
 2000SOL    HW2 7442   1.692   3.243   4.579 -1.1988  0.7772 -0.5634
 2001SOL     OW 7443   0.600   4.586   5.543  0.2031 -0.1628  0.1525
 2001SOL    HW1 7444   0.560   4.552   5.623  1.8394 -0.4876  0.8703
 2001SOL    HW2 7445   0.601   4.511   5.484 -1.7311  0.2770 -0.5139
 2002SOL     OW 7446   0.863   3.340   3.508  0.6547 -0.0528 -0.3650
 2002SOL    HW1 7447   0.903   3.280   3.572 -1.5966  0.1829  1.4097
 2002SOL    HW2 7448   0.878   3.427   3.544 -1.9893  0.0196  0.8724
 2003SOL     OW 7449   7.566   3.623   4.421 -0.3052  0.4006 -0.4588
 2003SOL    HW1 7450   7.547   3.529   4.420  2.6684 -0.3889  1.3407
 2003SOL    HW2 7451   7.564   3.646   4.514  0.1246  1.8569 -0.7863
 2004SOL     OW 7452   7.565   2.931   7.185 -0.0538  0.1861 -0.9660
 2004SOL    HW1 7453   7.612   2.864   7.234  0.5892  1.8087  0.7414
 2004SOL    HW2 7454   7.474   2.901   7.184 -0.2489  0.4202  1.9499
 2005SOL     OW 7455   2.518   1.341   6.138  0.4466 -0.0962  0.1032
 2005SOL    HW1 7456   2.599   1.363   6.093  0.5338 -0.0601  0.2744
 2005SOL    HW2 7457   2.547   1.300   6.220  0.3072 -2.0032 -0.7392
 2006SOL     OW 7458   2.828   1.079   5.273  0.1147  0.1917 -0.0813
 2006SOL    HW1 7459   2.852   1.163   5.234  0.7250  1.2111  2.3063
 2006SOL    HW2 7460   2.907   1.025   5.267  0.0880  0.2046 -0.5534
 2007SOL     OW 7461   7.660   3.937   5.107  0.3604 -0.4708 -0.0612
 2007SOL    HW1 7462   7.707   3.997   5.049  2.3875 -0.2698  1.6840
 2007SOL    HW2 7463   7.615   3.994   5.169 -0.9810 -0.7181 -0.7527
 2008SOL     OW 7464   2.040   3.560   5.520  0.2105  0.1392 -0.4208
 2008SOL    HW1 7465   2.047   3.491   5.586 -0.0499  0.3447 -0.1741
 2008SOL    HW2 7466   2.118   3.614   5.533  0.7567 -0.4914 -1.0606
 2009SOL     OW 7467   0.878   1.768   6.839  0.0817  0.6231  0.1526
 2009SOL    HW1 7468   0.870   1.675   6.860  0.2023  0.5928  0.0643
 2009SOL    HW2 7469   0.787   1.799   6.832  0.0409  0.3676 -0.4569
 2010SOL     OW 7470   0.555   2.410   4.575  0.1234  0.3961 -0.4479
 2010SOL    HW1 7471   0.576   2.478   4.510 -1.1540  1.1484 -0.0945
 2010SOL    HW2 7472   0.634   2.405   4.629 -0.0189  2.1596 -0.0020
 2011SOL     OW 7473   0.583   2.434   3.622 -0.9375 -0.0136  0.4934
 2011SOL    HW1 7474   0.494   2.441   3.588 -1.4202  0.0069  1.7174
 2011SOL    HW2 7475   0.581   2.482   3.705  0.5058  0.9525  0.0186
 2012SOL     OW 7476   7.937   4.591   5.410 -0.6917 -0.4511  0.0189
 2012SOL    HW1 7477   8.015   4.620   5.364 -0.1935 -0.9296  0.5420
 2012SOL    HW2 7478   7.878   4.667   5.408  1.1000  1.1580  2.5287
 2013SOL     OW 7479   2.752   2.167   4.372 -0.2866 -0.4578  0.0380
 2013SOL    HW1 7480   2.822   2.101   4.374 -0.7672 -0.9695  0.6675
 2013SOL    HW2 7481   2.797   2.249   4.349  0.5599 -0.7334  0.6451
 2014SOL     OW 7482   2.487   1.909   6.157  0.7763 -0.0542 -0.4196
 2014SOL    HW1 7483   2.509   1.846   6.225 -0.2469  0.6657  0.6187
 2014SOL    HW2 7484   2.475   1.856   6.078  0.8504 -1.0402  0.2184
 2015SOL     OW 7485   0.891   2.780   4.677 -0.1223 -0.0735 -0.3285
 2015SOL    HW1 7486   0.816   2.835   4.700  1.3531  1.3581  1.4456
 2015SOL    HW2 7487   0.891   2.778   4.581 -1.4281  1.3229 -0.3925
 2016SOL     OW 7488   1.173   2.322   4.551 -0.1581  0.8367 -0.5475
 2016SOL    HW1 7489   1.242   2.382   4.579  0.8364 -0.0549 -1.0114
 2016SOL    HW2 7490   1.188   2.309   4.458 -0.4245 -0.0267 -0.4843
 2017SOL     OW 7491   0.543   3.021   5.221 -0.6899 -0.5416 -0.1261
 2017SOL    HW1 7492   0.451   3.018   5.197 -0.6291  0.8962 -0.6288
 2017SOL    HW2 7493   0.580   3.091   5.167  1.2584 -2.7078 -1.8026
 2018SOL     OW 7494   0.790   4.260   4.798 -0.8755  0.0684  0.2321
 2018SOL    HW1 7495   0.696   4.275   4.811 -1.2840 -1.0568 -1.0876
 2018SOL    HW2 7496   0.797   4.236   4.705  0.5175 -1.2278  0.6394
 2019SOL     OW 7497   1.848   3.074   7.159  0.2584 -0.4577 -0.1590
 2019SOL    HW1 7498   1.866   2.980   7.152 -1.1130 -0.7694  0.1537
 2019SOL    HW2 7499   1.815   3.086   7.248  2.3159  0.6968  0.5083
 2020SOL     OW 7500   7.634   2.457   6.603  0.2143 -0.0906 -0.1460
 2020SOL    HW1 7501   7.693   2.518   6.647  0.4566 -0.0983 -0.4607
 2020SOL    HW2 7502   7.670   2.370   6.623  0.7609 -0.0610 -0.9892
 2021SOL     OW 7503   7.929   2.731   5.405 -0.7008 -0.3866 -0.1103
 2021SOL    HW1 7504   7.946   2.818   5.371  0.3636  0.1347  1.6372
 2021SOL    HW2 7505   7.843   2.737   5.446 -0.9372 -0.3702 -0.5984
 2022SOL     OW 7506   2.237   2.358   5.480 -0.0922  0.1786 -0.6008
 2022SOL    HW1 7507   2.302   2.289   5.494 -0.8590 -0.4968 -0.3166
 2022SOL    HW2 7508   2.258   2.394   5.394  1.4454  0.8327  0.0123
 2023SOL     OW 7509   7.819   4.322   5.780 -0.0224 -0.1220 -0.2680
 2023SOL    HW1 7510   7.861   4.408   5.772 -0.2695  0.0982  0.7324
 2023SOL    HW2 7511   7.725   4.342   5.781 -0.0998 -0.4585 -0.5547
 2024SOL     OW 7512   0.579   0.534   5.163 -0.0634  0.1817  0.1085
 2024SOL    HW1 7513   0.608   0.624   5.152  0.2935  0.1918  1.0250
 2024SOL    HW2 7514   0.520   0.537   5.238  2.5259 -0.8367  2.3381
 2025SOL     OW 7515   0.757   2.341   4.788 -0.4066  0.0764  0.3370
 2025SOL    HW1 7516   0.722   2.396   4.858 -0.7916 -0.2769  0.4235
 2025SOL    HW2 7517   0.723   2.254   4.806  0.2312 -0.2074  0.2205
 2026SOL     OW 7518   1.709   3.083   7.417  0.2789  0.4667  0.2679
 2026SOL    HW1 7519   1.705   3.154   7.481  0.5320  0.0776  0.7274
 2026SOL    HW2 7520   1.621   3.079   7.379 -0.3362 -0.2951  1.6955
 2027SOL     OW 7521   6.659   2.211   5.556  0.0285 -0.5673  0.8611
 2027SOL    HW1 7522   6.575   2.205   5.511  0.6218 -2.6840 -0.1184
 2027SOL    HW2 7523   6.638   2.235   5.646 -1.4531  0.5152  0.2638
 2028SOL     OW 7524   7.130   3.141   5.345 -0.1378  0.2248  0.7220
 2028SOL    HW1 7525   7.079   3.209   5.390  0.8969  1.2761  0.3317
 2028SOL    HW2 7526   7.217   3.146   5.385 -0.6234 -2.4772  2.3551
 2029SOL     OW 7527   7.239   3.214   4.654  0.1774 -0.2231  0.1531
 2029SOL    HW1 7528   7.214   3.220   4.746 -0.2706  0.4950 -0.0047
 2029SOL    HW2 7529   7.313   3.274   4.646  0.4342 -0.5433  0.1151
 2030SOL     OW 7530   1.258   5.691   5.686 -0.1486  0.1186 -0.3802
 2030SOL    HW1 7531   1.195   5.627   5.719 -1.3876  1.4089 -0.1816
 2030SOL    HW2 7532   1.248   5.767   5.744  1.9292  0.2010 -0.0394
 2031SOL     OW 7533   1.432   3.435   3.346 -0.3974  0.1323  0.5224
 2031SOL    HW1 7534   1.452   3.345   3.317  2.5332  1.1169 -0.9695
 2031SOL    HW2 7535   1.506   3.459   3.402 -1.3782  1.4827  1.3037
 2032SOL     OW 7536   5.990   3.924   4.928  0.2382 -0.2299  0.2832
 2032SOL    HW1 7537   5.953   4.012   4.921  0.6116  0.1352  2.3150
 2032SOL    HW2 7538   6.048   3.916   4.852  1.2810  1.8227  0.8115
 2033SOL     OW 7539   0.628   2.449   5.324 -0.3426  0.7084  0.1748
 2033SOL    HW1 7540   0.672   2.479   5.404 -0.1283 -0.7723  0.6530
 2033SOL    HW2 7541   0.536   2.473   5.336 -0.0418  1.9150  0.1392
 2034SOL     OW 7542   2.686   2.212   4.625 -0.1618  0.1029 -0.5711
 2034SOL    HW1 7543   2.710   2.137   4.679 -0.7229 -1.3622 -2.2502
 2034SOL    HW2 7544   2.701   2.183   4.535  1.8754  2.8435 -1.2659
 2035SOL     OW 7545   1.496   2.029   4.601  0.2068 -0.0526 -0.4878
 2035SOL    HW1 7546   1.575   1.996   4.644 -0.3552 -1.4282 -0.4438
 2035SOL    HW2 7547   1.439   2.056   4.673  0.2653  0.0390 -0.4764
 2036SOL     OW 7548   2.413   3.164   4.865 -0.1612 -0.0286  0.2207
 2036SOL    HW1 7549   2.448   3.183   4.952  0.3524  0.2356 -0.0419
 2036SOL    HW2 7550   2.481   3.194   4.805 -1.8169  2.7442 -0.4074
 2037SOL     OW 7551   6.847   2.725   6.384  0.6962  0.0337  0.6317
 2037SOL    HW1 7552   6.913   2.722   6.315  0.9439  0.1832  0.8597
 2037SOL    HW2 7553   6.795   2.803   6.363  1.6046  0.8623  1.3592
 2038SOL     OW 7554   0.067   1.809   6.870  0.1709 -0.0795 -0.6544
 2038SOL    HW1 7555   0.013   1.730   6.876 -2.7975  1.8259  0.3849
 2038SOL    HW2 7556   0.059   1.836   6.778 -1.0463  0.3913 -0.4288
 2039SOL     OW 7557   7.630   3.607   5.820  0.8184  0.4272  0.4186
 2039SOL    HW1 7558   7.719   3.630   5.794  1.2566 -0.7012  0.8847
 2039SOL    HW2 7559   7.636   3.517   5.851 -0.4923  0.3346  0.4504
 2040SOL     OW 7560   0.078   3.383   4.712  0.6992 -0.5402  0.0402
 2040SOL    HW1 7561   0.089   3.452   4.647  0.9887 -1.1634 -0.5896
 2040SOL    HW2 7562  -0.014   3.357   4.704 -0.2240  1.6647  2.2464
 2041SOL     OW 7563   6.912   2.461   6.336  0.3781  0.2359 -0.1476
 2041SOL    HW1 7564   6.896   2.553   6.358 -0.5169  0.1074 -0.2192
 2041SOL    HW2 7565   6.825   2.421   6.338  0.9077 -0.8823  1.1102
 2042SOL     OW 7566   1.880   2.556   5.933 -0.5966  0.4562  0.2408
 2042SOL    HW1 7567   1.891   2.621   5.863  0.0355  0.7221  0.5856
 2042SOL    HW2 7568   1.952   2.494   5.920  0.2756  1.2007  1.4097
 2043SOL     OW 7569   0.617   3.005   2.672  0.1224  0.7136  0.4207
 2043SOL    HW1 7570   0.659   3.022   2.587  1.8753 -2.4454  0.5148
 2043SOL    HW2 7571   0.681   2.953   2.720 -1.4322  1.1668  3.1695
 2044SOL     OW 7572   0.525   5.439   5.401 -0.6907 -0.7085  0.1429
 2044SOL    HW1 7573   0.505   5.531   5.420 -1.1638 -0.1941 -2.4466
 2044SOL    HW2 7574   0.620   5.433   5.406 -0.6599 -0.0829  0.3756
 2045SOL     OW 7575   0.013   4.270   7.059  0.3795  0.0035  0.3837
 2045SOL    HW1 7576   0.020   4.332   7.132  0.2778  0.5868 -0.0905
 2045SOL    HW2 7577  -0.081   4.264   7.042  0.2687 -1.3061  1.2684
 2046SOL     OW 7578   1.648   2.954   4.872  0.0245 -0.0632 -0.6223
 2046SOL    HW1 7579   1.716   2.894   4.904  0.2859  0.5699  0.0401
 2046SOL    HW2 7580   1.661   2.955   4.777  0.3079 -0.7000 -0.6028
 2047SOL     OW 7581   7.902   4.568   5.696 -0.4894  0.0434  0.8332
 2047SOL    HW1 7582   7.925   4.548   5.605  1.7295  1.3461  1.0291
 2047SOL    HW2 7583   7.853   4.650   5.691 -0.9825 -0.2499  0.7785
 2048SOL     OW 7584   1.234   0.533   5.744 -0.1327  0.3490  0.1497
 2048SOL    HW1 7585   1.316   0.493   5.775 -1.2321 -2.3902 -0.1768
 2048SOL    HW2 7586   1.179   0.539   5.822  0.2143  1.8761  0.3059
 2049SOL     OW 7587   1.052   3.584   6.179 -0.3174  0.2856  0.8215
 2049SOL    HW1 7588   1.018   3.658   6.129  2.7665  0.8851 -0.5676
 2049SOL    HW2 7589   1.090   3.526   6.113  0.5238 -0.7762  2.1803
 2050SOL     OW 7590   0.665   3.614   6.708  0.5810 -0.4506 -0.0991
 2050SOL    HW1 7591   0.683   3.638   6.799  0.1107  0.9858 -0.3655
 2050SOL    HW2 7592   0.662   3.518   6.709  0.5651 -0.4568  1.4019
 2051SOL     OW 7593   0.907   2.689   3.840 -0.2763 -0.3524 -0.7658
 2051SOL    HW1 7594   0.932   2.596   3.841  0.8224 -0.0830  0.3245
 2051SOL    HW2 7595   0.970   2.729   3.780  0.3293 -0.0734  0.0322
 2052SOL     OW 7596   7.277   3.378   5.698  0.6454  0.3456  0.1503
 2052SOL    HW1 7597   7.334   3.303   5.682  1.5788  1.1172 -0.2187
 2052SOL    HW2 7598   7.201   3.362   5.641  1.3508  0.2405 -0.7960
 2053SOL     OW 7599   0.127   2.691   3.636 -0.5209 -0.1037 -0.5867
 2053SOL    HW1 7600   0.147   2.754   3.566 -1.5175  0.1053 -0.6980
 2053SOL    HW2 7601   0.034   2.704   3.654 -0.9929 -2.1469 -1.2369
 2054SOL     OW 7602   2.402   3.365   5.436  0.3648 -0.1074  0.0033
 2054SOL    HW1 7603   2.436   3.381   5.524 -0.9441 -0.3871  0.5904
 2054SOL    HW2 7604   2.479   3.354   5.381  1.2068  1.0571  0.9304
 2055SOL     OW 7605   2.925   2.727   6.621 -0.0639 -0.2667  0.4232
 2055SOL    HW1 7606   2.908   2.679   6.540  0.0831 -0.9376  0.7743
 2055SOL    HW2 7607   3.012   2.766   6.609  0.3676 -1.1396  0.6009
 2056SOL     OW 7608   0.161   3.072   3.286  0.6435 -0.3260 -0.1788
 2056SOL    HW1 7609   0.204   3.157   3.280 -1.3437  0.6963 -0.9287
 2056SOL    HW2 7610   0.116   3.074   3.371 -1.7226  0.6330 -1.3465
 2057SOL     OW 7611   0.308   3.163   5.590 -0.3457 -0.0192 -0.0949
 2057SOL    HW1 7612   0.294   3.195   5.679 -0.0369 -0.3697  0.0809
 2057SOL    HW2 7613   0.228   3.187   5.543 -0.1104  1.0648  0.0140
 2058SOL     OW 7614   6.463   4.211   6.720 -0.2856  0.7246  0.1562
 2058SOL    HW1 7615   6.512   4.222   6.801  0.9369  1.5319 -0.6614
 2058SOL    HW2 7616   6.374   4.191   6.749  0.7575 -2.2169  1.6963
 2059SOL     OW 7617   7.735   2.371   3.721 -0.0216 -0.1729 -0.2677
 2059SOL    HW1 7618   7.678   2.441   3.752  0.6348 -0.2775  1.2292
 2059SOL    HW2 7619   7.822   2.409   3.720  0.0495 -0.3232 -1.5805
 2060SOL     OW 7620   0.081   3.843   4.617 -0.0725 -0.4470 -0.0384
 2060SOL    HW1 7621   0.108   3.916   4.674 -1.2839 -0.1427  0.1688
 2060SOL    HW2 7622  -0.015   3.848   4.616 -0.1229 -1.4238 -0.8434
 2061SOL     OW 7623   0.648   2.900   4.802 -0.1494 -0.4623  0.5040
 2061SOL    HW1 7624   0.602   2.818   4.820 -0.7511 -0.2025  0.1811
 2061SOL    HW2 7625   0.578   2.964   4.787  0.3126 -0.1027 -0.1867
 2062SOL     OW 7626   2.689   2.060   5.454 -0.7019 -0.0393 -0.1153
 2062SOL    HW1 7627   2.731   2.136   5.496  1.7558 -2.0971  1.4604
 2062SOL    HW2 7628   2.687   2.084   5.361  1.5063  1.3709  0.0971
 2063SOL     OW 7629   0.848   1.741   4.634 -0.5401 -0.6274  0.2775
 2063SOL    HW1 7630   0.776   1.740   4.571 -0.6488  0.3391  0.3691
 2063SOL    HW2 7631   0.805   1.748   4.719 -0.3462  0.9794  0.2787
 2064SOL     OW 7632   0.908   3.643   3.587  0.1653  0.2864  0.0276
 2064SOL    HW1 7633   0.813   3.647   3.577  0.1949  0.0554 -0.3785
 2064SOL    HW2 7634   0.931   3.727   3.628 -0.1445  0.6129 -0.4467
 2065SOL     OW 7635   2.239   2.313   7.932 -0.0050  0.0962 -0.3252
 2065SOL    HW1 7636   2.199   2.326   7.846  1.7671 -1.1316 -1.4171
 2065SOL    HW2 7637   2.266   2.221   7.932  0.0075  0.0564  1.5689
 2066SOL     OW 7638   7.272   5.562   4.941 -0.1148  0.3037  0.5698
 2066SOL    HW1 7639   7.328   5.623   4.990  0.3635  0.2320  0.1224
 2066SOL    HW2 7640   7.322   5.480   4.940 -0.0374  0.3537 -0.1836
 2067SOL     OW 7641   0.136   1.181   7.857  0.0315  0.0072  0.3439
 2067SOL    HW1 7642   0.208   1.128   7.824 -0.0568  0.8639 -1.3326
 2067SOL    HW2 7643   0.177   1.264   7.881 -0.2977  0.2621  0.0205
 2068SOL     OW 7644   1.211   1.330   6.292  0.2010  0.0357  0.1034
 2068SOL    HW1 7645   1.244   1.290   6.372  0.4675  1.3348  0.6714
 2068SOL    HW2 7646   1.288   1.367   6.250 -0.0987  0.4101 -0.1288
 2069SOL     OW 7647   5.084   2.938   3.329 -0.6666  0.0925  0.2648
 2069SOL    HW1 7648   5.071   2.864   3.388  2.3920  0.0299  1.0112
 2069SOL    HW2 7649   5.166   2.918   3.283  0.3899  3.0745  0.6427
 2070SOL     OW 7650   1.797   0.326   4.850  0.1946 -0.2137 -0.7916
 2070SOL    HW1 7651   1.880   0.366   4.823  0.7282 -0.5263  0.3327
 2070SOL    HW2 7652   1.752   0.306   4.767  0.4070  1.6370 -1.3945
 2071SOL     OW 7653   7.045   2.633   3.578 -0.0448  0.2238 -0.2879
 2071SOL    HW1 7654   7.046   2.604   3.669 -0.9084  2.3680  0.4835
 2071SOL    HW2 7655   7.137   2.650   3.557  0.1842 -0.5257  0.0840
 2072SOL     OW 7656   1.596   3.246   3.996  0.1924  0.1512 -0.1987
 2072SOL    HW1 7657   1.586   3.270   3.904 -0.1406  2.0219  0.3016
 2072SOL    HW2 7658   1.507   3.240   4.030  0.3153  2.7048  0.7593
 2073SOL     OW 7659   1.032   4.565   3.327 -0.1393 -0.3405  0.4285
 2073SOL    HW1 7660   1.040   4.480   3.284  2.3363 -0.5138  1.0354
 2073SOL    HW2 7661   1.081   4.555   3.409 -0.0944  1.5502  0.6860
 2074SOL     OW 7662   1.684   3.706   4.727  0.1620 -0.3376  0.3227
 2074SOL    HW1 7663   1.710   3.688   4.636  0.6034  0.3964  0.2894
 2074SOL    HW2 7664   1.716   3.795   4.743 -2.5412  0.7769  0.1825
 2075SOL     OW 7665   7.880   1.678   5.191 -0.8911 -0.6600 -0.3059
 2075SOL    HW1 7666   7.817   1.674   5.262 -0.9878 -0.0201 -0.3509
 2075SOL    HW2 7667   7.929   1.759   5.206  0.2937 -1.4010  0.0370
 2076SOL     OW 7668   0.579   4.285   7.911 -0.4053  0.2514 -0.2137
 2076SOL    HW1 7669   0.488   4.275   7.940 -0.2464  0.8429  0.5184
 2076SOL    HW2 7670   0.593   4.212   7.851 -1.0496 -0.4663  0.4767
 2077SOL     OW 7671   7.251   2.908   6.723  0.9888 -0.3959  0.1547
 2077SOL    HW1 7672   7.300   2.907   6.641 -1.1252  1.7163 -1.2671
 2077SOL    HW2 7673   7.196   2.986   6.717 -0.2632 -0.9334  3.0040
 2078SOL     OW 7674   0.420   1.153   3.679  0.1357  0.2026  0.5515
 2078SOL    HW1 7675   0.504   1.175   3.640  0.6762  1.0435  2.1131
 2078SOL    HW2 7676   0.373   1.106   3.610  1.1625  1.3201 -0.9879
 2079SOL     OW 7677   0.692   1.223   5.469  0.1919  0.2830  0.2047
 2079SOL    HW1 7678   0.770   1.267   5.436  2.1418 -2.3906  0.8964
 2079SOL    HW2 7679   0.671   1.269   5.550 -0.4417  2.5000 -1.1337
 2080SOL     OW 7680   7.748   4.506   5.027  0.6136 -0.4513 -0.2571
 2080SOL    HW1 7681   7.810   4.443   5.065  0.8857  0.5809  1.0848
 2080SOL    HW2 7682   7.715   4.556   5.102 -0.8547 -0.0827 -1.0989
 2081SOL     OW 7683   1.281   1.868   7.732  0.1546 -0.3648 -0.0956
 2081SOL    HW1 7684   1.246   1.942   7.682  0.8680  0.4622  0.5996
 2081SOL    HW2 7685   1.296   1.800   7.666 -0.8509 -0.0332 -0.6942
 2082SOL     OW 7686   2.707   2.160   6.668  0.6895  1.1908 -0.3711
 2082SOL    HW1 7687   2.708   2.070   6.702 -0.4020  1.3664  0.1570
 2082SOL    HW2 7688   2.670   2.152   6.580  0.1267  1.1715 -0.1388
 2083SOL     OW 7689   2.092   2.915   4.535 -0.2107 -0.4987  0.0020
 2083SOL    HW1 7690   2.021   2.851   4.542 -0.6010 -0.1135 -0.4027
 2083SOL    HW2 7691   2.169   2.867   4.564 -0.5028 -1.1420 -0.2511
 2084SOL     OW 7692   6.649   4.517   4.759 -0.3558  0.5823 -0.5223
 2084SOL    HW1 7693   6.676   4.450   4.696  3.9778 -0.3986  1.9364
 2084SOL    HW2 7694   6.618   4.468   4.834  0.6999  1.3382  0.4503
 2085SOL     OW 7695   0.214   4.036   3.934  0.4348  0.5122 -0.1260
 2085SOL    HW1 7696   0.227   3.999   4.021  1.5987  1.4822  0.1458
 2085SOL    HW2 7697   0.272   3.987   3.877 -0.2233 -0.0295 -0.3437
 2086SOL     OW 7698   2.327   3.256   3.010 -0.1883 -0.6929 -0.0991
 2086SOL    HW1 7699   2.416   3.285   2.989  0.2717  0.0357  2.5426
 2086SOL    HW2 7700   2.276   3.337   3.012 -0.8141 -1.0470 -0.9901
 2087SOL     OW 7701   0.177   2.730   3.966 -0.0526  0.5387 -0.6855
 2087SOL    HW1 7702   0.203   2.641   3.992  2.0333  1.3262  0.1427
 2087SOL    HW2 7703   0.155   2.722   3.873 -2.6546 -1.3389 -0.0462
 2088SOL     OW 7704   1.129   4.205   6.833  0.1750  0.2413 -0.5076
 2088SOL    HW1 7705   1.149   4.246   6.749 -1.9984 -0.4851 -1.4437
 2088SOL    HW2 7706   1.172   4.261   6.898  1.7139  0.9469 -2.0573
 2089SOL     OW 7707   6.463   2.948   4.539 -0.1036 -0.2325  0.2952
 2089SOL    HW1 7708   6.402   2.997   4.483 -0.4535  0.2488  1.0930
 2089SOL    HW2 7709   6.450   2.983   4.626  1.4292 -0.0260  0.4628
 2090SOL     OW 7710   6.886   3.475   6.953 -0.4241  0.0254  0.1596
 2090SOL    HW1 7711   6.884   3.441   7.043 -0.6984  2.0760  1.0004
 2090SOL    HW2 7712   6.809   3.532   6.948 -0.0807  0.4010 -1.1934
 2091SOL     OW 7713   2.136   3.030   5.378  0.3300 -0.0284  0.3741
 2091SOL    HW1 7714   2.064   3.001   5.322  0.7899 -0.4782 -0.0071
 2091SOL    HW2 7715   2.198   3.071   5.317 -0.2315  1.6429  0.8795
 2092SOL     OW 7716   1.317   2.172   4.765 -0.0375  0.5598 -0.2670
 2092SOL    HW1 7717   1.278   2.210   4.686  1.4425  1.6757 -0.4950
 2092SOL    HW2 7718   1.308   2.240   4.831 -0.1117  0.1126  0.1924
 2093SOL     OW 7719   0.384   2.194   5.999  0.5157  0.2072 -0.4611
 2093SOL    HW1 7720   0.312   2.138   6.027  1.9679 -1.1975  0.6287
 2093SOL    HW2 7721   0.357   2.227   5.913 -1.6688  0.2491  0.1759
 2094SOL     OW 7722   0.327   2.289   5.762  0.0344  0.5522 -0.5374
 2094SOL    HW1 7723   0.398   2.299   5.698 -0.4983 -0.2412 -1.2719
 2094SOL    HW2 7724   0.285   2.375   5.765 -1.2805  0.0521 -2.8782
 2095SOL     OW 7725   7.419   3.831   6.922 -0.3704 -0.0395  0.7843
 2095SOL    HW1 7726   7.500   3.798   6.882 -0.8516 -1.2604  0.7677
 2095SOL    HW2 7727   7.349   3.782   6.879 -1.0065 -0.1839  1.9326
 2096SOL     OW 7728   7.749   2.234   6.718 -0.1754 -0.1108  0.2730
 2096SOL    HW1 7729   7.699   2.281   6.785 -0.5431  0.5718 -0.4618
 2096SOL    HW2 7730   7.814   2.184   6.767 -1.5585 -1.0235  1.2617
 2097SOL     OW 7731   2.644   2.479   5.985 -0.2804 -0.3611  0.5043
 2097SOL    HW1 7732   2.674   2.494   5.896  0.8632  0.1238  0.9513
 2097SOL    HW2 7733   2.587   2.401   5.979 -0.3944 -0.1993 -0.6618
 2098SOL     OW 7734   7.502   5.975   4.935  0.1838 -0.1640  0.1013
 2098SOL    HW1 7735   7.415   6.011   4.918  0.6762  1.0382  0.0377
 2098SOL    HW2 7736   7.540   5.960   4.848  0.4585  0.3769  0.1248
 2099SOL     OW 7737   7.102   3.929   7.686 -0.0108  0.4004  0.0812
 2099SOL    HW1 7738   7.109   3.972   7.600  1.2612 -1.7354 -0.9762
 2099SOL    HW2 7739   7.085   3.838   7.665 -2.6378  0.2823  2.2382
 2100SOL     OW 7740   7.981   1.630   5.595  0.2762 -0.4215  0.4954
 2100SOL    HW1 7741   7.944   1.644   5.682  0.6506 -1.1413  0.7810
 2100SOL    HW2 7742   7.979   1.717   5.554 -1.8621 -0.4545  0.4212
 2101SOL     OW 7743   1.407   1.591   3.218  0.5590 -0.1050  0.8024
 2101SOL    HW1 7744   1.369   1.676   3.240 -1.5234 -1.2159  1.8193
 2101SOL    HW2 7745   1.385   1.579   3.125  0.7292  0.3733  0.6946
 2102SOL     OW 7746   2.020   2.146   6.407  0.3898  0.3949  0.1025
 2102SOL    HW1 7747   2.096   2.107   6.450  0.7574 -0.6766 -1.4309
 2102SOL    HW2 7748   2.056   2.222   6.361  0.4121  0.2670 -0.0915
 2103SOL     OW 7749   0.407   1.698   4.930 -0.2362  0.7741  0.1347
 2103SOL    HW1 7750   0.378   1.608   4.940  0.4674  0.4063 -0.9705
 2103SOL    HW2 7751   0.375   1.725   4.844  2.7817  0.2476 -1.2854
 2104SOL     OW 7752   0.238   4.814   3.923 -0.7692 -0.1615 -0.0511
 2104SOL    HW1 7753   0.278   4.728   3.909  0.2230  0.2373  0.2810
 2104SOL    HW2 7754   0.264   4.839   4.011  0.9890  1.5194 -0.9637
 2105SOL     OW 7755   7.160   3.607   3.788 -0.1636 -0.0550  0.3492
 2105SOL    HW1 7756   7.173   3.539   3.721  2.1332  0.2401  0.4075
 2105SOL    HW2 7757   7.115   3.678   3.741  0.5652 -0.2301 -0.6580
 2106SOL     OW 7758   7.833   1.487   7.684 -0.4002 -0.0789  0.3851
 2106SOL    HW1 7759   7.836   1.579   7.660  0.5195  0.5626  2.7201
 2106SOL    HW2 7760   7.741   1.469   7.701 -0.3245  1.1494  2.3804
 2107SOL     OW 7761   1.464   2.203   7.761  0.4467 -0.1138 -0.1165
 2107SOL    HW1 7762   1.530   2.149   7.716  0.1454 -0.8841  0.3526
 2107SOL    HW2 7763   1.407   2.234   7.691  0.6369 -0.3954 -0.4018
 2108SOL     OW 7764   1.267   3.481   8.554  0.1762 -0.5747  0.2893
 2108SOL    HW1 7765   1.268   3.561   8.500 -0.1257  0.6886  2.0777
 2108SOL    HW2 7766   1.342   3.431   8.523  0.8821  0.7944 -0.3264
 2109SOL     OW 7767   1.511   3.047   6.086  0.5859  0.3430 -0.4696
 2109SOL    HW1 7768   1.552   3.129   6.060  1.9915 -0.4727 -0.8998
 2109SOL    HW2 7769   1.571   2.979   6.056 -0.1404 -0.8202  0.6053
 2110SOL     OW 7770   0.425   1.888   5.621  0.2033  0.5339  0.5540
 2110SOL    HW1 7771   0.408   1.979   5.598 -2.2119 -0.7158 -3.6704
 2110SOL    HW2 7772   0.349   1.862   5.674 -1.4536  0.0306 -1.8842
 2111SOL     OW 7773   2.352   1.846   5.232 -0.0885  0.2394 -0.5999
 2111SOL    HW1 7774   2.376   1.866   5.322  0.3880 -0.9067 -0.4499
 2111SOL    HW2 7775   2.257   1.859   5.228  0.2732  3.4004 -0.8099
 2112SOL     OW 7776   7.615   1.895   7.070  0.4088 -0.8329  0.4526
 2112SOL    HW1 7777   7.661   1.812   7.057 -0.0048 -1.1465  0.9572
 2112SOL    HW2 7778   7.562   1.905   6.991  0.3218 -1.1396  0.4712
 2113SOL     OW 7779   1.383   1.352   7.142 -0.5006  0.3291  0.0744
 2113SOL    HW1 7780   1.446   1.398   7.198 -1.0754 -0.0434  1.0568
 2113SOL    HW2 7781   1.337   1.422   7.096  0.7418  0.5987 -0.8060
 2114SOL     OW 7782   0.792   4.302   6.724  0.0297 -0.0389  0.3249
 2114SOL    HW1 7783   0.796   4.226   6.782 -0.9669  0.9469  1.7529
 2114SOL    HW2 7784   0.700   4.330   6.728  0.2417  0.8504 -0.6971
 2115SOL     OW 7785   0.075   2.330   7.882 -0.7057 -0.1543  0.4525
 2115SOL    HW1 7786   0.091   2.424   7.872  2.3618 -0.7289 -1.4228
 2115SOL    HW2 7787   0.012   2.309   7.813 -0.1998  0.3201 -0.1726
 2116SOL     OW 7788   7.664   3.109   8.574 -0.7446 -0.0767 -0.7826
 2116SOL    HW1 7789   7.574   3.108   8.608 -0.9131 -3.1246 -1.0832
 2116SOL    HW2 7790   7.713   3.054   8.635  1.1372  2.0487 -0.2647
 2117SOL     OW 7791   0.607   3.536   8.842  0.2208 -0.1819  0.1409
 2117SOL    HW1 7792   0.518   3.518   8.873  0.1824  0.5162  0.4721
 2117SOL    HW2 7793   0.664   3.488   8.903  0.0735 -0.6438 -0.0819
 2118SOL     OW 7794   3.841   1.928   6.781 -0.0165 -0.1026 -0.6121
 2118SOL    HW1 7795   3.882   2.015   6.781 -1.0685  0.4424  1.1547
 2118SOL    HW2 7796   3.748   1.945   6.767 -0.2623 -0.9185 -0.0530
 2119SOL     OW 7797   0.622   2.421   5.029  0.3651 -0.1407  0.1998
 2119SOL    HW1 7798   0.542   2.371   5.010  0.1018  0.6239 -0.7401
 2119SOL    HW2 7799   0.618   2.437   5.124  0.1588 -1.3752  0.4181
 2120SOL     OW 7800   1.006   5.386   7.613 -0.3608 -0.6735  0.2495
 2120SOL    HW1 7801   0.935   5.328   7.588 -0.5199 -1.1758  1.8064
 2120SOL    HW2 7802   0.985   5.413   7.702  1.0507 -0.2936  0.4893
 2121SOL     OW 7803   7.861   2.261   7.083 -0.0151  0.4735 -0.8333
 2121SOL    HW1 7804   7.782   2.215   7.111 -0.4309  1.4611 -0.3522
 2121SOL    HW2 7805   7.908   2.197   7.030 -0.9118 -0.2782 -0.7444
 2122SOL     OW 7806   7.192   2.696   8.408 -0.5256 -0.0562  0.3545
 2122SOL    HW1 7807   7.233   2.764   8.462  0.8369 -0.1970 -0.4351
 2122SOL    HW2 7808   7.191   2.733   8.320 -0.9110 -0.5763  0.1399
 2123SOL     OW 7809   0.261   2.473   9.201  0.0036 -0.2574  0.4817
 2123SOL    HW1 7810   0.280   2.530   9.126  0.2064  0.1457  0.8362
 2123SOL    HW2 7811   0.263   2.532   9.277 -0.9218 -0.5247  0.7311
 2124SOL     OW 7812   1.772   3.805   7.744  0.7322 -0.2834  0.1205
 2124SOL    HW1 7813   1.859   3.803   7.706  0.5333 -0.9840 -0.3288
 2124SOL    HW2 7814   1.731   3.884   7.710  0.9595 -0.3081 -0.2051
 2125SOL     OW 7815   0.340   3.697   4.626  0.2011 -0.5881 -0.4243
 2125SOL    HW1 7816   0.372   3.687   4.715  0.1509 -2.0894 -0.5498
 2125SOL    HW2 7817   0.253   3.737   4.637  1.0093  1.1596  0.0445
 2126SOL     OW 7818   2.563   3.062   7.811  0.6681 -0.1065  0.0122
 2126SOL    HW1 7819   2.616   3.048   7.733 -1.3422  0.0707 -1.4638
 2126SOL    HW2 7820   2.554   3.157   7.818  0.7982 -0.1233  0.4234
 2127SOL     OW 7821   0.045   1.982   6.621  0.0236 -0.5524 -0.3347
 2127SOL    HW1 7822   0.030   2.073   6.597  1.7690 -0.5994 -1.8710
 2127SOL    HW2 7823   0.134   1.980   6.656 -0.3313 -1.5313  0.5845
 2128SOL     OW 7824   2.567   2.166   5.709 -0.3122  0.2603 -0.1074
 2128SOL    HW1 7825   2.646   2.112   5.712 -0.8493 -0.6836 -1.6629
 2128SOL    HW2 7826   2.576   2.219   5.630 -0.7852  0.8927  0.2497
 2129SOL     OW 7827   7.421   3.960   7.174  0.0778  0.6565  0.6742
 2129SOL    HW1 7828   7.332   3.943   7.206 -1.7211  3.6963 -2.0888
 2129SOL    HW2 7829   7.427   3.910   7.092  0.5160  1.2118  0.3601
 2130SOL     OW 7830   3.030   0.839   7.172  0.4376 -0.0738 -0.4888
 2130SOL    HW1 7831   2.942   0.862   7.144  1.1983  1.5364 -1.7271
 2130SOL    HW2 7832   3.018   0.766   7.232 -1.6872 -0.2128 -1.0125
 2131SOL     OW 7833   1.197   3.422   6.396  0.3958  0.0816  0.5375
 2131SOL    HW1 7834   1.270   3.405   6.337 -0.2849  1.2462 -0.7054
 2131SOL    HW2 7835   1.139   3.479   6.346 -1.2327 -0.5842  1.6015
 2132SOL     OW 7836   5.345   2.872   8.561  0.0883 -0.1787 -0.0122
 2132SOL    HW1 7837   5.253   2.872   8.534  0.0874 -1.1584 -0.0715
 2132SOL    HW2 7838   5.344   2.836   8.650  0.5187 -1.6174 -0.5487
 2133SOL     OW 7839   1.331   3.862   5.821  0.1580  0.4282 -0.5875
 2133SOL    HW1 7840   1.394   3.793   5.842 -0.1047  0.7176  1.2961
 2133SOL    HW2 7841   1.274   3.867   5.898 -2.1184  0.2629 -2.1765
 2134SOL     OW 7842   0.196   1.158  10.672 -0.1622 -0.0313  0.4792
 2134SOL    HW1 7843   0.286   1.126  10.662  0.1457 -0.0564  2.8642
 2134SOL    HW2 7844   0.204   1.236  10.726 -1.6260 -0.4415  1.3531
 2135SOL     OW 7845   7.725   1.728   4.688  0.1291  0.3351  0.4824
 2135SOL    HW1 7846   7.742   1.724   4.782 -0.1412  0.0818  0.5209
 2135SOL    HW2 7847   7.639   1.689   4.677 -0.4293  1.5688  0.2797
 2136SOL     OW 7848   3.224   1.870   5.922 -0.8613  0.7471  0.1204
 2136SOL    HW1 7849   3.226   1.892   5.829  1.3418  2.5081  0.4896
 2136SOL    HW2 7850   3.165   1.934   5.961  1.1143  2.5515  0.3706
 2137SOL     OW 7851   1.066   2.248   7.086 -0.5181  0.3409 -0.9101
 2137SOL    HW1 7852   1.098   2.226   6.998  0.7878  1.6329 -0.7930
 2137SOL    HW2 7853   1.023   2.332   7.075  1.5020  1.5606  0.0207
 2138SOL     OW 7854   6.658   0.735   7.393  0.3668  0.1090  0.2998
 2138SOL    HW1 7855   6.638   0.823   7.362 -0.3962 -0.5143 -1.1257
 2138SOL    HW2 7856   6.573   0.696   7.410  0.7411 -0.0282  1.9415
 2139SOL     OW 7857   7.206   4.201   4.072 -0.1383 -0.1250  0.0489
 2139SOL    HW1 7858   7.160   4.141   4.014  1.1543 -1.4664  0.3363
 2139SOL    HW2 7859   7.249   4.144   4.136  1.7931  1.0239 -0.1200
 2140SOL     OW 7860   7.365   3.729   6.636  0.1855 -0.3581  0.6683
 2140SOL    HW1 7861   7.310   3.697   6.564  0.6691 -1.0560  0.6025
 2140SOL    HW2 7862   7.428   3.787   6.594  0.5656 -0.8869  0.5036
 2141SOL     OW 7863   6.604   1.605   6.206 -0.0312 -0.3014 -0.3384
 2141SOL    HW1 7864   6.552   1.616   6.286 -0.7528  1.0167 -0.9576
 2141SOL    HW2 7865   6.553   1.647   6.138  0.9908 -0.6257 -1.3433
 2142SOL     OW 7866   0.548   2.138   6.423 -0.4890  0.2255 -0.1231
 2142SOL    HW1 7867   0.487   2.202   6.458  0.2351  0.5529  0.5835
 2142SOL    HW2 7868   0.556   2.160   6.330 -0.8873  0.6327 -0.0616
 2143SOL     OW 7869   2.275   3.779   5.021  0.6490  0.1029 -0.0016
 2143SOL    HW1 7870   2.282   3.726   5.100  1.5609  0.2076 -0.0062
 2143SOL    HW2 7871   2.291   3.868   5.050 -1.4781  0.5037  0.1108
 2144SOL     OW 7872   0.069   1.616   7.274 -0.1680 -0.6647 -0.5922
 2144SOL    HW1 7873   0.149   1.666   7.288 -1.8439  1.5976  1.9063
 2144SOL    HW2 7874   0.059   1.563   7.354 -2.0176  0.4608 -0.0319
 2145SOL     OW 7875   3.823   2.770   6.777 -0.7548 -0.3998 -0.1123
 2145SOL    HW1 7876   3.838   2.813   6.693 -2.8387 -2.1545 -1.4891
 2145SOL    HW2 7877   3.872   2.688   6.770  0.5034  0.2059  1.1522
 2146SOL     OW 7878   1.661   2.443   8.690 -0.2624 -0.1386 -0.2315
 2146SOL    HW1 7879   1.610   2.493   8.754 -2.8884 -1.3773 -1.1966
 2146SOL    HW2 7880   1.660   2.497   8.611  0.2321 -0.0219 -0.1597
 2147SOL     OW 7881   7.793   1.762   7.598  0.8819 -0.5574  0.1376
 2147SOL    HW1 7882   7.776   1.822   7.671  2.1262  0.0402 -0.0227
 2147SOL    HW2 7883   7.718   1.772   7.539  1.1483  1.0070  0.0257
 2148SOL     OW 7884   2.731   4.665   6.559 -0.6831  0.2025 -0.1953
 2148SOL    HW1 7885   2.818   4.675   6.518 -1.3191  0.0052 -1.6480
 2148SOL    HW2 7886   2.749   4.624   6.643  0.5264 -1.3202 -1.1345
 2149SOL     OW 7887   5.431   2.647   4.067 -0.6146  0.4197 -0.2006
 2149SOL    HW1 7888   5.410   2.588   3.995 -0.3243  1.8903 -1.5585
 2149SOL    HW2 7889   5.356   2.706   4.072  0.8572  2.6375 -1.8452
 2150SOL     OW 7890   0.858   3.353   5.454  0.1935  0.0834  0.2518
 2150SOL    HW1 7891   0.868   3.258   5.456 -0.0704  0.0425 -0.1192
 2150SOL    HW2 7892   0.792   3.368   5.386  0.1937  0.5274  0.3477
 2151SOL     OW 7893   0.014   3.272   5.220 -0.5009  0.4720  0.5705
 2151SOL    HW1 7894   0.024   3.310   5.307  1.0736  0.9195  0.2197
 2151SOL    HW2 7895   0.060   3.333   5.162 -2.1447  0.5903 -0.7111
 2152SOL     OW 7896   2.378   3.128   6.839 -0.7251 -0.1789 -0.1643
 2152SOL    HW1 7897   2.316   3.198   6.818 -0.0761  0.2049 -0.8226
 2152SOL    HW2 7898   2.414   3.101   6.755 -0.6236 -0.9989  0.1268
 2153SOL     OW 7899   2.635   2.332   6.306  0.1026  0.1892  0.5653
 2153SOL    HW1 7900   2.678   2.264   6.253 -1.3764  0.4778 -1.1041
 2153SOL    HW2 7901   2.699   2.404   6.308  0.8931 -0.4993  0.6913
 2154SOL     OW 7902   7.760   3.289   5.505  0.2530 -0.1764 -0.1730
 2154SOL    HW1 7903   7.700   3.300   5.579  0.6065 -0.8018  0.2129
 2154SOL    HW2 7904   7.747   3.368   5.452 -0.3161  0.0757  0.3306
 2155SOL     OW 7905   7.719   3.314   5.135  0.1395 -0.4045  0.5913
 2155SOL    HW1 7906   7.803   3.291   5.176  1.8565  1.2560 -1.7318
 2155SOL    HW2 7907   7.717   3.410   5.139 -1.3913 -0.4035  0.1234
 2156SOL     OW 7908   0.065   3.992   6.998  0.0070 -0.1412  0.4149
 2156SOL    HW1 7909   0.142   3.997   6.941 -1.7199  1.2396 -1.9623
 2156SOL    HW2 7910   0.059   4.080   7.037  0.6206 -0.7905  2.0615
 2157SOL     OW 7911   4.382   2.496   6.215 -0.5050 -0.2670 -0.5226
 2157SOL    HW1 7912   4.306   2.551   6.196  1.4577  2.5892 -0.7345
 2157SOL    HW2 7913   4.419   2.532   6.295 -0.2348 -2.6487  0.5118
 2158SOL     OW 7914   0.646   1.494   9.677 -0.1360  0.2972 -0.1589
 2158SOL    HW1 7915   0.720   1.554   9.663 -0.3327  0.0896 -2.4362
 2158SOL    HW2 7916   0.587   1.543   9.735  0.2233  1.8789 -1.0571
 2159SOL     OW 7917   0.497   2.761   6.212 -0.5252  0.1147 -0.5788
 2159SOL    HW1 7918   0.481   2.812   6.291 -1.9243  1.8882 -1.9045
 2159SOL    HW2 7919   0.573   2.803   6.171 -1.2143  0.7083 -1.2926
 2160SOL     OW 7920   1.701   3.263   5.240 -0.5983 -0.2445  0.1010
 2160SOL    HW1 7921   1.747   3.335   5.282 -0.1984 -0.7635  0.5623
 2160SOL    HW2 7922   1.631   3.305   5.189 -0.2638  0.4714  0.2307
 2161SOL     OW 7923   0.275   3.766   7.987  0.5861 -0.0981 -0.8826
 2161SOL    HW1 7924   0.236   3.714   8.057  0.3408 -0.1870 -1.0831
 2161SOL    HW2 7925   0.370   3.754   7.998  0.5364 -0.4589 -0.8315
 2162SOL     OW 7926   1.286   3.689   5.397  0.5706 -0.6534  0.5591
 2162SOL    HW1 7927   1.331   3.610   5.427  1.5347 -0.7373 -0.9811
 2162SOL    HW2 7928   1.323   3.706   5.310 -1.0399  0.3736  0.0295
 2163SOL     OW 7929   5.564   1.494   6.502  0.1366  1.0496  0.5029
 2163SOL    HW1 7930   5.560   1.587   6.525  0.5189  0.9030  1.1786
 2163SOL    HW2 7931   5.498   1.453   6.558 -1.1027  1.1099 -0.8578
 2164SOL     OW 7932   1.799   1.928   6.278  0.4979 -0.6741  0.7481
 2164SOL    HW1 7933   1.800   1.878   6.360 -0.3174 -2.0337 -0.0460
 2164SOL    HW2 7934   1.888   1.919   6.243 -0.0268 -2.8913 -0.1355
 2165SOL     OW 7935   0.727   4.541   6.290  0.0843  0.2382 -0.1836
 2165SOL    HW1 7936   0.677   4.588   6.223  0.8703 -1.5613 -2.1474
 2165SOL    HW2 7937   0.708   4.449   6.273  1.3979 -0.3240  1.2321
 2166SOL     OW 7938   1.970   2.265   6.785  0.2884 -0.1798  0.0928
 2166SOL    HW1 7939   1.995   2.257   6.877 -0.2360 -1.4548  0.1398
 2166SOL    HW2 7940   2.042   2.316   6.745  0.2759  0.8066  1.2826
 2167SOL     OW 7941   0.930   4.330   7.604 -0.8363  0.2453  0.2454
 2167SOL    HW1 7942   0.984   4.357   7.679 -1.9352  0.2581  1.0440
 2167SOL    HW2 7943   0.879   4.256   7.636  0.5830 -1.5226 -1.2933
 2168SOL     OW 7944   0.691   4.522   7.747 -0.1943 -0.3779 -0.8194
 2168SOL    HW1 7945   0.781   4.557   7.753  0.6571 -2.3058 -1.6290
 2168SOL    HW2 7946   0.666   4.507   7.838  0.4487 -0.1561 -0.5955
 2169SOL     OW 7947   1.471   1.916   6.640 -0.1114 -0.0523 -0.4798
 2169SOL    HW1 7948   1.489   1.827   6.609  1.9806  0.2526 -0.2370
 2169SOL    HW2 7949   1.474   1.970   6.561  4.3323  0.5870 -0.1324
 2170SOL     OW 7950   0.815   2.448   7.978  0.1315  0.2034 -0.1252
 2170SOL    HW1 7951   0.826   2.384   7.908  0.2040 -0.1327  0.1904
 2170SOL    HW2 7952   0.733   2.423   8.021 -0.7518  1.3651 -1.0796
 2171SOL     OW 7953   0.913   2.511   6.986 -0.3368  0.4581 -0.5482
 2171SOL    HW1 7954   0.909   2.549   7.074 -2.1354 -0.5409 -0.1400
 2171SOL    HW2 7955   0.848   2.560   6.935  0.0709  0.4592 -1.0702
 2172SOL     OW 7956   1.591   1.901   6.081  0.1715  0.2041  0.1311
 2172SOL    HW1 7957   1.646   1.919   6.158  0.6411  1.2320 -0.4211
 2172SOL    HW2 7958   1.508   1.944   6.100 -0.0711 -0.4085  0.4894
 2173SOL     OW 7959   0.051   3.351   7.724 -0.1229  0.5254  0.4109
 2173SOL    HW1 7960   0.018   3.362   7.635  0.0069 -2.3892 -0.1099
 2173SOL    HW2 7961   0.117   3.419   7.734  1.4175 -0.3288 -2.5679
 2174SOL     OW 7962   1.243   2.058   8.857  0.1865  0.3860  0.2861
 2174SOL    HW1 7963   1.154   2.059   8.823 -0.1641 -0.1909  1.1445
 2174SOL    HW2 7964   1.296   2.025   8.784 -0.2938  0.7732 -0.2430
 2175SOL     OW 7965   0.498   3.247   6.480  0.1954 -0.0116 -0.3021
 2175SOL    HW1 7966   0.412   3.257   6.520  0.6718  0.4466  0.6377
 2175SOL    HW2 7967   0.557   3.298   6.536  1.1453 -0.6465 -0.6986
 2176SOL     OW 7968   0.008   3.204   5.553  0.0550 -0.2249 -0.3821
 2176SOL    HW1 7969  -0.080   3.241   5.555  0.9356  1.9726  0.9899
 2176SOL    HW2 7970  -0.005   3.110   5.564 -2.1086  0.0478 -0.3103
 2177SOL     OW 7971   1.833   3.650   8.972 -0.2895 -0.4471 -0.0755
 2177SOL    HW1 7972   1.927   3.671   8.968 -0.1385 -0.7408  1.5477
 2177SOL    HW2 7973   1.790   3.730   8.942  0.3821  1.2480  3.0304
 2178SOL     OW 7974   3.218   2.868   6.093  0.1164  0.5578  1.0557
 2178SOL    HW1 7975   3.292   2.897   6.147  1.0563 -1.0248  0.6819
 2178SOL    HW2 7976   3.201   2.941   6.035  0.9656  1.1993  1.5849
 2179SOL     OW 7977   1.466   0.669   5.003 -0.3478  0.3939 -0.0587
 2179SOL    HW1 7978   1.542   0.639   5.053  0.2700  1.9681 -0.0115
 2179SOL    HW2 7979   1.391   0.649   5.059 -0.1555 -2.3672 -0.6408
 2180SOL     OW 7980   7.531   3.242   5.685  0.3116  0.3111 -0.2123
 2180SOL    HW1 7981   7.602   3.270   5.743 -1.7811  0.2635  2.6077
 2180SOL    HW2 7982   7.483   3.178   5.737 -1.5676  0.0309 -2.1758
 2181SOL     OW 7983   7.243   3.428   7.183  0.1615  0.1734 -0.3519
 2181SOL    HW1 7984   7.181   3.429   7.256 -0.5875 -1.0041 -0.9376
 2181SOL    HW2 7985   7.213   3.356   7.127  1.3414  0.3728 -1.2832
 2182SOL     OW 7986   0.233   2.711   6.736  0.4021  0.1755 -1.0058
 2182SOL    HW1 7987   0.286   2.790   6.744 -1.0947  1.1393 -0.0437
 2182SOL    HW2 7988   0.163   2.735   6.676 -1.2452  0.3133  0.8863
 2183SOL     OW 7989   7.868   5.480   5.091 -0.1930 -0.5023  0.0398
 2183SOL    HW1 7990   7.900   5.441   5.010  1.3457 -0.0478  0.3902
 2183SOL    HW2 7991   7.778   5.450   5.098 -0.2002 -0.9707 -1.5710
 2184SOL     OW 7992   7.824   3.954   4.015 -0.6433  0.2406  0.4233
 2184SOL    HW1 7993   7.850   4.019   4.080 -0.0056 -0.1802  0.5980
 2184SOL    HW2 7994   7.839   3.998   3.931 -0.4535  0.4080  0.5424
 2185SOL     OW 7995   1.024   2.053   5.817 -0.0506 -0.4946  0.5360
 2185SOL    HW1 7996   1.067   1.977   5.777 -0.4045 -1.7078  2.3252
 2185SOL    HW2 7997   1.092   2.092   5.872  0.3449  0.9762 -0.9275
 2186SOL     OW 7998   0.217   1.965   7.718  0.0500  0.1663  0.6186
 2186SOL    HW1 7999   0.157   1.901   7.679  1.1920 -0.1380 -0.7217
 2186SOL    HW2 8000   0.252   2.013   7.643  0.1837  1.5183  1.5152
 2187SOL     OW 8001   0.562   2.337   6.902 -0.7825  0.2544  0.2554
 2187SOL    HW1 8002   0.515   2.352   6.820 -0.3447  0.4545  0.0352
 2187SOL    HW2 8003   0.638   2.285   6.877  0.0063  1.3319  0.3295
 2188SOL     OW 8004   1.165   3.057   7.387  0.1981 -0.0985 -0.0885
 2188SOL    HW1 8005   1.141   3.128   7.447 -0.3999 -1.6230  1.5786
 2188SOL    HW2 8006   1.083   3.037   7.340 -0.1945 -0.9652  0.9029
 2189SOL     OW 8007   1.652   4.361   5.689 -0.4445 -0.0287  0.3524
 2189SOL    HW1 8008   1.703   4.430   5.732 -0.5035  0.7501 -0.7773
 2189SOL    HW2 8009   1.713   4.288   5.680  0.3568  0.7345 -0.5875
 2190SOL     OW 8010   1.998   2.548   6.798  0.3953  0.4461  0.3424
 2190SOL    HW1 8011   2.052   2.592   6.864 -1.3863  3.8967 -0.2724
 2190SOL    HW2 8012   1.916   2.527   6.844  0.0230  0.7255 -0.1856
 2191SOL     OW 8013   1.511   2.542   6.163  0.5937  0.7559  0.0586
 2191SOL    HW1 8014   1.449   2.614   6.157  0.5670  0.6507 -0.9842
 2191SOL    HW2 8015   1.596   2.582   6.145  0.2691  0.0415 -4.0930
 2192SOL     OW 8016   1.816   2.261   6.526 -0.0911  0.2399  0.4024
 2192SOL    HW1 8017   1.846   2.265   6.616 -0.8204 -1.6268  0.7624
 2192SOL    HW2 8018   1.881   2.207   6.481 -0.5879 -0.2045  0.2027
 2193SOL     OW 8019   2.361   3.951   6.446 -0.0626  0.0821 -0.2380
 2193SOL    HW1 8020   2.317   4.025   6.403 -1.1519 -0.4403 -0.0546
 2193SOL    HW2 8021   2.333   3.875   6.395 -0.6930 -0.4497  0.8824
 2194SOL     OW 8022   1.894   2.769   7.118 -0.3770 -0.1140 -0.2352
 2194SOL    HW1 8023   1.837   2.695   7.100  0.9618 -1.1253 -0.5102
 2194SOL    HW2 8024   1.974   2.750   7.069  0.7240  0.5552  1.2315
 2195SOL     OW 8025   2.992   2.907   7.088 -0.1819  0.6416 -0.1076
 2195SOL    HW1 8026   2.973   2.988   7.041  0.0036  1.5968  1.3814
 2195SOL    HW2 8027   3.057   2.932   7.154 -1.8864 -0.1250  1.9847
 2196SOL     OW 8028   1.110   2.896   6.398 -0.1870 -0.6428  0.4069
 2196SOL    HW1 8029   1.120   2.984   6.363  0.2217 -0.5141  0.8419
 2196SOL    HW2 8030   1.069   2.847   6.327 -0.8859  0.0164  0.3498
 2197SOL     OW 8031   2.620   3.127   7.059 -0.5588  0.7558 -0.4838
 2197SOL    HW1 8032   2.702   3.176   7.055 -0.3022  0.3246 -0.5854
 2197SOL    HW2 8033   2.574   3.149   6.978 -0.1993  0.4025 -0.7859
 2198SOL     OW 8034   1.610   2.478   7.946  0.2028  0.2123 -0.3250
 2198SOL    HW1 8035   1.634   2.468   7.854 -1.2962 -0.2293 -0.7108
 2198SOL    HW2 8036   1.590   2.389   7.976  0.9624  0.3137  0.5225
 2199SOL     OW 8037   0.606   3.236   8.135 -0.5509  0.2889  0.3025
 2199SOL    HW1 8038   0.587   3.226   8.041 -1.3773  0.9848  0.3863
 2199SOL    HW2 8039   0.525   3.206   8.179 -0.1843  0.0068  0.7977
 2200SOL     OW 8040   0.413   2.864   6.466  0.2470  0.4751  0.2751
 2200SOL    HW1 8041   0.409   2.891   6.558  1.3627  0.5026  0.3273
 2200SOL    HW2 8042   0.329   2.893   6.429 -0.3270  0.2244  1.3377
 2201SOL     OW 8043   7.250   2.724   8.751 -0.2870 -0.2796 -0.4626
 2201SOL    HW1 8044   7.308   2.775   8.695 -0.2736 -0.6090 -0.7531
 2201SOL    HW2 8045   7.293   2.723   8.837  0.3267 -0.8497 -0.7772
 2202SOL     OW 8046   0.960   1.462   6.206 -0.1592  0.0717 -0.0899
 2202SOL    HW1 8047   0.958   1.498   6.117  0.5613 -1.0957 -0.5870
 2202SOL    HW2 8048   1.049   1.431   6.218 -0.4438 -0.4342  0.7881
 2203SOL     OW 8049   0.133   1.745   6.040 -1.1163 -0.1864  0.2750
 2203SOL    HW1 8050   0.054   1.741   5.986 -0.3213  1.2484 -1.0561
 2203SOL    HW2 8051   0.192   1.680   6.002 -0.0944  1.6477 -1.4549
 2204SOL     OW 8052   1.269   1.735   7.299 -0.0686  0.2609  0.2997
 2204SOL    HW1 8053   1.364   1.743   7.304 -0.0733  0.9644 -0.4759
 2204SOL    HW2 8054   1.237   1.823   7.318 -0.5810 -0.0317  0.8084
 2205SOL     OW 8055   0.041   2.294   5.943 -0.0370 -0.8559  0.1309
 2205SOL    HW1 8056  -0.054   2.283   5.939  0.0071 -1.7102  1.1224
 2205SOL    HW2 8057   0.072   2.218   5.992  1.3246 -1.4232 -1.5182
 2206SOL     OW 8058   1.099   1.584   6.518 -0.3264 -0.5017  0.1746
 2206SOL    HW1 8059   1.184   1.589   6.474  0.6170 -2.1567  1.6934
 2206SOL    HW2 8060   1.072   1.676   6.529 -0.4610  0.0274 -3.3895
 2207SOL     OW 8061   6.170   3.578   6.811 -0.0731 -0.4044  0.0315
 2207SOL    HW1 8062   6.200   3.500   6.856 -1.8111 -0.0664  1.9401
 2207SOL    HW2 8063   6.165   3.645   6.880  0.9896  1.3166 -1.4585
 2208SOL     OW 8064   0.513   3.627   7.118  0.6230  0.0158  0.4537
 2208SOL    HW1 8065   0.577   3.697   7.112  4.4053 -2.9694  1.6416
 2208SOL    HW2 8066   0.519   3.581   7.034 -1.0063  0.3859  0.0935
 2209SOL     OW 8067   1.509   1.384   6.495  0.7718  0.5458 -0.1284
 2209SOL    HW1 8068   1.446   1.324   6.535  1.0199  1.3585  1.5814
 2209SOL    HW2 8069   1.483   1.388   6.403  0.8153 -2.2341 -0.3481
 2210SOL     OW 8070   1.821   3.424   4.851  0.3488 -0.1636  0.6579
 2210SOL    HW1 8071   1.854   3.493   4.794 -0.8129 -0.6081 -0.6056
 2210SOL    HW2 8072   1.780   3.469   4.925 -3.4740  0.7785 -1.7678
 2211SOL     OW 8073   1.858   2.202   6.075 -0.4396 -0.2724 -0.0259
 2211SOL    HW1 8074   1.896   2.160   6.152  0.6192 -0.7611 -0.7844
 2211SOL    HW2 8075   1.843   2.293   6.102  2.5582  0.3393 -0.0359
 2212SOL     OW 8076   2.850   2.535   6.428  0.0524 -0.5282  0.2659
 2212SOL    HW1 8077   2.888   2.447   6.435  0.7405 -0.2041  0.6695
 2212SOL    HW2 8078   2.865   2.560   6.337 -0.6046 -1.0289  0.0124
 2213SOL     OW 8079   7.709   1.763   8.249  0.5770 -0.3772 -0.1937
 2213SOL    HW1 8080   7.708   1.721   8.163  1.3592 -1.2010  0.1777
 2213SOL    HW2 8081   7.760   1.843   8.236  0.5685 -0.4227 -0.5270
 2214SOL     OW 8082   7.978   0.835   7.889 -0.5018  0.4932 -0.9998
 2214SOL    HW1 8083   8.073   0.825   7.889 -0.4062 -0.2691  2.5538
 2214SOL    HW2 8084   7.963   0.927   7.868  1.1507  0.9880 -0.2310
 2215SOL     OW 8085   1.570   3.618   8.131 -0.3681  0.0559  0.5441
 2215SOL    HW1 8086   1.633   3.549   8.112 -1.4697 -1.2167  1.3879
 2215SOL    HW2 8087   1.607   3.696   8.089  0.8570 -1.0427 -0.4967
 2216SOL     OW 8088   0.484   3.052   8.461  0.4796  0.2474 -0.1314
 2216SOL    HW1 8089   0.463   3.122   8.523 -1.4788  0.6216 -1.1408
 2216SOL    HW2 8090   0.400   3.008   8.445  1.3498 -1.2260 -0.8592
 2217SOL     OW 8091   3.162   1.825   8.401  0.4556  0.3818 -0.2849
 2217SOL    HW1 8092   3.187   1.813   8.309 -1.8488 -0.8760 -0.8292
 2217SOL    HW2 8093   3.108   1.904   8.400  0.7984  0.6251  0.0966
 2218SOL     OW 8094   0.134   2.122   4.879  0.3678 -0.0168 -0.2532
 2218SOL    HW1 8095   0.174   2.063   4.943  0.4519 -1.0802 -1.2385
 2218SOL    HW2 8096   0.202   2.186   4.859  0.7389 -0.3615 -0.1165
 2219SOL     OW 8097   1.603   2.434   6.469 -0.0077  0.1125  0.1357
 2219SOL    HW1 8098   1.677   2.378   6.490  0.3031 -0.2263 -1.6558
 2219SOL    HW2 8099   1.642   2.518   6.446 -0.1097 -0.1586 -1.1256
 2220SOL     OW 8100   1.102   2.616   6.810 -0.1204 -0.0390  0.2800
 2220SOL    HW1 8101   1.047   2.574   6.877  1.4464 -0.5992  1.2788
 2220SOL    HW2 8102   1.042   2.638   6.739 -1.3284 -2.2978  0.5229
 2221SOL     OW 8103   1.866   1.195   7.019 -0.0861 -0.0475  0.0121
 2221SOL    HW1 8104   1.783   1.197   7.067  0.3326  0.3698  0.7292
 2221SOL    HW2 8105   1.886   1.288   7.004  1.7896  0.0491  2.5574
 2222SOL     OW 8106   1.202   2.726   8.399 -0.0550 -0.0322  0.4870
 2222SOL    HW1 8107   1.225   2.794   8.462 -0.2033 -1.6765  2.4047
 2222SOL    HW2 8108   1.133   2.765   8.346  0.6966  1.7120  0.7295
 2223SOL     OW 8109   1.244   3.013   6.110 -0.5394 -0.0881  0.2327
 2223SOL    HW1 8110   1.209   3.075   6.174  1.4532 -0.9778  2.3665
 2223SOL    HW2 8111   1.339   3.028   6.113 -0.2288 -1.5881 -1.0174
 2224SOL     OW 8112   1.979   2.590   8.381  0.0948 -0.1061 -0.1395
 2224SOL    HW1 8113   1.886   2.585   8.404  0.0710  0.7061 -0.0437
 2224SOL    HW2 8114   2.025   2.581   8.465  0.1097 -0.7193 -0.2130
 2225SOL     OW 8115   0.028   2.092   5.696  0.4897 -0.0672 -0.1863
 2225SOL    HW1 8116  -0.050   2.129   5.737 -0.9565 -2.4801 -0.5552
 2225SOL    HW2 8117   0.089   2.079   5.769  0.4894  1.6176  0.1434
 2226SOL     OW 8118   7.873   2.530   7.003  0.1897 -0.2566 -0.1014
 2226SOL    HW1 8119   7.861   2.437   7.024  0.2605 -0.3578 -0.5022
 2226SOL    HW2 8120   7.794   2.555   6.956 -0.0180 -0.0011  0.3782
 2227SOL     OW 8121   7.501   4.974   6.673 -0.2773  0.0638 -0.1093
 2227SOL    HW1 8122   7.581   5.026   6.679  0.8629 -1.5778 -0.1373
 2227SOL    HW2 8123   7.493   4.951   6.581 -1.4470  1.1555 -0.2997
 2228SOL     OW 8124   7.887   3.631   7.678 -0.0089  0.1324 -0.4417
 2228SOL    HW1 8125   7.825   3.636   7.606  0.7271 -0.5494 -1.1423
 2228SOL    HW2 8126   7.955   3.571   7.648  0.3098 -0.1811  0.8238
 2229SOL     OW 8127   2.246   0.945   5.895 -0.1292  0.0242  0.3921
 2229SOL    HW1 8128   2.227   0.858   5.861  0.4347 -0.0709  0.3198
 2229SOL    HW2 8129   2.340   0.944   5.913  1.0031  2.0936 -4.0056
 2230SOL     OW 8130   0.128   1.709   8.486  0.0153 -0.0194  0.1630
 2230SOL    HW1 8131   0.057   1.648   8.471  1.0350 -0.9781 -1.0275
 2230SOL    HW2 8132   0.204   1.669   8.442  0.7266  2.0769 -0.6541
 2231SOL     OW 8133   0.166   2.989   7.103  0.0568  0.5640 -0.7256
 2231SOL    HW1 8134   0.177   2.995   7.008  2.4699 -1.2991 -0.6731
 2231SOL    HW2 8135   0.083   2.944   7.115  0.0430  0.2118 -1.9802
 2232SOL     OW 8136   2.505   2.247   5.950 -0.0280  0.2132  0.9130
 2232SOL    HW1 8137   2.411   2.260   5.936 -0.4693 -0.6793  2.8305
 2232SOL    HW2 8138   2.534   2.200   5.871 -1.1001  0.7724  0.1518
 2233SOL     OW 8139   2.005   2.425   7.290  0.1095  0.4220  0.4194
 2233SOL    HW1 8140   2.034   2.512   7.260  0.9610 -0.2681 -0.8202
 2233SOL    HW2 8141   1.932   2.444   7.350  0.0909  1.9808 -0.0464
 2234SOL     OW 8142   7.948   1.373   8.873 -0.0373  0.1763  0.0567
 2234SOL    HW1 8143   7.932   1.357   8.966  0.4301 -0.2206  0.0660
 2234SOL    HW2 8144   7.898   1.453   8.854  2.2324  2.0190  1.3527
 2235SOL     OW 8145   0.373   1.375  10.259 -0.3295  0.1301  0.3475
 2235SOL    HW1 8146   0.285   1.409  10.244 -0.2266 -0.3553 -1.6645
 2235SOL    HW2 8147   0.425   1.410  10.187  0.7109 -0.9570  0.5373
 2236SOL     OW 8148   0.874   3.301   7.569 -0.3375  0.2260  0.2506
 2236SOL    HW1 8149   0.960   3.278   7.603 -0.4501  1.4201  1.4091
 2236SOL    HW2 8150   0.867   3.395   7.581 -0.7953  0.5786 -2.2376
 2237SOL     OW 8151   2.318   0.952   6.237  0.2706 -0.2036 -0.4442
 2237SOL    HW1 8152   2.300   0.875   6.184 -0.3262  1.2764 -2.5402
 2237SOL    HW2 8153   2.408   0.975   6.216  0.6699 -0.6786  0.6852
 2238SOL     OW 8154   7.311   3.814   5.302 -0.1606  0.3352 -0.0039
 2238SOL    HW1 8155   7.378   3.797   5.368  0.2055  1.3627 -0.0872
 2238SOL    HW2 8156   7.348   3.779   5.221  0.4761  1.2609 -0.1308
 2239SOL     OW 8157   0.314   3.904   7.404  0.4453  0.1593 -0.2932
 2239SOL    HW1 8158   0.309   3.822   7.356  0.5972  0.6851 -1.2245
 2239SOL    HW2 8159   0.260   3.889   7.482  1.4595 -1.2223  0.1875
 2240SOL     OW 8160   7.629   5.239   7.169 -0.0307 -0.0848  0.7127
 2240SOL    HW1 8161   7.634   5.194   7.085  0.7009 -2.2737  1.8684
 2240SOL    HW2 8162   7.706   5.296   7.171 -0.0637 -0.0074 -0.1000
 2241SOL     OW 8163   1.100   3.834   6.746 -0.1269  0.4726 -0.3096
 2241SOL    HW1 8164   1.124   3.871   6.831 -0.2237  1.2839 -0.6332
 2241SOL    HW2 8165   1.154   3.881   6.683 -0.0057 -0.1743 -0.6995
 2242SOL     OW 8166   0.478   4.508   7.329  0.0035  0.3205  0.6332
 2242SOL    HW1 8167   0.536   4.519   7.254 -0.0060 -0.1196  0.5554
 2242SOL    HW2 8168   0.428   4.589   7.334 -1.3886 -0.3749 -1.0343
 2243SOL     OW 8169   0.530   3.730   6.503  0.3037 -0.5826  0.2505
 2243SOL    HW1 8170   0.564   3.674   6.433  1.3723 -2.1111  1.8969
 2243SOL    HW2 8171   0.588   3.713   6.577  0.6923  2.7284  0.8941
 2244SOL     OW 8172   0.794   1.908   8.679  0.4506 -0.3428  0.3286
 2244SOL    HW1 8173   0.841   1.972   8.626  1.3877 -1.0563  0.2724
 2244SOL    HW2 8174   0.751   1.852   8.615  1.1185 -0.8591  0.3184
 2245SOL     OW 8175   0.039   2.502   5.505 -0.2176  0.8776  0.6841
 2245SOL    HW1 8176   0.035   2.499   5.600 -0.9361  1.3420  0.6743
 2245SOL    HW2 8177   0.008   2.589   5.482  0.7511  1.0750  0.0587
 2246SOL     OW 8178   0.442   2.226   4.985  0.1970 -0.2265 -0.1004
 2246SOL    HW1 8179   0.388   2.153   5.013 -0.1662  0.5045  1.1661
 2246SOL    HW2 8180   0.523   2.185   4.954 -0.5074 -1.2307 -0.6684
 2247SOL     OW 8181   0.589   2.111   7.519  0.5344  0.1162  0.1664
 2247SOL    HW1 8182   0.566   2.111   7.612  0.4428  2.8021  0.2173
 2247SOL    HW2 8183   0.545   2.188   7.483 -0.0188 -1.2350 -2.3042
 2248SOL     OW 8184   0.440   2.067   6.918  0.6197 -0.2234  0.0386
 2248SOL    HW1 8185   0.392   2.130   6.972 -0.7551 -2.1920  1.2372
 2248SOL    HW2 8186   0.530   2.100   6.918  0.3553  0.7074  2.2753
 2249SOL     OW 8187   0.189   6.483   8.201 -0.1623  0.0751  0.3870
 2249SOL    HW1 8188   0.142   6.401   8.185  1.2221 -0.4010 -1.6694
 2249SOL    HW2 8189   0.213   6.514   8.114  1.8007  1.1931  1.2644
 2250SOL     OW 8190   6.365   2.664   5.261 -0.1363  0.2138  0.9141
 2250SOL    HW1 8191   6.390   2.754   5.282 -0.3200  0.2971  0.7753
 2250SOL    HW2 8192   6.434   2.610   5.300  0.1373  0.4311  0.7381
 2251SOL     OW 8193   1.911   2.583   7.533  0.0503 -0.3126 -0.4407
 2251SOL    HW1 8194   1.932   2.573   7.626  1.0777  0.0892 -0.6156
 2251SOL    HW2 8195   1.981   2.638   7.498 -0.1580 -0.7024 -1.5226
 2252SOL     OW 8196   0.816   3.598   7.976  0.6215  0.1134 -0.0089
 2252SOL    HW1 8197   0.800   3.506   7.955  0.8545  0.0229  0.1972
 2252SOL    HW2 8198   0.831   3.598   8.070  2.0904  0.1455 -0.2255
 2253SOL     OW 8199   2.507   3.551   6.986 -0.0942  0.0585 -0.4542
 2253SOL    HW1 8200   2.584   3.596   7.022  0.0904 -0.0287 -0.7378
 2253SOL    HW2 8201   2.455   3.621   6.946  0.7305 -0.1053 -1.8705
 2254SOL     OW 8202   0.060   4.895   8.066  0.2371 -0.1244  0.0719
 2254SOL    HW1 8203   0.033   4.830   8.001  0.3776  0.8954 -1.0582
 2254SOL    HW2 8204   0.071   4.975   8.015  0.8846  0.5800  1.2829
 2255SOL     OW 8205   1.107   3.128   8.033  0.6170  0.1101  0.2611
 2255SOL    HW1 8206   1.187   3.172   8.061  0.7347 -0.3582  0.6594
 2255SOL    HW2 8207   1.037   3.178   8.075  0.6538  0.8951 -0.5771
 2256SOL     OW 8208   7.877   2.825   7.376 -0.2220  0.1656 -0.1906
 2256SOL    HW1 8209   7.966   2.811   7.407 -0.2712  0.1164 -0.0712
 2256SOL    HW2 8210   7.886   2.835   7.281 -0.0601  0.4058 -0.1514
 2257SOL     OW 8211   0.743   5.355   7.858  0.1319  0.0827  0.5261
 2257SOL    HW1 8212   0.775   5.298   7.788  0.0723  0.3488  0.2789
 2257SOL    HW2 8213   0.802   5.430   7.855  0.1776  0.0561  0.8145
 2258SOL     OW 8214   3.390   1.016   5.862  0.0781 -0.4406  0.3111
 2258SOL    HW1 8215   3.303   1.052   5.876 -0.2477 -0.9444 -0.3468
 2258SOL    HW2 8216   3.376   0.921   5.856  0.2377 -0.3449 -2.7158
 2259SOL     OW 8217   2.286   4.234   4.946 -0.2082 -0.5028 -0.2736
 2259SOL    HW1 8218   2.313   4.315   4.902 -1.7002  0.1952  0.0290
 2259SOL    HW2 8219   2.251   4.180   4.875 -0.2501 -0.4147 -0.3210
 2260SOL     OW 8220   0.621   4.393   7.060 -0.5710  0.0898 -0.4141
 2260SOL    HW1 8221   0.552   4.342   7.102 -0.1940 -1.8131 -1.9599
 2260SOL    HW2 8222   0.702   4.344   7.078  0.2253  1.5359  0.1888
 2261SOL     OW 8223   1.227   2.858   5.294 -0.2111 -0.5856  0.3218
 2261SOL    HW1 8224   1.145   2.842   5.342 -0.4220  0.2345  0.2564
 2261SOL    HW2 8225   1.260   2.940   5.331  0.4731 -0.8030  0.1959
 2262SOL     OW 8226   0.999   3.526   7.022  0.5810  0.6399  1.0711
 2262SOL    HW1 8227   1.039   3.559   6.942 -0.6675 -1.6142 -0.5970
 2262SOL    HW2 8228   1.024   3.434   7.025 -2.7508 -0.3815  0.9632
 2263SOL     OW 8229   0.211   4.266   6.634  0.4734  0.0795 -0.1636
 2263SOL    HW1 8230   0.293   4.242   6.591  0.7961 -2.3449  1.5796
 2263SOL    HW2 8231   0.151   4.194   6.614 -0.2548  0.3119  1.0505
 2264SOL     OW 8232   1.230   2.568   7.573  0.3023  0.1904 -0.1518
 2264SOL    HW1 8233   1.167   2.498   7.590  0.1407  0.2523 -0.4692
 2264SOL    HW2 8234   1.315   2.526   7.579  0.2065 -0.0294 -0.3154
 2265SOL     OW 8235   0.585   1.725   7.002  0.8051  0.1240  0.2478
 2265SOL    HW1 8236   0.614   1.720   6.911  1.0999 -1.0537  0.3902
 2265SOL    HW2 8237   0.489   1.725   6.996  0.8168  0.9787 -0.0911
 2266SOL     OW 8238   7.165   3.137   7.750 -0.1777  0.0369 -0.3914
 2266SOL    HW1 8239   7.183   3.106   7.661  0.1251 -0.0198 -0.3124
 2266SOL    HW2 8240   7.251   3.162   7.785  0.6714 -4.6789  1.6924
 2267SOL     OW 8241   1.352   3.214   5.058 -0.1795 -0.2751  0.0494
 2267SOL    HW1 8242   1.282   3.226   5.122  0.2815  1.3844  0.3095
 2267SOL    HW2 8243   1.401   3.296   5.061  2.7222 -1.9050  1.0016
 2268SOL     OW 8244   6.622   5.139   4.375 -0.2996  0.0290 -0.2069
 2268SOL    HW1 8245   6.586   5.065   4.423 -0.9400  1.4183  1.5888
 2268SOL    HW2 8246   6.550   5.203   4.372  0.9653  1.5891  0.6345
 2269SOL     OW 8247   1.070   4.076   5.509  0.1535 -0.3378 -0.0973
 2269SOL    HW1 8248   1.084   3.999   5.564 -1.6854 -0.5719  0.0951
 2269SOL    HW2 8249   1.061   4.040   5.420 -1.2807 -0.4209  0.0714
 2270SOL     OW 8250   0.592   4.113   5.703 -0.3741  0.3414  0.6342
 2270SOL    HW1 8251   0.664   4.176   5.694 -1.4891  2.0794  2.8338
 2270SOL    HW2 8252   0.591   4.091   5.796 -1.1072 -1.6721  0.1954
 2271SOL     OW 8253   1.707   2.738   6.494 -0.0008 -0.1671  0.4472
 2271SOL    HW1 8254   1.746   2.792   6.563  0.3299 -0.8741  0.8278
 2271SOL    HW2 8255   1.779   2.685   6.461 -0.7600 -2.1551  1.7884
 2272SOL     OW 8256   2.196   2.381   6.698  0.4739 -0.5080 -0.1907
 2272SOL    HW1 8257   2.241   2.435   6.633  0.5179  0.5470  0.6970
 2272SOL    HW2 8258   2.180   2.439   6.772 -1.0082 -1.2511  0.1305
 2273SOL     OW 8259   0.268   4.021   6.832 -0.5477  0.3095 -0.2617
 2273SOL    HW1 8260   0.294   3.966   6.759 -2.1361  0.0340 -0.6330
 2273SOL    HW2 8261   0.351   4.059   6.863  0.5556 -1.9828 -0.2009
 2274SOL     OW 8262   7.953   4.420   8.298 -0.4559  0.4393  0.2452
 2274SOL    HW1 8263   7.906   4.337   8.295  0.3346 -0.2579  3.2760
 2274SOL    HW2 8264   7.902   4.474   8.359 -0.5614  1.9533 -1.1129
 2275SOL     OW 8265   0.983   3.895   7.185 -0.3910 -0.2267 -0.2701
 2275SOL    HW1 8266   1.017   3.945   7.259 -1.5595 -0.1413  0.2360
 2275SOL    HW2 8267   1.041   3.916   7.113  0.5625 -0.0243  0.5332
 2276SOL     OW 8268   2.537   2.908   5.868  0.4927  0.3321 -0.4373
 2276SOL    HW1 8269   2.553   2.945   5.781 -0.9903  1.1992 -0.3700
 2276SOL    HW2 8270   2.463   2.958   5.902 -0.6337 -1.7118  0.2675
 2277SOL     OW 8271   7.602   3.442   7.500 -0.3227  0.0519 -0.4529
 2277SOL    HW1 8272   7.627   3.426   7.591  0.1687 -0.9891 -0.7535
 2277SOL    HW2 8273   7.642   3.370   7.451  1.0396  1.6241 -1.7771
 2278SOL     OW 8274   0.753   2.960   8.150 -0.5215  0.7376 -0.3946
 2278SOL    HW1 8275   0.848   2.957   8.137 -0.3594 -1.9564  0.7430
 2278SOL    HW2 8276   0.727   3.045   8.116  2.4793  2.1271  0.4911
 2279SOL     OW 8277   2.393   1.065   7.502  0.1157 -0.0266  0.1754
 2279SOL    HW1 8278   2.334   1.096   7.433 -0.5577  1.4487  1.3408
 2279SOL    HW2 8279   2.479   1.064   7.462 -0.2547  0.8410 -0.6861
 2280SOL     OW 8280   0.989   1.352   6.514  0.4185  0.3988  0.6942
 2280SOL    HW1 8281   1.017   1.442   6.530  1.2774 -0.0446  1.7800
 2280SOL    HW2 8282   1.041   1.325   6.438  0.1052  0.8264  0.3186
 2281SOL     OW 8283   2.890   2.168   7.760  0.4170  0.5137  0.4740
 2281SOL    HW1 8284   2.850   2.205   7.681 -1.1846 -0.9489  0.5326
 2281SOL    HW2 8285   2.900   2.242   7.819 -0.9367  1.1940 -0.1004
 2282SOL     OW 8286   7.467   2.540   7.778  0.1117  0.2034  0.3211
 2282SOL    HW1 8287   7.410   2.481   7.826  0.5281  1.0835  1.9881
 2282SOL    HW2 8288   7.408   2.594   7.725 -0.8179  1.8161  2.7960
 2283SOL     OW 8289   8.000   3.797   6.064 -0.1454  0.0267  0.1309
 2283SOL    HW1 8290   8.016   3.721   6.008  1.2059  1.5827 -1.7050
 2283SOL    HW2 8291   8.013   3.764   6.153 -1.7902 -2.3796 -0.4252
 2284SOL     OW 8292   0.312   2.076   7.219  0.5093  0.0740  0.2956
 2284SOL    HW1 8293   0.307   2.153   7.162 -0.9261  0.0177  0.3070
 2284SOL    HW2 8294   0.400   2.041   7.205  1.1173  1.5836  0.1157
 2285SOL     OW 8295   1.438   3.114   6.827 -0.0863 -0.3232  0.1602
 2285SOL    HW1 8296   1.375   3.132   6.757 -0.8586  0.1904  0.9693
 2285SOL    HW2 8297   1.509   3.067   6.784 -0.7417 -0.3762 -0.8907
 2286SOL     OW 8298   7.142   2.683   7.895 -0.2732  0.2583  0.5461
 2286SOL    HW1 8299   7.170   2.731   7.817  0.3308  1.3121  1.3940
 2286SOL    HW2 8300   7.047   2.680   7.889 -0.2928  1.1933  0.2556
 2287SOL     OW 8301   2.162   2.622   7.020  0.0728  0.1829  0.3512
 2287SOL    HW1 8302   2.240   2.568   7.037 -0.2847 -0.0210  1.4500
 2287SOL    HW2 8303   2.170   2.695   7.081  0.4360  1.2933 -0.9729
 2288SOL     OW 8304   0.100   3.886   7.586  0.0907  0.9231  0.2336
 2288SOL    HW1 8305   0.030   3.934   7.631 -1.4519 -0.0354 -1.0116
 2288SOL    HW2 8306   0.093   3.797   7.619  0.2676  0.6698 -0.3823
 2289SOL     OW 8307   2.962   2.286   6.490  0.3099  0.1527  0.1626
 2289SOL    HW1 8308   2.976   2.195   6.516  0.8085  0.0574 -0.4385
 2289SOL    HW2 8309   3.045   2.314   6.452  0.6190  1.2895  1.5499
 2290SOL     OW 8310   1.515   1.443   8.431  0.2374 -0.3283 -0.5161
 2290SOL    HW1 8311   1.600   1.473   8.463  0.1610  1.3113 -1.6934
 2290SOL    HW2 8312   1.536   1.393   8.352  0.1181  0.5267 -1.1106
 2291SOL     OW 8313   0.066   4.188   5.969  0.2942 -0.0767  0.1275
 2291SOL    HW1 8314  -0.023   4.152   5.973  0.0403  0.5141 -0.1401
 2291SOL    HW2 8315   0.093   4.175   5.878  0.6167 -0.5600  0.2865
 2292SOL     OW 8316   2.004   1.201   7.476 -0.2827  0.5721 -0.0478
 2292SOL    HW1 8317   1.931   1.146   7.504 -0.0465  1.3235  2.3222
 2292SOL    HW2 8318   2.048   1.150   7.408 -0.0454 -2.2704  2.0643
 2293SOL     OW 8319   1.815   2.420   5.519 -0.0240  0.0743 -0.2004
 2293SOL    HW1 8320   1.879   2.350   5.525  0.7613  0.6252 -1.7344
 2293SOL    HW2 8321   1.769   2.418   5.603  1.2751 -1.0246  0.5122
 2294SOL     OW 8322   7.711   3.726   7.478 -0.3326 -0.1422  0.0791
 2294SOL    HW1 8323   7.643   3.791   7.495 -0.6416 -0.2380 -0.7532
 2294SOL    HW2 8324   7.664   3.645   7.460 -0.0056 -0.2319 -0.4208
 2295SOL     OW 8325   1.327   2.294   7.557  0.2337  0.1083  0.0008
 2295SOL    HW1 8326   1.316   2.323   7.467 -0.6085  0.8290  0.3210
 2295SOL    HW2 8327   1.240   2.264   7.583  0.1758  1.0804  0.9721
 2296SOL     OW 8328   1.862   1.021   7.785 -0.2288 -0.0179  0.1935
 2296SOL    HW1 8329   1.801   1.043   7.715 -0.2436 -0.1106  0.1781
 2296SOL    HW2 8330   1.922   0.957   7.746  1.7453  2.2521 -0.7474
 2297SOL     OW 8331   7.731   3.595   6.219  0.4078  0.4024 -0.5881
 2297SOL    HW1 8332   7.823   3.589   6.245  0.1488  0.2349  0.3323
 2297SOL    HW2 8333   7.723   3.682   6.180  1.2910 -0.1666 -2.1101
 2298SOL     OW 8334   1.092   4.101   7.321  0.1103  0.5122 -0.2951
 2298SOL    HW1 8335   1.138   4.106   7.405  0.7707 -1.6884 -0.4504
 2298SOL    HW2 8336   1.157   4.130   7.257  0.8901 -1.2054 -0.3574
 2299SOL     OW 8337   1.219   3.123   9.108  0.0680 -0.1544 -0.3744
 2299SOL    HW1 8338   1.147   3.065   9.135  0.6853 -0.2586  1.1100
 2299SOL    HW2 8339   1.184   3.211   9.118 -1.0732 -0.1800 -3.1815
 2300SOL     OW 8340   7.664   4.098   6.368 -0.1021  0.2061  0.5315
 2300SOL    HW1 8341   7.665   4.078   6.274  0.7743  1.1857  0.3133
 2300SOL    HW2 8342   7.646   4.191   6.372  0.3113  0.2593  1.3175
 2301SOL     OW 8343   1.167   2.038   6.761 -0.1028  0.6666 -0.5034
 2301SOL    HW1 8344   1.222   2.112   6.787  0.7754 -0.2815  0.4521
 2301SOL    HW2 8345   1.079   2.062   6.792  0.5372  0.4743  1.6521
 2302SOL     OW 8346   3.052   2.039   6.618 -0.2487  0.0568  0.3463
 2302SOL    HW1 8347   3.038   1.969   6.554  1.3421 -0.3963  0.4354
 2302SOL    HW2 8348   3.016   2.004   6.700  0.6017 -0.7179  0.4083
 2303SOL     OW 8349   0.490   2.918   6.739 -0.3404  0.4164  0.8236
 2303SOL    HW1 8350   0.446   2.928   6.824  1.0892  2.1316  1.4273
 2303SOL    HW2 8351   0.575   2.960   6.751 -0.0872  0.6930 -1.4726
 2304SOL     OW 8352   2.778   3.123   8.159  0.1337  0.1675  0.3321
 2304SOL    HW1 8353   2.823   3.158   8.082  0.6847 -0.6350  0.2763
 2304SOL    HW2 8354   2.726   3.050   8.126  0.8272 -0.5562  0.7889
 2305SOL     OW 8355   0.723   2.941   7.690  0.3340 -0.6418  0.1892
 2305SOL    HW1 8356   0.693   3.032   7.694  0.6396 -0.5050 -0.5270
 2305SOL    HW2 8357   0.810   2.946   7.650  1.7736 -0.9483  3.0270
 2306SOL     OW 8358   1.278   1.149   7.399 -0.3721  0.1553 -0.2022
 2306SOL    HW1 8359   1.197   1.130   7.446 -0.8799  3.1122  0.3432
 2306SOL    HW2 8360   1.250   1.167   7.309 -0.6130  2.3761  0.2443
 2307SOL     OW 8361   2.201   1.750   5.505 -0.2853  0.3607 -0.0368
 2307SOL    HW1 8362   2.217   1.751   5.599 -1.2695 -1.1055  0.1754
 2307SOL    HW2 8363   2.106   1.752   5.496 -0.2209 -0.0797 -0.9739
 2308SOL     OW 8364   2.032   1.086   5.990 -0.3823  0.7072  0.0957
 2308SOL    HW1 8365   2.043   1.068   6.083  0.1739  1.7874  0.2509
 2308SOL    HW2 8366   2.107   1.044   5.948 -1.3554 -0.9732 -0.0489
 2309SOL     OW 8367   1.472   2.853   5.770 -0.4302  0.0815  0.4193
 2309SOL    HW1 8368   1.494   2.896   5.687 -0.4915 -4.8687 -2.5402
 2309SOL    HW2 8369   1.552   2.858   5.822 -0.1203  2.5718 -0.1474
 2310SOL     OW 8370   1.137   2.270   6.553  0.0429 -0.2302  0.1817
 2310SOL    HW1 8371   1.200   2.332   6.516  1.1208  0.2633  2.6590
 2310SOL    HW2 8372   1.179   2.185   6.543  0.1612 -0.1476 -0.0357
 2311SOL     OW 8373   1.172   2.334   5.154  0.3564 -0.2231 -0.2246
 2311SOL    HW1 8374   1.179   2.238   5.161 -0.6471 -0.5881 -3.0741
 2311SOL    HW2 8375   1.078   2.351   5.146  0.6524  0.7969 -1.7742
 2312SOL     OW 8376   1.672   3.511   7.769 -0.5538 -0.7402 -0.0114
 2312SOL    HW1 8377   1.590   3.556   7.790  0.5274  0.5678  1.6445
 2312SOL    HW2 8378   1.730   3.580   7.737  0.7027 -1.1670  1.2414
 2313SOL     OW 8379   2.391   3.208   6.562  0.4358 -0.1526 -0.6195
 2313SOL    HW1 8380   2.298   3.209   6.539  0.7984 -1.1076 -2.2948
 2313SOL    HW2 8381   2.416   3.300   6.565 -0.6787  0.1333  0.3949
 2314SOL     OW 8382   7.130   3.754   6.813  0.9110 -0.1496 -0.4522
 2314SOL    HW1 8383   7.189   3.750   6.737  1.7303 -2.3471  0.2135
 2314SOL    HW2 8384   7.125   3.663   6.844 -2.4367  0.0219 -0.1410
 2315SOL     OW 8385   0.392   4.517   6.380 -0.4838 -0.1252 -0.2522
 2315SOL    HW1 8386   0.391   4.421   6.381 -1.0241 -0.1289 -0.7139
 2315SOL    HW2 8387   0.444   4.541   6.457  0.7639 -0.7994 -0.8549
 2316SOL     OW 8388   7.765   1.161   8.420  0.2201 -0.3603 -0.4786
 2316SOL    HW1 8389   7.747   1.200   8.334  0.7160  1.8929  0.3720
 2316SOL    HW2 8390   7.681   1.165   8.466  0.0740 -1.1062 -0.6708
 2317SOL     OW 8391   6.729   2.351   9.575  0.0858 -0.0146  0.1757
 2317SOL    HW1 8392   6.750   2.325   9.665  0.4477 -0.7596 -0.1143
 2317SOL    HW2 8393   6.777   2.433   9.562 -0.5820  0.5101  0.9066
 2318SOL     OW 8394   6.541   1.812   7.955 -0.0776 -0.5711  0.3855
 2318SOL    HW1 8395   6.458   1.771   7.977  0.3077 -1.6313 -0.0788
 2318SOL    HW2 8396   6.521   1.870   7.882 -0.7510  0.5836  1.4564
 2319SOL     OW 8397   6.572   1.080   8.124  0.3775  0.1552 -0.3661
 2319SOL    HW1 8398   6.507   1.104   8.190  2.3468  0.3925  1.6222
 2319SOL    HW2 8399   6.607   1.164   8.092  1.9310  0.0944  1.0097
 2320SOL     OW 8400   0.755   5.667  10.024  0.3927  0.5785 -1.3124
 2320SOL    HW1 8401   0.749   5.590   9.968  0.2100  0.7248 -1.4945
 2320SOL    HW2 8402   0.703   5.734   9.979 -2.6918 -0.2671  0.6268
 2321SOL     OW 8403   1.164   2.545   9.773 -0.2512  0.4205  0.0683
 2321SOL    HW1 8404   1.176   2.627   9.820 -0.3063 -0.0163  0.8513
 2321SOL    HW2 8405   1.220   2.553   9.696  0.4002  0.8475  0.5806
 2322SOL     OW 8406   1.526   1.641   7.898 -0.0374 -0.3711 -0.1518
 2322SOL    HW1 8407   1.566   1.632   7.985  0.9616 -0.8657 -0.6505
 2322SOL    HW2 8408   1.436   1.612   7.911 -0.1810  0.4862  0.9287
 2323SOL     OW 8409   1.737   3.872  10.080 -0.1170 -0.4354  0.3565
 2323SOL    HW1 8410   1.737   3.779  10.057 -0.7343 -0.3758  0.1110
 2323SOL    HW2 8411   1.660   3.908  10.037  1.0368  0.5611 -1.0007
 2324SOL     OW 8412   7.167   2.829   9.548 -1.0852  0.8043  0.0930
 2324SOL    HW1 8413   7.221   2.875   9.483 -0.3891 -0.0506  0.0610
 2324SOL    HW2 8414   7.078   2.862   9.531 -0.7059  1.6529 -0.3528
 2325SOL     OW 8415   2.966   3.292   8.349 -0.4236  0.2008  0.1148
 2325SOL    HW1 8416   3.018   3.231   8.297 -1.1584  0.3191 -0.7906
 2325SOL    HW2 8417   2.959   3.370   8.294 -2.2639 -0.1231 -0.1898
 2326SOL     OW 8418   0.223   1.767   9.057 -0.3322  0.1164  0.1933
 2326SOL    HW1 8419   0.188   1.804   8.976  0.2349  2.0954  0.7970
 2326SOL    HW2 8420   0.205   1.674   9.051 -0.9483  0.3319 -1.8792
 2327SOL     OW 8421   6.848   2.162   8.348 -0.1035  0.0983  0.5553
 2327SOL    HW1 8422   6.809   2.238   8.305 -2.5266 -1.1162  0.4192
 2327SOL    HW2 8423   6.939   2.161   8.317 -0.6732  1.5322 -1.3760
 2328SOL     OW 8424   2.390   3.825   8.722  0.0411  0.6000  0.2664
 2328SOL    HW1 8425   2.483   3.837   8.739  0.0708 -0.9684  1.4955
 2328SOL    HW2 8426   2.352   3.913   8.731  1.3471  1.1969  0.0503
 2329SOL     OW 8427   5.997   2.274   8.826 -0.3793  0.0887 -0.2698
 2329SOL    HW1 8428   5.943   2.198   8.849  0.3329 -0.0064  1.1897
 2329SOL    HW2 8429   5.964   2.344   8.882  0.2826  0.3279 -0.1818
 2330SOL     OW 8430   1.509   2.007   7.081  0.4618  0.1429 -0.1286
 2330SOL    HW1 8431   1.596   2.016   7.042 -0.3148  0.1695 -1.9153
 2330SOL    HW2 8432   1.518   1.934   7.142  1.3431 -0.8986 -1.4639
 2331SOL     OW 8433   7.698   3.168   7.117  0.1502 -0.0969 -0.0815
 2331SOL    HW1 8434   7.621   3.222   7.096  0.7725  0.0660 -2.2319
 2331SOL    HW2 8435   7.670   3.079   7.098  0.8157  0.0802 -2.2721
 2332SOL     OW 8436   0.470   1.824   9.188  0.2152  0.5291  0.6682
 2332SOL    HW1 8437   0.410   1.809   9.115 -0.4994  2.1988  0.8525
 2332SOL    HW2 8438   0.456   1.916   9.212  2.0675  0.6614  1.4431
 2333SOL     OW 8439   7.534   5.840   7.997  0.4883 -0.4857 -0.1165
 2333SOL    HW1 8440   7.610   5.889   8.029  0.9351 -1.8895  1.0992
 2333SOL    HW2 8441   7.514   5.779   8.068 -0.6280 -1.4060 -1.1792
 2334SOL     OW 8442   0.393   2.558   9.529 -0.1277 -0.0092 -0.2600
 2334SOL    HW1 8443   0.326   2.620   9.500 -1.0067 -0.9942 -0.4134
 2334SOL    HW2 8444   0.470   2.612   9.546 -0.9355  1.1478 -0.1459
 2335SOL     OW 8445   6.928   1.166   8.254  0.6345 -0.2955 -0.0516
 2335SOL    HW1 8446   6.936   1.174   8.349  0.4862 -0.2809 -0.0402
 2335SOL    HW2 8447   6.853   1.107   8.241  1.1930 -0.9987 -0.1465
 2336SOL     OW 8448   2.007   3.111   7.889  0.0191  0.4617  0.0834
 2336SOL    HW1 8449   2.001   3.140   7.798 -0.8993  2.5375  0.7601
 2336SOL    HW2 8450   2.087   3.151   7.922  0.0511  0.1801  0.3526
 2337SOL     OW 8451   1.766   0.242  10.295  0.0873 -0.1528 -0.6873
 2337SOL    HW1 8452   1.800   0.168  10.244 -1.1290 -1.3761  0.2182
 2337SOL    HW2 8453   1.705   0.286  10.235  0.5784 -0.0509 -1.1222
 2338SOL     OW 8454   6.620   4.102   6.528 -0.0133 -0.1869  0.0409
 2338SOL    HW1 8455   6.569   4.127   6.605  1.3990 -0.8238  1.2482
 2338SOL    HW2 8456   6.651   4.184   6.491  0.2461  0.0844  0.8517
 2339SOL     OW 8457   1.875   3.682   7.456 -0.1350  0.0086  0.2237
 2339SOL    HW1 8458   1.855   3.600   7.411 -1.1918  0.7750 -0.7856
 2339SOL    HW2 8459   1.970   3.682   7.467 -0.0680 -1.0790 -0.2773
 2340SOL     OW 8460   7.726   4.256   7.066 -0.2000  0.0973 -0.4057
 2340SOL    HW1 8461   7.727   4.203   7.145  0.9888 -1.7490 -1.5808
 2340SOL    HW2 8462   7.658   4.216   7.011  0.8598 -0.4134 -1.3992
 2341SOL     OW 8463   1.649   1.099   8.435 -0.4353  0.4115  0.6046
 2341SOL    HW1 8464   1.624   1.177   8.385  2.4361 -0.8584 -3.3324
 2341SOL    HW2 8465   1.572   1.042   8.430 -0.8630  1.0572 -0.9694
 2342SOL     OW 8466   7.959   2.351   7.346  0.3518  0.0002  0.2791
 2342SOL    HW1 8467   7.981   2.268   7.388 -0.4712 -0.5213 -0.2784
 2342SOL    HW2 8468   7.932   2.326   7.257 -2.0538  0.6055  0.7732
 2343SOL     OW 8469   7.399   1.996   8.882 -0.6155  0.5533  0.3977
 2343SOL    HW1 8470   7.483   2.034   8.855 -0.5239 -0.3823 -0.7516
 2343SOL    HW2 8471   7.386   1.923   8.821 -2.2366  0.6421  0.6113
 2344SOL     OW 8472   0.113   2.656   8.198  0.4196 -0.6838 -0.8191
 2344SOL    HW1 8473   0.019   2.658   8.179  0.5198 -0.0795 -1.3046
 2344SOL    HW2 8474   0.154   2.643   8.112  0.7767 -1.1182 -0.5874
 2345SOL     OW 8475   0.913   1.537   8.036 -0.2869 -0.2714 -0.6619
 2345SOL    HW1 8476   0.879   1.528   8.125  1.7943 -0.5912  0.1706
 2345SOL    HW2 8477   0.918   1.631   8.021 -0.4045 -0.2102 -0.3240
 2346SOL     OW 8478   1.082   1.995   7.550  0.0065  0.1388 -0.2053
 2346SOL    HW1 8479   1.112   1.997   7.459 -1.0878  2.5898 -0.5783
 2346SOL    HW2 8480   0.993   2.029   7.547 -0.1975 -0.0993  1.7627
 2347SOL     OW 8481   7.356   4.045  10.256 -0.3312  0.1751 -0.2898
 2347SOL    HW1 8482   7.383   3.954  10.248 -0.2493  0.3312 -1.9932
 2347SOL    HW2 8483   7.383   4.086  10.174 -1.2152  1.5185  0.0614
 2348SOL     OW 8484   0.873   3.180   8.964 -0.2984  0.2581 -0.5841
 2348SOL    HW1 8485   0.966   3.171   8.943 -0.4894  1.4171 -2.0870
 2348SOL    HW2 8486   0.833   3.097   8.938  0.1159  0.2370 -1.1702
 2349SOL     OW 8487   1.822   4.197   9.518 -0.1185 -0.3368 -0.3841
 2349SOL    HW1 8488   1.898   4.251   9.542 -0.5498 -0.0186  0.3000
 2349SOL    HW2 8489   1.834   4.181   9.424  0.1742  0.7186 -0.5486
 2350SOL     OW 8490   0.282   2.129   7.911  0.6012 -0.0208 -0.5224
 2350SOL    HW1 8491   0.226   2.196   7.872  0.8190  0.7700  0.5075
 2350SOL    HW2 8492   0.272   2.054   7.852 -2.3326 -0.2942  0.1353
 2351SOL     OW 8493   1.179   4.617   7.900  0.5131 -0.0810 -0.0496
 2351SOL    HW1 8494   1.158   4.584   7.987 -1.2711 -1.1256 -0.7973
 2351SOL    HW2 8495   1.141   4.552   7.841  1.7146  0.5724 -1.6159
 2352SOL     OW 8496   2.130   4.351   6.231 -0.6118  0.5638 -0.6767
 2352SOL    HW1 8497   2.082   4.431   6.251 -0.8947  0.0036  1.1222
 2352SOL    HW2 8498   2.186   4.373   6.157 -1.0787  2.2519 -0.5556
 2353SOL     OW 8499   0.015   2.875   8.672 -0.0526  0.0692  0.9006
 2353SOL    HW1 8500  -0.056   2.903   8.730 -0.8619 -0.5460  0.2344
 2353SOL    HW2 8501  -0.024   2.873   8.585 -0.1914 -3.4157  0.9168
 2354SOL     OW 8502   0.055   1.530   9.747  0.4008  0.2527 -0.2460
 2354SOL    HW1 8503  -0.004   1.602   9.725  0.8374  1.1922  1.4935
 2354SOL    HW2 8504   0.135   1.549   9.698  0.0819  0.2680 -0.7650
 2355SOL     OW 8505   2.093   3.543   9.469  0.0390  0.0051 -0.3462
 2355SOL    HW1 8506   2.136   3.501   9.394 -1.1251 -3.3892  0.6844
 2355SOL    HW2 8507   2.022   3.594   9.431  2.0924  1.9876 -1.7520
 2356SOL     OW 8508   1.734   3.027  10.141  0.5748  0.2994  0.7837
 2356SOL    HW1 8509   1.825   3.003  10.160  1.0133  1.7183  0.6512
 2356SOL    HW2 8510   1.718   2.996  10.052  1.6034  1.7228  0.0602
 2357SOL     OW 8511   1.539   1.669   9.047  0.0859  0.2331 -0.2479
 2357SOL    HW1 8512   1.517   1.759   9.024  2.5526  0.9025 -0.3220
 2357SOL    HW2 8513   1.601   1.677   9.119 -2.0865 -1.5801  1.9808
 2358SOL     OW 8514   0.841   2.921   8.786  0.4321  0.5803  0.0884
 2358SOL    HW1 8515   0.900   2.860   8.831  0.7672  0.8364  0.0003
 2358SOL    HW2 8516   0.830   2.883   8.699  0.8013  0.7468 -0.0336
 2359SOL     OW 8517   6.744   0.724   7.986  0.2715  0.7633 -0.2859
 2359SOL    HW1 8518   6.753   0.645   8.040 -0.3619  0.9815  0.1508
 2359SOL    HW2 8519   6.709   0.693   7.903  1.0452  0.4516 -0.5041
 2360SOL     OW 8520   7.231   1.234   7.449 -0.4026 -0.0711 -0.1755
 2360SOL    HW1 8521   7.261   1.157   7.498 -0.3520 -0.6548 -1.1134
 2360SOL    HW2 8522   7.171   1.199   7.383 -2.6829  0.9896  1.2186
 2361SOL     OW 8523   7.587   1.677   8.479 -0.2579 -0.4845 -0.4083
 2361SOL    HW1 8524   7.591   1.710   8.390  0.7855 -0.1516 -0.2432
 2361SOL    HW2 8525   7.550   1.749   8.530  0.2192 -0.2602 -0.3784
 2362SOL     OW 8526   6.567   3.033   9.369 -1.1921 -0.3715 -0.1051
 2362SOL    HW1 8527   6.550   2.984   9.288  2.3783 -0.1062 -1.2131
 2362SOL    HW2 8528   6.633   2.981   9.414 -0.4096  1.3108  0.7831
 2363SOL     OW 8529   6.685   0.549   7.786  0.6265 -0.0199 -0.7045
 2363SOL    HW1 8530   6.766   0.501   7.803  0.0003 -1.3915 -1.4272
 2363SOL    HW2 8531   6.625   0.484   7.750 -0.1646  1.3744 -2.0618
 2364SOL     OW 8532   0.419   1.888   9.940 -0.4764  0.2278 -0.1581
 2364SOL    HW1 8533   0.416   1.896  10.035 -0.0244  1.8946 -0.2453
 2364SOL    HW2 8534   0.331   1.862   9.915 -1.0522  1.3368  0.6215
 2365SOL     OW 8535   1.372   2.825   8.172  0.4231 -0.0359  0.4551
 2365SOL    HW1 8536   1.309   2.788   8.234 -0.0548 -1.1559 -0.6735
 2365SOL    HW2 8537   1.389   2.913   8.206  0.4422 -0.7302  2.3636
 2366SOL     OW 8538   2.674   2.635   8.770 -0.5467 -0.2043 -0.0272
 2366SOL    HW1 8539   2.683   2.686   8.689 -0.2594  0.7837  0.6097
 2366SOL    HW2 8540   2.617   2.562   8.746 -1.3740  0.6832 -0.8622
 2367SOL     OW 8541   1.348   1.507   9.376  0.2073  0.2611 -0.0528
 2367SOL    HW1 8542   1.393   1.585   9.407  1.6937 -0.7773  0.5098
 2367SOL    HW2 8543   1.364   1.441   9.444 -0.2254 -0.7894 -0.9377
 2368SOL     OW 8544   0.177   4.416   6.861  0.0327 -0.3983  0.2409
 2368SOL    HW1 8545   0.191   4.375   6.776 -0.5533  0.6849 -0.4061
 2368SOL    HW2 8546   0.132   4.350   6.912 -0.3118 -0.7977 -0.5595
 2369SOL     OW 8547   1.957   2.493   9.117 -0.7707  0.4008  0.2006
 2369SOL    HW1 8548   1.891   2.436   9.157 -0.5480  0.0812  0.1130
 2369SOL    HW2 8549   2.004   2.531   9.192 -1.1874  0.7934  0.2702
 2370SOL     OW 8550   1.972   2.899  10.225  0.2397 -0.2670 -0.7663
 2370SOL    HW1 8551   1.992   2.989  10.250 -1.0900 -0.6552  2.0800
 2370SOL    HW2 8552   2.029   2.881  10.150  1.0687  2.6696 -0.9374
 2371SOL     OW 8553   6.839   4.317   6.803  0.2070  0.3045 -0.0920
 2371SOL    HW1 8554   6.793   4.388   6.847 -0.6631 -0.3168  0.0268
 2371SOL    HW2 8555   6.775   4.282   6.741  0.3623 -0.8721  0.3920
 2372SOL     OW 8556   2.005   3.418   9.077  0.1498 -0.2672  0.0019
 2372SOL    HW1 8557   1.919   3.384   9.053  0.5528 -0.7628 -0.8078
 2372SOL    HW2 8558   2.040   3.453   8.995  0.2948  0.8917  0.5505
 2373SOL     OW 8559   0.247   2.453   8.854  0.1933  0.6084  0.4182
 2373SOL    HW1 8560   0.223   2.379   8.799  0.3358 -0.3784  1.6565
 2373SOL    HW2 8561   0.270   2.522   8.792  1.2169 -0.7461 -0.7830
 2374SOL     OW 8562   1.964   2.589   7.795 -0.2753  0.3266 -0.0166
 2374SOL    HW1 8563   2.040   2.532   7.806 -0.1835 -0.3158 -3.1370
 2374SOL    HW2 8564   2.000   2.677   7.788  0.2686 -0.0178 -1.8854
 2375SOL     OW 8565   0.847   0.822   8.240  0.0342  0.5361 -0.1526
 2375SOL    HW1 8566   0.902   0.743   8.236  1.3166  1.3044  1.2338
 2375SOL    HW2 8567   0.850   0.857   8.151 -0.1308 -0.6837 -0.6685
 2376SOL     OW 8568   2.293   2.798   7.180 -0.0784 -0.0072  0.2683
 2376SOL    HW1 8569   2.351   2.797   7.257 -0.6584  1.2175  0.7408
 2376SOL    HW2 8570   2.350   2.826   7.108  0.4378 -1.0277  0.2621
 2377SOL     OW 8571   7.587   4.604   6.005  0.0251  0.5544 -0.1721
 2377SOL    HW1 8572   7.507   4.578   6.049  0.8439  0.5052  1.3560
 2377SOL    HW2 8573   7.652   4.538   6.031  0.6781  0.8475 -1.0060
 2378SOL     OW 8574   1.609   2.317   7.501  0.3480  0.0847 -0.6191
 2378SOL    HW1 8575   1.517   2.298   7.521  0.5794 -0.4608 -0.0296
 2378SOL    HW2 8576   1.641   2.363   7.578  0.5570  0.3224 -0.8467
 2379SOL     OW 8577   0.743   3.185   9.691 -0.4523  0.3522 -0.1809
 2379SOL    HW1 8578   0.648   3.193   9.698 -0.5599 -0.4752 -0.6194
 2379SOL    HW2 8579   0.775   3.189   9.781 -0.7265  2.5856 -0.1323
 2380SOL     OW 8580   2.293   4.648   9.105 -0.1590  0.3558 -0.0894
 2380SOL    HW1 8581   2.240   4.587   9.156  1.0041  0.3553  1.1517
 2380SOL    HW2 8582   2.231   4.716   9.078 -0.9435 -0.0291  0.6972
 2381SOL     OW 8583   1.127   2.538   9.133 -0.5395  0.3542 -0.1954
 2381SOL    HW1 8584   1.217   2.559   9.158  0.4853  0.3626 -3.3657
 2381SOL    HW2 8585   1.130   2.445   9.109 -1.3622  0.3507 -0.3052
 2382SOL     OW 8586   1.647   0.844   8.980 -0.0073  1.5074 -0.6330
 2382SOL    HW1 8587   1.602   0.822   8.898 -0.8309  0.4710  0.0721
 2382SOL    HW2 8588   1.735   0.810   8.970 -0.6805 -0.4518 -0.3444
 2383SOL     OW 8589   0.775   3.704   7.610 -0.3089  0.0347 -0.2502
 2383SOL    HW1 8590   0.754   3.679   7.521  0.1644 -1.1442 -0.0465
 2383SOL    HW2 8591   0.855   3.655   7.631 -0.1307  0.6746  0.6522
 2384SOL     OW 8592   1.005   2.792   9.641 -0.0158  0.4956  0.2886
 2384SOL    HW1 8593   1.036   2.882   9.632  0.6276  0.1510 -1.3059
 2384SOL    HW2 8594   1.049   2.744   9.571 -1.7417 -0.6720 -0.0788
 2385SOL     OW 8595   2.042   2.764   8.940  0.4414  0.0565  0.0824
 2385SOL    HW1 8596   1.974   2.697   8.934  0.7085 -0.2536  0.5008
 2385SOL    HW2 8597   2.024   2.810   9.021  1.0083 -0.3440  0.4506
 2386SOL     OW 8598   1.662   1.423   7.194 -0.0831  0.5143 -0.3401
 2386SOL    HW1 8599   1.679   1.496   7.134  1.2074  1.3432  0.9516
 2386SOL    HW2 8600   1.685   1.457   7.280 -0.3417 -1.1378  0.4255
 2387SOL     OW 8601   1.612   2.379  10.150 -0.0770  0.4035 -0.0058
 2387SOL    HW1 8602   1.582   2.444  10.214 -0.5602  1.6335 -1.4154
 2387SOL    HW2 8603   1.532   2.355  10.101  0.1302 -1.1308  0.3681
 2388SOL     OW 8604   0.841   2.376   9.031  0.1899  0.3901  0.2416
 2388SOL    HW1 8605   0.853   2.440   9.101 -0.7618  1.0509 -0.1765
 2388SOL    HW2 8606   0.862   2.292   9.071 -0.4160  0.7512  1.3478
 2389SOL     OW 8607   1.656   3.051   6.666 -0.1463 -0.4247 -0.2871
 2389SOL    HW1 8608   1.717   2.979   6.655 -1.7230 -1.7753 -0.4817
 2389SOL    HW2 8609   1.622   3.067   6.578  0.3688  0.7721 -0.2973
 2390SOL     OW 8610   1.225   1.839   9.816  0.4565 -0.1984 -0.1501
 2390SOL    HW1 8611   1.224   1.785   9.895 -1.4478 -1.4165 -0.9234
 2390SOL    HW2 8612   1.206   1.777   9.745 -0.2114  1.2370 -1.2792
 2391SOL     OW 8613   1.304   3.425   9.709 -0.6514  0.5965  0.4318
 2391SOL    HW1 8614   1.272   3.423   9.799 -2.8576  1.6406 -0.2528
 2391SOL    HW2 8615   1.379   3.483   9.711 -1.3421  1.4939  1.4264
 2392SOL     OW 8616   1.518   3.800   7.875 -0.5499 -0.4104 -0.0428
 2392SOL    HW1 8617   1.589   3.806   7.811 -1.2476 -1.8456 -1.0016
 2392SOL    HW2 8618   1.548   3.852   7.949  0.6748  0.5577 -1.1709
 2393SOL     OW 8619   1.813   1.161   9.784  0.5699 -0.2965 -0.4240
 2393SOL    HW1 8620   1.858   1.169   9.699  0.6662 -1.2784 -0.4791
 2393SOL    HW2 8621   1.873   1.110   9.838 -0.3465 -1.3792 -0.4011
 2394SOL     OW 8622   0.369   4.099   7.693 -0.2461  0.1768  0.3539
 2394SOL    HW1 8623   0.348   4.048   7.615 -0.8916 -0.2017  0.7608
 2394SOL    HW2 8624   0.370   4.190   7.662 -1.9309  0.1738  0.1531
 2395SOL     OW 8625   0.711   4.461   8.702 -0.8744  0.3789 -0.0775
 2395SOL    HW1 8626   0.698   4.368   8.725 -0.9089  0.1227 -1.0975
 2395SOL    HW2 8627   0.783   4.489   8.759 -2.5523  0.4671  2.1366
 2396SOL     OW 8628   7.772   2.751   9.474  0.3802 -0.1877 -0.1565
 2396SOL    HW1 8629   7.812   2.719   9.393  1.8501 -0.5979  0.6897
 2396SOL    HW2 8630   7.842   2.800   9.517 -1.1015  2.1456 -0.2592
 2397SOL     OW 8631   1.819   3.079   8.106 -0.0672 -1.0134 -0.1846
 2397SOL    HW1 8632   1.891   3.095   8.167  0.3288  0.1852 -0.9530
 2397SOL    HW2 8633   1.858   3.086   8.019 -1.2800  0.5889 -0.6301
 2398SOL     OW 8634   0.182   1.703   7.911  0.5944  0.1227  0.1391
 2398SOL    HW1 8635   0.104   1.746   7.875  0.1175 -0.8086  0.0339
 2398SOL    HW2 8636   0.220   1.768   7.970 -0.2822  0.5815  0.2138
 2399SOL     OW 8637   6.962   2.531   9.096  0.1583  0.0755  0.3303
 2399SOL    HW1 8638   6.955   2.438   9.113 -3.7308  0.2121  0.4399
 2399SOL    HW2 8639   6.980   2.537   9.002 -1.2583 -0.8407 -0.0242
 2400SOL     OW 8640   0.432   2.989   9.174  0.4361 -0.4178 -0.2264
 2400SOL    HW1 8641   0.392   3.011   9.258  0.3361 -2.0921  0.2118
 2400SOL    HW2 8642   0.455   3.073   9.135 -0.3740  0.4329  1.0541
 2401SOL     OW 8643   0.450   4.097   6.277 -0.2253 -0.0735  0.2630
 2401SOL    HW1 8644   0.509   4.023   6.266  0.9642  0.8593  0.2160
 2401SOL    HW2 8645   0.366   4.065   6.243  0.0044 -1.6996  1.1194
 2402SOL     OW 8646   2.875   3.466   7.845 -0.3511 -0.7269  0.4112
 2402SOL    HW1 8647   2.907   3.442   7.758  1.5517  0.9281  0.5678
 2402SOL    HW2 8648   2.906   3.556   7.857 -4.7229  0.9821  0.8749
 2403SOL     OW 8649   0.074   1.997   9.681 -0.0781  0.0037 -0.1979
 2403SOL    HW1 8650   0.097   2.003   9.589 -1.0131  2.7022 -0.3418
 2403SOL    HW2 8651  -0.020   1.983   9.682 -0.3862  1.7988  0.2691
 2404SOL     OW 8652   7.671   2.716   7.828  0.0763 -0.0744  0.3756
 2404SOL    HW1 8653   7.601   2.653   7.842 -0.2223  0.4104  1.1624
 2404SOL    HW2 8654   7.684   2.716   7.734 -0.5562 -0.6316  0.2752
 2405SOL     OW 8655   0.610   2.701   7.760 -0.0660  0.0478 -0.1021
 2405SOL    HW1 8656   0.625   2.686   7.854 -1.9706  0.0564  0.2435
 2405SOL    HW2 8657   0.646   2.789   7.744  0.1548  0.1025  0.6405
 2406SOL     OW 8658   7.243   1.640   8.273 -0.3803 -0.0507 -0.0076
 2406SOL    HW1 8659   7.207   1.555   8.246 -1.7822  0.6201 -0.3409
 2406SOL    HW2 8660   7.187   1.705   8.229  0.1500  1.0525  0.8937
 2407SOL     OW 8661   2.719   0.561   7.883 -0.4642  0.1028  0.4906
 2407SOL    HW1 8662   2.699   0.541   7.974 -0.8228 -1.3754  0.1171
 2407SOL    HW2 8663   2.731   0.476   7.841 -1.1285  0.6986 -1.0212
 2408SOL     OW 8664   0.539   1.931   7.180  0.1574  0.0811 -0.3757
 2408SOL    HW1 8665   0.510   1.853   7.132  0.6903  0.4798 -1.3737
 2408SOL    HW2 8666   0.628   1.947   7.149  0.3761  0.5872  0.4689
 2409SOL     OW 8667   1.238   2.571   8.001  0.1518  0.1467  0.2513
 2409SOL    HW1 8668   1.218   2.491   8.050 -0.8111  0.9669  1.2333
 2409SOL    HW2 8669   1.153   2.606   7.976  0.5759  0.7220 -0.4354
 2410SOL     OW 8670   1.471   2.551  10.365  0.1156  0.2066  0.0639
 2410SOL    HW1 8671   1.467   2.526  10.458 -0.1641  1.7926  0.5030
 2410SOL    HW2 8672   1.390   2.516  10.327  0.2542 -0.4933  0.3947
 2411SOL     OW 8673   2.054   4.455   8.268 -0.2862  0.0381  0.1843
 2411SOL    HW1 8674   2.041   4.368   8.229  1.4843  0.1488 -0.7714
 2411SOL    HW2 8675   1.992   4.511   8.222  0.3299 -0.2483 -1.0491
 2412SOL     OW 8676   6.859   1.887   8.470  0.4730 -0.5131 -0.1992
 2412SOL    HW1 8677   6.807   1.876   8.391  1.2975 -2.9900 -0.4961
 2412SOL    HW2 8678   6.937   1.935   8.441  0.8860 -1.6200 -0.9733
 2413SOL     OW 8679   7.387   3.511   9.148  0.1332 -0.0777  0.2856
 2413SOL    HW1 8680   7.361   3.419   9.152 -1.9772  0.4312 -0.7126
 2413SOL    HW2 8681   7.483   3.508   9.143  0.0582 -2.3023 -1.3489
 2414SOL     OW 8682   0.933   0.644   9.928 -0.4236  0.1986  0.8632
 2414SOL    HW1 8683   0.998   0.662   9.860 -1.1400 -0.5014 -0.0339
 2414SOL    HW2 8684   0.850   0.676   9.892 -1.1289 -1.7373  0.6166
 2415SOL     OW 8685   2.771   2.029   8.567  0.1334  0.5490  0.6512
 2415SOL    HW1 8686   2.765   1.979   8.649 -0.0722  0.5422  0.6325
 2415SOL    HW2 8687   2.793   2.118   8.594 -0.9333  0.7828  0.7876
 2416SOL     OW 8688   0.122   2.315   6.838  0.2458 -0.0387 -0.3722
 2416SOL    HW1 8689   0.086   2.371   6.907 -0.0883  0.8093 -1.2172
 2416SOL    HW2 8690   0.202   2.279   6.876  0.4488  0.9832  0.2151
 2417SOL     OW 8691   6.470   0.313   9.463  0.0827 -0.3770  0.0900
 2417SOL    HW1 8692   6.552   0.293   9.508  0.3713 -0.5123 -0.4887
 2417SOL    HW2 8693   6.405   0.319   9.534  0.1551 -2.4306  0.3903
 2418SOL     OW 8694   0.652   3.377   9.326  0.2231 -0.1230 -0.0068
 2418SOL    HW1 8695   0.700   3.427   9.391 -0.4451  1.7351 -0.8710
 2418SOL    HW2 8696   0.718   3.324   9.281  0.8943 -0.2904  1.1502
 2419SOL     OW 8697   1.764   4.418   9.984 -0.2651 -0.5559  0.0601
 2419SOL    HW1 8698   1.849   4.444  10.018 -0.6589 -1.0698  1.5173
 2419SOL    HW2 8699   1.782   4.340   9.931 -0.0170 -1.7304  1.7999
 2420SOL     OW 8700   1.470   1.796   9.482 -0.3336 -0.3039  0.4675
 2420SOL    HW1 8701   1.552   1.783   9.530 -0.3371 -0.4294  0.4395
 2420SOL    HW2 8702   1.494   1.850   9.407 -0.1883 -0.7293  0.2042
 2421SOL     OW 8703   1.278   2.649   9.510  0.2429 -0.2681 -0.1824
 2421SOL    HW1 8704   1.360   2.679   9.550  0.4584  0.6227 -1.2369
 2421SOL    HW2 8705   1.302   2.626   9.421 -0.8809  1.3592 -0.9622
 2422SOL     OW 8706   1.512   2.790   8.549  0.5578 -0.2113 -0.8112
 2422SOL    HW1 8707   1.569   2.837   8.488  0.7089 -0.2799 -0.7232
 2422SOL    HW2 8708   1.437   2.848   8.562  1.2231  0.4750  0.1068
 2423SOL     OW 8709   0.102   2.292   9.319  1.3222  0.0174  0.4920
 2423SOL    HW1 8710   0.056   2.223   9.271 -0.8861  0.0337  2.3728
 2423SOL    HW2 8711   0.134   2.351   9.251 -0.3070 -0.7438 -1.0387
 2424SOL     OW 8712   7.815   1.897   8.560  0.1096  0.0882  0.2700
 2424SOL    HW1 8713   7.746   1.939   8.508 -0.1918 -0.1457  0.4800
 2424SOL    HW2 8714   7.778   1.888   8.647  0.0640 -0.8653  0.1615
 2425SOL     OW 8715   7.473   4.299   8.960 -0.6299  0.1559 -0.6085
 2425SOL    HW1 8716   7.520   4.336   9.035 -1.2013  0.6020 -0.4638
 2425SOL    HW2 8717   7.460   4.207   8.983 -1.3729  0.4369  0.1337
 2426SOL     OW 8718   7.642   3.974   9.563  0.0094  0.2720 -0.2662
 2426SOL    HW1 8719   7.563   3.973   9.508 -1.0184  0.0473  1.1614
 2426SOL    HW2 8720   7.675   3.884   9.559  0.2320  0.3774 -0.9026
 2427SOL     OW 8721   2.072   2.155   9.039 -0.5174  0.5704 -0.6900
 2427SOL    HW1 8722   2.027   2.076   9.008 -0.1214  0.4805 -1.0443
 2427SOL    HW2 8723   2.054   2.221   8.971  0.0129  0.4887 -0.9136
 2428SOL     OW 8724   7.887   2.287   7.698  0.1190 -0.4181 -0.0818
 2428SOL    HW1 8725   7.851   2.365   7.655  2.2783  0.8751  0.3242
 2428SOL    HW2 8726   7.914   2.231   7.626 -1.0358 -0.6328 -0.3775
 2429SOL     OW 8727   7.393   1.169   9.691 -0.5050 -0.4099 -0.7394
 2429SOL    HW1 8728   7.402   1.091   9.637  1.1999 -1.2689  0.6617
 2429SOL    HW2 8729   7.380   1.241   9.629  0.6663 -1.4409 -2.2431
 2430SOL     OW 8730   0.140   2.610   7.930  0.1044  0.1297  0.2793
 2430SOL    HW1 8731   0.216   2.637   7.879  0.6693  2.2246  2.0694
 2430SOL    HW2 8732   0.067   2.660   7.892  0.0113 -0.3434 -0.1637
 2431SOL     OW 8733   1.239   2.371   7.293 -0.1154 -0.0984 -0.4542
 2431SOL    HW1 8734   1.163   2.323   7.260 -0.2362 -0.8374  0.8214
 2431SOL    HW2 8735   1.227   2.460   7.262 -2.5159  0.2777  1.2784
 2432SOL     OW 8736   1.509   1.947   8.984  0.0354 -0.1291  0.3721
 2432SOL    HW1 8737   1.433   1.987   8.941 -0.3704 -2.1519 -0.9733
 2432SOL    HW2 8738   1.578   1.948   8.918  0.1526 -1.1432  0.4507
 2433SOL     OW 8739   7.842   3.650   7.954 -0.0299  0.1047  0.7291
 2433SOL    HW1 8740   7.871   3.740   7.967  0.2724  0.1673 -0.3066
 2433SOL    HW2 8741   7.844   3.637   7.859 -2.2322 -0.2677  0.6661
 2434SOL     OW 8742   1.360   2.374   9.997 -0.3264 -0.0241 -0.3855
 2434SOL    HW1 8743   1.343   2.460   9.960  1.5440  0.0205 -1.2493
 2434SOL    HW2 8744   1.404   2.326   9.927  0.4019 -1.0345  0.7287
 2435SOL     OW 8745   7.190   7.297   7.459  0.5162  0.3677  0.0447
 2435SOL    HW1 8746   7.199   7.250   7.376 -0.7732 -0.9181  0.5880
 2435SOL    HW2 8747   7.167   7.229   7.522  1.9428  1.2501  1.5813
 2436SOL     OW 8748   1.291   2.754   8.853  0.3103  0.0346 -0.9916
 2436SOL    HW1 8749   1.283   2.848   8.836 -2.3335  0.1787  0.5553
 2436SOL    HW2 8750   1.231   2.713   8.791 -1.2916 -0.2747  0.6795
 2437SOL     OW 8751   7.793   2.804   8.197  0.7428  0.0242  0.3085
 2437SOL    HW1 8752   7.735   2.868   8.239  0.8064  1.0089 -1.0526
 2437SOL    HW2 8753   7.807   2.838   8.109  1.2366 -1.5979 -0.2699
 2438SOL     OW 8754   4.298   2.670   8.043  0.6245  0.2101  0.2944
 2438SOL    HW1 8755   4.366   2.669   7.974  1.3799  1.0226  1.0068
 2438SOL    HW2 8756   4.232   2.732   8.011  0.8917  0.4586  0.2166
 2439SOL     OW 8757   0.131   2.542   8.473  0.3412 -0.4521  0.4710
 2439SOL    HW1 8758   0.054   2.503   8.515 -0.9248  3.0642  1.8114
 2439SOL    HW2 8759   0.105   2.554   8.382 -0.6345  0.3704  0.8319
 2440SOL     OW 8760   0.971   5.149   9.391 -0.7380 -0.0540  0.1213
 2440SOL    HW1 8761   0.968   5.080   9.457  1.0160 -1.9329 -1.6254
 2440SOL    HW2 8762   0.906   5.123   9.326  0.3504 -0.4424 -0.8451
 2441SOL     OW 8763   2.252   4.268   9.997 -0.0474  0.2896 -0.0814
 2441SOL    HW1 8764   2.177   4.311  10.040 -0.9399  0.4665 -1.7396
 2441SOL    HW2 8765   2.216   4.187   9.962  0.5676  0.2949 -0.7494
 2442SOL     OW 8766   0.333   2.728   9.126  0.4693 -0.1272 -0.0627
 2442SOL    HW1 8767   0.355   2.822   9.127 -0.2067  0.1777 -3.1012
 2442SOL    HW2 8768   0.403   2.688   9.075  0.2073 -1.1166  0.3444
 2443SOL     OW 8769   1.658   2.647   7.587 -0.4762  0.6079  0.3369
 2443SOL    HW1 8770   1.614   2.689   7.513  1.7073  1.6318 -0.4458
 2443SOL    HW2 8771   1.742   2.617   7.551  0.3827  0.6003  2.2488
 2444SOL     OW 8772   1.024   2.861   6.951  0.3951  0.5358 -0.3869
 2444SOL    HW1 8773   1.117   2.841   6.964  0.3806 -0.0196 -1.0955
 2444SOL    HW2 8774   1.011   2.854   6.857 -0.1409  1.6426 -0.4060
 2445SOL     OW 8775   7.787   3.329   7.837  0.1608  0.1846 -0.6103
 2445SOL    HW1 8776   7.805   3.323   7.931  1.0109  0.4323 -0.7513
 2445SOL    HW2 8777   7.869   3.358   7.798  0.4104 -1.7253 -1.6640
 2446SOL     OW 8778   1.553   2.392   8.275 -0.4473 -0.3880 -0.2315
 2446SOL    HW1 8779   1.460   2.413   8.276 -0.6992 -1.2313 -1.7752
 2446SOL    HW2 8780   1.557   2.304   8.237  0.9503 -0.5610  0.2512
 2447SOL     OW 8781   1.243   1.385   8.427  0.0181  0.7392  0.2282
 2447SOL    HW1 8782   1.201   1.376   8.342 -0.7544  0.8432  0.5925
 2447SOL    HW2 8783   1.333   1.412   8.407 -0.4423  1.7606 -0.5292
 2448SOL     OW 8784   0.350   0.431   9.866 -0.0231  0.7675 -0.5642
 2448SOL    HW1 8785   0.280   0.466   9.810  1.3546  1.6151 -1.8347
 2448SOL    HW2 8786   0.400   0.373   9.809  1.0634  1.1674 -0.0538
 2449SOL     OW 8787   0.485   1.750   9.654  0.1177 -0.2279 -0.7989
 2449SOL    HW1 8788   0.464   1.686   9.722 -1.9494  0.0376 -1.1457
 2449SOL    HW2 8789   0.533   1.819   9.700  0.4702 -0.9772 -0.0185
 2450SOL     OW 8790   0.449   4.993   8.614  0.1288  0.1274  0.6044
 2450SOL    HW1 8791   0.363   4.952   8.604 -0.2457  0.6722  1.4674
 2450SOL    HW2 8792   0.511   4.919   8.612 -0.1998 -0.1473 -1.4855
 2451SOL     OW 8793   6.627   3.422  10.857 -0.2463 -0.2403  0.6120
 2451SOL    HW1 8794   6.683   3.350  10.826 -1.7686 -1.2483  0.0845
 2451SOL    HW2 8795   6.673   3.501  10.830 -0.1472 -1.0598 -1.8501
 2452SOL     OW 8796   1.482   1.437   9.645 -0.2634  0.2267  0.2154
 2452SOL    HW1 8797   1.486   1.425   9.740  0.0686 -0.1881  0.1565
 2452SOL    HW2 8798   1.543   1.508   9.627 -1.6470  1.5182  0.4874
 2453SOL     OW 8799   0.347   1.102  10.335 -0.1307  0.5172  1.0170
 2453SOL    HW1 8800   0.361   1.195  10.317 -0.3745  0.1071 -1.7233
 2453SOL    HW2 8801   0.405   1.057  10.274 -2.3581 -1.0949 -0.0661
 2454SOL     OW 8802   7.707   2.940   7.962  0.5502 -0.5455 -0.4059
 2454SOL    HW1 8803   7.626   2.987   7.981  1.1088  0.5565 -0.6614
 2454SOL    HW2 8804   7.679   2.864   7.911 -0.1944  0.6690 -1.8975
 2455SOL     OW 8805   0.703   1.401  10.763  0.0298 -0.1724  0.1263
 2455SOL    HW1 8806   0.724   1.484  10.721 -1.6789 -0.5141 -1.5660
 2455SOL    HW2 8807   0.629   1.421  10.821 -1.3269 -0.6977 -1.3462
 2456SOL     OW 8808   2.258   4.434   9.354 -0.1718  0.1336  0.0867
 2456SOL    HW1 8809   2.352   4.445   9.343 -0.0314 -1.2717 -0.2887
 2456SOL    HW2 8810   2.250   4.369   9.423 -0.9277  1.6900  1.5490
 2457SOL     OW 8811   0.661   1.963   9.785 -0.3269  0.1581  0.4433
 2457SOL    HW1 8812   0.719   2.035   9.809 -0.4575  0.0025  1.2523
 2457SOL    HW2 8813   0.581   1.978   9.836 -1.3226  0.7906 -1.2152
 2458SOL     OW 8814   0.505   1.605   8.162  0.1149  0.3688 -0.2067
 2458SOL    HW1 8815   0.535   1.684   8.117 -1.1041  0.0184 -1.7339
 2458SOL    HW2 8816   0.517   1.535   8.098 -2.9337  0.0638 -0.5975
 2459SOL     OW 8817   0.848   5.463   8.642  0.3520 -0.2032  0.3461
 2459SOL    HW1 8818   0.873   5.427   8.557  2.0483 -0.1424  0.7720
 2459SOL    HW2 8819   0.843   5.557   8.628  1.2105 -0.1373  0.4234
 2460SOL     OW 8820   1.233   0.786   8.843  0.9202 -0.4116 -0.4950
 2460SOL    HW1 8821   1.297   0.795   8.773  0.8292 -0.1781 -0.5472
 2460SOL    HW2 8822   1.232   0.871   8.886  0.8764 -0.5120 -0.2932
 2461SOL     OW 8823   7.918   3.037  10.952 -0.8524 -0.4892  0.1697
 2461SOL    HW1 8824   7.941   3.129  10.939  2.2608 -0.8786  1.8567
 2461SOL    HW2 8825   7.953   2.993  10.874 -0.6996 -0.4461  0.2129
 2462SOL     OW 8826   1.940   1.657   8.503 -0.7049  0.5758  0.1037
 2462SOL    HW1 8827   1.973   1.630   8.417  1.3477 -1.0092  1.2876
 2462SOL    HW2 8828   1.997   1.730   8.528  0.6679 -0.8663  1.3161
 2463SOL     OW 8829   0.895   3.226   9.258 -0.0670 -0.4400  0.0960
 2463SOL    HW1 8830   0.950   3.168   9.312 -1.3605 -0.7120  1.1756
 2463SOL    HW2 8831   0.903   3.189   9.170  1.3713 -0.5382  0.2314
 2464SOL     OW 8832   1.755   3.096   9.227  0.0394 -0.1408  0.7209
 2464SOL    HW1 8833   1.680   3.039   9.241 -0.7225  0.5397 -0.4193
 2464SOL    HW2 8834   1.736   3.142   9.145  1.3875  0.5434  0.7542
 2465SOL     OW 8835   1.289   3.652   7.962  0.0966  0.4997 -0.7164
 2465SOL    HW1 8836   1.363   3.709   7.943  0.0496  1.2242  1.0574
 2465SOL    HW2 8837   1.317   3.565   7.932  0.5245  1.2344 -2.6154
 2466SOL     OW 8838   1.430   4.003   8.734 -0.3364  0.3309 -0.8148
 2466SOL    HW1 8839   1.393   4.022   8.648 -1.2386  0.6740 -0.3740
 2466SOL    HW2 8840   1.357   4.019   8.795  0.1262 -0.4026 -0.0350
 2467SOL     OW 8841   1.266   3.455   9.993  0.3060 -0.5286  0.3187
 2467SOL    HW1 8842   1.303   3.532  10.037 -1.3310  0.9514 -0.7282
 2467SOL    HW2 8843   1.258   3.389  10.061 -0.5375  1.0863  1.8730
 2468SOL     OW 8844   1.027   3.565   9.010 -0.4853  0.6876 -0.3107
 2468SOL    HW1 8845   1.027   3.655   9.044  2.6189  1.1814 -1.2544
 2468SOL    HW2 8846   1.062   3.573   8.921  1.6819 -1.5657  0.2296
 2469SOL     OW 8847   3.693   0.748   7.482 -0.2682  0.0960 -0.0103
 2469SOL    HW1 8848   3.664   0.680   7.543 -0.4133  0.5744  0.4657
 2469SOL    HW2 8849   3.668   0.715   7.396 -0.8187 -0.2120  0.2587
 2470SOL     OW 8850   0.456   4.157   8.797 -0.0791 -0.9358 -0.6252
 2470SOL    HW1 8851   0.418   4.072   8.773 -1.0406 -0.4929 -0.7391
 2470SOL    HW2 8852   0.481   4.197   8.714 -1.8617 -0.1094 -0.8107
 2471SOL     OW 8853   0.880   3.235  10.921 -0.5779  0.1397  0.2048
 2471SOL    HW1 8854   0.904   3.328  10.928 -2.2127  0.7231 -1.0752
 2471SOL    HW2 8855   0.863   3.208  11.011 -0.6706  1.2673  0.5432
 2472SOL     OW 8856   0.282   1.991   8.548  0.9992  0.0837  0.4886
 2472SOL    HW1 8857   0.336   1.978   8.470  1.4236 -0.4412  0.8612
 2472SOL    HW2 8858   0.192   1.991   8.516  1.1288 -0.9690  0.0989
 2473SOL     OW 8859   0.853   4.219   7.193 -0.3912 -0.3056  0.4290
 2473SOL    HW1 8860   0.931   4.205   7.247 -0.1044 -0.8146 -0.1051
 2473SOL    HW2 8861   0.869   4.167   7.114 -0.4030  1.1291 -0.5521
 2474SOL     OW 8862   0.622   2.149   9.171  0.1309 -0.0326  0.1069
 2474SOL    HW1 8863   0.576   2.228   9.201 -2.5088 -1.9452  1.4844
 2474SOL    HW2 8864   0.692   2.137   9.235  0.6760  1.2168 -0.2095
 2475SOL     OW 8865   2.985   3.656   9.066  0.3179 -0.2902 -0.4343
 2475SOL    HW1 8866   3.072   3.617   9.054 -0.2280 -2.1153  1.0602
 2475SOL    HW2 8867   2.976   3.665   9.161 -0.8253  0.6524 -0.6152
 2476SOL     OW 8868   2.299   2.661   8.216 -0.2169  0.1739 -0.1214
 2476SOL    HW1 8869   2.302   2.669   8.311 -1.7283 -2.2881  0.2303
 2476SOL    HW2 8870   2.241   2.731   8.187 -2.2245 -0.8608  1.1645
 2477SOL     OW 8871   0.094   2.777   7.569 -0.4565 -0.1323  0.3839
 2477SOL    HW1 8872   0.091   2.768   7.664 -2.3732  0.5302  0.4414
 2477SOL    HW2 8873   0.139   2.860   7.553 -0.0298 -0.3013  0.6924
 2478SOL     OW 8874   1.593   4.966   8.100 -0.3767 -0.5116  0.5108
 2478SOL    HW1 8875   1.606   4.973   8.194 -2.9793  0.5286  0.8662
 2478SOL    HW2 8876   1.506   5.003   8.084  0.0629 -0.4241 -2.3361
 2479SOL     OW 8877   1.879   2.470  10.127  0.1214  0.2112 -0.7667
 2479SOL    HW1 8878   1.794   2.427  10.131 -0.0596  0.6295  1.0362
 2479SOL    HW2 8879   1.942   2.401  10.148  0.1165  0.1342 -1.0123
 2480SOL     OW 8880   1.742   3.842   6.860  0.0943  0.5877 -0.0887
 2480SOL    HW1 8881   1.787   3.838   6.776  0.4858 -1.0227  0.1689
 2480SOL    HW2 8882   1.682   3.916   6.851  0.8167  1.0428 -1.4317
 2481SOL     OW 8883   1.050   3.629   7.535 -0.2129 -0.1595  0.0824
 2481SOL    HW1 8884   1.127   3.681   7.559  0.3330 -0.9574  0.0828
 2481SOL    HW2 8885   1.029   3.657   7.446  0.5645 -0.4997 -0.2142
 2482SOL     OW 8886   6.432   3.815   7.471 -0.2333 -0.0770  0.4882
 2482SOL    HW1 8887   6.459   3.810   7.563 -1.9846  1.9205  1.2115
 2482SOL    HW2 8888   6.361   3.751   7.463 -3.2764  2.8147  1.9315
 2483SOL     OW 8889   0.732   2.712   9.696  0.0685 -0.2199 -0.0785
 2483SOL    HW1 8890   0.814   2.761   9.687  0.1421 -0.0900  1.0842
 2483SOL    HW2 8891   0.696   2.708   9.608  3.4837 -4.0681 -1.6357
 2484SOL     OW 8892   0.244   3.813   8.361 -0.2507  0.4752 -0.3676
 2484SOL    HW1 8893   0.236   3.735   8.307 -1.1796 -1.0921  1.8861
 2484SOL    HW2 8894   0.154   3.832   8.389  0.2811  0.6805  1.3071
 2485SOL     OW 8895   2.091   7.601   9.334 -0.1281 -0.2715 -0.4856
 2485SOL    HW1 8896   2.142   7.542   9.390  0.5716  1.2679  0.5442
 2485SOL    HW2 8897   2.147   7.678   9.323 -1.4222  0.6235 -0.9923
 2486SOL     OW 8898   0.345   3.922   6.561 -0.2336 -0.5526 -0.0362
 2486SOL    HW1 8899   0.407   3.851   6.544  0.8672  0.6990 -1.5302
 2486SOL    HW2 8900   0.392   4.002   6.536 -1.9125  0.5896  0.2693
 2487SOL     OW 8901   7.957   1.689   9.376 -0.7229  0.1827 -0.5294
 2487SOL    HW1 8902   8.029   1.686   9.440  1.0330 -0.4836 -2.4476
 2487SOL    HW2 8903   7.925   1.779   9.381 -0.6716  0.1418  1.2944
 2488SOL     OW 8904   7.411   3.774   8.780  0.0204 -0.3488 -0.0535
 2488SOL    HW1 8905   7.373   3.853   8.741  0.3951 -0.1926 -0.1136
 2488SOL    HW2 8906   7.338   3.729   8.820 -0.0398  0.5742  0.9202
 2489SOL     OW 8907   1.690   2.780   9.797 -0.6483 -0.3684  0.1961
 2489SOL    HW1 8908   1.775   2.741   9.819  0.2773  1.3856 -0.0753
 2489SOL    HW2 8909   1.711   2.870   9.770 -2.6058  0.1431  0.2050
 2490SOL     OW 8910   0.136   4.003   9.790 -0.6295  0.3519 -0.3077
 2490SOL    HW1 8911   0.223   3.999   9.751  0.3006 -0.8816  1.7622
 2490SOL    HW2 8912   0.078   3.966   9.724  0.4786  0.6819 -1.5020
 2491SOL     OW 8913   0.063   1.829   8.237  0.0802  0.1424  0.4950
 2491SOL    HW1 8914   0.147   1.846   8.193  0.5583 -0.6834  1.0539
 2491SOL    HW2 8915   0.084   1.833   8.330 -0.7910  1.2422  0.6627
 2492SOL     OW 8916   0.903   2.390  10.422 -0.5140  0.1674  0.5210
 2492SOL    HW1 8917   0.808   2.379  10.426 -0.6850  1.5609  0.5973
 2492SOL    HW2 8918   0.921   2.416  10.332 -0.4003  1.4556  0.8970
 2493SOL     OW 8919   1.529   0.715   9.322  0.1397 -0.3414  0.0039
 2493SOL    HW1 8920   1.587   0.657   9.272  0.5012  0.5800 -0.6726
 2493SOL    HW2 8921   1.460   0.740   9.260  0.2221  0.2808  0.1558
 2494SOL     OW 8922   7.741   2.897   8.772  0.2320  0.2487  0.3863
 2494SOL    HW1 8923   7.692   2.843   8.710 -0.1610  1.3321 -0.2710
 2494SOL    HW2 8924   7.743   2.845   8.853  1.1542 -1.3825 -0.6414
 2495SOL     OW 8925   0.099   2.178   9.006  0.0205 -0.0928 -0.1328
 2495SOL    HW1 8926   0.189   2.170   8.974  0.1567  0.9248 -0.0413
 2495SOL    HW2 8927   0.091   2.110   9.073  0.6822 -0.2793 -0.2350
 2496SOL     OW 8928   0.987   2.146   8.251  0.3901 -0.0314  0.1114
 2496SOL    HW1 8929   1.080   2.127   8.263  0.0154 -0.5122  2.9609
 2496SOL    HW2 8930   0.970   2.219   8.310 -1.2192 -0.5253  0.3090
 2497SOL     OW 8931   0.897   0.979   9.296 -0.4691 -0.2015 -0.4793
 2497SOL    HW1 8932   0.869   1.031   9.220 -1.6116 -0.0454  0.0193
 2497SOL    HW2 8933   0.911   0.891   9.261  2.1985  0.5361 -1.4776
 2498SOL     OW 8934   0.885   2.453   8.302 -0.1265  0.1028 -0.1000
 2498SOL    HW1 8935   0.932   2.445   8.220  1.2294  0.8259  0.5751
 2498SOL    HW2 8936   0.816   2.517   8.284 -0.7475 -0.7890 -1.0276
 2499SOL     OW 8937   0.507   3.140   7.882  0.4449 -0.1821  0.1585
 2499SOL    HW1 8938   0.420   3.151   7.843  0.9330  0.9931 -0.6652
 2499SOL    HW2 8939   0.568   3.151   7.808  1.5104  3.9919  1.4049
 2500SOL     OW 8940   1.826   1.905  10.236 -0.2646 -0.1240 -0.1924
 2500SOL    HW1 8941   1.823   1.987  10.185  1.2467  0.0501 -0.0532
 2500SOL    HW2 8942   1.893   1.852  10.192 -1.4387 -1.4425 -0.4599
 2501SOL     OW 8943   1.402   0.538  10.923 -0.3303 -0.0904  0.0510
 2501SOL    HW1 8944   1.349   0.458  10.920  0.3893 -0.5780 -0.1704
 2501SOL    HW2 8945   1.488   0.509  10.893  0.0002  0.7273  0.2058
 2502SOL     OW 8946   0.811   1.733   8.348  0.2174 -0.6105 -0.0162
 2502SOL    HW1 8947   0.897   1.766   8.376  0.4245 -0.9006 -0.2983
 2502SOL    HW2 8948   0.790   1.786   8.272 -0.6740  0.6671  1.0726
 2503SOL     OW 8949   1.673   3.873   8.898 -0.1611  0.2010 -0.1319
 2503SOL    HW1 8950   1.604   3.896   8.836 -0.7078 -0.0179  0.3797
 2503SOL    HW2 8951   1.741   3.938   8.884 -1.0573  1.2569  0.2949
 2504SOL     OW 8952   0.570   2.778   8.928  0.2728 -0.0858 -0.6449
 2504SOL    HW1 8953   0.646   2.821   8.967 -1.2050  0.3258  1.9483
 2504SOL    HW2 8954   0.585   2.685   8.944 -0.1754  0.0583  0.7461
 2505SOL     OW 8955   7.271   5.173   7.808  0.2374 -0.3420 -0.4713
 2505SOL    HW1 8956   7.225   5.251   7.776 -0.3229  0.4119  2.0004
 2505SOL    HW2 8957   7.363   5.198   7.808 -0.0378  0.8974  1.5881
 2506SOL     OW 8958   6.540   3.193   7.555  0.1365 -0.0124  0.6341
 2506SOL    HW1 8959   6.453   3.209   7.519  0.7763  1.6491 -0.2881
 2506SOL    HW2 8960   6.565   3.277   7.595  1.9129  0.0494 -0.4848
 2507SOL     OW 8961   7.090   1.987   9.380 -0.0462 -0.5804 -0.0556
 2507SOL    HW1 8962   7.058   1.945   9.300  0.9424  0.3301 -0.9737
 2507SOL    HW2 8963   7.011   2.017   9.425 -0.6009 -0.2739 -1.1782
 2508SOL     OW 8964   0.902   4.702   9.778  0.1230  0.3975  0.3327
 2508SOL    HW1 8965   0.819   4.711   9.825  0.1482 -0.5750  0.5864
 2508SOL    HW2 8966   0.932   4.613   9.799  0.2491  0.0217 -1.3271
 2509SOL     OW 8967   1.514   3.995   9.226  0.3779 -0.1552  0.2208
 2509SOL    HW1 8968   1.554   4.061   9.169 -0.3961  0.7669  0.7127
 2509SOL    HW2 8969   1.563   3.915   9.208 -0.4580 -0.1794 -2.5137
 2510SOL     OW 8970   7.008   3.747   9.313  0.2705  0.1080 -0.0189
 2510SOL    HW1 8971   6.925   3.787   9.337  0.9682  2.0154 -0.6073
 2510SOL    HW2 8972   7.063   3.757   9.391 -0.0093 -1.0872  0.3466
 2511SOL     OW 8973   0.544   4.388   6.748  0.6143 -0.5637  0.2128
 2511SOL    HW1 8974   0.532   4.424   6.660  2.0051 -0.5658  0.0024
 2511SOL    HW2 8975   0.577   4.462   6.800 -0.5483 -0.4642  0.8343
 2512SOL     OW 8976   7.669   3.011   8.315  0.1351  0.1669 -0.3222
 2512SOL    HW1 8977   7.667   3.050   8.402  1.9197 -1.3070  0.4248
 2512SOL    HW2 8978   7.675   3.086   8.255 -1.9877  1.2433  0.6959
 2513SOL     OW 8979   4.253   2.242   7.831 -0.2962  0.4264  0.2863
 2513SOL    HW1 8980   4.157   2.235   7.831 -0.2834  0.2160 -0.2855
 2513SOL    HW2 8981   4.270   2.336   7.834 -0.4969  0.4439  2.8545
 2514SOL     OW 8982   0.412   2.325   7.531  0.3157 -0.2629 -0.3514
 2514SOL    HW1 8983   0.454   2.381   7.596 -0.7827 -1.3749  1.4037
 2514SOL    HW2 8984   0.335   2.374   7.502  0.8446  0.2621 -0.9071
 2515SOL     OW 8985   0.885   4.388   9.850 -0.2229 -0.1145  0.3093
 2515SOL    HW1 8986   0.955   4.421   9.906  0.9607  0.1643 -1.2611
 2515SOL    HW2 8987   0.880   4.294   9.871  0.5819 -0.1243  0.4882
 2516SOL     OW 8988   1.466   1.937   8.215 -0.0137  0.1922  0.4424
 2516SOL    HW1 8989   1.445   1.925   8.122  1.4618  2.2606 -0.2286
 2516SOL    HW2 8990   1.534   1.872   8.232 -1.6659 -1.5552  0.6748
 2517SOL     OW 8991   0.340   5.498   7.797  0.2690 -0.1174  0.8252
 2517SOL    HW1 8992   0.307   5.439   7.865  0.4417 -1.5259 -0.2798
 2517SOL    HW2 8993   0.262   5.538   7.759  0.1847  0.9804  2.0589
 2518SOL     OW 8994   1.233   3.831   7.541  0.4750  0.1890  0.5143
 2518SOL    HW1 8995   1.227   3.925   7.527  0.8751  0.3159  1.1380
 2518SOL    HW2 8996   1.327   3.815   7.556  0.0754  0.1869  3.5438
 2519SOL     OW 8997   1.366   1.158  10.050 -0.0599  0.2315  0.4139
 2519SOL    HW1 8998   1.441   1.100  10.035 -0.6348 -0.5076  0.3138
 2519SOL    HW2 8999   1.362   1.168  10.145  0.6061  0.8827  0.3828
 2520SOL     OW 9000   7.832   2.195   9.459 -0.5634  0.1443  0.2747
 2520SOL    HW1 9001   7.752   2.191   9.513  0.3274 -1.7706  1.5544
 2520SOL    HW2 9002   7.899   2.226   9.519  0.2649 -1.1483  0.0480
 2521SOL     OW 9003   5.396   4.756   8.777 -0.7660 -0.8311 -0.2566
 2521SOL    HW1 9004   5.317   4.703   8.764 -1.0666 -0.3793 -0.2764
 2521SOL    HW2 9005   5.440   4.755   8.692 -0.1075 -2.0956  0.0655
 2522SOL     OW 9006   2.558   0.437  10.169  0.1099 -0.4400  0.1997
 2522SOL    HW1 9007   2.488   0.385  10.129  0.6134  0.4798 -2.0635
 2522SOL    HW2 9008   2.639   0.396  10.138  0.5187  1.3820 -1.3519
 2523SOL     OW 9009   2.078   2.184   8.562 -0.4269 -0.2401 -0.2697
 2523SOL    HW1 9010   2.006   2.213   8.617 -0.3686  0.7297 -0.6623
 2523SOL    HW2 9011   2.058   2.222   8.476  0.1985 -0.5354 -0.5500
 2524SOL     OW 9012   0.647   2.068  10.601 -0.7687  0.4207 -0.2205
 2524SOL    HW1 9013   0.702   1.992  10.618 -1.3089 -0.1174 -0.8152
 2524SOL    HW2 9014   0.558   2.034  10.599 -1.0788  1.1754  0.1221
 2525SOL     OW 9015   0.769   1.733   7.861 -0.0209 -0.6272  0.9326
 2525SOL    HW1 9016   0.832   1.804   7.851 -0.5998 -0.3363 -1.0133
 2525SOL    HW2 9017   0.756   1.699   7.773 -2.7027 -0.5542  1.2002
 2526SOL     OW 9018   2.158   3.112   7.060  0.1417 -0.5695  0.2754
 2526SOL    HW1 9019   2.217   3.130   6.986 -1.9521  0.7156 -1.1527
 2526SOL    HW2 9020   2.102   3.041   7.029  0.8594 -1.8387  1.6639
 2527SOL     OW 9021   6.225   1.778   9.078 -0.6238  0.3388  1.0393
 2527SOL    HW1 9022   6.196   1.865   9.104 -1.0301  0.2828  0.7741
 2527SOL    HW2 9023   6.303   1.762   9.132  1.1489  2.0182 -0.8260
 2528SOL     OW 9024   0.074   2.882  10.771  0.0419  0.2799  0.0395
 2528SOL    HW1 9025   0.127   2.955  10.736 -0.9115  0.0832 -1.9209
 2528SOL    HW2 9026   0.139   2.815  10.793  0.7649  0.8203 -0.3623
 2529SOL     OW 9027   6.977   2.171   8.968  0.0496 -0.6437 -0.2072
 2529SOL    HW1 9028   7.009   2.217   9.045  0.8520 -1.9722  0.2955
 2529SOL    HW2 9029   6.882   2.181   8.972  0.2329  2.3529 -1.0676
 2530SOL     OW 9030   0.648   3.317  10.368  0.1079  0.5642 -0.2318
 2530SOL    HW1 9031   0.608   3.299  10.453  0.9048  0.3877  0.1161
 2530SOL    HW2 9032   0.730   3.361  10.389  0.8547 -0.4869 -0.8467
 2531SOL     OW 9033   2.217   4.049   8.788 -0.3175 -0.3579 -0.1874
 2531SOL    HW1 9034   2.149   4.018   8.727 -0.2667 -0.9755  0.0717
 2531SOL    HW2 9035   2.188   4.137   8.812 -0.4961 -0.2257 -0.8704
 2532SOL     OW 9036   1.104   3.120   9.984 -0.4925  0.3326 -0.3728
 2532SOL    HW1 9037   1.162   3.173  10.040  0.0275 -0.6148  0.0011
 2532SOL    HW2 9038   1.073   3.050  10.041 -2.6770  1.2462 -0.3334
 2533SOL     OW 9039   1.267   3.656   8.813  0.3425 -0.0179  0.1199
 2533SOL    HW1 9040   1.254   3.646   8.719 -1.5838 -1.6889  0.4791
 2533SOL    HW2 9041   1.303   3.572   8.841  1.9877  0.8561  0.7653
 2534SOL     OW 9042   0.453   3.618  11.125  0.0684  0.2805 -0.1820
 2534SOL    HW1 9043   0.452   3.706  11.087 -2.2510 -0.5970 -2.5315
 2534SOL    HW2 9044   0.526   3.574  11.082  0.7888  0.8204  0.4661
 2535SOL     OW 9045   1.980   1.959  12.477 -0.1251 -0.1981  0.0941
 2535SOL    HW1 9046   1.888   1.962  12.504  0.0927 -0.0836  0.8412
 2535SOL    HW2 9047   1.981   2.000  12.391 -1.1417 -2.3309 -0.9922
 2536SOL     OW 9048   0.717   2.898   9.184 -0.5951 -0.6587 -0.0081
 2536SOL    HW1 9049   0.622   2.906   9.186 -0.4767  0.9306  0.6072
 2536SOL    HW2 9050   0.748   2.956   9.254  0.8901  0.3037 -1.3925
 2537SOL     OW 9051   3.435   2.921  11.093 -0.0736  0.0136  0.5956
 2537SOL    HW1 9052   3.517   2.888  11.129 -0.1442  0.7624  1.4832
 2537SOL    HW2 9053   3.455   3.012  11.069 -0.2556 -0.2297 -0.5283
 2538SOL     OW 9054   1.763   4.566  11.197  0.0398 -0.2680  0.2398
 2538SOL    HW1 9055   1.773   4.642  11.139  0.4338 -1.3353 -1.1611
 2538SOL    HW2 9056   1.677   4.530  11.175  0.5483 -1.1757 -0.3196
 2539SOL     OW 9057   3.933   2.584   0.388 -0.3249  0.5730  0.4023
 2539SOL    HW1 9058   3.954   2.566   0.296  0.2379  0.3098  0.5807
 2539SOL    HW2 9059   3.873   2.515   0.413 -0.5649  0.7068  0.2013
 2540SOL     OW 9060   2.412   2.509  10.443 -0.0488 -0.5890  0.0071
 2540SOL    HW1 9061   2.349   2.524  10.514 -0.5917 -0.7679 -0.4393
 2540SOL    HW2 9062   2.397   2.580  10.382 -0.3748 -1.0881 -0.5000
 2541SOL     OW 9063   2.278   4.200   9.503 -1.3816 -0.0441  0.1419
 2541SOL    HW1 9064   2.255   4.150   9.425 -2.3164 -0.1910  0.4965
 2541SOL    HW2 9065   2.303   4.135   9.568  0.3530  0.1234 -0.3042
 2542SOL     OW 9066   0.224   4.605   8.677  0.6801 -0.2365  0.1102
 2542SOL    HW1 9067   0.264   4.557   8.605  0.3074 -2.1102  1.0928
 2542SOL    HW2 9068   0.182   4.680   8.636  1.5412 -0.5795 -1.4576
 2543SOL     OW 9069   1.220   2.300  12.061 -0.0196 -0.2605  0.0589
 2543SOL    HW1 9070   1.134   2.278  12.026 -0.1081  0.2327 -0.0380
 2543SOL    HW2 9071   1.255   2.365  12.000 -0.3812  0.9885  1.1302
 2544SOL     OW 9072   7.945   3.035  10.446  0.4833 -0.5711  0.3246
 2544SOL    HW1 9073   7.988   3.086  10.515  0.2463 -2.7616  2.1742
 2544SOL    HW2 9074   7.853   3.061  10.452  0.6689  0.2349 -0.1131
 2545SOL     OW 9075   0.856   3.244   9.945 -0.5379 -0.1039  0.1519
 2545SOL    HW1 9076   0.941   3.201   9.950 -0.7695 -0.4655  1.6796
 2545SOL    HW2 9077   0.874   3.336   9.966 -0.4599 -0.0823 -0.0103
 2546SOL     OW 9078   1.498   2.901  11.344  0.4268  0.3300  0.4386
 2546SOL    HW1 9079   1.403   2.916  11.348  0.3899 -0.0350  1.0592
 2546SOL    HW2 9080   1.536   2.989  11.348  0.1348  0.4356  1.1334
 2547SOL     OW 9081   0.781   3.421   9.000  0.3142  0.2439 -0.1405
 2547SOL    HW1 9082   0.823   3.343   8.964  0.8474  1.2418 -1.8159
 2547SOL    HW2 9083   0.851   3.486   9.004 -0.6797  1.4421 -1.3810
 2548SOL     OW 9084   2.425   2.397  11.878  0.2958  0.5661  0.2451
 2548SOL    HW1 9085   2.505   2.421  11.925  0.5075 -0.7153  0.5584
 2548SOL    HW2 9086   2.409   2.472  11.820  3.1218 -0.1213 -1.6429
 2549SOL     OW 9087   1.721   3.011   9.640  0.1148  0.1325 -0.0392
 2549SOL    HW1 9088   1.665   2.965   9.577 -1.1387 -0.0531  1.1759
 2549SOL    HW2 9089   1.679   3.096   9.651  0.5670  0.3221  0.2357
 2550SOL     OW 9090   7.633   3.595   9.023 -0.1846 -0.2299 -0.0313
 2550SOL    HW1 9091   7.649   3.539   8.947  1.0116 -0.6564  0.5083
 2550SOL    HW2 9092   7.650   3.683   8.992 -1.3363 -0.2186 -0.6870
 2551SOL     OW 9093   7.280   2.217   8.971 -0.0169  0.2948 -0.0770
 2551SOL    HW1 9094   7.330   2.278   8.918 -0.0522  0.6550  0.2973
 2551SOL    HW2 9095   7.329   2.135   8.967  0.3729  0.5268 -0.0659
 2552SOL     OW 9096   1.783   3.282   8.996 -0.1459  0.6188 -0.0438
 2552SOL    HW1 9097   1.723   3.321   8.932  1.1022  1.2776 -0.8400
 2552SOL    HW2 9098   1.846   3.232   8.944  0.2733  0.2933  0.7522
 2553SOL     OW 9099   1.737   5.300   8.969 -0.4006  0.0746 -0.1599
 2553SOL    HW1 9100   1.718   5.285   8.876  0.0170  1.8238 -0.5654
 2553SOL    HW2 9101   1.783   5.383   8.971 -0.5037  0.1318  1.6467
 2554SOL     OW 9102   7.611   2.115   9.600 -0.3872 -0.6017 -0.3260
 2554SOL    HW1 9103   7.589   2.205   9.624  0.1917 -0.2438 -1.1230
 2554SOL    HW2 9104   7.543   2.089   9.538 -0.7736 -0.8612  0.1905
 2555SOL     OW 9105   1.661   3.452   9.178  0.1211 -0.3236 -0.2607
 2555SOL    HW1 9106   1.698   3.377   9.131  1.7303  0.1338  0.2225
 2555SOL    HW2 9107   1.584   3.477   9.126  0.8082 -0.9630 -1.6487
 2556SOL     OW 9108   1.256   4.800  11.559 -0.1872 -0.3050 -0.3111
 2556SOL    HW1 9109   1.284   4.733  11.620  1.9844  0.8801  0.0939
 2556SOL    HW2 9110   1.176   4.837  11.599  0.6942 -0.1375  1.3965
 2557SOL     OW 9111   7.441   1.955  10.166 -0.0531  0.1336 -0.4860
 2557SOL    HW1 9112   7.454   2.047  10.192  0.7096 -0.4898  1.5476
 2557SOL    HW2 9113   7.354   1.953  10.127 -0.3373  1.6151 -0.0106
 2558SOL     OW 9114   2.348   2.267  11.601 -0.1974 -0.6600 -0.1274
 2558SOL    HW1 9115   2.343   2.229  11.689 -1.2740 -0.8608 -0.2676
 2558SOL    HW2 9116   2.429   2.318  11.603 -0.0014 -0.9710  0.8571
 2559SOL     OW 9117   0.161   3.557   9.600 -0.0734 -0.2070 -0.0243
 2559SOL    HW1 9118   0.235   3.617   9.597  0.1873 -0.5327 -0.1076
 2559SOL    HW2 9119   0.151   3.526   9.510 -1.0023  0.6628 -0.2545
 2560SOL     OW 9120   0.698   4.684  11.724  0.0588  0.2142 -0.2987
 2560SOL    HW1 9121   0.641   4.723  11.791  2.1980  1.4382  0.9156
 2560SOL    HW2 9122   0.742   4.612  11.768  1.0714  0.6750 -0.5269
 2561SOL     OW 9123   2.280   2.189  12.014 -0.3044  0.1253  0.3350
 2561SOL    HW1 9124   2.346   2.244  11.972  2.3187 -1.3956  2.1865
 2561SOL    HW2 9125   2.251   2.240  12.090 -0.0666  0.1665  0.3990
 2562SOL     OW 9126   2.433   3.305   9.925  0.3682 -0.0489  0.1788
 2562SOL    HW1 9127   2.423   3.277   9.834 -1.7342  0.7317  0.1190
 2562SOL    HW2 9128   2.433   3.401   9.920 -1.8459  0.0489  1.1363
 2563SOL     OW 9129   0.555   3.253   9.022  0.3126 -0.5058  0.0965
 2563SOL    HW1 9130   0.568   3.205   8.940 -0.8090  0.3734 -0.6254
 2563SOL    HW2 9131   0.637   3.301   9.035  0.5416 -0.7419 -0.4466
 2564SOL     OW 9132   7.723   0.982   9.411 -0.0489  0.3090 -0.8311
 2564SOL    HW1 9133   7.806   1.030   9.413 -0.2646  0.6772 -0.0231
 2564SOL    HW2 9134   7.659   1.045   9.442 -0.2725 -0.6119  0.6865
 2565SOL     OW 9135   0.344   2.559  10.118 -0.2976 -0.3549  0.7976
 2565SOL    HW1 9136   0.258   2.571  10.161 -0.4794  2.0977 -0.0812
 2565SOL    HW2 9137   0.333   2.597  10.031  2.1579  1.8144  1.3009
 2566SOL     OW 9138   0.798   3.822   9.297 -0.1830 -0.1119  0.1682
 2566SOL    HW1 9139   0.816   3.896   9.354 -0.5799  0.9750 -1.0557
 2566SOL    HW2 9140   0.864   3.756   9.320  1.1388  1.2062  0.2534
 2567SOL     OW 9141   2.621   4.118  10.447  0.2792  0.4500 -0.1241
 2567SOL    HW1 9142   2.664   4.048  10.496 -1.5824 -0.4660  0.3122
 2567SOL    HW2 9143   2.614   4.085  10.358 -1.0361 -0.2031  0.1834
 2568SOL     OW 9144   3.238   0.646  12.433 -0.5314  0.1210 -0.1714
 2568SOL    HW1 9145   3.226   0.683  12.520 -1.3319  0.0230 -0.2374
 2568SOL    HW2 9146   3.154   0.607  12.410 -0.2269 -0.1809 -0.8409
 2569SOL     OW 9147   2.338   3.381  10.510  0.0599  0.3378  0.0990
 2569SOL    HW1 9148   2.339   3.477  10.510 -1.4603  0.3808 -0.1339
 2569SOL    HW2 9149   2.327   3.357  10.418 -1.2319  0.0162  0.3096
 2570SOL     OW 9150   7.773   2.077  10.426 -0.3025 -0.5616 -0.0756
 2570SOL    HW1 9151   7.850   2.130  10.409  0.4007 -0.7711  2.1361
 2570SOL    HW2 9152   7.699   2.134  10.404  0.4566  0.5285  0.1376
 2571SOL     OW 9153   0.901   2.530  10.157 -0.3498 -0.5707  0.3973
 2571SOL    HW1 9154   0.830   2.592  10.173 -0.2871 -1.0236  2.9195
 2571SOL    HW2 9155   0.881   2.491  10.072 -0.6271  2.5118 -1.0941
 2572SOL     OW 9156   1.788   3.309  11.461  0.6275  0.2412  0.3042
 2572SOL    HW1 9157   1.817   3.357  11.384  1.8153 -1.6518 -0.4965
 2572SOL    HW2 9158   1.718   3.253  11.429  0.7809 -0.1897  0.7096
 2573SOL     OW 9159   1.438   4.193  10.934 -0.1205 -0.4348  0.5841
 2573SOL    HW1 9160   1.492   4.115  10.926  2.8695  1.5325 -0.6005
 2573SOL    HW2 9161   1.406   4.192  11.024 -0.5213 -3.1704  0.4685
 2574SOL     OW 9162   0.163   2.736   9.351  0.2350 -0.1178  0.1663
 2574SOL    HW1 9163   0.078   2.702   9.323 -0.4610 -0.1673  2.1830
 2574SOL    HW2 9164   0.211   2.750   9.269 -1.6528 -0.1873 -1.0196
 2575SOL     OW 9165   2.728   2.070  10.257  0.6561 -1.0232 -0.8251
 2575SOL    HW1 9166   2.672   2.135  10.298 -0.1752 -1.7321 -0.7917
 2575SOL    HW2 9167   2.817   2.094  10.283  0.4174  0.4058 -1.2742
 2576SOL     OW 9168   2.415   3.583   7.883  0.2409  0.5106 -0.5639
 2576SOL    HW1 9169   2.469   3.644   7.833  0.8266  1.9394  1.6591
 2576SOL    HW2 9170   2.461   3.499   7.878  1.8834  1.3388  0.0000
 2577SOL     OW 9171   1.013   2.732   8.957  0.0790  0.2315 -0.5804
 2577SOL    HW1 9172   1.072   2.683   9.015  1.4607  1.8448 -0.5603
 2577SOL    HW2 9173   1.030   2.695   8.870  0.7414  0.3232 -0.4946
 2578SOL     OW 9174   0.550   3.777   9.381  0.4870 -0.4173  0.4430
 2578SOL    HW1 9175   0.634   3.823   9.387 -0.0406  0.9036 -1.5020
 2578SOL    HW2 9176   0.553   3.732   9.297 -0.5822 -0.7391  0.5636
 2579SOL     OW 9177   6.850   3.953  10.908 -0.5279  0.0197 -0.1844
 2579SOL    HW1 9178   6.822   3.900  10.982 -0.4595 -0.7032 -0.6702
 2579SOL    HW2 9179   6.943   3.933  10.897 -1.1413 -2.0818 -2.2255
 2580SOL     OW 9180   1.952   2.899   9.159 -0.3166 -0.3047 -0.1804
 2580SOL    HW1 9181   1.959   2.845   9.237  1.1130 -0.3793 -0.3310
 2580SOL    HW2 9182   1.889   2.967   9.182  0.4005 -0.0707  1.2019
 2581SOL     OW 9183   0.927   2.696   0.856 -0.0211 -0.9174 -0.5970
 2581SOL    HW1 9184   0.896   2.610   0.883 -0.1792 -1.3891 -2.2026
 2581SOL    HW2 9185   0.849   2.753   0.863 -0.7604 -1.6200 -2.5303
 2582SOL     OW 9186   6.454   1.201   9.394  0.4937  0.2145 -0.5693
 2582SOL    HW1 9187   6.414   1.172   9.311  1.4071 -0.8414 -0.6651
 2582SOL    HW2 9188   6.504   1.278   9.370 -0.5305  0.8756 -0.6696
 2583SOL     OW 9189   1.429   3.248  10.691 -0.1204 -0.1592  0.4422
 2583SOL    HW1 9190   1.474   3.164  10.703  1.3908  0.5920  0.3282
 2583SOL    HW2 9191   1.439   3.293  10.775  1.4444  0.9504 -0.2857
 2584SOL     OW 9192   1.927   3.461  11.229 -0.0651 -0.2097 -0.3820
 2584SOL    HW1 9193   1.912   3.515  11.151 -0.6574 -0.5497 -0.5135
 2584SOL    HW2 9194   1.921   3.371  11.196 -3.4995 -0.4676  0.5346
 2585SOL     OW 9195   0.969   2.865   9.934 -0.0709  0.1933 -0.2242
 2585SOL    HW1 9196   0.995   2.902   9.850  0.6915  0.7452  0.2500
 2585SOL    HW2 9197   1.009   2.778   9.935  0.6843  0.5346 -0.0559
 2586SOL     OW 9198   7.992   2.189  10.354  0.2865 -0.2987 -0.0094
 2586SOL    HW1 9199   8.003   2.277  10.317  0.3495  1.0583  2.9505
 2586SOL    HW2 9200   8.066   2.139  10.320  1.8863  1.6495  0.4149
 2587SOL     OW 9201   1.767   2.141  10.117 -0.0677 -0.2911 -0.0003
 2587SOL    HW1 9202   1.703   2.212  10.124 -0.1286 -0.3418 -0.0373
 2587SOL    HW2 9203   1.751   2.102  10.031  1.3219  0.9534 -0.8632
 2588SOL     OW 9204   0.805   4.370  10.704 -0.4685  0.4326 -0.3451
 2588SOL    HW1 9205   0.844   4.289  10.737  0.3335  0.4629 -1.1756
 2588SOL    HW2 9206   0.734   4.341  10.646 -1.0461  0.3614  0.3785
 2589SOL     OW 9207   1.219   1.349   9.921  0.0592  0.5021 -0.0770
 2589SOL    HW1 9208   1.240   1.347   9.827  1.5319  2.3200  0.1598
 2589SOL    HW2 9209   1.290   1.300   9.962  0.0638  0.7252  0.1817
 2590SOL     OW 9210   0.236   4.004  10.454 -0.0575  0.0720 -0.5556
 2590SOL    HW1 9211   0.317   3.960  10.428  0.6844  2.1444 -2.0548
 2590SOL    HW2 9212   0.261   4.058  10.529 -0.5752 -0.8158  0.2744
 2591SOL     OW 9213   1.485   2.653   9.882  0.1123 -0.2077  0.4872
 2591SOL    HW1 9214   1.494   2.645   9.977  1.2263  0.7668  0.4872
 2591SOL    HW2 9215   1.560   2.706   9.856 -0.0014 -0.7309 -0.9820
 2592SOL     OW 9216   2.799   3.722  10.003 -0.0635 -0.2392 -0.3610
 2592SOL    HW1 9217   2.860   3.648  10.010 -0.5649 -0.8294 -1.8829
 2592SOL    HW2 9218   2.798   3.761  10.091  2.2212 -0.4277 -0.1951
 2593SOL     OW 9219   2.258   1.882  12.128 -0.1007 -0.4080 -0.3999
 2593SOL    HW1 9220   2.240   1.958  12.074  0.0787 -0.7762 -0.9815
 2593SOL    HW2 9221   2.317   1.828  12.076 -1.0201 -1.4227 -0.4238
 2594SOL     OW 9222   6.929   0.675   9.979  0.1723 -0.2974 -0.5849
 2594SOL    HW1 9223   6.887   0.761   9.988  1.9128  0.6635 -1.1345
 2594SOL    HW2 9224   6.857   0.612   9.984 -1.0257  1.1010  1.1588
 2595SOL     OW 9225   7.806   2.991   0.606  0.2637  0.2781  0.5100
 2595SOL    HW1 9226   7.842   3.069   0.647  0.6749 -0.2158  1.1119
 2595SOL    HW2 9227   7.712   3.005   0.604  0.4590  1.6807 -1.2504
 2596SOL     OW 9228   2.383   3.650  10.498  0.0989  0.6721  0.0468
 2596SOL    HW1 9229   2.346   3.717  10.556  0.1141  0.1028  0.7275
 2596SOL    HW2 9230   2.377   3.689  10.410 -1.5973  0.8458  0.1892
 2597SOL     OW 9231   1.521   2.890  11.794 -0.4108 -0.1310  0.0503
 2597SOL    HW1 9232   1.549   2.947  11.865  0.1516  0.0189 -0.2827
 2597SOL    HW2 9233   1.438   2.854  11.823 -0.1254 -0.1697  0.8379
 2598SOL     OW 9234   1.079   3.873  10.258  0.1808  0.2759 -0.2435
 2598SOL    HW1 9235   1.058   3.965  10.249 -0.1643  0.0575 -1.9599
 2598SOL    HW2 9236   0.999   3.827  10.233  0.5475 -0.5058 -0.0283
 2599SOL     OW 9237   1.140   0.475  10.188 -0.0305 -0.3413 -0.1183
 2599SOL    HW1 9238   1.057   0.439  10.220 -1.5980  1.0604 -2.2762
 2599SOL    HW2 9239   1.166   0.538  10.254 -1.6205  0.4129 -0.1712
 2600SOL     OW 9240   1.617   3.629   8.401  0.2651 -0.1616  0.4801
 2600SOL    HW1 9241   1.580   3.605   8.316 -0.0399 -0.0877  0.5907
 2600SOL    HW2 9242   1.681   3.697   8.380 -0.8786  0.9414  0.4500
 2601SOL     OW 9243   0.501   3.114  11.241  0.1914 -0.6265 -0.4364
 2601SOL    HW1 9244   0.457   3.077  11.164 -1.0450 -0.2967  0.0896
 2601SOL    HW2 9245   0.438   3.176  11.277  1.5645  0.7706 -0.3362
 2602SOL     OW 9246   0.579   0.417   9.408  0.2566 -0.3208 -0.2758
 2602SOL    HW1 9247   0.504   0.469   9.380  1.2418  0.0226 -2.5153
 2602SOL    HW2 9248   0.568   0.333   9.362 -0.0290 -1.2256  1.3644
 2603SOL     OW 9249   1.005   2.451   9.527  0.4614  0.2961  0.1943
 2603SOL    HW1 9250   1.011   2.492   9.613  1.1303  2.7436 -0.9447
 2603SOL    HW2 9251   1.084   2.397   9.520 -1.0402 -2.4031  2.2079
 2604SOL     OW 9252   1.480   3.340  10.957  0.1376 -0.2574 -0.1575
 2604SOL    HW1 9253   1.454   3.291  11.034  1.0121  1.4677  1.3211
 2604SOL    HW2 9254   1.575   3.330  10.953  0.2853  0.9483 -0.0612
 2605SOL     OW 9255   0.841   4.398  10.367 -0.2253  0.3112  0.2384
 2605SOL    HW1 9256   0.757   4.378  10.409  0.0386 -0.9257  0.2044
 2605SOL    HW2 9257   0.903   4.337  10.407  0.1875 -0.3970 -1.3818
 2606SOL     OW 9258   1.152   2.388  10.572 -0.4840  0.7198 -0.6420
 2606SOL    HW1 9259   1.059   2.370  10.556  0.0709 -3.6632 -0.1280
 2606SOL    HW2 9260   1.195   2.368  10.489  0.1960  1.2892 -0.4396
 2607SOL     OW 9261   0.724   1.006  10.075 -0.4143 -0.1835  0.1552
 2607SOL    HW1 9262   0.726   1.077  10.139 -1.0205  0.0637 -0.0957
 2607SOL    HW2 9263   0.642   0.960  10.092 -1.0255  0.4392 -1.0240
 2608SOL     OW 9264   0.379   3.853  10.807  0.0330  0.3987 -0.6095
 2608SOL    HW1 9265   0.315   3.787  10.837  0.3134  0.8981  1.1937
 2608SOL    HW2 9266   0.329   3.934  10.800  0.0352  0.3520 -1.2844
 2609SOL     OW 9267   0.110   3.176  10.712  0.5565  0.5093 -0.4796
 2609SOL    HW1 9268   0.201   3.148  10.705  0.2215 -0.5678 -0.7471
 2609SOL    HW2 9269   0.115   3.264  10.750  1.6777  0.2542  0.0143
 2610SOL     OW 9270   7.411   2.828   8.197  0.3003 -0.5229  0.1900
 2610SOL    HW1 9271   7.432   2.893   8.130  0.9507  0.3877  1.2299
 2610SOL    HW2 9272   7.322   2.799   8.175 -0.4958  1.5815  0.3192
 2611SOL     OW 9273   0.662   2.633   8.280  0.2974 -0.5376 -0.0572
 2611SOL    HW1 9274   0.614   2.574   8.221 -1.5174  1.8428 -1.1331
 2611SOL    HW2 9275   0.597   2.655   8.347  1.5838 -1.2585  1.4854
 2612SOL     OW 9276   7.140   1.518   8.951 -0.2019  0.0963 -0.2022
 2612SOL    HW1 9277   7.189   1.540   8.872  0.7463  1.0448  0.6363
 2612SOL    HW2 9278   7.048   1.529   8.926  0.0054 -1.0092 -1.5760
 2613SOL     OW 9279   1.911   2.854  11.187  0.3821 -0.1593  0.1598
 2613SOL    HW1 9280   1.818   2.832  11.187  0.6001 -1.1621  0.2009
 2613SOL    HW2 9281   1.925   2.901  11.105 -0.3441  0.8989  0.6203
 2614SOL     OW 9282   0.151   1.957   9.419 -0.7341  0.3476 -0.9234
 2614SOL    HW1 9283   0.109   1.965   9.334 -0.4694  0.0746 -1.0848
 2614SOL    HW2 9284   0.234   2.003   9.409 -0.9949  0.8889 -0.6071
 2615SOL     OW 9285   7.929   2.888   9.635 -0.5214 -0.1946 -0.0791
 2615SOL    HW1 9286   7.965   2.962   9.585  1.8402 -0.8701  0.4823
 2615SOL    HW2 9287   7.862   2.928   9.691 -1.3084  1.0142 -1.7669
 2616SOL     OW 9288   0.318   3.624   7.318 -0.3561 -0.4044  0.3202
 2616SOL    HW1 9289   0.373   3.622   7.239 -1.0952 -1.1515 -0.1950
 2616SOL    HW2 9290   0.374   3.590   7.387 -0.5550 -2.5135 -0.4775
 2617SOL     OW 9291   1.280   1.988  10.224 -0.3551  0.4300 -0.1864
 2617SOL    HW1 9292   1.371   1.979  10.196  0.1211 -0.9910  1.5962
 2617SOL    HW2 9293   1.239   2.041  10.155  1.8152  1.2118 -0.9877
 2618SOL     OW 9294   7.954   1.112   9.416  0.1135 -0.4793 -0.1972
 2618SOL    HW1 9295   8.049   1.097   9.410 -0.1183 -2.3895  0.1932
 2618SOL    HW2 9296   7.946   1.191   9.469  1.4867 -0.5838  0.2191
 2619SOL     OW 9297   2.538   1.862   9.981  0.6244 -0.2076 -0.0876
 2619SOL    HW1 9298   2.593   1.874   9.903  1.0081 -0.3790  0.1567
 2619SOL    HW2 9299   2.597   1.826  10.047  0.1025 -0.8974  0.0164
 2620SOL     OW 9300   1.919   4.027  10.452  0.2422  0.4088  0.0093
 2620SOL    HW1 9301   1.855   4.034  10.523  0.2096 -0.0831  0.0284
 2620SOL    HW2 9302   1.996   4.074  10.484  0.2935  0.0348  0.4442
 2621SOL     OW 9303   3.403   3.144  11.303 -0.1591  0.1826  0.1516
 2621SOL    HW1 9304   3.399   3.143  11.207  0.5426  1.2108  0.0924
 2621SOL    HW2 9305   3.352   3.221  11.328 -0.8428 -0.4235  0.6454
 2622SOL     OW 9306   0.336   2.295  10.159 -0.3835 -0.2476  0.5238
 2622SOL    HW1 9307   0.353   2.388  10.140 -1.0964 -0.1257  0.4768
 2622SOL    HW2 9308   0.423   2.258  10.171 -0.1086  0.5525  1.1351
 2623SOL     OW 9309   1.384   2.492   9.242 -0.1694  0.0915 -0.6698
 2623SOL    HW1 9310   1.400   2.400   9.262  0.2783  0.3849  0.3852
 2623SOL    HW2 9311   1.472   2.528   9.228 -0.1974  0.7426  0.7118
 2624SOL     OW 9312   0.474   2.040   8.716  0.2270 -0.3156  0.2394
 2624SOL    HW1 9313   0.498   1.954   8.681  0.1590 -0.6632  1.0281
 2624SOL    HW2 9314   0.393   2.063   8.670  1.1196  0.1009 -1.1980
 2625SOL     OW 9315   1.794   3.164  11.707 -0.0504 -0.1543  0.5722
 2625SOL    HW1 9316   1.790   3.219  11.629 -0.8765  0.0188  0.7216
 2625SOL    HW2 9317   1.752   3.082  11.681  0.2409 -0.3313  0.6531
 2626SOL     OW 9318   7.699   3.562  10.038 -0.0281  0.1115 -0.5535
 2626SOL    HW1 9319   7.618   3.613  10.046  1.2566  2.0810  0.8223
 2626SOL    HW2 9320   7.735   3.561  10.127  1.4502 -0.7333 -1.1403
 2627SOL     OW 9321   6.710   0.855  10.000 -0.3858 -0.1794  0.1897
 2627SOL    HW1 9322   6.662   0.773  10.013 -1.4802  0.2206 -1.0352
 2627SOL    HW2 9323   6.715   0.894  10.087  0.6653 -1.7902  0.9013
 2628SOL     OW 9324   0.712   3.198  10.684  0.2573  0.2743 -0.1207
 2628SOL    HW1 9325   0.701   3.103  10.692 -1.3324  0.4464  0.2777
 2628SOL    HW2 9326   0.746   3.225  10.770  0.0962  0.1180 -0.0049
 2629SOL     OW 9327   0.275   3.743  11.379  0.2731  0.0863 -0.3904
 2629SOL    HW1 9328   0.247   3.676  11.317  2.0455 -0.2347 -0.9151
 2629SOL    HW2 9329   0.229   3.823  11.351 -2.3103 -0.9624  0.5935
 2630SOL     OW 9330   7.137   2.753  10.536  0.4041 -0.5182  0.3292
 2630SOL    HW1 9331   7.178   2.668  10.550  0.4515 -0.3899  1.0528
 2630SOL    HW2 9332   7.180   2.811  10.600  0.0891 -0.0490  0.1256
 2631SOL     OW 9333   1.275   3.117  10.428  0.0121 -0.7295 -0.5799
 2631SOL    HW1 9334   1.271   3.202  10.472 -2.6404 -1.3997  0.6916
 2631SOL    HW2 9335   1.330   3.063  10.486  2.4326  0.2416 -1.8274
 2632SOL     OW 9336   1.808   2.310  10.989 -0.3953  0.7764 -0.2968
 2632SOL    HW1 9337   1.747   2.239  11.008  1.2981 -0.8092 -0.5057
 2632SOL    HW2 9338   1.781   2.381  11.047 -1.1067 -0.6487  1.1860
 2633SOL     OW 9339   3.496   5.375   9.496  0.0444 -0.1074  0.0674
 2633SOL    HW1 9340   3.461   5.293   9.461  1.1270 -0.4776 -0.1987
 2633SOL    HW2 9341   3.587   5.355   9.516 -0.0929  0.5795  1.5425
 2634SOL     OW 9342   7.683   1.738   9.182 -0.4877 -0.6750  0.0027
 2634SOL    HW1 9343   7.705   1.807   9.118 -0.3651  0.3637  1.1369
 2634SOL    HW2 9344   7.729   1.661   9.149 -1.5845 -0.5766 -1.9590
 2635SOL     OW 9345   1.367   3.106   9.346  0.1500  0.7306  0.3429
 2635SOL    HW1 9346   1.447   3.157   9.334  0.2036  0.2966 -1.4467
 2635SOL    HW2 9347   1.331   3.095   9.258 -1.5577  0.3708  1.0270
 2636SOL     OW 9348   2.610   3.046   9.940 -0.0957 -0.1556 -0.1877
 2636SOL    HW1 9349   2.621   2.951   9.941  2.3250  0.0547  0.5911
 2636SOL    HW2 9350   2.522   3.060   9.906 -0.7449 -2.6821  0.2521
 2637SOL     OW 9351   1.844   5.243  11.160  0.4202  0.0393  0.5036
 2637SOL    HW1 9352   1.855   5.291  11.242 -0.6756 -1.0880  1.3326
 2637SOL    HW2 9353   1.781   5.294  11.110  1.4869  1.0134  0.0971
 2638SOL     OW 9354   1.826   1.409  11.334 -0.4588 -0.5421  1.0402
 2638SOL    HW1 9355   1.890   1.337  11.329  0.7743  0.3323  3.0866
 2638SOL    HW2 9356   1.872   1.478  11.381 -2.7651  0.3263  2.1388
 2639SOL     OW 9357   1.436   0.312  11.983  0.4952  0.3653  0.0171
 2639SOL    HW1 9358   1.425   0.301  11.889  0.8081  2.5068 -0.3159
 2639SOL    HW2 9359   1.531   0.324  11.994  0.2189  2.7032  0.2406
 2640SOL     OW 9360   0.123   2.391   9.847 -0.7028 -0.0160 -0.2274
 2640SOL    HW1 9361   0.185   2.382   9.774 -0.1821  0.8474  0.0921
 2640SOL    HW2 9362   0.042   2.353   9.814  0.4072 -2.7146 -0.0821
 2641SOL     OW 9363   2.777   2.161  10.659 -0.2066 -0.4270 -0.6383
 2641SOL    HW1 9364   2.842   2.230  10.674 -0.6931 -0.1924  0.4285
 2641SOL    HW2 9365   2.715   2.169  10.731 -0.1328 -2.1464 -0.3360
 2642SOL     OW 9366   7.461   2.705   9.522 -0.1781  0.5684  0.0268
 2642SOL    HW1 9367   7.376   2.695   9.565  0.1149 -1.8863  0.1752
 2642SOL    HW2 9368   7.444   2.689   9.430  0.3248 -1.7774  0.2743
 2643SOL     OW 9369   7.650   0.727   9.148  0.5476 -0.2582 -0.5710
 2643SOL    HW1 9370   7.696   0.809   9.128  0.6087  0.7352  2.9701
 2643SOL    HW2 9371   7.565   0.737   9.105  0.6379  1.5912 -0.4140
 2644SOL     OW 9372   7.784   2.630  10.462 -0.2320  0.0168  0.1096
 2644SOL    HW1 9373   7.844   2.696  10.427 -1.5955  0.6684 -1.0961
 2644SOL    HW2 9374   7.783   2.646  10.557  3.3488 -1.6234  0.5860
 2645SOL     OW 9375   7.034   2.455   9.830  0.0403  0.7997  0.5795
 2645SOL    HW1 9376   7.058   2.409   9.910 -0.1588  0.6871  0.5747
 2645SOL    HW2 9377   6.951   2.497   9.850 -0.8623 -0.5871 -0.0868
 2646SOL     OW 9378   1.933   2.762   0.233  0.0607 -0.4533 -0.0407
 2646SOL    HW1 9379   1.969   2.677   0.257 -0.1006 -0.4638  0.1720
 2646SOL    HW2 9380   1.930   2.762   0.138 -3.6142 -2.2574 -0.1019
 2647SOL     OW 9381   7.641   2.426   9.361  0.0633  0.2064 -0.2213
 2647SOL    HW1 9382   7.726   2.383   9.348  0.0507  0.3231 -0.7131
 2647SOL    HW2 9383   7.577   2.361   9.334 -0.0595 -0.2146  0.9967
 2648SOL     OW 9384   1.492   2.257   9.334  0.0703 -0.0835  0.0402
 2648SOL    HW1 9385   1.549   2.243   9.410 -0.9324 -1.1334  0.6406
 2648SOL    HW2 9386   1.470   2.168   9.304  2.8526  0.1568 -3.4265
 2649SOL     OW 9387   1.142   1.905  10.431 -0.9665 -0.2282  0.1288
 2649SOL    HW1 9388   1.107   1.836  10.376  0.1029 -0.6912  0.0136
 2649SOL    HW2 9389   1.187   1.964  10.371  0.6431 -1.0025  0.5165
 2650SOL     OW 9390   2.946   2.201  11.321  0.3469 -0.2359  0.0221
 2650SOL    HW1 9391   2.865   2.193  11.271 -0.7141 -0.6540  1.7109
 2650SOL    HW2 9392   3.000   2.261  11.270 -0.5563 -0.8222 -1.7156
 2651SOL     OW 9393   2.688   2.822  10.829  0.4066  0.0511 -0.4146
 2651SOL    HW1 9394   2.783   2.806  10.825  0.5944  1.1143 -0.5792
 2651SOL    HW2 9395   2.657   2.766  10.900  1.3972  0.7252  0.5923
 2652SOL     OW 9396   1.361   2.336  11.578  0.0830  0.5337 -0.1621
 2652SOL    HW1 9397   1.432   2.395  11.602  1.1385 -1.0088  0.7275
 2652SOL    HW2 9398   1.291   2.393  11.548  1.2075  2.1877  0.2195
 2653SOL     OW 9399   2.185   0.801   7.898  0.0797  0.4822 -0.4529
 2653SOL    HW1 9400   2.187   0.816   7.803 -0.0159 -0.0682 -0.5484
 2653SOL    HW2 9401   2.097   0.768   7.915  0.3209 -0.0892 -0.2832
 2654SOL     OW 9402   7.648   2.091   8.794  0.2507  0.1045  0.0381
 2654SOL    HW1 9403   7.637   2.186   8.800  1.9667  0.4391 -1.3493
 2654SOL    HW2 9404   7.724   2.072   8.849 -1.7026 -0.9314  2.5878
 2655SOL     OW 9405   3.412   2.393  10.068  0.0547  0.2186 -0.1281
 2655SOL    HW1 9406   3.398   2.420   9.977  0.0386  3.4830  0.7368
 2655SOL    HW2 9407   3.504   2.414  10.086 -0.0597  0.0220  0.7483
 2656SOL     OW 9408   0.066   3.604  10.541 -0.0954  0.2583 -0.1961
 2656SOL    HW1 9409   0.043   3.697  10.536  0.0233  0.2392 -1.2800
 2656SOL    HW2 9410   0.019   3.572  10.618 -0.4944  1.1155 -0.0729
 2657SOL     OW 9411   7.839   3.326   9.412  0.1863 -0.1784 -0.1471
 2657SOL    HW1 9412   7.762   3.359   9.366 -0.3380 -0.6016  0.4069
 2657SOL    HW2 9413   7.908   3.389   9.390  0.0305 -0.5052 -1.7065
 2658SOL     OW 9414   1.457   1.486  11.816  0.1108 -0.5885 -0.2238
 2658SOL    HW1 9415   1.536   1.439  11.790  1.2615 -0.3916  2.5856
 2658SOL    HW2 9416   1.419   1.432  11.886 -0.7786  0.6228  0.2647
 2659SOL     OW 9417   0.366   3.107  10.731 -0.3729 -0.0724 -0.1409
 2659SOL    HW1 9418   0.399   3.172  10.669  0.4347 -2.0201 -1.8724
 2659SOL    HW2 9419   0.443   3.056  10.756 -0.7387  0.4709  2.3158
 2660SOL     OW 9420   7.408   2.774  10.082  0.4869  0.2527 -0.0853
 2660SOL    HW1 9421   7.442   2.790   9.994  1.4410 -1.5148 -0.0841
 2660SOL    HW2 9422   7.352   2.697  10.072 -1.8358  1.8048  0.3331
 2661SOL     OW 9423   0.746   3.719  10.847 -0.4688 -0.0423  0.4755
 2661SOL    HW1 9424   0.825   3.752  10.805  0.0554 -1.6059  0.1453
 2661SOL    HW2 9425   0.716   3.791  10.903  1.6390  0.3211  1.2320
 2662SOL     OW 9426   1.854   2.180   9.710 -0.3252 -0.5595 -0.0360
 2662SOL    HW1 9427   1.913   2.141   9.645  0.9045  0.7470  0.2404
 2662SOL    HW2 9428   1.807   2.106   9.747 -0.1210 -1.4647 -1.5044
 2663SOL     OW 9429   0.348   3.734   9.950 -0.1360 -0.2566  0.1586
 2663SOL    HW1 9430   0.343   3.684  10.031 -0.0786  0.9533  0.9269
 2663SOL    HW2 9431   0.404   3.808   9.970 -0.9705  0.6379 -0.6719
 2664SOL     OW 9432   0.593   2.474  10.778 -0.3004 -0.1379  0.4397
 2664SOL    HW1 9433   0.674   2.476  10.728 -1.1047 -2.0044 -1.0522
 2664SOL    HW2 9434   0.620   2.450  10.866  0.7335 -1.1686 -0.1342
 2665SOL     OW 9435   2.846   1.534   9.792 -0.0589  0.0661 -0.2925
 2665SOL    HW1 9436   2.929   1.492   9.768 -0.3016  0.6950 -2.4343
 2665SOL    HW2 9437   2.782   1.463   9.792  0.7810 -0.9415  3.9249
 2666SOL     OW 9438   0.579   0.669  10.111 -0.7563 -0.6413 -0.3306
 2666SOL    HW1 9439   0.604   0.684  10.020  1.2541  2.4876  0.5646
 2666SOL    HW2 9440   0.650   0.616  10.147 -0.4112 -0.0099 -0.0760
 2667SOL     OW 9441   1.841   1.058  11.482 -0.0147 -0.0963 -0.6742
 2667SOL    HW1 9442   1.838   0.971  11.522  0.4847  0.5736  0.9174
 2667SOL    HW2 9443   1.932   1.069  11.455 -0.0429 -0.0206 -0.7381
 2668SOL     OW 9444   1.016   5.326  10.745  0.1340  0.0257 -0.7619
 2668SOL    HW1 9445   0.928   5.297  10.722 -0.1460 -0.1026  0.4475
 2668SOL    HW2 9446   1.067   5.245  10.750 -0.0750 -0.0494  0.1965
 2669SOL     OW 9447   1.899   3.961   9.110  0.2742 -0.0835  0.1208
 2669SOL    HW1 9448   1.939   4.034   9.156  1.3540 -0.4842 -0.1555
 2669SOL    HW2 9449   1.805   3.968   9.130  0.1822  2.0583 -0.8650
 2670SOL     OW 9450   3.018   3.508  10.373 -0.3854 -0.0450 -0.1816
 2670SOL    HW1 9451   3.096   3.462  10.404 -1.2741 -1.4307  0.0583
 2670SOL    HW2 9452   2.950   3.487  10.436 -0.8172  1.7455  0.0239
 2671SOL     OW 9453   0.210   2.683   8.692  0.1925 -0.2296  0.3191
 2671SOL    HW1 9454   0.188   2.663   8.601 -0.8077  2.1356 -0.0501
 2671SOL    HW2 9455   0.134   2.731   8.725  2.0320  2.3413  1.1601
 2672SOL     OW 9456   0.953   1.872  12.038  0.3518  0.1772 -0.4326
 2672SOL    HW1 9457   0.973   1.912  11.953  1.0186  2.6268  0.7993
 2672SOL    HW2 9458   0.863   1.898  12.057  0.4781  0.3126 -0.0148
 2673SOL     OW 9459   2.358   3.011  10.215 -0.5179  0.2990 -0.3162
 2673SOL    HW1 9460   2.370   2.977  10.127  0.1591  0.8227 -0.4340
 2673SOL    HW2 9461   2.316   2.940  10.263 -2.9389  0.7533 -1.6083
 2674SOL     OW 9462   1.436   3.026   7.323  0.4094  0.0819  0.5212
 2674SOL    HW1 9463   1.456   3.078   7.246  0.1699  0.0513  0.4376
 2674SOL    HW2 9464   1.341   3.030   7.331  0.4393  0.1604  0.8682
 2675SOL     OW 9465   2.044   2.052  11.358 -0.2422 -0.0453  0.4237
 2675SOL    HW1 9466   2.136   2.059  11.332 -0.0522  0.3122  1.1446
 2675SOL    HW2 9467   2.010   2.141  11.349 -0.3891 -0.0826  0.6020
 2676SOL     OW 9468   0.213   4.510   9.825  0.0167 -0.7333 -0.1176
 2676SOL    HW1 9469   0.150   4.581   9.817  0.8600 -0.0757 -1.1118
 2676SOL    HW2 9470   0.172   4.437   9.778 -3.1344 -2.6945  4.8214
 2677SOL     OW 9471   0.501   4.849  11.356  0.2466  0.0363  0.5570
 2677SOL    HW1 9472   0.432   4.893  11.307  0.8181  0.1755 -0.1442
 2677SOL    HW2 9473   0.574   4.842  11.294  1.2126  0.7598  1.5764
 2678SOL     OW 9474   1.824   2.318  12.101  0.3458  0.1347  0.7809
 2678SOL    HW1 9475   1.804   2.238  12.053 -0.1708  0.4702  0.4255
 2678SOL    HW2 9476   1.842   2.289  12.190 -1.7839 -0.2262  1.1659
 2679SOL     OW 9477   3.545   2.023   9.238 -1.0141 -0.0571 -0.0583
 2679SOL    HW1 9478   3.462   2.045   9.196 -1.6984  0.6314  1.5728
 2679SOL    HW2 9479   3.608   2.084   9.199 -1.9405  1.6302  0.9279
 2680SOL     OW 9480   1.999   3.578  10.131 -0.4247 -0.2571 -0.4865
 2680SOL    HW1 9481   1.941   3.650  10.156 -0.8886  0.3590 -3.0980
 2680SOL    HW2 9482   2.087   3.612  10.147 -0.6314 -0.6750  2.1156
 2681SOL     OW 9483   2.379   2.211  12.449  0.3743  0.2584  0.5266
 2681SOL    HW1 9484   2.303   2.201  12.506 -0.8104 -1.0334 -1.1851
 2681SOL    HW2 9485   2.417   2.123  12.443  1.3477  0.6693  0.4746
 2682SOL     OW 9486   0.947   3.741   9.815  0.1678 -0.7185 -0.0403
 2682SOL    HW1 9487   1.003   3.669   9.787  0.1318 -0.8364  0.1932
 2682SOL    HW2 9488   0.858   3.712   9.792  0.2033 -0.5146 -0.4479
 2683SOL     OW 9489   0.721   2.585  11.825 -0.0141 -0.3732 -0.0918
 2683SOL    HW1 9490   0.630   2.588  11.799 -0.0458 -0.4204  0.0117
 2683SOL    HW2 9491   0.753   2.500  11.795 -0.3625 -0.9202  1.0393
 2684SOL     OW 9492   2.065   4.851   9.054 -0.1900 -0.2486 -1.0951
 2684SOL    HW1 9493   2.057   4.941   9.023  0.5078  0.1025 -0.2733
 2684SOL    HW2 9494   2.010   4.847   9.132  1.1914 -0.0153 -0.0718
 2685SOL     OW 9495   7.613   3.780  10.824 -0.0421  0.2502 -0.0203
 2685SOL    HW1 9496   7.641   3.691  10.847  0.7782  0.4676 -0.1303
 2685SOL    HW2 9497   7.540   3.767  10.763 -0.7110 -0.3358  0.8712
 2686SOL     OW 9498   0.327   2.362   9.684 -0.1949 -0.1276 -0.2402
 2686SOL    HW1 9499   0.400   2.350   9.744  0.2386  1.3633 -0.4252
 2686SOL    HW2 9500   0.358   2.426   9.620 -1.6120  0.4542 -0.3903
 2687SOL     OW 9501   1.201   0.626  11.081 -0.2211 -0.0737  0.5185
 2687SOL    HW1 9502   1.217   0.709  11.126 -0.1095 -0.0653  0.4628
 2687SOL    HW2 9503   1.280   0.610  11.031 -1.2473  1.1586 -1.6271
 2688SOL     OW 9504   1.196   4.546   8.188  0.0207  0.2194  0.1635
 2688SOL    HW1 9505   1.116   4.503   8.218  0.8721  0.2199  2.7133
 2688SOL    HW2 9506   1.211   4.616   8.253  2.0166  0.2720 -0.2868
 2689SOL     OW 9507   7.769   2.565  11.942 -0.0062 -0.5518 -0.3836
 2689SOL    HW1 9508   7.696   2.502  11.934 -1.5344  1.1454 -0.4076
 2689SOL    HW2 9509   7.794   2.559  12.034  0.2562 -1.5856 -0.5039
 2690SOL     OW 9510   2.146   3.125   9.404  0.3153  0.3626  0.2441
 2690SOL    HW1 9511   2.216   3.124   9.338  0.7633  1.2896  0.6896
 2690SOL    HW2 9512   2.112   3.214   9.401 -0.9776 -0.1292 -0.0846
 2691SOL     OW 9513   2.855   5.083   9.088 -0.3243  0.4607  0.0851
 2691SOL    HW1 9514   2.906   5.008   9.117 -0.6495  0.9345  2.0285
 2691SOL    HW2 9515   2.834   5.064   8.997  0.6029 -1.2325  0.1826
 2692SOL     OW 9516   1.049   2.186  12.247 -0.3692 -0.7035 -0.2448
 2692SOL    HW1 9517   0.973   2.215  12.196  0.4645  2.0489 -0.1147
 2692SOL    HW2 9518   1.125   2.214  12.195  0.5056  0.2735  1.4703
 2693SOL     OW 9519   1.822   3.280  10.420  0.2531 -0.3104  0.3616
 2693SOL    HW1 9520   1.754   3.220  10.392  0.3893 -0.7529  0.9485
 2693SOL    HW2 9521   1.904   3.236  10.397  0.4253  1.5205 -3.1159
 2694SOL     OW 9522   2.155   2.250   9.311  0.0546  0.8130 -0.0302
 2694SOL    HW1 9523   2.147   2.175   9.370 -3.3324  1.2429  0.2782
 2694SOL    HW2 9524   2.139   2.214   9.224 -0.8684  1.0325  0.0381
 2695SOL     OW 9525   0.766   0.229  11.651 -0.3649 -0.3675 -0.1247
 2695SOL    HW1 9526   0.754   0.141  11.687 -0.3126  0.0392  0.9542
 2695SOL    HW2 9527   0.756   0.286  11.727  1.2475  0.4585 -0.4929
 2696SOL     OW 9528   0.635   3.622  10.334  0.1036  0.2675 -0.2998
 2696SOL    HW1 9529   0.624   3.541  10.384  1.2884  0.5273  0.4336
 2696SOL    HW2 9530   0.712   3.664  10.374  0.8079  0.7190 -2.0308
 2697SOL     OW 9531   1.312   2.217  10.738  0.1797  0.7961  0.2443
 2697SOL    HW1 9532   1.257   2.252  10.667  1.0432 -0.2862 -0.9998
 2697SOL    HW2 9533   1.297   2.123  10.735  0.4941  0.7028  1.3054
 2698SOL     OW 9534   1.038   5.017  10.813  0.3614 -0.3044 -0.0897
 2698SOL    HW1 9535   1.125   5.014  10.774 -0.2326 -0.5521 -1.4426
 2698SOL    HW2 9536   0.993   4.939  10.779 -0.5050  0.0168  0.2868
 2699SOL     OW 9537   2.320   2.948  10.670  0.5140 -0.3592 -0.8167
 2699SOL    HW1 9538   2.235   2.908  10.653  0.4798 -0.6104 -0.1073
 2699SOL    HW2 9539   2.384   2.881  10.643  0.4554 -1.1440  0.8221
 2700SOL     OW 9540   1.009   2.982  10.450 -0.2291  0.5182  1.0512
 2700SOL    HW1 9541   1.055   3.065  10.440 -0.8762  0.8542  0.8182
 2700SOL    HW2 9542   0.956   2.974  10.371 -1.1637  0.5120  1.6576
 2701SOL     OW 9543   7.219   3.316   9.417  0.0551  0.1367  0.4736
 2701SOL    HW1 9544   7.145   3.345   9.364  1.3005  1.3073 -0.6839
 2701SOL    HW2 9545   7.230   3.224   9.394 -0.5909  0.1362  0.1410
 2702SOL     OW 9546   1.649   3.749   9.160 -0.4902  0.0026 -0.2895
 2702SOL    HW1 9547   1.719   3.712   9.107 -0.9571 -0.0057 -0.9203
 2702SOL    HW2 9548   1.625   3.679   9.221  0.6528  0.3210  0.5455
 2703SOL     OW 9549   7.236   0.973   8.405  0.1663 -0.7810  0.3340
 2703SOL    HW1 9550   7.184   1.026   8.466 -2.9029 -0.3371 -2.3770
 2703SOL    HW2 9551   7.254   0.892   8.452 -0.5889  0.1722  2.3661
 2704SOL     OW 9552   1.928   1.925   8.943  0.3355 -1.0564 -0.7544
 2704SOL    HW1 9553   1.847   1.958   8.906 -0.1106 -1.0429  0.1933
 2704SOL    HW2 9554   1.913   1.832   8.955 -0.5471 -0.6565  1.8125
 2705SOL     OW 9555   2.108   2.138  11.826 -0.6116 -0.5584 -0.5182
 2705SOL    HW1 9556   2.174   2.170  11.888 -0.7417  0.8033 -1.0321
 2705SOL    HW2 9557   2.081   2.053  11.861 -0.4063 -0.0043  1.0838
 2706SOL     OW 9558   3.502   2.161  10.784  0.2197 -0.2925 -0.3309
 2706SOL    HW1 9559   3.412   2.160  10.752 -0.1978 -0.3257  0.8028
 2706SOL    HW2 9560   3.500   2.221  10.859  1.1115 -0.3936 -0.2142
 2707SOL     OW 9561   1.723   1.068  11.774 -0.0479  0.1108  0.2715
 2707SOL    HW1 9562   1.779   1.020  11.713 -0.9717  1.3566 -1.6860
 2707SOL    HW2 9563   1.650   1.098  11.720 -0.4242  2.1523  1.7919
 2708SOL     OW 9564   1.008   2.540  10.838  0.1620  0.5063 -0.6706
 2708SOL    HW1 9565   0.998   2.524  10.744 -1.0728  1.8240 -0.7833
 2708SOL    HW2 9566   0.973   2.628  10.852  0.1279  0.2525  1.0632
 2709SOL     OW 9567   0.004   3.605  12.297  0.2407 -0.2470  0.3932
 2709SOL    HW1 9568  -0.069   3.651  12.339  1.4263  0.1240  2.1424
 2709SOL    HW2 9569  -0.006   3.514  12.325  0.2242 -0.2783  0.2871
 2710SOL     OW 9570   2.765   4.634   8.898  0.3031  0.3575  0.0379
 2710SOL    HW1 9571   2.820   4.556   8.910  1.4206  0.6707 -2.5381
 2710SOL    HW2 9572   2.685   4.614   8.947  2.2265 -0.5381  3.0816
 2711SOL     OW 9573   0.465   0.558  10.527 -0.0437  0.0521  0.5558
 2711SOL    HW1 9574   0.401   0.629  10.528 -1.1727 -0.9380  0.2609
 2711SOL    HW2 9575   0.445   0.507  10.448  0.6033 -0.7219  0.8665
 2712SOL     OW 9576   7.181   3.116   8.919  0.0023  0.1406 -0.4154
 2712SOL    HW1 9577   7.241   3.125   8.844 -0.5148  1.8304 -0.6574
 2712SOL    HW2 9578   7.095   3.136   8.884 -0.3690  0.1302  0.4599
 2713SOL     OW 9579   1.983   1.581  11.112 -0.7770  0.2400 -0.0289
 2713SOL    HW1 9580   1.987   1.627  11.196 -0.8524  0.1069  0.0490
 2713SOL    HW2 9581   2.045   1.627  11.056  0.1099 -0.3582  0.4407
 2714SOL     OW 9582   0.614   1.410   8.019 -0.0151  0.2369 -0.1867
 2714SOL    HW1 9583   0.678   1.370   8.078 -0.0732 -0.7027 -0.7290
 2714SOL    HW2 9584   0.662   1.478   7.973  0.3965  0.0286 -0.0656
 2715SOL     OW 9585   7.918   3.001   9.124 -0.0627 -0.2043  0.6835
 2715SOL    HW1 9586   7.836   2.984   9.172 -0.1475 -0.5667  0.4211
 2715SOL    HW2 9587   7.955   2.914   9.110 -0.1531 -0.1271 -0.0962
 2716SOL     OW 9588   1.019   3.481   9.763 -0.3712 -0.6455  0.5251
 2716SOL    HW1 9589   1.108   3.468   9.731 -0.0574  1.9302  0.1517
 2716SOL    HW2 9590   0.964   3.433   9.702  0.6761 -1.5190  0.2333
 2717SOL     OW 9591   7.925   2.218   8.085 -0.2163  0.0825 -0.0135
 2717SOL    HW1 9592   7.998   2.249   8.031  1.6264  0.8404  2.6751
 2717SOL    HW2 9593   7.849   2.266   8.053  0.3906 -0.6851 -2.8936
 2718SOL     OW 9594   2.560   6.271  10.543 -0.0377  0.3381 -0.0396
 2718SOL    HW1 9595   2.498   6.266  10.617 -0.2015  0.1288 -0.1908
 2718SOL    HW2 9596   2.637   6.224  10.573 -0.2422 -0.0666 -0.1346
 2719SOL     OW 9597   0.716   3.851  12.415 -0.0494 -0.2412  0.0457
 2719SOL    HW1 9598   0.655   3.848  12.341 -2.3986  0.2185  1.8341
 2719SOL    HW2 9599   0.766   3.769  12.408 -0.2285 -0.2302 -1.9673
 2720SOL     OW 9600   1.223   2.746   9.941  0.1387  0.4906 -0.1136
 2720SOL    HW1 9601   1.224   2.805  10.016  0.6117 -1.2348  1.2925
 2720SOL    HW2 9602   1.314   2.717   9.931 -0.2570 -0.8177 -0.0879
 2721SOL     OW 9603   1.719   3.720  11.085 -1.2362  0.4184 -0.6374
 2721SOL    HW1 9604   1.709   3.691  10.994 -1.4632  3.2186 -1.5876
 2721SOL    HW2 9605   1.809   3.754  11.089 -2.2021  3.1884 -0.7749
 2722SOL     OW 9606   0.664   4.689   9.879  0.1293 -0.4759  0.0308
 2722SOL    HW1 9607   0.694   4.635   9.952  0.2100 -0.5324 -0.0436
 2722SOL    HW2 9608   0.572   4.707   9.898  0.2533 -0.1575  0.3482
 2723SOL     OW 9609   1.526   2.314   8.944 -0.1926  0.1571  0.2430
 2723SOL    HW1 9610   1.529   2.410   8.941 -2.5178  0.3300  1.1684
 2723SOL    HW2 9611   1.567   2.286   8.862 -0.4944  1.9850 -0.5793
 2724SOL     OW 9612   1.035   6.286  10.443 -0.3760  0.2653 -0.2125
 2724SOL    HW1 9613   1.110   6.239  10.406  0.1305  1.7376 -1.1423
 2724SOL    HW2 9614   0.959   6.251  10.395 -0.2850 -0.9911  0.5049
 2725SOL     OW 9615   1.025   2.296  11.526 -0.3121 -0.2727 -0.0855
 2725SOL    HW1 9616   1.018   2.201  11.534 -0.8033 -0.3741 -1.4558
 2725SOL    HW2 9617   1.036   2.312  11.432  0.2718  0.9987  0.1696
 2726SOL     OW 9618   0.826   4.072   9.476 -0.2644  0.3679  0.2033
 2726SOL    HW1 9619   0.787   4.119   9.402  1.3952  0.2560 -0.7919
 2726SOL    HW2 9620   0.752   4.047   9.530 -1.3287  3.2790  0.2903
 2727SOL     OW 9621   0.822   2.244   9.352  0.5034  0.5818 -0.1442
 2727SOL    HW1 9622   0.909   2.251   9.313  0.0394  1.8679 -1.0300
 2727SOL    HW2 9623   0.806   2.330   9.390 -0.7548  0.6899 -0.8524
 2728SOL     OW 9624   1.082   2.235   9.289 -0.4272 -0.3298  0.1475
 2728SOL    HW1 9625   1.130   2.244   9.371 -1.7826 -1.2604  1.0963
 2728SOL    HW2 9626   1.148   2.243   9.220  0.8450 -0.2339  1.3543
 2729SOL     OW 9627   7.974   1.997   8.826 -0.1053  0.1216 -0.3598
 2729SOL    HW1 9628   8.021   2.068   8.871  0.6511 -0.5713 -0.0222
 2729SOL    HW2 9629   8.012   1.996   8.738  0.8761 -0.7257  0.0453
 2730SOL     OW 9630   2.412   2.607  12.239  0.3861  0.3424  0.0463
 2730SOL    HW1 9631   2.383   2.516  12.226 -0.3252  0.3158  1.6317
 2730SOL    HW2 9632   2.346   2.660  12.195 -1.2424  0.2021  2.1515
 2731SOL     OW 9633   1.839   1.975   9.252  0.1496 -0.3698  0.1424
 2731SOL    HW1 9634   1.900   2.002   9.321 -0.7753  0.8270  0.5357
 2731SOL    HW2 9635   1.882   2.003   9.171  1.9791 -3.1705  0.0052
 2732SOL     OW 9636   1.018   2.118   9.549  0.0814  0.1260  0.2267
 2732SOL    HW1 9637   1.067   2.067   9.484 -1.2866  1.0498 -1.6060
 2732SOL    HW2 9638   0.970   2.183   9.498  0.8315  2.5282  2.3960
 2733SOL     OW 9639   7.538   1.392   9.197  0.6309 -0.1976 -0.2999
 2733SOL    HW1 9640   7.560   1.306   9.162 -0.4219  0.0851 -1.7222
 2733SOL    HW2 9641   7.581   1.453   9.138  0.3572  0.2707 -0.0172
 2734SOL     OW 9642   1.340   3.978  10.586 -0.1492  0.1428 -0.0502
 2734SOL    HW1 9643   1.394   3.933  10.522 -1.1592  0.0116 -0.8483
 2734SOL    HW2 9644   1.319   4.062  10.544  0.3870  0.6789  0.7362
 2735SOL     OW 9645   1.386   3.741   9.690  0.7897  0.0574  0.3122
 2735SOL    HW1 9646   1.358   3.824   9.652  2.2025 -0.5594 -2.3406
 2735SOL    HW2 9647   1.424   3.765   9.774  1.4963  2.1758 -0.5368
 2736SOL     OW 9648   7.748   2.175  10.058  0.4522  0.4835 -0.1054
 2736SOL    HW1 9649   7.711   2.091  10.031 -0.8298  0.9877  0.0215
 2736SOL    HW2 9650   7.679   2.217  10.108  1.7623  0.7991  1.5236
 2737SOL     OW 9651   0.602   0.658   0.502  0.0794 -0.0122 -0.0784
 2737SOL    HW1 9652   0.521   0.635   0.456  0.3216 -0.9437 -0.0622
 2737SOL    HW2 9653   0.593   0.617   0.588  0.7970 -0.5951 -0.2703
 2738SOL     OW 9654   6.940   2.225   0.022  0.1286  0.0878 -0.8562
 2738SOL    HW1 9655   7.011   2.289   0.019  0.2908 -0.1323 -2.1659
 2738SOL    HW2 9656   6.903   2.234   0.110  2.3666 -0.4154  0.2029
 2739SOL     OW 9657   1.109   3.671  11.055  0.0367 -0.2023 -0.2631
 2739SOL    HW1 9658   1.189   3.722  11.046 -1.2678  1.8170 -1.2847
 2739SOL    HW2 9659   1.124   3.616  11.131  2.0172  0.8143  0.1534
 2740SOL     OW 9660   2.284   1.794  10.274  0.8031 -0.0436  0.4365
 2740SOL    HW1 9661   2.338   1.715  10.273  2.0549  0.7472 -1.8063
 2740SOL    HW2 9662   2.337   1.858  10.323 -0.3752 -0.6242  2.5865
 2741SOL     OW 9663   1.715   2.104  12.380 -0.1047  0.4207  0.4605
 2741SOL    HW1 9664   1.624   2.106  12.410 -0.0474 -0.2045  0.6930
 2741SOL    HW2 9665   1.708   2.081  12.287 -0.2410  1.6185  0.1534
 2742SOL     OW 9666   1.689   3.100  11.145 -0.8213  0.3244  0.4704
 2742SOL    HW1 9667   1.705   3.142  11.061  0.8102  0.4206  0.7956
 2742SOL    HW2 9668   1.676   3.173  11.206  0.0022  0.3122  0.6648
 2743SOL     OW 9669   1.097   4.188  11.699 -1.0366  0.2853 -0.6331
 2743SOL    HW1 9670   1.035   4.153  11.763 -1.7927  1.4679 -0.6760
 2743SOL    HW2 9671   1.150   4.251  11.748 -0.7024  0.1968 -0.8722
 2744SOL     OW 9672   0.391   1.940  10.197 -0.2611  0.7275  0.1130
 2744SOL    HW1 9673   0.449   2.013  10.218  1.1428 -1.1260  3.3678
 2744SOL    HW2 9674   0.314   1.954  10.251 -0.8199  0.7212 -0.6611
 2745SOL     OW 9675   1.264   2.950   1.656 -0.1803 -0.5412  0.3614
 2745SOL    HW1 9676   1.246   2.866   1.615  1.5290 -0.3487 -0.9231
 2745SOL    HW2 9677   1.345   2.936   1.705  0.9535  0.6595 -1.0638
 2746SOL     OW 9678   0.769   2.631   1.153 -0.0156 -0.1327 -0.3116
 2746SOL    HW1 9679   0.687   2.612   1.198 -1.2549  0.6342 -2.0983
 2746SOL    HW2 9680   0.833   2.646   1.223 -0.8823 -2.6013  1.1560
 2747SOL     OW 9681   2.443   3.295  12.350 -0.2025  0.3600  0.0624
 2747SOL    HW1 9682   2.483   3.210  12.329 -0.0926  0.6193 -0.8078
 2747SOL    HW2 9683   2.513   3.359  12.336 -0.0696  0.5501  1.4046
 2748SOL     OW 9684   7.992   2.080  10.096 -0.7752  0.0751 -0.4258
 2748SOL    HW1 9685   8.010   1.987  10.113 -0.0126  0.4291  0.9511
 2748SOL    HW2 9686   7.899   2.090  10.114 -0.2260  0.2303  3.3037
 2749SOL     OW 9687   1.235   2.056   0.598  0.0278 -0.6166 -0.4429
 2749SOL    HW1 9688   1.277   2.034   0.681 -0.0651  1.2253  0.1523
 2749SOL    HW2 9689   1.141   2.058   0.618  0.0811  1.1695 -0.1865
 2750SOL     OW 9690   1.698   3.825  12.147 -0.7231 -0.1679  0.1792
 2750SOL    HW1 9691   1.668   3.846  12.236  0.0740 -0.8417  0.6163
 2750SOL    HW2 9692   1.791   3.805  12.157 -1.0627 -2.2605 -0.4687
 2751SOL     OW 9693   0.688   1.976   9.495  0.2465 -0.2962 -0.0839
 2751SOL    HW1 9694   0.707   2.070   9.488 -0.7228 -0.2032 -1.6296
 2751SOL    HW2 9695   0.696   1.958   9.589  0.9598  1.2128  0.1788
 2752SOL     OW 9696   2.671   3.089  10.792  0.8530  0.1780  0.3605
 2752SOL    HW1 9697   2.682   2.999  10.822 -0.2740  0.3244  1.2774
 2752SOL    HW2 9698   2.578   3.097  10.772  1.1544  0.8043 -0.8674
 2753SOL     OW 9699   2.154   3.642  12.460  0.5329 -0.2566 -0.0455
 2753SOL    HW1 9700   2.149   3.553  12.425 -0.1115  0.2752 -1.3912
 2753SOL    HW2 9701   2.228   3.682  12.415  1.3485 -0.3498  1.1793
 2754SOL     OW 9702   2.635   2.678   0.260  0.0084 -0.5462  0.3880
 2754SOL    HW1 9703   2.658   2.771   0.266 -1.4018 -0.1109 -0.4537
 2754SOL    HW2 9704   2.599   2.668   0.172  0.0510 -1.8783  0.5066
 2755SOL     OW 9705   3.056   2.156  11.922  0.0311 -0.5518 -0.0270
 2755SOL    HW1 9706   3.010   2.236  11.945  3.4267  0.8702  2.7181
 2755SOL    HW2 9707   3.025   2.135  11.834 -1.1684  3.6673 -0.8392
 2756SOL     OW 9708   7.998   2.397   0.464 -0.1906 -0.0826 -0.2217
 2756SOL    HW1 9709   8.087   2.383   0.434 -0.0597  0.7799 -0.2534
 2756SOL    HW2 9710   8.004   2.471   0.524 -0.9111  0.1008 -0.3636
 2757SOL     OW 9711   7.992   3.492   0.937  0.1436  1.0220 -0.3872
 2757SOL    HW1 9712   7.912   3.446   0.963  1.5644 -0.5008  1.5789
 2757SOL    HW2 9713   7.975   3.583   0.962 -0.4859  0.4687  1.3837
 2758SOL     OW 9714   1.915   3.743  11.738 -0.2552  0.6583 -0.0525
 2758SOL    HW1 9715   1.892   3.657  11.704 -0.2461  0.7392 -0.2676
 2758SOL    HW2 9716   1.835   3.774  11.781 -1.7150  2.2687 -3.4893
 2759SOL     OW 9717   0.511   2.752   1.486  0.1772  0.2355 -0.5912
 2759SOL    HW1 9718   0.522   2.667   1.528  0.1763  0.5476  0.0447
 2759SOL    HW2 9719   0.530   2.816   1.554 -0.6251  0.7548 -0.8362
 2760SOL     OW 9720   2.121   2.187  10.688  0.1946 -0.7108 -0.1764
 2760SOL    HW1 9721   2.104   2.166  10.780  0.0082  1.1723  0.2427
 2760SOL    HW2 9722   2.061   2.130  10.639 -1.0815 -0.3696  0.9400
 2761SOL     OW 9723   0.024   3.830   0.190  0.2212 -0.2836 -0.1108
 2761SOL    HW1 9724  -0.012   3.917   0.173  0.5161  0.4335  2.4754
 2761SOL    HW2 9725   0.111   3.831   0.148 -0.4359  0.0101 -1.5239
 2762SOL     OW 9726   2.076   1.700   0.352  0.0624 -0.2877  0.1195
 2762SOL    HW1 9727   2.063   1.793   0.372  1.5335  0.6503 -2.6695
 2762SOL    HW2 9728   2.080   1.697   0.256  2.8354 -2.7557  0.1623
 2763SOL     OW 9729   2.244   1.935   0.030  0.1330  0.2074 -0.1088
 2763SOL    HW1 9730   2.229   1.845   0.003  1.2503 -0.1461  0.3697
 2763SOL    HW2 9731   2.169   1.984  -0.004 -1.4612 -1.1891  1.2041
 2764SOL     OW 9732   1.378   2.473  11.890 -0.5649  0.3056 -0.1268
 2764SOL    HW1 9733   1.447   2.487  11.955 -1.2726  1.3127  0.4372
 2764SOL    HW2 9734   1.390   2.542  11.826 -0.9270  0.3801 -0.1201
 2765SOL     OW 9735   1.066   3.809   1.245 -0.1656  0.2984 -0.3959
 2765SOL    HW1 9736   0.971   3.797   1.241 -0.3106  1.2441 -0.0698
 2765SOL    HW2 9737   1.080   3.863   1.324  0.6515  0.0253 -0.3469
 2766SOL     OW 9738   1.281   2.300   2.071 -0.6229 -0.0201  0.2549
 2766SOL    HW1 9739   1.326   2.220   2.043 -2.3163 -0.8619 -0.1999
 2766SOL    HW2 9740   1.293   2.361   1.998 -0.0623 -0.1606  0.2287
 2767SOL     OW 9741   1.841   2.504   0.387  0.2723 -0.0832 -0.2594
 2767SOL    HW1 9742   1.833   2.451   0.466  0.3514  0.8665  0.4062
 2767SOL    HW2 9743   1.926   2.547   0.394 -0.1202  0.7440 -0.3871
 2768SOL     OW 9744   1.925   2.180   0.618  0.1000 -0.0721  0.1451
 2768SOL    HW1 9745   1.897   2.271   0.628  0.8177  0.0516  1.3077
 2768SOL    HW2 9746   2.019   2.187   0.602 -0.2128 -0.5303 -2.2175
 2769SOL     OW 9747   0.249   4.423   0.274  0.8130 -0.3279 -0.3074
 2769SOL    HW1 9748   0.266   4.517   0.285  1.8483 -0.3755 -1.3498
 2769SOL    HW2 9749   0.303   4.380   0.340 -1.2248 -0.1379  1.5907
 2770SOL     OW 9750   1.242   1.929   0.360 -0.4972  0.7422  0.4011
 2770SOL    HW1 9751   1.160   1.879   0.361 -1.0792  1.5093 -1.7428
 2770SOL    HW2 9752   1.241   1.978   0.442 -0.5720 -1.6455  1.9260
 2771SOL     OW 9753   0.085   3.489  10.234 -0.2415 -0.5239  0.0937
 2771SOL    HW1 9754   0.039   3.525  10.310 -0.3758 -0.9905  0.2421
 2771SOL    HW2 9755   0.168   3.536  10.231  0.4299 -1.5330  1.4417
 2772SOL     OW 9756   0.670   0.401   0.296  0.1278  0.1406 -0.3562
 2772SOL    HW1 9757   0.619   0.422   0.217 -0.9525  1.1515  0.5666
 2772SOL    HW2 9758   0.622   0.328   0.336 -0.6020  1.0621  0.4886
 2773SOL     OW 9759   0.225   3.142   0.187  0.4000 -0.5731 -0.0025
 2773SOL    HW1 9760   0.150   3.182   0.230 -0.5154  0.3977 -2.3594
 2773SOL    HW2 9761   0.301   3.178   0.233 -0.5165 -0.0538  1.1540
 2774SOL     OW 9762   1.462   5.044  11.744  0.5159 -0.1297  0.6510
 2774SOL    HW1 9763   1.378   5.047  11.697  1.4289  0.9191 -0.9979
 2774SOL    HW2 9764   1.489   5.135  11.751  1.2169 -0.4106  1.7617
 2775SOL     OW 9765   2.294   2.358  12.225  0.0063 -0.1830  0.1823
 2775SOL    HW1 9766   2.329   2.296  12.289 -0.1901  0.1967  0.6597
 2775SOL    HW2 9767   2.213   2.391  12.265  0.7773  1.3779  0.5243
 2776SOL     OW 9768   1.496   3.544  11.812  0.3331  0.0090 -0.0722
 2776SOL    HW1 9769   1.575   3.496  11.837  0.1373 -0.6499 -0.7156
 2776SOL    HW2 9770   1.490   3.615  11.877  2.2355  0.9482 -0.8522
 2777SOL     OW 9771   3.296   3.554  11.784  0.3550  0.2539  0.0203
 2777SOL    HW1 9772   3.334   3.472  11.751 -1.9241 -0.5423 -0.8335
 2777SOL    HW2 9773   3.244   3.587  11.711 -2.0366  0.3004  1.6482
 2778SOL     OW 9774   1.520   4.942  12.444 -0.7452  0.4976  0.3256
 2778SOL    HW1 9775   1.475   5.025  12.460 -0.6768  0.5049  0.4845
 2778SOL    HW2 9776   1.517   4.930  12.349 -1.4355  0.3004  0.3706
 2779SOL     OW 9777   2.228   2.799  12.108  0.0449 -0.3757 -0.0533
 2779SOL    HW1 9778   2.182   2.883  12.107  0.8440  0.0743 -0.7764
 2779SOL    HW2 9779   2.182   2.746  12.042 -0.4363 -0.4992  0.3759
 2780SOL     OW 9780   7.868   3.138  11.673 -0.8370  0.1492 -0.0152
 2780SOL    HW1 9781   7.781   3.161  11.703 -0.6411  1.7595 -0.5736
 2780SOL    HW2 9782   7.915   3.112  11.752 -1.2584  1.1918  0.5956
 2781SOL     OW 9783   2.906   0.733  10.004  0.0251  0.0608 -0.4034
 2781SOL    HW1 9784   2.959   0.669   9.957  2.3681  1.3598  0.2678
 2781SOL    HW2 9785   2.910   0.705  10.096 -2.7695 -1.2992 -0.6240
 2782SOL     OW 9786   0.379   2.098   0.948  0.1609  0.1324 -0.3955
 2782SOL    HW1 9787   0.413   2.010   0.964 -1.1536 -0.6633 -1.6672
 2782SOL    HW2 9788   0.385   2.110   0.854 -0.0449  1.2549 -0.2833
 2783SOL     OW 9789   0.918   2.737   0.366 -0.0325  0.0058 -0.2341
 2783SOL    HW1 9790   0.846   2.799   0.379  1.3817  2.0980 -1.6926
 2783SOL    HW2 9791   0.908   2.710   0.274 -0.0376 -1.1743  0.1058
 2784SOL     OW 9792   0.423   3.152  10.320 -0.2566 -0.3906 -0.0777
 2784SOL    HW1 9793   0.491   3.204  10.277  0.8338 -0.8247  1.0484
 2784SOL    HW2 9794   0.379   3.213  10.379  0.1798 -0.4424  0.3078
 2785SOL     OW 9795   0.705   0.523  10.640  0.8451 -0.2219  0.0839
 2785SOL    HW1 9796   0.634   0.538  10.578 -0.4125  1.7468  1.8646
 2785SOL    HW2 9797   0.698   0.431  10.664  2.0729 -1.3830 -3.3793
 2786SOL     OW 9798   2.983   3.986   0.066  0.1175 -0.4182  0.1807
 2786SOL    HW1 9799   2.955   4.025   0.149  0.4555 -0.6661  0.4181
 2786SOL    HW2 9800   3.066   3.942   0.088  2.1891  2.5526 -1.0597
 2787SOL     OW 9801   2.355   3.252   1.530 -0.3295 -0.2125 -0.7296
 2787SOL    HW1 9802   2.344   3.180   1.592 -0.5499 -0.8414 -1.4867
 2787SOL    HW2 9803   2.296   3.230   1.457 -1.0338  1.1470 -0.6074
 2788SOL     OW 9804   0.058   1.772  10.113  0.0947 -0.4645 -0.6944
 2788SOL    HW1 9805   0.129   1.739  10.169  0.4244  0.6341 -0.4385
 2788SOL    HW2 9806   0.094   1.770  10.025  0.8175  0.9514 -0.4673
 2789SOL     OW 9807   2.776   2.721  11.425 -0.0458 -0.0780 -0.7564
 2789SOL    HW1 9808   2.699   2.733  11.480  0.1054  0.9870 -0.7533
 2789SOL    HW2 9809   2.824   2.649  11.465 -0.5611 -0.1187 -0.2095
 2790SOL     OW 9810   2.305   2.296  10.309  0.0563 -0.1907 -0.1167
 2790SOL    HW1 9811   2.354   2.294  10.228  0.3598  2.0131 -0.0300
 2790SOL    HW2 9812   2.336   2.373  10.355 -0.3857 -1.1633  1.9421
 2791SOL     OW 9813   2.109   1.800  10.959 -0.2816  0.0031  0.3428
 2791SOL    HW1 9814   2.022   1.768  10.935  0.3290 -0.4611 -1.3647
 2791SOL    HW2 9815   2.163   1.782  10.883  0.9486  1.8165  0.7382
 2792SOL     OW 9816   1.438   2.469   0.485 -0.2381 -0.2215  0.0547
 2792SOL    HW1 9817   1.380   2.516   0.544 -1.3755 -0.6701 -0.6774
 2792SOL    HW2 9818   1.383   2.401   0.445  1.1649 -1.6737  0.4887
 2793SOL     OW 9819   1.226   2.955  11.368 -0.1339 -0.1647 -0.2612
 2793SOL    HW1 9820   1.171   3.007  11.310  2.0490  1.6066 -0.8834
 2793SOL    HW2 9821   1.164   2.909  11.424 -2.2824  2.7036 -0.0242
 2794SOL     OW 9822   0.526   1.299   0.939 -0.2676  0.1346  0.1269
 2794SOL    HW1 9823   0.602   1.265   0.892 -0.6125  0.1827 -0.4911
 2794SOL    HW2 9824   0.561   1.371   0.992 -0.1184  1.3068 -1.4573
 2795SOL     OW 9825   0.959   1.497  11.618 -0.0615 -0.4087 -0.2612
 2795SOL    HW1 9826   0.933   1.488  11.527  2.6539 -0.3413 -1.1121
 2795SOL    HW2 9827   1.033   1.438  11.629  2.0612  2.2335  0.8333
 2796SOL     OW 9828   0.588   3.545  12.128 -0.5282  0.2374  0.0972
 2796SOL    HW1 9829   0.650   3.512  12.064  0.8955  0.0726  1.5011
 2796SOL    HW2 9830   0.525   3.474  12.140  1.9957 -1.8148  2.4370
 2797SOL     OW 9831   2.146   1.907  11.595  1.1543  0.1388 -0.0756
 2797SOL    HW1 9832   2.139   1.979  11.658  1.1436 -0.7344  0.9360
 2797SOL    HW2 9833   2.086   1.932  11.524 -0.1554  0.3204  1.0673
 2798SOL     OW 9834   2.555   2.403  12.437  0.8547  0.0999  1.3271
 2798SOL    HW1 9835   2.484   2.339  12.438 -1.2462  1.7133 -4.6104
 2798SOL    HW2 9836   2.512   2.487  12.454  1.7635  0.8444  0.1244
 2799SOL     OW 9837   0.676   2.856  12.326  0.3616 -0.5125  0.0079
 2799SOL    HW1 9838   0.743   2.790  12.343 -1.5710 -2.6943 -0.2703
 2799SOL    HW2 9839   0.605   2.835  12.387 -0.7049  0.7426 -0.7300
 2800SOL     OW 9840   2.760   2.100  11.944 -0.0629  0.2628 -0.2165
 2800SOL    HW1 9841   2.810   2.178  11.968  2.1066 -2.0605  4.1188
 2800SOL    HW2 9842   2.678   2.109  11.992 -0.1324  0.1919 -0.3215
 2801SOL     OW 9843   2.239   2.946   0.654  0.1324 -0.5460 -0.1834
 2801SOL    HW1 9844   2.169   2.949   0.589  0.6295  0.0523 -0.7096
 2801SOL    HW2 9845   2.307   2.892   0.613  0.7712  0.4788 -0.5060
 2802SOL     OW 9846   1.935   4.263  11.492 -0.3828  0.0657 -0.4943
 2802SOL    HW1 9847   2.020   4.218  11.496 -0.0513  0.6265 -1.2158
 2802SOL    HW2 9848   1.889   4.231  11.570  0.4610 -0.2918 -0.1216
 2803SOL     OW 9849   0.338   3.300  11.366  0.1594  0.1348  0.4426
 2803SOL    HW1 9850   0.263   3.360  11.368 -1.7211 -2.0484  0.0936
 2803SOL    HW2 9851   0.331   3.250  11.448 -0.9412 -2.4464 -1.0854
 2804SOL     OW 9852   0.742   3.309  12.018  0.0036  0.2567 -0.3665
 2804SOL    HW1 9853   0.718   3.273  11.933 -1.6211 -1.1260  0.6198
 2804SOL    HW2 9854   0.742   3.234  12.077 -0.0204  1.3515  1.0701
 2805SOL     OW 9855   1.844   3.631   0.821 -0.2920 -0.3292  0.1706
 2805SOL    HW1 9856   1.845   3.578   0.901 -1.2487 -2.1110 -0.9147
 2805SOL    HW2 9857   1.752   3.630   0.793  0.0042  0.3427 -0.8918
 2806SOL     OW 9858   0.423   2.382   0.048  0.2663 -0.1029  0.6074
 2806SOL    HW1 9859   0.348   2.351  -0.001  0.6998  1.3046 -1.0488
 2806SOL    HW2 9860   0.482   2.307   0.053 -0.4212 -0.6723  0.2718
 2807SOL     OW 9861   2.479   1.795  12.000 -0.1426  0.0555 -0.4304
 2807SOL    HW1 9862   2.547   1.857  12.023 -0.3294  0.2376 -0.3689
 2807SOL    HW2 9863   2.476   1.795  11.905  0.6019 -0.6653 -0.4655
 2808SOL     OW 9864   1.290   3.282  11.366 -0.8737  0.0860  0.4251
 2808SOL    HW1 9865   1.346   3.243  11.434 -0.6445 -1.8403 -0.7785
 2808SOL    HW2 9866   1.209   3.232  11.371 -0.0989 -1.6707 -2.0449
 2809SOL     OW 9867   1.032   0.828   0.817  0.7626 -0.0144 -0.0710
 2809SOL    HW1 9868   1.018   0.919   0.789  0.1465  0.0020  0.2726
 2809SOL    HW2 9869   1.092   0.834   0.890  0.6979  0.1216 -0.0288
 2810SOL     OW 9870   2.399   1.644   0.254 -0.0810 -0.3978 -0.3095
 2810SOL    HW1 9871   2.327   1.632   0.192 -0.6800 -0.3190  0.3616
 2810SOL    HW2 9872   2.420   1.737   0.248  0.4106 -0.5425 -0.9781
 2811SOL     OW 9873   0.127   2.800   0.839 -0.2712 -0.4169  0.2025
 2811SOL    HW1 9874   0.051   2.833   0.887  0.9393  1.4670  0.9354
 2811SOL    HW2 9875   0.188   2.873   0.838  1.9726 -2.1692  0.5407
 2812SOL     OW 9876   7.324   7.721  12.200  0.1231  0.1302 -0.3385
 2812SOL    HW1 9877   7.335   7.722  12.295  0.5064 -0.4134 -0.3719
 2812SOL    HW2 9878   7.279   7.638  12.182  1.5692 -0.5922 -0.7758
 2813SOL     OW 9879   0.672   2.055  11.956 -0.0547 -0.3982 -0.0128
 2813SOL    HW1 9880   0.649   1.972  11.998  1.7658 -0.1478  1.5993
 2813SOL    HW2 9881   0.610   2.118  11.993  0.2031 -0.5767  0.7453
 2814SOL     OW 9882   1.655   3.981   0.305  0.6858  0.8188 -0.1711
 2814SOL    HW1 9883   1.735   3.953   0.350 -0.0046  2.1793  2.1090
 2814SOL    HW2 9884   1.641   3.916   0.237  4.2857  1.1029 -1.4124
 2815SOL     OW 9885   2.454   2.576  11.705  0.6646  0.1308  0.3698
 2815SOL    HW1 9886   2.393   2.605  11.638 -0.4371 -1.5145  0.5878
 2815SOL    HW2 9887   2.465   2.651  11.763  1.0328  1.3257 -1.1989
 2816SOL     OW 9888   2.374   3.724  12.303 -0.2756  0.0871  0.5832
 2816SOL    HW1 9889   2.453   3.778  12.298 -0.1988  0.1600  2.0133
 2816SOL    HW2 9890   2.405   3.634  12.296 -0.0272  0.1100  1.2427
 2817SOL     OW 9891   2.320   2.368  11.217 -0.7659 -0.0841  0.5019
 2817SOL    HW1 9892   2.348   2.438  11.157  0.6096 -0.5753  0.5400
 2817SOL    HW2 9893   2.257   2.410  11.274  0.1770  1.2073  0.6511
 2818SOL     OW 9894   0.760   2.238   0.635 -0.1160  0.4126 -0.2166
 2818SOL    HW1 9895   0.839   2.209   0.590  0.1444  0.4619  0.1958
 2818SOL    HW2 9896   0.787   2.248   0.727 -1.1639 -1.9038  0.4191
 2819SOL     OW 9897   1.982   1.947  10.618  0.3981  0.0217  0.4043
 2819SOL    HW1 9898   2.064   1.897  10.623 -0.0882 -0.7339  1.1263
 2819SOL    HW2 9899   1.953   1.954  10.709  0.0846  1.0215  0.2445
 2820SOL     OW 9900   0.959   2.005   0.725  0.1813  0.0289  0.4284
 2820SOL    HW1 9901   0.957   1.933   0.789  1.2892 -1.1330 -0.7855
 2820SOL    HW2 9902   0.958   2.084   0.778 -1.3223 -0.8508  1.8102
 2821SOL     OW 9903   0.033   3.347  11.878 -0.9146 -0.2682  0.2059
 2821SOL    HW1 9904   0.075   3.388  11.953  0.3180  0.3984 -0.8250
 2821SOL    HW2 9905   0.073   3.261  11.872 -1.1139 -0.3742  0.3955
 2822SOL     OW 9906   0.062   2.414  11.922 -0.5210  0.8346 -0.4409
 2822SOL    HW1 9907   0.007   2.336  11.916  0.8770 -0.0788 -2.4999
 2822SOL    HW2 9908   0.042   2.451  12.008 -1.7988 -1.3297  0.2699
 2823SOL     OW 9909   0.359   0.934   0.544  0.1670  0.4459  0.0606
 2823SOL    HW1 9910   0.362   0.969   0.455  0.8701  0.5733  0.1303
 2823SOL    HW2 9911   0.411   0.996   0.596  2.3074 -1.1769  0.0069
 2824SOL     OW 9912   2.720   2.989  11.842  0.2322 -0.5863  0.2152
 2824SOL    HW1 9913   2.689   2.925  11.906 -2.5624 -0.8303 -1.2102
 2824SOL    HW2 9914   2.783   2.941  11.788  1.3952 -0.8315  1.7428
 2825SOL     OW 9915   1.957   2.931   1.064  0.5367  0.2718  0.3860
 2825SOL    HW1 9916   1.971   2.965   0.976  1.6044  0.9795  0.8124
 2825SOL    HW2 9917   1.862   2.936   1.077  0.3193 -0.2131 -0.8508
 2826SOL     OW 9918   1.950   3.784  12.253  0.4324  0.4444 -0.0851
 2826SOL    HW1 9919   1.979   3.694  12.237  0.6959  0.7349 -1.3670
 2826SOL    HW2 9920   1.933   3.787  12.347  0.2831 -0.9840 -0.0352
 2827SOL     OW 9921   0.595   0.730  12.192 -0.1794  0.7381  0.3589
 2827SOL    HW1 9922   0.585   0.698  12.102  1.5556 -2.0848  1.0309
 2827SOL    HW2 9923   0.628   0.819  12.183  3.9628 -0.7361 -2.0566
 2828SOL     OW 9924   1.257   2.809   0.203  0.1790  0.0812 -0.3362
 2828SOL    HW1 9925   1.265   2.730   0.149 -0.6052 -0.9183  0.9275
 2828SOL    HW2 9926   1.239   2.775   0.291  1.8271  1.6433  0.6476
 2829SOL     OW 9927   7.277   1.892  11.572 -0.6525  0.4812  0.2556
 2829SOL    HW1 9928   7.270   1.830  11.645  0.6688 -0.3921 -0.3065
 2829SOL    HW2 9929   7.196   1.879  11.522 -0.0566 -1.4519 -0.3098
 2830SOL     OW 9930   2.127   3.472  11.424 -0.0765  0.5112 -0.6416
 2830SOL    HW1 9931   2.095   3.424  11.501 -0.1409 -0.5543 -1.3156
 2830SOL    HW2 9932   2.053   3.475  11.364 -0.7417  3.2741  0.1586
 2831SOL     OW 9933   0.508   0.862   0.154  0.0158 -0.1351 -0.3559
 2831SOL    HW1 9934   0.463   0.941   0.124  1.4986 -0.1193 -2.8454
 2831SOL    HW2 9935   0.585   0.895   0.200 -0.4811 -0.1473  0.4894
 2832SOL     OW 9936   0.764   2.201  10.820 -0.0739 -0.4719 -0.0846
 2832SOL    HW1 9937   0.851   2.163  10.832 -0.3925 -1.0819  0.3533
 2832SOL    HW2 9938   0.737   2.171  10.733 -0.0743 -0.7526  0.0103
 2833SOL     OW 9939   0.617   3.912  11.947  0.1357  0.0565 -0.3114
 2833SOL    HW1 9940   0.535   3.898  11.899  1.1807 -1.4683 -1.7647
 2833SOL    HW2 9941   0.684   3.919  11.879  1.1385  2.2560  0.7984
 2834SOL     OW 9942   0.784   3.936   1.303  0.3533  0.0232  0.0262
 2834SOL    HW1 9943   0.757   4.013   1.353  0.6294 -0.7429  1.3939
 2834SOL    HW2 9944   0.813   3.971   1.219 -2.8209  1.1003 -0.7587
 2835SOL     OW 9945   0.193   1.521  11.214 -0.0645 -0.3163  0.1392
 2835SOL    HW1 9946   0.213   1.502  11.306  0.9902 -0.1606 -0.0386
 2835SOL    HW2 9947   0.216   1.613  11.203 -1.6618  0.1004  0.0848
 2836SOL     OW 9948   7.158   2.909  12.049  0.0162 -0.0277 -0.6152
 2836SOL    HW1 9949   7.118   2.912  11.961 -0.5560 -1.6990 -0.4631
 2836SOL    HW2 9950   7.209   2.828  12.048 -0.2208 -0.2056  0.6784
 2837SOL     OW 9951   0.721   1.318   0.294 -0.1388 -0.8068  0.4765
 2837SOL    HW1 9952   0.757   1.398   0.333 -0.5448 -0.4260  0.0680
 2837SOL    HW2 9953   0.797   1.261   0.284  0.6132  0.4691 -1.5738
 2838SOL     OW 9954   2.091   2.568   0.385 -0.1817  0.9364  0.1575
 2838SOL    HW1 9955   2.138   2.514   0.448 -0.5177 -0.3011 -0.6152
 2838SOL    HW2 9956   2.147   2.569   0.308 -0.7612  0.6197 -0.2773
 2839SOL     OW 9957   2.369   1.111   0.282  0.2518  0.1261  0.0733
 2839SOL    HW1 9958   2.293   1.114   0.340 -0.2771  0.2841 -0.6118
 2839SOL    HW2 9959   2.408   1.198   0.290 -1.0053  0.8755 -1.3230
 2840SOL     OW 9960   7.887   2.830  11.834 -0.1386  0.2043 -0.2555
 2840SOL    HW1 9961   7.946   2.900  11.864 -1.4956  1.5139 -0.5146
 2840SOL    HW2 9962   7.905   2.757  11.893  1.2573  0.7956  0.0982
 2841SOL     OW 9963   3.013   3.768  12.351  0.1018 -0.0400 -0.4625
 2841SOL    HW1 9964   2.932   3.801  12.313  0.3417  0.7638 -0.3005
 2841SOL    HW2 9965   3.028   3.823  12.427  0.0926 -1.0601  0.2989
 2842SOL     OW 9966   2.280   1.175   0.896  0.1132  0.3328 -0.1476
 2842SOL    HW1 9967   2.332   1.100   0.869  1.8158  1.2268  0.5084
 2842SOL    HW2 9968   2.236   1.204   0.816 -0.7816 -1.4740 -0.3618
 2843SOL     OW 9969   3.188   3.092  12.267 -0.2378 -0.2508  0.0792
 2843SOL    HW1 9970   3.158   3.151  12.336  1.3690  0.2494  0.3798
 2843SOL    HW2 9971   3.270   3.130  12.237  0.4005 -1.8766 -0.3208
 2844SOL     OW 9972   2.198   2.432   0.589  0.0287 -0.4077  0.7144
 2844SOL    HW1 9973   2.267   2.460   0.650  3.2128 -2.9301 -1.4318
 2844SOL    HW2 9974   2.214   2.339   0.576 -2.1682 -0.5247 -1.9627
 2845SOL     OW 9975   1.835   5.120   0.932 -0.2788 -0.2075  0.2943
 2845SOL    HW1 9976   1.798   5.036   0.961 -0.0911 -0.6347 -0.6884
 2845SOL    HW2 9977   1.839   5.113   0.837  0.2872  0.6925  0.2438
 2846SOL     OW 9978   0.293   2.903  12.316 -0.5078 -0.1157 -0.0819
 2846SOL    HW1 9979   0.235   2.826  12.319  2.2738 -2.4085 -0.5985
 2846SOL    HW2 9980   0.327   2.910  12.405 -1.8202  1.5034  0.3340
 2847SOL     OW 9981   3.327   2.928  10.834  0.3859 -0.2662 -0.2210
 2847SOL    HW1 9982   3.377   2.873  10.774 -0.9284 -2.0407  0.2240
 2847SOL    HW2 9983   3.346   2.891  10.921  1.3121  1.5046  0.3779
 2848SOL     OW 9984   1.374   4.052   1.220  0.1042  0.5529 -0.4365
 2848SOL    HW1 9985   1.318   4.014   1.152 -0.8088 -2.1094  1.6309
 2848SOL    HW2 9986   1.313   4.097   1.279  0.3308 -0.5685  0.6981
 2849SOL     OW 9987   0.905   2.300   1.732 -0.1660  0.3026 -0.5180
 2849SOL    HW1 9988   0.979   2.283   1.674 -0.6808  0.3207 -1.2087
 2849SOL    HW2 9989   0.900   2.396   1.737 -1.6878  0.4070 -2.6024
 2850SOL     OW 9990   1.557   5.165  10.629  0.0939 -0.0982  0.4925
 2850SOL    HW1 9991   1.567   5.139  10.538 -1.2886 -1.3474  0.6499
 2850SOL    HW2 9992   1.473   5.211  10.632 -0.1284 -0.5213  1.2022
 2851SOL     OW 9993   2.858   2.474   1.689  0.2528  1.0178  0.1959
 2851SOL    HW1 9994   2.944   2.511   1.668  0.6500 -0.2689 -0.5281
 2851SOL    HW2 9995   2.836   2.513   1.773  0.7795  2.6574 -0.3699
 2852SOL     OW 9996   0.677   4.707  12.029  0.7750 -0.1168 -0.1553
 2852SOL    HW1 9997   0.764   4.735  12.001  1.5092  0.9414  2.7893
 2852SOL    HW2 9998   0.624   4.787  12.025  0.4076 -0.3700 -0.3286
 2853SOL     OW 9999   7.323   2.630  11.119 -0.3009 -0.0563 -0.0934
 2853SOL    HW110000   7.294   2.697  11.181  2.8657  0.5632  0.8689
 2853SOL    HW210001   7.360   2.679  11.046 -0.2659 -0.8011 -0.5904
 2854SOL     OW10002   0.808   3.664  11.743 -0.2051 -0.5013  0.1662
 2854SOL    HW110003   0.847   3.611  11.813  0.1955  1.3841  1.4459
 2854SOL    HW210004   0.724   3.621  11.726 -0.2243 -1.1479  1.6664
 2855SOL     OW10005   2.194   2.677  11.629 -0.6139 -0.2241 -0.1958
 2855SOL    HW110006   2.155   2.713  11.550 -1.4323 -0.0085  0.3005
 2855SOL    HW210007   2.196   2.749  11.691  2.5358  0.3877 -0.8403
 2856SOL     OW10008   3.194   4.033  12.063 -0.3846 -0.1492  0.2172
 2856SOL    HW110009   3.136   3.996  11.997 -0.3009 -0.2237  0.1838
 2856SOL    HW210010   3.139   4.043  12.141 -0.3327 -0.6353  0.3199
 2857SOL     OW10011   3.650   2.890   0.426 -0.0425 -0.6745  0.4095
 2857SOL    HW110012   3.603   2.889   0.510 -1.5955 -2.1836 -0.4123
 2857SOL    HW210013   3.642   2.981   0.396 -0.4604 -0.3827  1.3589
 2858SOL     OW10014   1.584   1.669  12.255  0.0080 -0.1243 -0.3135
 2858SOL    HW110015   1.576   1.730  12.182 -0.3881  0.5114  0.2377
 2858SOL    HW210016   1.494   1.656  12.285  0.1936 -0.0476  0.3045
 2859SOL     OW10017   2.164   0.751   0.484  0.4355  0.0838 -0.1096
 2859SOL    HW110018   2.137   0.788   0.400  0.6012  0.1093 -0.1505
 2859SOL    HW210019   2.154   0.656   0.472  0.0861  0.1082 -0.0300
 2860SOL     OW10020   2.354   3.586   0.721 -0.2012 -0.3396 -0.1819
 2860SOL    HW110021   2.281   3.637   0.756  1.1410  0.4438  1.6413
 2860SOL    HW210022   2.432   3.634   0.749  1.0605 -2.1967 -0.3635
 2861SOL     OW10023   2.489   3.016  11.702 -0.5785 -0.0089  0.2376
 2861SOL    HW110024   2.519   3.030  11.612 -0.3669  2.5558  0.6318
 2861SOL    HW210025   2.568   3.024  11.755 -0.3328 -3.4163  0.6399
 2862SOL     OW10026   7.235   3.152  12.176  0.3113 -0.1888 -0.1057
 2862SOL    HW110027   7.241   3.056  12.167 -3.9340 -0.5677 -1.1264
 2862SOL    HW210028   7.226   3.166  12.270  1.9071 -0.6042  0.1493
 2863SOL     OW10029   1.754   3.355  11.894  0.0372 -0.2897  0.1431
 2863SOL    HW110030   1.755   3.274  11.843  1.2181 -0.1198 -0.1358
 2863SOL    HW210031   1.737   3.327  11.984 -1.3136 -0.6611 -0.1969
 2864SOL     OW10032   7.940   1.136   8.741  0.2578  0.1321 -0.2205
 2864SOL    HW110033   7.927   1.222   8.779 -1.0916 -0.3168  0.3871
 2864SOL    HW210034   7.859   1.117   8.694  1.5335  0.3066 -2.7103
 2865SOL     OW10035   2.622   3.247  12.072 -0.3638 -0.0595  0.0599
 2865SOL    HW110036   2.682   3.244  11.997 -0.0944 -0.5424  0.2877
 2865SOL    HW210037   2.680   3.256  12.148 -0.6930  2.0614  0.1198
 2866SOL     OW10038   2.570   4.467  12.125  0.4699  0.6039 -0.5424
 2866SOL    HW110039   2.536   4.383  12.154  2.4178 -0.8640 -2.2120
 2866SOL    HW210040   2.502   4.502  12.067 -0.8832  0.8245  1.1022
 2867SOL     OW10041   3.117   3.490  11.976 -0.4370  0.2244  0.2620
 2867SOL    HW110042   3.197   3.498  11.924 -0.0468 -1.0404  0.6164
 2867SOL    HW210043   3.132   3.546  12.052  1.2102 -1.8191  1.5689
 2868SOL     OW10044   0.852   0.747  11.337  0.7977 -0.1198  0.1236
 2868SOL    HW110045   0.836   0.688  11.411  2.0480 -0.5643  0.0696
 2868SOL    HW210046   0.871   0.688  11.264 -1.6061  0.2694 -0.9031
 2869SOL     OW10047   0.195   1.526  11.534  0.2628  0.4304 -0.2451
 2869SOL    HW110048   0.184   1.621  11.528  0.3138  0.4609  0.1230
 2869SOL    HW210049   0.106   1.491  11.543  0.3139  0.5472  0.9593
 2870SOL     OW10050   2.871   1.832  12.388  0.9023 -0.7102  0.4230
 2870SOL    HW110051   2.908   1.797  12.307 -1.8224 -1.2943 -0.6700
 2870SOL    HW210052   2.860   1.925  12.370  0.6776 -0.7664  0.2595
 2871SOL     OW10053   1.809   3.576   0.231  0.5744  0.2734  0.5532
 2871SOL    HW110054   1.784   3.555   0.320  2.0675 -0.0975  0.9169
 2871SOL    HW210055   1.788   3.498   0.180  0.1284  0.3266  0.6506
 2872SOL     OW10056   3.610   2.661  12.132  0.3372 -0.1983 -0.1987
 2872SOL    HW110057   3.680   2.631  12.188  1.7137  2.7830 -0.1354
 2872SOL    HW210058   3.530   2.645  12.182  1.2199 -0.7792  1.0686
 2873SOL     OW10059   2.236   3.362   9.614  0.5179 -0.2885 -0.1560
 2873SOL    HW110060   2.182   3.425   9.566  1.8766  1.5218  0.5608
 2873SOL    HW210061   2.303   3.335   9.551  0.9065  0.2794  0.0033
 2874SOL     OW10062   3.694   4.236   0.472  0.0370  0.1788  0.1395
 2874SOL    HW110063   3.716   4.164   0.531  0.0323 -0.2731 -0.4031
 2874SOL    HW210064   3.623   4.202   0.418  0.2800  0.4641 -0.3669
 2875SOL     OW10065   0.671   2.111   1.120  0.0528 -0.1165 -0.5544
 2875SOL    HW110066   0.693   2.069   1.037 -0.3255 -1.4870  0.0139
 2875SOL    HW210067   0.582   2.080   1.140  0.6055 -0.8311  0.9559
 2876SOL     OW10068   0.822   0.671   0.696  0.1601  0.5747  0.4300
 2876SOL    HW110069   0.751   0.679   0.761 -0.3163 -0.1498  0.0163
 2876SOL    HW210070   0.890   0.729   0.728 -0.6752  1.3974  0.7769
 2877SOL     OW10071   1.890   1.153   0.099  0.0141  0.0163  0.4418
 2877SOL    HW110072   1.808   1.200   0.117  2.1057  2.5079  5.1236
 2877SOL    HW210073   1.944   1.217   0.052  0.6361 -0.0553  1.0390
 2878SOL     OW10074   2.089   2.638  10.891 -0.2397 -0.2076 -0.9740
 2878SOL    HW110075   2.099   2.597  10.805  1.6925 -1.0974 -0.3790
 2878SOL    HW210076   2.033   2.714  10.874  0.9922  0.3052 -3.2483
 2879SOL     OW10077   1.691   4.188   0.482  0.0427 -0.0371  0.2458
 2879SOL    HW110078   1.678   4.249   0.409 -0.4480  0.4945  0.7649
 2879SOL    HW210079   1.654   4.106   0.451 -1.2279  0.4842  0.2978
 2880SOL     OW10080   1.732   4.005   0.960  0.2816  0.2874 -0.3993
 2880SOL    HW110081   1.714   4.030   1.051 -0.0062  2.7458 -1.0483
 2880SOL    HW210082   1.812   3.952   0.965 -0.6774 -1.0534  1.4159
 2881SOL     OW10083   2.886   2.372  12.029 -0.2316 -0.0285 -0.3528
 2881SOL    HW110084   2.869   2.369  12.123 -1.9058 -0.7919 -0.6262
 2881SOL    HW210085   2.894   2.465  12.009 -0.3614  0.1681  0.4690
 2882SOL     OW10086   0.231   2.506   1.626  0.1745  0.3254 -0.4280
 2882SOL    HW110087   0.259   2.512   1.535  0.9457  0.5674 -0.1830
 2882SOL    HW210088   0.217   2.597   1.653 -0.2393  0.2433 -0.3611
 2883SOL     OW10089   2.041   1.787  11.320  0.1333  0.0548  0.0346
 2883SOL    HW110090   2.032   1.881  11.338  0.2656  0.0835 -0.0494
 2883SOL    HW210091   2.023   1.745  11.404 -2.3842  0.0183 -0.4374
 2884SOL     OW10092   1.056   3.824  11.913  0.6061  0.1752  0.4675
 2884SOL    HW110093   1.052   3.880  11.990  1.3817  0.6543  0.1657
 2884SOL    HW210094   0.964   3.804  11.894  0.4171 -0.5333  1.9165
 2885SOL     OW10095   1.569   1.914  10.324  0.2082  0.2342 -1.1956
 2885SOL    HW110096   1.657   1.936  10.293 -0.0673  1.0803 -1.4029
 2885SOL    HW210097   1.569   1.937  10.417 -0.0647  1.0909 -1.4015
 2886SOL     OW10098   1.250   2.586  11.409  0.1391 -0.0191 -0.1781
 2886SOL    HW110099   1.206   2.670  11.422  0.9978  0.2542  1.0701
 2886SOL    HW210100   1.179   2.525  11.387 -0.5689  0.8913 -0.4578
 2887SOL     OW10101   1.318   2.463  12.379  0.2970  0.8160  0.1637
 2887SOL    HW110102   1.306   2.477  12.473  0.4559  0.1380  0.2920
 2887SOL    HW210103   1.410   2.438  12.370 -0.1728 -0.9993  0.0739
 2888SOL     OW10104   0.618   2.824   1.023 -0.6971 -0.2658  0.1897
 2888SOL    HW110105   0.676   2.900   1.022 -0.5940 -0.2551  2.2048
 2888SOL    HW210106   0.663   2.760   1.079 -0.6343 -1.9743 -1.6787
 2889SOL     OW10107   0.507   3.254  12.389 -0.0794 -0.5721 -0.5132
 2889SOL    HW110108   0.435   3.312  12.414 -0.6393 -0.3540 -2.4378
 2889SOL    HW210109   0.504   3.254  12.293  1.9009 -1.3129 -0.5998
 2890SOL     OW10110   0.643   1.501   1.109 -0.0340  0.1226  0.0313
 2890SOL    HW110111   0.722   1.555   1.113 -0.0472  0.0633  1.6234
 2890SOL    HW210112   0.590   1.530   1.184 -1.0938 -0.4984 -0.4474
 2891SOL     OW10113   1.292   4.602   1.574 -0.7720 -0.3264  0.1652
 2891SOL    HW110114   1.352   4.612   1.499 -1.0108  0.4820  0.0722
 2891SOL    HW210115   1.348   4.616   1.651 -0.6033 -0.7854  0.1328
 2892SOL     OW10116   2.392   5.316   0.699  0.4973  0.0013  0.1257
 2892SOL    HW110117   2.299   5.313   0.676 -0.0264 -3.0719  2.0341
 2892SOL    HW210118   2.402   5.400   0.745 -1.5095  0.1476  0.4222
 2893SOL     OW10119   0.019   4.110   0.557 -0.2301  0.6451 -0.4194
 2893SOL    HW110120   0.113   4.110   0.540 -0.2253  1.3958 -0.4278
 2893SOL    HW210121   0.011   4.078   0.647  0.0564  0.9209 -0.2974
 2894SOL     OW10122   2.043   3.701   0.189  0.3831  0.0566 -0.2469
 2894SOL    HW110123   2.084   3.677   0.106  0.3574  1.4590 -0.6882
 2894SOL    HW210124   1.950   3.681   0.176 -0.1845  3.0230 -1.7451
 2895SOL     OW10125   6.927   4.626   1.765 -0.1892  0.3860  0.5479
 2895SOL    HW110126   6.963   4.537   1.771  0.5552  0.6265 -0.1742
 2895SOL    HW210127   6.882   4.639   1.849 -1.7806 -1.2859  0.0308
 2896SOL     OW10128   1.719   4.233   3.302 -0.0747  0.3320  0.2956
 2896SOL    HW110129   1.803   4.211   3.261  0.6315 -0.0608  1.8816
 2896SOL    HW210130   1.656   4.231   3.230  1.3340  1.0649 -1.0243
 2897SOL     OW10131   0.337   6.054  12.285 -0.4296 -0.1341  0.0843
 2897SOL    HW110132   0.411   6.074  12.342  0.2808 -1.4684 -0.3248
 2897SOL    HW210133   0.299   6.140  12.264 -1.4198  0.3599  3.3964
 2898SOL     OW10134   6.993   4.604   1.181 -0.3022 -0.5974 -0.4068
 2898SOL    HW110135   7.056   4.599   1.253  2.5432 -1.5235 -2.7770
 2898SOL    HW210136   6.979   4.513   1.155 -3.5358 -0.5416  0.5951
 2899SOL     OW10137   7.832   6.290   1.971 -0.3947 -0.3086 -0.0199
 2899SOL    HW110138   7.840   6.372   2.020  0.0884  0.3694 -1.2043
 2899SOL    HW210139   7.885   6.227   2.021 -1.2009 -0.0606  1.1915
 2900SOL     OW10140   3.070   5.284   0.743  0.2076 -0.8326  0.1657
 2900SOL    HW110141   3.098   5.197   0.774  2.9372 -0.4566 -0.9324
 2900SOL    HW210142   3.125   5.345   0.791  0.7437  0.0526 -1.5071
 2901SOL     OW10143   7.956   2.249   1.250 -0.7085  0.1035 -0.6160
 2901SOL    HW110144   8.027   2.312   1.260 -1.6381  0.9126  1.3841
 2901SOL    HW210145   7.881   2.301   1.222 -1.3131 -0.1825  0.4068
 2902SOL     OW10146   1.556   4.500  11.964 -0.4306  0.3816 -0.3070
 2902SOL    HW110147   1.515   4.535  12.043  1.8676  3.4369 -0.2823
 2902SOL    HW210148   1.620   4.437  11.996  0.2034  1.2991  0.2496
 2903SOL     OW10149   7.838   4.463  12.209 -0.3217 -0.2917  0.4318
 2903SOL    HW110150   7.869   4.486  12.122 -0.5638 -0.0461  0.4087
 2903SOL    HW210151   7.913   4.421  12.251 -0.5975 -1.5964 -0.3377
 2904SOL     OW10152   2.731   5.543   1.001 -0.3925  0.4209 -0.7643
 2904SOL    HW110153   2.758   5.496   0.921  1.1835  0.5669 -0.3633
 2904SOL    HW210154   2.686   5.476   1.053  0.6335 -0.3161 -0.7841
 2905SOL     OW10155   6.629   6.197  11.950  0.2633  0.0413  0.3790
 2905SOL    HW110156   6.641   6.286  11.918  0.2506 -0.8271 -2.2415
 2905SOL    HW210157   6.549   6.201  12.003  0.1059  1.5092  0.0702
 2906SOL     OW10158   2.012   4.222   0.041 -0.0325  0.3679 -0.0443
 2906SOL    HW110159   1.965   4.236  -0.042  1.9400 -0.3655 -1.3417
 2906SOL    HW210160   2.032   4.129   0.041  0.4762  0.4720  1.0138
 2907SOL     OW10161   0.113   4.979  11.892  0.5473  0.1159 -0.2579
 2907SOL    HW110162   0.188   4.937  11.935  0.3138  0.4092  0.4468
 2907SOL    HW210163   0.040   4.965  11.953 -0.1308 -0.7239 -1.2306
 2908SOL     OW10164   1.087   4.715   0.461 -0.4187 -0.0374 -0.0329
 2908SOL    HW110165   1.166   4.717   0.514 -1.3189 -0.3656  1.3592
 2908SOL    HW210166   1.116   4.741   0.374  1.8386 -3.0982 -0.3708
 2909SOL     OW10167   1.232   6.537   1.448  0.0116  0.0108  0.0451
 2909SOL    HW110168   1.254   6.625   1.477  0.5953  0.5835 -1.9725
 2909SOL    HW210169   1.313   6.504   1.408 -0.7710 -0.5998 -1.0963
 2910SOL     OW10170   1.660   5.863  12.091  0.4868 -0.0331 -0.1645
 2910SOL    HW110171   1.643   5.928  12.022 -1.4980 -1.8165 -1.5078
 2910SOL    HW210172   1.729   5.807  12.054  0.8681  0.1869  0.2001
 2911SOL     OW10173   1.154   5.844  11.124  0.8458  0.9978 -0.1638
 2911SOL    HW110174   1.181   5.906  11.191  3.1074  2.0644 -1.9004
 2911SOL    HW210175   1.232   5.789  11.109 -0.6474 -1.4246  0.3290
 2912SOL     OW10176   1.357   4.174   0.618  0.3877  0.2811  0.3845
 2912SOL    HW110177   1.435   4.172   0.674  0.2385  1.2348  0.6431
 2912SOL    HW210178   1.284   4.157   0.677  0.4258 -1.0368  0.0684
 2913SOL     OW10179   1.607   5.412   0.460  0.2959  0.0777  0.2331
 2913SOL    HW110180   1.568   5.412   0.547  0.2145 -1.9729  0.2344
 2913SOL    HW210181   1.678   5.477   0.466  0.6044 -0.3699  1.9739
 2914SOL     OW10182   6.255   5.774   1.402  0.8049 -0.4089  0.0155
 2914SOL    HW110183   6.160   5.768   1.405  0.9036 -3.1326  2.1786
 2914SOL    HW210184   6.278   5.825   1.480  1.1446  0.5704 -0.7057
 2915SOL     OW10185   0.963   6.567   1.485  0.2029  0.2595  0.2326
 2915SOL    HW110186   0.911   6.614   1.551  0.9766  1.2892  0.1277
 2915SOL    HW210187   1.054   6.585   1.509  0.5549 -1.6200  0.4821
 2916SOL     OW10188   0.814   6.794   0.808  0.4599 -0.7297  0.1799
 2916SOL    HW110189   0.769   6.817   0.889 -0.7114 -0.6342 -0.4732
 2916SOL    HW210190   0.883   6.733   0.835  1.4014  0.8407  1.4987
 2917SOL     OW10191   2.108   1.116   0.378 -0.6311  0.5590  0.3205
 2917SOL    HW110192   2.016   1.097   0.358 -0.5452 -0.0124  0.4392
 2917SOL    HW210193   2.106   1.156   0.465 -0.6311 -1.1682  1.1645
 2918SOL     OW10194   1.896   2.627  12.060 -0.1229 -0.1584 -0.3437
 2918SOL    HW110195   1.851   2.670  11.987 -0.8184 -1.1900 -0.5347
 2918SOL    HW210196   1.956   2.565  12.019 -0.9176 -1.1440 -0.0455
 2919SOL     OW10197   1.140   5.025   1.629 -0.5560 -0.7107  0.3766
 2919SOL    HW110198   1.128   4.983   1.544  0.9897 -0.9552  0.2550
 2919SOL    HW210199   1.080   5.100   1.627 -1.8229 -1.6994 -0.2143
 2920SOL     OW10200   7.047   4.974   1.394  0.2055 -0.4232  0.7981
 2920SOL    HW110201   7.120   4.970   1.333 -1.2802 -1.1407 -1.0475
 2920SOL    HW210202   7.051   4.892   1.442  1.1840 -0.0102  1.4459
 2921SOL     OW10203   1.862   4.528   0.255 -0.1481 -0.0570  0.2904
 2921SOL    HW110204   1.892   4.607   0.300  0.7458  0.7635 -1.6561
 2921SOL    HW210205   1.862   4.551   0.162  1.1713 -2.6554 -0.4589
 2922SOL     OW10206   0.442   3.334  11.809 -0.8710  0.8501  0.5962
 2922SOL    HW110207   0.451   3.422  11.773 -1.1956  0.3326 -0.8165
 2922SOL    HW210208   0.384   3.345  11.885 -0.8938  1.8515  0.4484
 2923SOL     OW10209   2.400   6.755  12.341 -0.2338  0.3413  0.2025
 2923SOL    HW110210   2.486   6.778  12.378 -0.1221  0.1523  0.0599
 2923SOL    HW210211   2.341   6.755  12.417  0.0749 -0.4475  0.4530
 2924SOL     OW10212   0.257   4.342   0.638  0.3237  0.1657 -0.0660
 2924SOL    HW110213   0.284   4.261   0.681 -0.9919  0.3082  1.0867
 2924SOL    HW210214   0.325   4.358   0.573  1.9718 -0.5141  1.3986
 2925SOL     OW10215   0.910   3.096   0.766  0.1462  0.0060  0.1052
 2925SOL    HW110216   0.928   3.181   0.805 -0.2817 -0.1320  0.6197
 2925SOL    HW210217   0.889   3.115   0.674 -0.5115  0.5206  0.3510
 2926SOL     OW10218   2.079   5.071  12.397  0.2298 -0.3463  0.2397
 2926SOL    HW110219   2.138   5.094  12.325  0.3987 -0.9086  0.1928
 2926SOL    HW210220   2.066   5.153  12.445  1.2129 -0.2498  0.3637
 2927SOL     OW10221   7.758   3.718   1.445 -0.0012 -0.1098  0.2647
 2927SOL    HW110222   7.670   3.686   1.423 -0.4244  0.5505  0.9491
 2927SOL    HW210223   7.791   3.655   1.509 -0.3562  0.1614  0.7153
 2928SOL     OW10224   7.971   4.123   1.253 -0.2282  0.4202 -1.0024
 2928SOL    HW110225   7.940   4.099   1.341 -0.9339  0.5853 -1.1990
 2928SOL    HW210226   7.892   4.151   1.207  0.1926  0.6620 -1.5857
 2929SOL     OW10227   7.325   2.187   2.207  0.2501 -0.1063 -0.0190
 2929SOL    HW110228   7.316   2.269   2.159 -0.1575 -1.5400 -2.5672
 2929SOL    HW210229   7.316   2.119   2.140  1.9790 -2.2346  1.7650
 2930SOL     OW10230   2.345   4.993  12.444 -0.2711  0.2038 -0.3297
 2930SOL    HW110231   2.269   5.040  12.477 -0.1061 -0.3477  0.8804
 2930SOL    HW210232   2.414   5.060  12.438 -0.5372  0.4762 -0.3935
 2931SOL     OW10233   3.075   6.867   1.918  0.1728  0.1926 -0.3102
 2931SOL    HW110234   3.031   6.908   1.844 -0.9380 -2.9756 -1.5939
 2931SOL    HW210235   3.015   6.878   1.991 -1.9505 -2.1573 -1.5297
 2932SOL     OW10236   7.892   3.454   1.300  0.0920  0.0710 -0.4678
 2932SOL    HW110237   7.983   3.463   1.272  0.0649 -1.0016 -0.9435
 2932SOL    HW210238   7.889   3.495   1.386  1.2409 -0.6874 -0.0435
 2933SOL     OW10239   7.761   6.760   1.964  0.5258 -0.3176 -0.1151
 2933SOL    HW110240   7.710   6.821   2.016 -0.4552 -0.5732 -0.7542
 2933SOL    HW210241   7.755   6.677   2.012 -2.4546 -1.2092 -1.7724
 2934SOL     OW10242   0.304   2.651   0.401 -0.1699  0.0466 -0.6238
 2934SOL    HW110243   0.222   2.697   0.379 -0.0368  0.2462 -0.7005
 2934SOL    HW210244   0.287   2.560   0.374 -0.4483  0.0400 -0.4302
 2935SOL     OW10245   2.319   4.891   1.713  0.1037 -0.0626 -0.5438
 2935SOL    HW110246   2.267   4.860   1.639 -0.6825  0.9966 -0.4638
 2935SOL    HW210247   2.380   4.954   1.675  0.0952  0.0509 -0.3696
 2936SOL     OW10248   1.390   4.558   1.057 -0.3844  0.6605 -0.5887
 2936SOL    HW110249   1.348   4.526   1.137 -0.1482  0.5259 -0.5185
 2936SOL    HW210250   1.365   4.494   0.990  0.6326 -0.0509 -0.3095
 2937SOL     OW10251   1.079   4.136   2.353  0.2566  0.3193 -0.3557
 2937SOL    HW110252   1.028   4.116   2.432  0.0703  0.4904 -0.4308
 2937SOL    HW210253   1.124   4.217   2.373  1.7374 -0.6316  0.2894
 2938SOL     OW10254   7.008   6.487   1.702  0.3280 -0.4085 -0.2154
 2938SOL    HW110255   7.055   6.545   1.641  0.4916 -0.3213 -0.0058
 2938SOL    HW210256   6.929   6.462   1.654 -0.1855  0.7053  0.0212
 2939SOL     OW10257   7.209   4.590   0.511  0.5488  0.2260  0.3907
 2939SOL    HW110258   7.152   4.628   0.577  0.1047 -0.2192  0.2687
 2939SOL    HW210259   7.294   4.632   0.525  0.1913  0.8972  0.5672
 2940SOL     OW10260   1.004   4.489   0.282 -0.1418  0.7447 -0.2059
 2940SOL    HW110261   1.092   4.461   0.256  0.6829  2.5143  0.4737
 2940SOL    HW210262   1.019   4.543   0.360 -2.1788 -1.5947  1.9627
 2941SOL     OW10263   1.520   4.074   1.721 -0.4800 -0.0460  0.4385
 2941SOL    HW110264   1.430   4.070   1.753 -1.0038 -0.1022 -0.9665
 2941SOL    HW210265   1.516   4.039   1.632  0.5428  1.9359 -0.4601
 2942SOL     OW10266   2.082   5.064   2.190 -0.0370 -0.4119  0.2424
 2942SOL    HW110267   2.123   5.063   2.103 -1.0495 -0.9735 -0.2484
 2942SOL    HW210268   2.007   5.005   2.182 -0.8854  0.4925  1.1444
 2943SOL     OW10269   0.874   4.070  11.032 -1.0069  0.1435 -0.0228
 2943SOL    HW110270   0.843   4.161  11.029  0.8106  0.8481  1.0846
 2943SOL    HW210271   0.963   4.074  10.997 -1.0241 -1.2813 -0.2773
 2944SOL     OW10272   7.428   4.180   1.201  0.4709 -0.2789 -0.4050
 2944SOL    HW110273   7.340   4.178   1.162  0.2279  0.5470  0.0795
 2944SOL    HW210274   7.420   4.129   1.281  0.2427  0.3642 -0.0066
 2945SOL     OW10275   0.226   5.889  12.467  0.9850 -0.8254  0.1275
 2945SOL    HW110276   0.275   5.944  12.406  0.8619 -0.5308  0.2931
 2945SOL    HW210277   0.146   5.938  12.485  0.7077 -1.2312 -0.0090
 2946SOL     OW10278   2.656   3.480   4.456 -0.2755  0.2402  0.4404
 2946SOL    HW110279   2.641   3.564   4.499  3.0648  1.4543 -0.4835
 2946SOL    HW210280   2.748   3.459   4.474 -0.7400 -2.7912 -0.1433
 2947SOL     OW10281   3.280   4.919   0.235  0.0375 -0.1124 -0.0826
 2947SOL    HW110282   3.268   4.981   0.307  2.6951 -0.4186  0.7250
 2947SOL    HW210283   3.322   4.843   0.275  0.9820 -0.5558 -1.8349
 2948SOL     OW10284   1.221   6.793   1.909  0.4828  0.2109  0.5382
 2948SOL    HW110285   1.255   6.881   1.921  0.0078  0.2847  1.4268
 2948SOL    HW210286   1.299   6.739   1.893  1.0632  0.3565  2.6558
 2949SOL     OW10287   2.492   5.704  11.625 -0.2332  0.2671 -0.3613
 2949SOL    HW110288   2.537   5.728  11.544 -0.9699  0.3131 -0.7646
 2949SOL    HW210289   2.556   5.649  11.672  0.7426  1.4313 -0.2888
 2950SOL     OW10290   0.651   6.143   2.497  0.4240 -0.3830  0.1869
 2950SOL    HW110291   0.726   6.085   2.509 -0.7662 -1.6974  1.7208
 2950SOL    HW210292   0.582   6.087   2.462 -0.1247  0.6169 -0.4008
 2951SOL     OW10293   7.580   5.170   1.971 -0.1059  0.2358  0.1867
 2951SOL    HW110294   7.638   5.161   2.046  0.4869  1.1154 -0.1506
 2951SOL    HW210295   7.617   5.111   1.904  1.0293  1.5730 -0.3923
 2952SOL     OW10296   7.598   3.854  11.985 -0.1102 -0.3100 -0.0166
 2952SOL    HW110297   7.610   3.948  11.972 -1.6456  0.0570  0.9146
 2952SOL    HW210298   7.546   3.826  11.911 -0.3193 -0.2644  0.1126
 2953SOL     OW10299   2.092   4.554   2.054  0.7205 -0.0536  0.2738
 2953SOL    HW110300   2.182   4.546   2.085  0.1384 -2.1617  1.6326
 2953SOL    HW210301   2.043   4.588   2.129  0.0504 -0.8861  0.2288
 2954SOL     OW10302   0.671   4.475   0.115  0.4825 -0.0793  0.0974
 2954SOL    HW110303   0.633   4.562   0.099  1.5511  0.4507  0.3423
 2954SOL    HW210304   0.744   4.492   0.174  3.1391 -0.5992 -2.7955
 2955SOL     OW10305   0.762   3.047   0.993 -0.0042 -0.4336 -0.0842
 2955SOL    HW110306   0.833   3.066   0.932 -0.1409  0.9757  0.1794
 2955SOL    HW210307   0.748   3.128   1.041 -2.4200 -0.3879 -0.7464
 2956SOL     OW10308   0.142   5.366   1.261 -0.0434  0.2220 -0.4155
 2956SOL    HW110309   0.187   5.305   1.319  0.7478 -0.9409 -2.1413
 2956SOL    HW210310   0.071   5.403   1.313  0.8561 -0.4776  1.3619
 2957SOL     OW10311   1.862   6.219   1.087 -0.1194 -0.5178  0.3208
 2957SOL    HW110312   1.955   6.196   1.097 -0.4456 -1.7036  0.7322
 2957SOL    HW210313   1.816   6.136   1.094 -1.1310 -0.1283 -1.2436
 2958SOL     OW10314   0.161   5.220   3.148  0.0494  0.5368  0.3549
 2958SOL    HW110315   0.218   5.294   3.167 -1.5623  1.4088  2.2667
 2958SOL    HW210316   0.130   5.236   3.059  1.6092  0.8310 -0.1522
 2959SOL     OW10317   1.187   3.847   2.367  0.0258  0.3209  0.3515
 2959SOL    HW110318   1.218   3.933   2.341 -0.0209 -0.1193 -1.2524
 2959SOL    HW210319   1.264   3.790   2.359 -0.4188 -0.1684 -0.6249
 2960SOL     OW10320   1.435   3.403   0.558  0.4746 -0.0986  0.0750
 2960SOL    HW110321   1.391   3.317   0.560 -0.9914  0.6121  1.8587
 2960SOL    HW210322   1.509   3.393   0.618  0.6389 -0.2730 -0.1554
 2961SOL     OW10323   2.061   3.983  12.122 -0.4025  0.1307 -0.3453
 2961SOL    HW110324   2.135   3.935  12.086  1.0959  1.3945  0.8744
 2961SOL    HW210325   2.008   3.917  12.166  0.3712 -0.7061 -0.6432
 2962SOL     OW10326   0.287   2.130   0.512 -0.0065  0.1553  0.1104
 2962SOL    HW110327   0.208   2.079   0.532 -0.6283  0.6666 -0.9764
 2962SOL    HW210328   0.338   2.128   0.594 -1.0787 -0.2908  0.7886
 2963SOL     OW10329   7.565   2.640   0.456  0.5518  1.0572  0.4738
 2963SOL    HW110330   7.558   2.544   0.452  0.7147  1.0005  1.3690
 2963SOL    HW210331   7.502   2.665   0.523 -1.2403  1.8086 -1.3675
 2964SOL     OW10332   2.307   5.123   1.508  0.2221  0.3367  0.1206
 2964SOL    HW110333   2.231   5.066   1.520  0.8581 -0.6999 -0.6695
 2964SOL    HW210334   2.272   5.212   1.516 -0.9051 -0.1447  0.6791
 2965SOL     OW10335   7.728   5.022   1.744  0.5003 -0.4049 -0.4283
 2965SOL    HW110336   7.754   4.982   1.661  1.5708 -0.1041 -0.2532
 2965SOL    HW210337   7.808   5.062   1.777 -0.1807  0.4689  0.1957
 2966SOL     OW10338   0.909   3.326  11.650  0.1246  0.0832 -0.0593
 2966SOL    HW110339   0.824   3.284  11.661  0.6755 -0.9557  0.4233
 2966SOL    HW210340   0.945   3.331  11.739  1.5834 -1.7579 -0.4789
 2967SOL     OW10341   1.841   4.607   1.079 -0.1255  0.6471 -0.0369
 2967SOL    HW110342   1.832   4.632   1.171 -0.0527 -0.0526  0.1679
 2967SOL    HW210343   1.820   4.513   1.077 -0.9519  0.8300 -0.8685
 2968SOL     OW10344   0.081   3.844  11.839  0.3789 -0.0980 -0.0568
 2968SOL    HW110345   0.043   3.902  11.906  0.0232  2.3267 -2.1975
 2968SOL    HW210346   0.019   3.771  11.833 -1.0521  1.0231  0.3646
 2969SOL     OW10347   0.580   3.742   1.270  0.2410 -0.4381 -0.0644
 2969SOL    HW110348   0.517   3.713   1.204  1.3076 -1.7185 -0.5787
 2969SOL    HW210349   0.650   3.784   1.220 -0.5843  1.8018  0.5726
 2970SOL     OW10350   0.788   3.972   0.193  0.1359 -0.1276  0.6541
 2970SOL    HW110351   0.759   4.001   0.107 -1.1228  0.4424  1.2334
 2970SOL    HW210352   0.773   3.878   0.194 -0.9802  0.0333  0.6399
 2971SOL     OW10353   1.735   3.389   0.044 -0.0538  0.1001  0.5682
 2971SOL    HW110354   1.803   3.364  -0.018  0.6000  0.0611  1.2872
 2971SOL    HW210355   1.685   3.309   0.058 -1.3704  0.5117 -1.2757
 2972SOL     OW10356   2.544   3.646   3.631  0.3020 -0.2259 -0.0963
 2972SOL    HW110357   2.498   3.704   3.691  2.0437  0.5633  0.5375
 2972SOL    HW210358   2.603   3.595   3.687  2.1252  0.6756 -1.0897
 2973SOL     OW10359   0.770   4.123  12.365  0.6343 -0.6419 -0.1050
 2973SOL    HW110360   0.716   4.189  12.322  2.2038 -0.1702 -1.4977
 2973SOL    HW210361   0.731   4.039  12.340  0.0657 -0.2979 -0.3778
 2974SOL     OW10362   0.342   4.277  12.409  0.0447  0.3034  0.1597
 2974SOL    HW110363   0.396   4.236  12.476  1.5363  1.4908 -0.2632
 2974SOL    HW210364   0.389   4.357  12.386 -1.9107  1.4081 -0.2200
 2975SOL     OW10365   2.096   6.322   0.631 -0.7646 -0.2993 -0.1794
 2975SOL    HW110366   2.082   6.383   0.558  0.7745 -0.7388 -0.8873
 2975SOL    HW210367   2.008   6.297   0.659 -1.4109  1.5461 -0.4534
 2976SOL     OW10368   1.011   5.808  12.091  1.0631 -0.0547  0.2089
 2976SOL    HW110369   0.928   5.823  12.137  1.1675  0.4449  0.2392
 2976SOL    HW210370   1.052   5.895  12.087 -0.1374  0.5106 -3.1986
 2977SOL     OW10371   0.765   6.523  11.188 -0.1268  0.6779  0.0222
 2977SOL    HW110372   0.743   6.517  11.095 -1.2437 -1.6573  0.3546
 2977SOL    HW210373   0.795   6.613  11.200 -2.2573  1.7834 -2.0915
 2978SOL     OW10374   7.867   3.494   0.545 -0.1277 -0.1662 -0.2640
 2978SOL    HW110375   7.938   3.558   0.546  0.0423 -0.3552  0.0142
 2978SOL    HW210376   7.846   3.482   0.453 -1.3171  1.5645 -0.2622
 2979SOL     OW10377   0.306   3.054   1.164  0.2922  0.3811  0.3487
 2979SOL    HW110378   0.398   3.063   1.193  0.0354  0.1307  1.2891
 2979SOL    HW210379   0.267   2.996   1.229  0.4079 -2.8224 -2.1974
 2980SOL     OW10380   0.567   4.139   1.497 -0.0146  0.5122 -0.1079
 2980SOL    HW110381   0.479   4.152   1.463 -0.1243  0.2079  0.0532
 2980SOL    HW210382   0.561   4.160   1.590 -0.3247 -1.1226  0.2822
 2981SOL     OW10383   1.666   5.797   0.900  0.5388  0.6597  0.0182
 2981SOL    HW110384   1.617   5.751   0.831  2.1319 -0.4826 -0.4201
 2981SOL    HW210385   1.688   5.729   0.963  1.8303  1.0457  0.0214
 2982SOL     OW10386   3.388   4.764   1.137  0.6241  0.1178  0.2081
 2982SOL    HW110387   3.464   4.745   1.193  0.2179 -0.7273  0.4855
 2982SOL    HW210388   3.340   4.682   1.134 -2.0110  1.4083  2.6321
 2983SOL     OW10389   7.531   3.578   1.339 -0.2477 -0.2262  0.3673
 2983SOL    HW110390   7.480   3.507   1.378 -1.9789  0.7550  0.0219
 2983SOL    HW210391   7.543   3.551   1.247  0.4138 -0.7407  0.5981
 2984SOL     OW10392   0.810   4.137   2.020  0.0249 -0.5819  0.2937
 2984SOL    HW110393   0.887   4.081   2.019  0.5065  0.0535 -1.1195
 2984SOL    HW210394   0.736   4.077   2.008  0.3034 -1.1610  1.3584
 2985SOL     OW10395   0.408   3.327  12.140 -0.0474 -0.4562 -0.2520
 2985SOL    HW110396   0.332   3.384  12.150  0.1591  0.1411 -1.9013
 2985SOL    HW210397   0.371   3.241  12.119 -0.3047 -0.5849  0.6773
 2986SOL     OW10398   0.106   4.571   1.390 -0.3304  0.2846 -0.1073
 2986SOL    HW110399   0.127   4.664   1.402  1.3059  0.0038 -0.4810
 2986SOL    HW210400   0.049   4.550   1.464  3.2218  0.4629  2.9955
 2987SOL     OW10401   7.583   6.161  12.461  0.2190  0.3675 -0.2552
 2987SOL    HW110402   7.543   6.217  12.394 -1.8050  0.3442  0.8461
 2987SOL    HW210403   7.547   6.194  12.544  0.7811 -1.1008  0.6037
 2988SOL     OW10404   0.012   2.384   1.950  0.0137  0.1581  0.2284
 2988SOL    HW110405   0.092   2.430   1.974  1.2681 -1.6076 -0.3955
 2988SOL    HW210406  -0.014   2.424   1.867  1.2531 -0.3963 -0.4616
 2989SOL     OW10407   0.048   4.518   0.685  0.0707 -0.6443 -0.4758
 2989SOL    HW110408   0.077   4.606   0.709 -1.8142 -0.1492  0.1780
 2989SOL    HW210409   0.129   4.466   0.679  1.1097  0.8036  0.4531
 2990SOL     OW10410   0.032   5.152   1.057 -0.3307  0.1056  0.4605
 2990SOL    HW110411   0.123   5.131   1.037 -0.2337  0.1093  0.8882
 2990SOL    HW210412   0.037   5.224   1.120 -0.6216 -0.1177  0.7432
 2991SOL     OW10413   0.464   6.223   1.216  0.3573  0.1114 -0.0147
 2991SOL    HW110414   0.380   6.176   1.215 -0.0242  0.7303 -2.0027
 2991SOL    HW210415   0.529   6.153   1.207 -0.1598 -0.1950 -1.9968
 2992SOL     OW10416   0.700   2.598  12.092 -0.3058 -0.3028 -0.1872
 2992SOL    HW110417   0.685   2.598  11.997  0.6322 -1.0497 -0.3499
 2992SOL    HW210418   0.795   2.597  12.101 -0.3825  0.0920  0.7760
 2993SOL     OW10419   3.205   4.881  11.671  0.3462  0.4480  0.2060
 2993SOL    HW110420   3.295   4.851  11.681  0.3278  0.5186  0.6020
 2993SOL    HW210421   3.197   4.955  11.731  0.3802  1.2401 -0.7410
 2994SOL     OW10422   2.525   5.017   2.190  0.3646  0.0673  0.0735
 2994SOL    HW110423   2.579   5.053   2.260  1.3517  1.1904 -1.2061
 2994SOL    HW210424   2.538   5.077   2.116 -1.3358 -0.5715 -0.8059
 2995SOL     OW10425   3.633   4.861  11.228 -0.2093 -0.1500  0.7392
 2995SOL    HW110426   3.684   4.781  11.238 -1.2363 -0.5496  5.6659
 2995SOL    HW210427   3.548   4.840  11.268 -2.3309  2.0892 -2.1589
 2996SOL     OW10428   0.081   4.226  11.811 -0.1426 -0.0131  0.4230
 2996SOL    HW110429   0.165   4.242  11.854 -0.2329 -0.5252  0.7942
 2996SOL    HW210430   0.101   4.225  11.717  0.0347  1.2362  0.4226
 2997SOL     OW10431   0.138   4.105   1.823 -0.4630 -0.3402  0.1091
 2997SOL    HW110432   0.209   4.046   1.798  0.1505  0.9011 -1.2028
 2997SOL    HW210433   0.152   4.122   1.916  1.6356  0.7216 -0.3418
 2998SOL     OW10434   7.875   5.600   1.627  0.6614 -0.1062  0.2257
 2998SOL    HW110435   7.870   5.696   1.632  0.5688 -0.1516  1.1325
 2998SOL    HW210436   7.791   5.570   1.662  1.0313 -0.5382  0.7399
 2999SOL     OW10437   2.105   4.125   1.165  0.0922 -0.1358 -0.5371
 2999SOL    HW110438   2.042   4.196   1.163  0.1003 -0.0753  0.8370
 2999SOL    HW210439   2.051   4.045   1.159 -0.0899 -0.0723  0.1870
 3000SOL     OW10440   0.239   2.562   1.965 -0.4824 -0.0345  0.4127
 3000SOL    HW110441   0.319   2.608   1.941  0.3924 -2.1131 -0.9496
 3000SOL    HW210442   0.189   2.625   2.017  2.7373  0.8248  2.7296
 3001SOL     OW10443   0.831   4.135   0.905  0.0185 -0.3141 -0.2456
 3001SOL    HW110444   0.913   4.103   0.866 -0.0152 -1.0796  0.2858
 3001SOL    HW210445   0.822   4.224   0.872  1.8855  0.3727  0.9721
 3002SOL     OW10446   2.848   6.146   1.274 -0.1424  0.7362 -0.4218
 3002SOL    HW110447   2.903   6.224   1.286  0.3680  0.2538  0.4353
 3002SOL    HW210448   2.896   6.091   1.213  1.1363 -0.3911  1.5029
 3003SOL     OW10449   0.605   4.366  12.376  0.1366  0.2684  0.1924
 3003SOL    HW110450   0.668   4.395  12.311  1.6271 -1.1054  0.9493
 3003SOL    HW210451   0.643   4.392  12.460 -0.2319 -0.6804  0.6737
 3004SOL     OW10452   1.164   3.382   1.043  0.1717 -0.2251 -0.1849
 3004SOL    HW110453   1.115   3.395   1.124 -0.1242 -0.5310 -0.3068
 3004SOL    HW210454   1.192   3.469   1.017  0.4516 -0.1530  0.3592
 3005SOL     OW10455   7.738   4.788   0.198 -0.2654  0.2811  0.2683
 3005SOL    HW110456   7.738   4.765   0.290  0.6327 -0.4483  0.0962
 3005SOL    HW210457   7.665   4.739   0.160  0.3039 -0.6228  0.3147
 3006SOL     OW10458   0.841   5.345   2.089  0.5044  0.5130  0.5658
 3006SOL    HW110459   0.773   5.375   2.150  1.2154  1.9382  0.7023
 3006SOL    HW210460   0.875   5.265   2.128  0.3593  0.9424  1.6107
 3007SOL     OW10461   2.783   5.227   1.283  0.0937  0.1141 -0.3931
 3007SOL    HW110462   2.698   5.211   1.242 -0.5005  0.3766  0.7004
 3007SOL    HW210463   2.809   5.143   1.320  1.0427 -0.3397 -2.0065
 3008SOL     OW10464   0.478   3.000   0.286 -0.0566 -0.1521 -0.2279
 3008SOL    HW110465   0.482   3.092   0.260 -0.6095  0.0354  0.3257
 3008SOL    HW210466   0.426   2.999   0.366 -1.1639 -1.0942 -0.9265
 3009SOL     OW10467   1.423   3.319   1.149 -0.0515  0.0555  0.0145
 3009SOL    HW110468   1.349   3.353   1.099  0.8246  2.8098  0.3900
 3009SOL    HW210469   1.399   3.229   1.170 -2.3159  0.1762 -1.6773
 3010SOL     OW10470   2.008   4.284   0.302 -0.1828 -0.1034 -0.2103
 3010SOL    HW110471   2.017   4.257   0.211 -0.7745  0.4741 -0.4449
 3010SOL    HW210472   1.945   4.356   0.300 -0.1555 -0.0444  0.6464
 3011SOL     OW10473   0.587   3.856   0.433 -0.1725  0.0379  0.2589
 3011SOL    HW110474   0.623   3.909   0.504 -1.4806  1.2584  0.0778
 3011SOL    HW210475   0.639   3.776   0.433  1.8645  1.2933  0.5907
 3012SOL     OW10476   0.565   4.817   1.135  0.3059 -0.2411  0.3182
 3012SOL    HW110477   0.501   4.846   1.071  0.3623  1.3883  0.9609
 3012SOL    HW210478   0.641   4.790   1.083  0.4401  1.2803 -0.3266
 3013SOL     OW10479   7.152   4.170   2.443 -0.0736 -0.7710  0.2158
 3013SOL    HW110480   7.180   4.125   2.524  1.5683  1.2384  0.8425
 3013SOL    HW210481   7.098   4.243   2.474 -1.1097 -1.1416 -0.6662
 3014SOL     OW10482   2.530   4.227  12.274 -0.3304 -0.0071 -0.2423
 3014SOL    HW110483   2.611   4.241  12.323 -0.4786 -0.7309  0.2210
 3014SOL    HW210484   2.541   4.141  12.233 -0.2314  0.5610 -1.4510
 3015SOL     OW10485   1.355   4.486  11.671  0.2106  0.0443 -0.1703
 3015SOL    HW110486   1.447   4.506  11.689  0.0252  0.5585  0.2185
 3015SOL    HW210487   1.354   4.459  11.579  0.6079  0.9383 -0.4453
 3016SOL     OW10488   0.686   4.704   0.663 -0.2842 -1.1266 -0.6110
 3016SOL    HW110489   0.724   4.678   0.747  0.4421  0.6751 -0.3463
 3016SOL    HW210490   0.726   4.645   0.600  0.2190 -1.5997  0.1310
 3017SOL     OW10491   7.449   3.723   0.562  0.0910  0.1059  0.2643
 3017SOL    HW110492   7.538   3.756   0.571  0.3002 -0.7058  1.3945
 3017SOL    HW210493   7.404   3.789   0.510  0.9425  1.2821  0.9676
 3018SOL     OW10494   1.079   3.615   0.753  0.1973  0.3849  0.6800
 3018SOL    HW110495   1.053   3.549   0.689  2.7128 -3.8039  3.4741
 3018SOL    HW210496   1.173   3.625   0.741  0.1869  2.0565  1.6179
 3019SOL     OW10497   0.901   3.760   3.037  0.4057 -0.6311  0.3318
 3019SOL    HW110498   0.887   3.811   2.958  1.3369 -2.0338 -0.7747
 3019SOL    HW210499   0.949   3.819   3.096  0.1479  0.2526 -0.3303
 3020SOL     OW10500   0.065   5.473  12.447 -0.7977 -0.5095 -0.2350
 3020SOL    HW110501   0.012   5.551  12.459 -0.0765  0.0175 -0.4389
 3020SOL    HW210502   0.008   5.401  12.476 -1.7776 -0.0105 -0.8829
 3021SOL     OW10503   6.145   5.414   0.209  0.1059  0.3128  0.4751
 3021SOL    HW110504   6.115   5.497   0.172  0.5833  0.0250 -0.5804
 3021SOL    HW210505   6.225   5.438   0.256 -1.1074  0.8877  2.4022
 3022SOL     OW10506   7.045   4.881   2.522 -0.7847 -0.1611  0.3419
 3022SOL    HW110507   6.998   4.838   2.449 -0.0594 -2.0027  0.9099
 3022SOL    HW210508   7.125   4.830   2.532  0.3580  1.6482  0.7875
 3023SOL     OW10509   7.698   5.282   1.310 -0.3383 -0.3262 -0.0645
 3023SOL    HW110510   7.622   5.318   1.356 -0.3550 -0.6059  0.1251
 3023SOL    HW210511   7.694   5.322   1.223  0.0084  0.6327  0.3493
 3024SOL     OW10512   7.198   3.946  12.001 -0.4120  0.3852  0.1699
 3024SOL    HW110513   7.266   4.008  11.975 -0.6261  0.5581  0.0163
 3024SOL    HW210514   7.193   3.955  12.096 -0.2580  0.4110  0.1776
 3025SOL     OW10515   0.159   2.802   2.110  0.2512  0.2738 -0.1118
 3025SOL    HW110516   0.203   2.885   2.128 -0.6952  0.7467  0.0985
 3025SOL    HW210517   0.163   2.755   2.193 -0.4404  0.7054  0.1742
 3026SOL     OW10518   0.840   4.456   1.518  0.1421  0.1559 -0.0045
 3026SOL    HW110519   0.767   4.495   1.470 -0.6600 -1.2811 -0.0238
 3026SOL    HW210520   0.835   4.494   1.605 -0.3859  0.3708 -0.1245
 3027SOL     OW10521   1.023   4.101  12.367 -0.4157  0.0724  0.5651
 3027SOL    HW110522   0.932   4.081  12.389 -0.4299  0.0997  0.5317
 3027SOL    HW210523   1.041   4.184  12.411 -0.8982  0.8803 -0.7101
 3028SOL     OW10524   2.497   3.526   1.988  0.3349 -0.1068  0.0009
 3028SOL    HW110525   2.504   3.501   1.895  1.7127 -0.9394  0.3058
 3028SOL    HW210526   2.547   3.459   2.034  0.4848  0.8525  1.2710
 3029SOL     OW10527   6.852   4.902   3.139 -0.5299 -0.5535 -0.3009
 3029SOL    HW110528   6.783   4.847   3.176 -0.3320 -0.8377 -0.3508
 3029SOL    HW210529   6.894   4.942   3.216 -3.0865  2.5772 -0.3146
 3030SOL     OW10530   0.243   4.014   2.087 -0.1851 -0.4062  0.4327
 3030SOL    HW110531   0.304   4.060   2.145 -0.2737 -0.8712  0.8993
 3030SOL    HW210532   0.300   3.963   2.029  0.0096  1.6337 -1.2948
 3031SOL     OW10533   0.658   4.671   0.363  0.0692  0.4406  0.1969
 3031SOL    HW110534   0.722   4.734   0.330 -0.7723  2.8458  2.7728
 3031SOL    HW210535   0.577   4.721   0.371 -0.7300 -1.0268  2.0618
 3032SOL     OW10536   1.183   5.422  12.369 -0.2003  0.0386  0.2366
 3032SOL    HW110537   1.131   5.500  12.350 -0.8301 -0.4176  0.0655
 3032SOL    HW210538   1.274   5.453  12.370 -0.5451  1.1010  1.8091
 3033SOL     OW10539   6.755   5.746   0.993  0.2778 -0.1358 -0.6419
 3033SOL    HW110540   6.800   5.683   0.937 -1.2283 -0.9347 -1.0162
 3033SOL    HW210541   6.691   5.787   0.935 -0.1546  0.2389  0.0910
 3034SOL     OW10542   1.025   5.685   0.614 -0.4452  0.2933  0.0171
 3034SOL    HW110543   0.994   5.600   0.582  0.5025  0.1845 -0.6340
 3034SOL    HW210544   1.018   5.743   0.539 -0.6151  0.6773  0.3247
 3035SOL     OW10545   1.676   5.235   0.268 -0.5177  0.3615  0.0757
 3035SOL    HW110546   1.689   5.304   0.333  0.4162  0.9075 -0.6642
 3035SOL    HW210547   1.584   5.242   0.243 -0.6767  0.6897  0.7202
 3036SOL     OW10548   0.439   5.733   1.268  0.1328 -0.1040 -0.5714
 3036SOL    HW110549   0.390   5.694   1.340  0.4388  0.3840 -0.0857
 3036SOL    HW210550   0.508   5.784   1.311  1.1663 -0.8899 -1.2275
 3037SOL     OW10551   0.565   5.554  12.293 -0.0660 -0.0181  0.3847
 3037SOL    HW110552   0.513   5.632  12.273  0.9750  0.5288 -0.2868
 3037SOL    HW210553   0.503   5.481  12.287 -0.9525  0.7096  0.5541
 3038SOL     OW10554   7.977   4.435   0.243 -0.3812 -0.6498  0.8605
 3038SOL    HW110555   7.994   4.521   0.205 -0.3177 -0.8163  0.5118
 3038SOL    HW210556   8.063   4.398   0.260 -0.4103 -0.3525  1.6766
 3039SOL     OW10557   1.758   6.279   0.508 -0.0084  0.0392 -0.0519
 3039SOL    HW110558   1.814   6.353   0.484  0.8362 -0.5429  0.0610
 3039SOL    HW210559   1.796   6.246   0.590 -2.6375  1.7933  2.0564
 3040SOL     OW10560   1.059   3.733  12.235  0.1907 -0.0020 -0.0354
 3040SOL    HW110561   1.013   3.650  12.243 -1.0129  0.5159 -1.1140
 3040SOL    HW210562   0.989   3.798  12.228  1.1068  1.0310  0.1691
 3041SOL     OW10563   0.676   3.392   0.529  0.3388  0.1998  0.5794
 3041SOL    HW110564   0.728   3.312   0.532  2.0853  1.2746  0.1891
 3041SOL    HW210565   0.612   3.382   0.599 -1.2834 -2.6801 -1.1005
 3042SOL     OW10566   0.240   4.597  11.795  0.3272  0.4118 -0.1052
 3042SOL    HW110567   0.271   4.639  11.714 -0.3482  0.1748 -0.4925
 3042SOL    HW210568   0.308   4.532  11.815 -0.1865 -0.5323 -1.2836
 3043SOL     OW10569   6.813   5.701   4.561  0.1813  0.7830  0.0994
 3043SOL    HW110570   6.728   5.666   4.535  1.3765 -2.4882  0.1323
 3043SOL    HW210571   6.810   5.704   4.656  0.3698 -0.1497  0.1404
 3044SOL     OW10572   1.687   3.366   0.403  0.5278  0.4113  0.3785
 3044SOL    HW110573   1.743   3.356   0.481 -0.6919 -1.0613  1.1202
 3044SOL    HW210574   1.598   3.365   0.438 -0.0206  0.7726 -0.9625
 3045SOL     OW10575   1.308   4.908   0.578  0.8698 -0.0102  0.0932
 3045SOL    HW110576   1.263   4.964   0.642 -0.4206  2.0179 -2.3808
 3045SOL    HW210577   1.309   4.821   0.618 -1.4515  0.7745  2.0940
 3046SOL     OW10578   0.600   5.229   0.781 -0.2326  0.1481 -0.4469
 3046SOL    HW110579   0.547   5.216   0.702 -1.7820  1.5970  0.2858
 3046SOL    HW210580   0.616   5.140   0.813 -0.9404 -0.3963 -1.5129
 3047SOL     OW10581   0.808   5.918   2.810  0.3046 -0.1663  0.3687
 3047SOL    HW110582   0.811   5.980   2.883 -0.6912  0.6038 -0.2211
 3047SOL    HW210583   0.820   5.833   2.851  2.5767  0.4204  1.1137
 3048SOL     OW10584   1.241   5.568   0.163  0.2144 -0.1012 -0.5399
 3048SOL    HW110585   1.293   5.558   0.084 -0.7475 -0.4970 -1.1478
 3048SOL    HW210586   1.162   5.614   0.134  0.4027  0.8852  0.4408
 3049SOL     OW10587   7.052   3.427   1.429 -0.2843  0.3551  0.3741
 3049SOL    HW110588   7.058   3.503   1.371  2.1764 -0.1853 -0.1525
 3049SOL    HW210589   7.061   3.464   1.517 -1.4671  0.8903  0.2918
 3050SOL     OW10590   0.296   6.166  11.120  0.3491 -0.0995 -0.6232
 3050SOL    HW110591   0.272   6.121  11.039  0.1773 -0.9595 -0.1111
 3050SOL    HW210592   0.237   6.241  11.124  0.1957 -0.1862 -1.1756
 3051SOL     OW10593   0.981   7.139   3.070 -0.1357  0.0495  0.2423
 3051SOL    HW110594   1.006   7.049   3.050  0.7140  0.6395 -1.6041
 3051SOL    HW210595   0.888   7.144   3.048 -0.3078 -0.4785  0.8212
 3052SOL     OW10596   3.344   6.869  12.064 -0.5811  0.1846 -0.1579
 3052SOL    HW110597   3.338   6.834  11.975 -0.7558  0.4430 -0.2481
 3052SOL    HW210598   3.316   6.960  12.057 -0.5764  0.2139  0.1582
 3053SOL     OW10599   2.154   4.424  11.997 -0.2646 -0.0734  0.0344
 3053SOL    HW110600   2.131   4.372  12.074 -0.0801  0.7769  0.6817
 3053SOL    HW210601   2.102   4.387  11.926 -0.3424 -0.9521  0.5420
 3054SOL     OW10602   6.908   5.865   3.234  0.2562 -0.5657  0.1907
 3054SOL    HW110603   6.999   5.845   3.213  0.0738 -2.8463  1.2903
 3054SOL    HW210604   6.881   5.928   3.167  2.4389 -0.3174 -0.5173
 3055SOL     OW10605   1.200   5.335   0.700 -0.5284  0.2381  0.0835
 3055SOL    HW110606   1.105   5.335   0.715 -0.7867 -0.7566 -1.3543
 3055SOL    HW210607   1.217   5.413   0.648 -0.3665  0.9991  1.2306
 3056SOL     OW10608   0.632   4.525   1.383 -0.0101  0.2782 -0.0625
 3056SOL    HW110609   0.556   4.483   1.424  0.0871  0.3736  0.2133
 3056SOL    HW210610   0.610   4.528   1.289 -0.0836 -0.2542 -0.0666
 3057SOL     OW10611   1.361   2.702   0.920  0.1073  0.1394  0.6552
 3057SOL    HW110612   1.342   2.782   0.871 -1.7006 -0.9202 -0.4571
 3057SOL    HW210613   1.337   2.724   1.010  0.8913  1.2322  0.6303
 3058SOL     OW10614   1.410   6.150  11.663 -0.6890 -0.3929  0.1551
 3058SOL    HW110615   1.491   6.183  11.625 -1.6662  1.7074 -0.2415
 3058SOL    HW210616   1.436   6.117  11.749  0.4640  1.0319  0.3987
 3059SOL     OW10617   3.181   5.481   1.830  0.3444 -0.0811  0.0180
 3059SOL    HW110618   3.234   5.559   1.845 -0.1294  0.5418 -1.4092
 3059SOL    HW210619   3.169   5.443   1.917  1.0937  1.0956  0.6574
 3060SOL     OW10620   0.804   6.582   0.256  0.2275  0.7061 -0.9434
 3060SOL    HW110621   0.795   6.500   0.304 -0.2656  1.6720  0.6847
 3060SOL    HW210622   0.874   6.566   0.192 -0.3204 -1.1606 -1.1141
 3061SOL     OW10623   5.999   6.901   3.543  0.0551  0.4791 -0.0506
 3061SOL    HW110624   6.085   6.937   3.522  0.0821  0.6408  0.3239
 3061SOL    HW210625   6.012   6.850   3.622  0.0153 -0.3842 -0.5884
 3062SOL     OW10626   1.433   3.951   2.800  0.0962 -0.4641  0.1268
 3062SOL    HW110627   1.435   3.939   2.895 -0.9490  1.3658  0.4409
 3062SOL    HW210628   1.340   3.955   2.778  0.3262 -0.8771 -0.9747
 3063SOL     OW10629   0.741   4.456  11.323 -0.3139 -0.0669 -0.0680
 3063SOL    HW110630   0.704   4.420  11.404  0.4691 -0.5013  0.1070
 3063SOL    HW210631   0.818   4.505  11.352 -0.5065  0.4904 -0.4724
 3064SOL     OW10632   0.900   3.518  12.249  0.3681 -0.5320  0.1385
 3064SOL    HW110633   0.881   3.425  12.251 -0.0093 -0.5032 -1.1967
 3064SOL    HW210634   0.848   3.555  12.320  0.6451 -1.3435  0.7847
 3065SOL     OW10635   0.286   5.310  12.023 -0.3877 -0.1825 -0.2340
 3065SOL    HW110636   0.366   5.340  12.066 -0.0664 -2.1606  0.6223
 3065SOL    HW210637   0.216   5.359  12.066  0.3317  2.0035 -1.3911
 3066SOL     OW10638   7.608   5.881   1.868  0.0550  0.4149  0.3046
 3066SOL    HW110639   7.520   5.893   1.832  0.3395 -1.3848 -1.1288
 3066SOL    HW210640   7.627   5.964   1.912 -1.6851  1.4726 -0.7949
 3067SOL     OW10641   1.923   3.955   2.399  0.5730  0.2029  0.3114
 3067SOL    HW110642   1.968   3.985   2.478  0.6201 -1.1827  0.8347
 3067SOL    HW210643   1.832   3.982   2.411  0.7755  0.9047  0.3472
 3068SOL     OW10644   1.862   4.330   0.780  0.5206 -0.2237 -0.3333
 3068SOL    HW110645   1.909   4.282   0.712  0.3868  0.8226 -1.1888
 3068SOL    HW210646   1.930   4.354   0.843  0.5219 -1.8722  0.3418
 3069SOL     OW10647   7.749   4.738   0.954  0.2814 -0.0334  0.4439
 3069SOL    HW110648   7.776   4.651   0.928  2.0035  1.0121 -1.5341
 3069SOL    HW210649   7.827   4.776   0.995 -0.6797  0.3436  2.0097
 3070SOL     OW10650   0.222   5.476   1.970 -0.2522 -0.1740 -0.0054
 3070SOL    HW110651   0.264   5.552   1.929 -1.6449  0.9464  0.5832
 3070SOL    HW210652   0.138   5.467   1.924 -0.8926 -0.2161  1.1513
 3071SOL     OW10653   7.258   5.448   2.966  0.0381  0.4262 -0.3171
 3071SOL    HW110654   7.340   5.480   2.930 -0.7164  3.3857  0.2855
 3071SOL    HW210655   7.266   5.463   3.060 -0.3939 -1.3199  0.0279
 3072SOL     OW10656   1.790   6.499  11.976  0.0782 -0.1862  0.1477
 3072SOL    HW110657   1.731   6.486  11.901 -0.7356  3.9912 -0.1830
 3072SOL    HW210658   1.734   6.537  12.044  1.9903  2.5161  0.3556
 3073SOL     OW10659   1.874   4.626   1.436  0.1646 -0.1339 -0.4938
 3073SOL    HW110660   1.919   4.708   1.416 -0.4437  0.7293  1.3652
 3073SOL    HW210661   1.844   4.637   1.527 -1.9388 -1.4760 -0.9388
 3074SOL     OW10662   1.306   2.762  11.889  0.3988 -0.0339 -0.6391
 3074SOL    HW110663   1.223   2.752  11.841  0.2130  0.3701 -0.4075
 3074SOL    HW210664   1.289   2.725  11.975  1.1887 -2.1778 -1.3289
 3075SOL     OW10665   1.345   4.393   1.303  0.2216 -0.2799 -0.0088
 3075SOL    HW110666   1.271   4.368   1.359  0.5335 -0.9726  0.0984
 3075SOL    HW210667   1.422   4.357   1.347  0.5133 -0.4818 -0.6732
 3076SOL     OW10668   1.077   4.025  12.123 -0.7385 -0.2855  0.0065
 3076SOL    HW110669   1.049   4.043  12.213  0.2857  0.0749  0.2719
 3076SOL    HW210670   1.019   4.080  12.069 -1.2427 -0.3668  0.4520
 3077SOL     OW10671   0.582   3.816  12.181  0.7512  0.0206  0.0253
 3077SOL    HW110672   0.601   3.861  12.099  0.2576  1.3336  0.5990
 3077SOL    HW210673   0.601   3.724  12.163  0.6377  0.2750 -1.5566
 3078SOL     OW10674   7.894   5.078   0.646  0.1590  0.9239 -0.0606
 3078SOL    HW110675   7.846   5.085   0.729  0.9187 -1.6592  0.6919
 3078SOL    HW210676   7.826   5.081   0.579 -1.0613 -1.5260  0.9157
 3079SOL     OW10677   2.449   3.155   0.590 -0.1279 -0.0391 -0.1519
 3079SOL    HW110678   2.373   3.097   0.603 -0.0899  0.5422  4.3364
 3079SOL    HW210679   2.524   3.095   0.588 -0.4350 -0.4129 -0.6092
 3080SOL     OW10680   1.441   4.529  12.229  0.1932  0.0563  0.4741
 3080SOL    HW110681   1.514   4.467  12.226  1.0145  1.0523 -1.2983
 3080SOL    HW210682   1.463   4.588  12.302  2.8045  2.1668 -1.7941
 3081SOL     OW10683   1.366   6.851   0.717 -0.5962 -0.1128 -0.3028
 3081SOL    HW110684   1.311   6.819   0.646 -0.5965 -1.8707  0.4407
 3081SOL    HW210685   1.442   6.890   0.673 -0.9997 -0.3981 -1.2729
 3082SOL     OW10686   0.487   4.997   1.935  0.5562  0.0995  0.8503
 3082SOL    HW110687   0.406   4.954   1.907  0.8516  0.3503 -0.4268
 3082SOL    HW210688   0.466   5.090   1.935  1.1205  0.2408 -0.4686
 3083SOL     OW10689   0.975   4.266   0.566 -0.3083  0.9246  0.7852
 3083SOL    HW110690   1.009   4.224   0.644 -0.6324 -0.6906  0.1001
 3083SOL    HW210691   1.048   4.264   0.504 -0.4028  1.1309  0.6655
 3084SOL     OW10692   6.212   7.110   0.308 -0.0640 -0.1389  0.6638
 3084SOL    HW110693   6.200   7.019   0.337  1.5388 -0.5637  0.0688
 3084SOL    HW210694   6.303   7.114   0.279 -0.6081  1.2093 -0.9673
 3085SOL     OW10695   2.684   5.852   0.905 -0.0316 -0.1337 -0.0765
 3085SOL    HW110696   2.699   5.778   0.963  1.0713  0.8687  0.9805
 3085SOL    HW210697   2.658   5.924   0.964 -2.2734  0.0622 -1.1762
 3086SOL     OW10698   0.463   2.433   0.815 -0.1421  0.4935 -0.0198
 3086SOL    HW110699   0.508   2.514   0.794 -0.3681  0.7825  0.5790
 3086SOL    HW210700   0.389   2.459   0.871 -1.1326  0.0451 -1.0757
 3087SOL     OW10701   1.925   4.302  11.888 -0.2421 -0.6610  0.3031
 3087SOL    HW110702   1.852   4.282  11.830  0.9018 -0.1995 -1.3729
 3087SOL    HW210703   1.886   4.352  11.960 -1.3425  1.1706 -1.4608
 3088SOL     OW10704   7.600   1.882   1.444  0.2772 -0.0184 -0.3306
 3088SOL    HW110705   7.512   1.920   1.438 -0.1452 -1.1022 -1.4914
 3088SOL    HW210706   7.586   1.796   1.482  0.7345 -0.4651 -1.1411
 3089SOL     OW10707   1.835   6.649   1.518  0.1723 -0.2215  0.2716
 3089SOL    HW110708   1.930   6.653   1.509  0.2340  1.5745  1.2083
 3089SOL    HW210709   1.809   6.573   1.467  2.1477 -0.9891  0.3360
 3090SOL     OW10710   3.058   4.319  12.066  0.3195  0.4989  0.1203
 3090SOL    HW110711   3.079   4.316  12.159  0.3480 -0.5187  0.0917
 3090SOL    HW210712   3.139   4.347  12.024 -0.0290  2.2021  0.4772
 3091SOL     OW10713   0.862   2.488   2.067 -0.1623  0.0747 -0.2196
 3091SOL    HW110714   0.781   2.508   2.019 -0.9828 -0.8205  0.7394
 3091SOL    HW210715   0.928   2.545   2.027 -1.2192  0.6972 -1.1494
 3092SOL     OW10716   1.146   6.496   0.452 -0.1759  0.1809 -0.1075
 3092SOL    HW110717   1.056   6.469   0.470  0.1649 -0.9959 -0.1339
 3092SOL    HW210718   1.171   6.445   0.375  1.1258 -0.8797  0.9703
 3093SOL     OW10719   7.778   4.709   0.472 -0.0408  0.0204 -0.2109
 3093SOL    HW110720   7.739   4.633   0.514  0.1759 -0.3021 -0.5890
 3093SOL    HW210721   7.774   4.778   0.538  0.8292 -0.6301  0.5563
 3094SOL     OW10722   1.179   5.070   0.752 -0.5041 -0.5673  0.5206
 3094SOL    HW110723   1.214   5.155   0.724 -0.3412 -1.1189 -1.0021
 3094SOL    HW210724   1.157   5.084   0.844  0.7341  0.7463  0.6710
 3095SOL     OW10725   7.768   3.698   0.152  0.1983 -0.6457  0.0549
 3095SOL    HW110726   7.859   3.722   0.171 -0.0590 -0.0014  0.4954
 3095SOL    HW210727   7.758   3.713   0.058  0.1085  0.8004  0.2785
 3096SOL     OW10728   3.397   4.369   0.343  0.4214 -0.1862 -0.0820
 3096SOL    HW110729   3.395   4.289   0.395  1.3265 -0.5337 -0.5703
 3096SOL    HW210730   3.474   4.360   0.287  1.1317  1.4855  0.5666
 3097SOL     OW10731   1.589   4.370  11.532  0.1926  0.0993 -0.3937
 3097SOL    HW110732   1.570   4.304  11.466 -0.6361 -0.6488  0.5610
 3097SOL    HW210733   1.627   4.322  11.605 -0.5192  0.6529  0.3601
 3098SOL     OW10734   0.264   4.588   2.220 -0.2794 -0.8452  0.4777
 3098SOL    HW110735   0.295   4.499   2.241  1.0565 -0.6386 -0.4655
 3098SOL    HW210736   0.341   4.643   2.232 -1.3506  0.3822  2.0635
 3099SOL     OW10737   0.247   5.205   1.458  0.7341  0.1955  0.4380
 3099SOL    HW110738   0.306   5.144   1.504 -0.4808 -1.2079  0.2266
 3099SOL    HW210739   0.177   5.223   1.521 -0.0027 -0.3088 -0.2194
 3100SOL     OW10740   7.016   4.228   2.199 -0.4647  0.5385  0.1950
 3100SOL    HW110741   7.062   4.175   2.133  0.0494  2.7756 -1.3823
 3100SOL    HW210742   7.060   4.207   2.281  0.7666 -0.2942 -0.6402
 3101SOL     OW10743   0.227   3.741   2.562 -0.6970 -0.1090 -0.1816
 3101SOL    HW110744   0.283   3.773   2.632 -1.7950  1.2985  0.0901
 3101SOL    HW210745   0.139   3.766   2.588 -1.5502 -2.5791 -0.4335
 3102SOL     OW10746   0.076   5.199   1.682 -0.5303 -0.2447  0.4768
 3102SOL    HW110747   0.004   5.169   1.626 -1.4405  2.9234 -0.2183
 3102SOL    HW210748   0.048   5.177   1.771 -1.2416 -1.1516  0.0432
 3103SOL     OW10749   1.136   2.660   2.506 -0.2350 -0.7571 -0.0999
 3103SOL    HW110750   1.086   2.598   2.454 -0.1333 -0.0583 -1.0625
 3103SOL    HW210751   1.180   2.607   2.572 -0.7329 -1.6025 -0.4366
 3104SOL     OW10752   7.839   4.724   1.550  0.4697  0.2304  0.2794
 3104SOL    HW110753   7.789   4.690   1.476  3.0860 -1.0883 -1.0104
 3104SOL    HW210754   7.864   4.646   1.600  3.4229  0.5082 -0.6290
 3105SOL     OW10755   0.554   3.616   5.420 -0.2496 -0.0323  0.3519
 3105SOL    HW110756   0.575   3.611   5.327  0.4115 -1.1198  0.5396
 3105SOL    HW210757   0.506   3.536   5.438 -0.8331  0.4216  0.8426
 3106SOL     OW10758   1.177   3.897   3.070  0.6338 -0.6267 -0.3927
 3106SOL    HW110759   1.112   3.912   3.139 -1.3761  0.0985 -2.3139
 3106SOL    HW210760   1.190   3.984   3.031  1.1027 -1.1432 -1.4116
 3107SOL     OW10761   1.622   3.511   5.820  0.6760  0.6457 -0.2522
 3107SOL    HW110762   1.691   3.445   5.816 -0.5118 -0.6451 -0.1966
 3107SOL    HW210763   1.599   3.527   5.728 -1.7685 -2.0747 -0.2525
 3108SOL     OW10764   7.508   5.539   1.983  0.0011  0.1874 -0.1890
 3108SOL    HW110765   7.538   5.495   2.062  0.9793  0.0406 -0.6188
 3108SOL    HW210766   7.469   5.470   1.929  0.4007  0.0674 -0.3291
 3109SOL     OW10767   1.093   5.200   5.972  0.0019 -0.2492 -0.6036
 3109SOL    HW110768   1.150   5.212   5.896 -0.5837 -0.2999 -1.0595
 3109SOL    HW210769   1.110   5.110   6.001  0.4938 -0.1068 -0.4491
 3110SOL     OW10770   3.410   4.924   2.898 -0.0596 -0.1775 -0.0441
 3110SOL    HW110771   3.504   4.905   2.889  0.1873  1.5003 -1.4231
 3110SOL    HW210772   3.398   4.936   2.992  0.8931 -1.3135  0.2614
 3111SOL     OW10773   0.516   2.707   4.607 -0.2711 -0.3084  0.1088
 3111SOL    HW110774   0.428   2.737   4.630 -0.3373  0.3253 -0.8697
 3111SOL    HW210775   0.505   2.668   4.520  0.6791  1.3603 -0.8205
 3112SOL     OW10776   0.865   4.998   1.029  0.0282  0.1885 -0.1714
 3112SOL    HW110777   0.913   4.918   1.008  0.1078  0.4595 -1.0540
 3112SOL    HW210778   0.804   5.009   0.956 -1.8152 -0.4644  1.1756
 3113SOL     OW10779   7.607   5.434   2.210  0.1695 -0.0606 -0.5550
 3113SOL    HW110780   7.695   5.471   2.218 -0.8239  2.5134 -0.6134
 3113SOL    HW210781   7.558   5.474   2.282 -0.9548 -1.5357 -0.4523
 3114SOL     OW10782   7.945   5.529   2.790 -0.1585  0.1273 -0.2048
 3114SOL    HW110783   8.001   5.602   2.766  0.6612 -0.5290 -0.3184
 3114SOL    HW210784   7.871   5.535   2.730 -0.1608  0.9273 -0.1329
 3115SOL     OW10785   0.510   6.074   2.890  0.1310 -0.3018  0.2219
 3115SOL    HW110786   0.441   6.127   2.850  0.7292  0.1622 -0.2184
 3115SOL    HW210787   0.590   6.125   2.875  0.8245 -1.6163 -0.7887
 3116SOL     OW10788   0.540   4.413   1.972  0.1500 -0.1706 -0.3638
 3116SOL    HW110789   0.521   4.507   1.972 -1.9201 -0.4885  1.2573
 3116SOL    HW210790   0.595   4.400   2.049 -0.6926 -0.4330  0.2075
 3117SOL     OW10791   0.919   4.270   3.829 -0.0473 -0.4175  0.5971
 3117SOL    HW110792   0.922   4.335   3.899 -0.8813  0.2431  0.0539
 3117SOL    HW210793   0.828   4.241   3.828  0.2563 -1.3912  0.6428
 3118SOL     OW10794   7.665   4.427   2.924  0.0769  0.1869  0.3273
 3118SOL    HW110795   7.616   4.452   2.846 -0.4921  0.3993  0.7426
 3118SOL    HW210796   7.632   4.340   2.947  2.5589 -1.3833 -1.5279
 3119SOL     OW10797   0.544   4.462   4.263 -0.2169 -0.1606  0.0551
 3119SOL    HW110798   0.548   4.557   4.277 -0.9814 -0.3885  2.3410
 3119SOL    HW210799   0.588   4.425   4.340  0.8572 -1.6710 -1.2390
 3120SOL     OW10800   0.195   4.089   3.004 -0.9133  0.1527 -0.2537
 3120SOL    HW110801   0.271   4.145   3.019  0.4665 -1.5094 -0.6057
 3120SOL    HW210802   0.202   4.021   3.072 -0.9977 -1.0605 -1.4029
 3121SOL     OW10803   3.224   4.593   0.400  0.3753  0.2953  0.2126
 3121SOL    HW110804   3.292   4.660   0.407 -0.3328  1.2953 -1.7370
 3121SOL    HW210805   3.272   4.511   0.387  1.2302  0.8329 -0.1228
 3122SOL     OW10806   5.874   6.036   1.437  0.2136  0.1238  0.6319
 3122SOL    HW110807   5.931   6.111   1.420  2.2366 -1.4508  0.0348
 3122SOL    HW210808   5.887   6.016   1.529 -0.7556  0.8255  0.9282
 3123SOL     OW10809   1.831   5.552   0.444 -0.6853  0.0913 -0.1788
 3123SOL    HW110810   1.926   5.562   0.441 -0.5947 -0.6714 -0.1763
 3123SOL    HW210811   1.813   5.523   0.533 -0.9258  0.2547 -0.1737
 3124SOL     OW10812   1.563   4.919   2.075  0.1404  0.8505 -0.0574
 3124SOL    HW110813   1.531   4.858   2.141  0.0207  1.7502  0.7437
 3124SOL    HW210814   1.492   4.984   2.066  0.2140  0.8127 -0.9704
 3125SOL     OW10815   0.058   5.516   3.273  0.0938 -0.4125 -0.2445
 3125SOL    HW110816   0.139   5.565   3.290  0.3113 -0.5762 -0.7949
 3125SOL    HW210817   0.007   5.526   3.353  0.6347 -0.2555  0.0871
 3126SOL     OW10818   2.856   5.202   0.981  0.0943 -0.7269  0.0841
 3126SOL    HW110819   2.853   5.240   1.069 -0.1290 -1.6774  0.5081
 3126SOL    HW210820   2.862   5.277   0.922  1.8209 -0.0950  0.9739
 3127SOL     OW10821   1.537   2.243   4.430 -0.0804  0.3199 -0.4947
 3127SOL    HW110822   1.632   2.253   4.423  0.0689  1.4887  2.0143
 3127SOL    HW210823   1.525   2.164   4.482 -0.4040  0.7918  0.1684
 3128SOL     OW10824   1.335   2.851   2.412  0.0586  0.0843 -0.1280
 3128SOL    HW110825   1.332   2.942   2.441  2.4672  0.0074  0.5663
 3128SOL    HW210826   1.258   2.811   2.452 -0.7099  1.6579  0.0551
 3129SOL     OW10827   0.241   4.799   3.056 -0.2054  0.2885  0.3230
 3129SOL    HW110828   0.207   4.831   2.973 -0.0295 -1.6454 -0.5636
 3129SOL    HW210829   0.333   4.827   3.057 -0.2872  0.5681  0.0138
 3130SOL     OW10830   2.288   4.075   2.607  0.0449 -0.4886  0.0623
 3130SOL    HW110831   2.376   4.039   2.611 -0.1658 -1.0844 -0.3930
 3130SOL    HW210832   2.298   4.168   2.628  0.5196 -0.9330  2.1121
 3131SOL     OW10833   0.722   4.776   3.882  0.1184  0.1743 -0.1821
 3131SOL    HW110834   0.677   4.718   3.943 -1.1727 -0.7259 -1.8835
 3131SOL    HW210835   0.734   4.723   3.803 -0.3624  1.9529 -1.5243
 3132SOL     OW10836   7.870   4.315   4.717 -0.6114 -0.3776  0.3851
 3132SOL    HW110837   7.847   4.233   4.673  0.7928 -0.3758 -0.4098
 3132SOL    HW210838   7.800   4.376   4.693 -0.0710 -0.4805 -1.6186
 3133SOL     OW10839   2.488   5.686   2.628 -0.3105  0.0476 -0.0460
 3133SOL    HW110840   2.528   5.624   2.689 -1.0060 -0.7205 -0.3622
 3133SOL    HW210841   2.528   5.665   2.544 -1.9126 -1.2461 -0.5171
 3134SOL     OW10842   1.873   4.679   1.896 -0.2211 -0.2038 -0.2339
 3134SOL    HW110843   1.951   4.650   1.942  0.1674  1.6170  0.3544
 3134SOL    HW210844   1.801   4.658   1.956  0.1674  1.0793  0.7297
 3135SOL     OW10845   0.723   2.852   2.302  0.1807 -0.1231 -0.2417
 3135SOL    HW110846   0.805   2.898   2.321  1.0831 -2.2755  1.6915
 3135SOL    HW210847   0.744   2.760   2.318 -2.3812 -0.8583 -0.6844
 3136SOL     OW10848   1.859   3.422   2.767 -0.5635 -0.0355 -0.1955
 3136SOL    HW110849   1.940   3.427   2.716 -0.4302  2.7747  0.1326
 3136SOL    HW210850   1.885   3.381   2.849  0.2011 -0.4743 -0.6406
 3137SOL     OW10851   1.671   4.645   2.056 -0.0224  0.6956  0.0234
 3137SOL    HW110852   1.630   4.716   2.106  0.0649  0.3526  0.5980
 3137SOL    HW210853   1.644   4.565   2.102  1.3743  0.4682  0.4891
 3138SOL     OW10854   1.889   3.633   3.510 -0.2274 -0.6055 -0.0230
 3138SOL    HW110855   1.914   3.633   3.603 -0.0602  1.3720 -0.0206
 3138SOL    HW210856   1.930   3.712   3.475 -2.5774  0.2057 -1.1206
 3139SOL     OW10857   1.169   4.214   4.563 -0.1109  0.3829  0.3725
 3139SOL    HW110858   1.228   4.220   4.638  0.4285 -1.6943  0.1623
 3139SOL    HW210859   1.221   4.244   4.488  0.0733  0.2868  0.4640
 3140SOL     OW10860   2.380   5.079   3.171 -0.1572  0.5997  0.3007
 3140SOL    HW110861   2.307   5.043   3.120 -0.1781 -0.0794  0.7837
 3140SOL    HW210862   2.439   5.117   3.106  0.1356 -0.8217 -0.3117
 3141SOL     OW10863   0.975   3.858   4.313 -0.3378 -0.1332 -0.3261
 3141SOL    HW110864   0.896   3.831   4.267 -0.3918  0.9372 -0.8926
 3141SOL    HW210865   1.033   3.890   4.244 -0.5148  1.7301  0.3180
 3142SOL     OW10866   1.037   3.485   0.493 -0.2203 -0.1859  0.8924
 3142SOL    HW110867   1.072   3.396   0.487  1.0722  0.2912  0.9997
 3142SOL    HW210868   0.976   3.491   0.420  2.0206 -0.1821 -1.0995
 3143SOL     OW10869   6.279   5.727   2.048  0.1217 -0.5070  0.4516
 3143SOL    HW110870   6.342   5.655   2.044 -0.3666 -0.9052 -0.3000
 3143SOL    HW210871   6.329   5.800   2.085  0.5715 -1.2807  1.4229
 3144SOL     OW10872   0.470   4.493   2.387 -0.0580  0.2384 -0.2426
 3144SOL    HW110873   0.550   4.465   2.433 -0.4628  0.1977  0.4452
 3144SOL    HW210874   0.495   4.575   2.345 -0.0129  0.9074  1.0506
 3145SOL     OW10875   2.132   3.096   3.114  0.0538  0.0361  0.0337
 3145SOL    HW110876   2.184   3.018   3.094  0.5521  0.3438  0.1365
 3145SOL    HW210877   2.177   3.168   3.071 -0.8192  0.1659 -0.6894
 3146SOL     OW10878   1.032   4.919   2.801 -0.2562  0.5009  0.3040
 3146SOL    HW110879   0.993   5.003   2.825  0.3275  0.2152  2.5127
 3146SOL    HW210880   1.070   4.887   2.882 -1.2919 -2.3576 -0.2163
 3147SOL     OW10881   2.185   4.416   2.501 -0.2004 -0.5478 -0.7975
 3147SOL    HW110882   2.164   4.330   2.464  1.0677 -0.7328 -1.1243
 3147SOL    HW210883   2.263   4.400   2.555  0.3138  0.4769 -1.2118
 3148SOL     OW10884   1.923   5.529   1.816  0.1957  0.4237  0.0369
 3148SOL    HW110885   1.933   5.446   1.770  0.6892  0.9564 -0.8299
 3148SOL    HW210886   1.891   5.504   1.903 -1.2146 -0.5531 -0.7262
 3149SOL     OW10887   2.092   3.912   1.544 -0.2193  0.3281 -0.3311
 3149SOL    HW110888   2.149   3.978   1.504 -0.2123  0.9641  0.6808
 3149SOL    HW210889   2.045   3.960   1.613 -0.5172 -0.6345  0.1515
 3150SOL     OW10890   7.919   4.978   3.279  0.0288 -0.1812  0.5533
 3150SOL    HW110891   7.984   5.035   3.321 -0.3977  0.8404 -0.1344
 3150SOL    HW210892   7.944   4.889   3.305 -0.1538  0.3823  2.8714
 3151SOL     OW10893   1.563   5.290   3.407  0.1455 -0.0157  0.4878
 3151SOL    HW110894   1.602   5.249   3.330 -0.1772  0.9057 -0.1858
 3151SOL    HW210895   1.598   5.379   3.407 -1.1182  0.5079  0.4658
 3152SOL     OW10896   1.819   3.941   3.505  0.0638  0.3091 -0.0065
 3152SOL    HW110897   1.751   3.897   3.558 -0.3174  0.8600 -0.0294
 3152SOL    HW210898   1.841   4.020   3.555  0.8968 -0.0025  0.1393
 3153SOL     OW10899   1.021   4.336   3.010  0.7034 -0.5769  0.1048
 3153SOL    HW110900   0.933   4.365   2.983  0.1910 -0.8554  1.4049
 3153SOL    HW210901   1.010   4.306   3.100  1.7880 -2.2397 -0.2673
 3154SOL     OW10902   0.753   3.237   1.180  0.5002 -0.7882 -0.2036
 3154SOL    HW110903   0.687   3.259   1.245  0.4016 -0.1587 -0.5021
 3154SOL    HW210904   0.835   3.271   1.216  0.4516 -0.4723 -0.3800
 3155SOL     OW10905   0.371   4.825   3.425 -0.1934 -0.6320  0.1547
 3155SOL    HW110906   0.442   4.879   3.460  0.1918  0.2457 -1.8178
 3155SOL    HW210907   0.318   4.887   3.374 -1.9257 -1.4351  0.9130
 3156SOL     OW10908   1.739   4.652   1.670  0.3463 -0.1319 -0.8076
 3156SOL    HW110909   1.645   4.660   1.684 -0.2956 -0.6229 -4.0025
 3156SOL    HW210910   1.776   4.641   1.758 -2.5315  0.1340  0.5445
 3157SOL     OW10911   7.065   2.562   3.836  0.2197 -0.4868 -0.3080
 3157SOL    HW110912   6.982   2.537   3.877  0.0981 -2.6688 -1.7202
 3157SOL    HW210913   7.117   2.599   3.907 -1.1497 -1.1321  1.0865
 3158SOL     OW10914   1.055   5.495   1.852 -1.0708  0.1945 -0.1172
 3158SOL    HW110915   0.995   5.564   1.880 -0.6874  0.0455  1.1642
 3158SOL    HW210916   1.076   5.516   1.761 -1.4254  1.4363  0.0723
 3159SOL     OW10917   0.489   4.744   2.299  0.2830 -0.4435 -0.2604
 3159SOL    HW110918   0.462   4.786   2.381 -1.5438  0.0339 -1.0659
 3159SOL    HW210919   0.536   4.813   2.251 -1.5640  0.3558 -1.0109
 3160SOL     OW10920   0.765   4.751   2.609 -0.6188 -0.0269 -0.2806
 3160SOL    HW110921   0.831   4.819   2.623 -0.7691  0.2407 -0.8493
 3160SOL    HW210922   0.682   4.793   2.629 -0.7026 -0.0700 -0.5292
 3161SOL     OW10923   0.749   5.405   2.915  0.4858  0.0527 -0.6969
 3161SOL    HW110924   0.684   5.338   2.935  0.7575 -0.3626 -1.1864
 3161SOL    HW210925   0.763   5.450   2.998 -1.9943  1.5619 -0.9866
 3162SOL     OW10926   0.014   7.379   3.211 -0.1224  0.2618  0.2678
 3162SOL    HW110927  -0.004   7.473   3.213 -1.2167  0.0523  1.6883
 3162SOL    HW210928  -0.063   7.340   3.171  0.4089 -0.0430 -0.4964
 3163SOL     OW10929   1.258   3.707   2.886  0.5694 -0.0844  0.3639
 3163SOL    HW110930   1.221   3.747   2.808 -1.9591 -2.0955  0.3835
 3163SOL    HW210931   1.219   3.756   2.959 -0.5894 -0.9379  0.3536
 3164SOL     OW10932   0.299   4.621   5.518 -0.3979  0.0629  0.1402
 3164SOL    HW110933   0.300   4.709   5.482 -0.7060  0.3872  0.9071
 3164SOL    HW210934   0.355   4.626   5.596  0.0207 -0.5500 -0.1139
 3165SOL     OW10935   1.514   3.905   2.540  0.0607  0.4707 -0.2451
 3165SOL    HW110936   1.556   3.988   2.515 -3.0000  2.2899  0.1688
 3165SOL    HW210937   1.494   3.916   2.633  3.3262 -2.5872  1.0634
 3166SOL     OW10938   7.848   3.695   5.706  0.1270 -0.1163 -0.7456
 3166SOL    HW110939   7.828   3.781   5.667 -0.0489 -0.0537 -0.5130
 3166SOL    HW210940   7.943   3.688   5.698  0.1514  0.1354 -0.6952
 3167SOL     OW10941   0.530   3.888   5.466 -0.3428 -0.1306 -0.3236
 3167SOL    HW110942   0.510   3.894   5.560 -1.6751  0.1259 -0.6023
 3167SOL    HW210943   0.549   3.796   5.451  1.8168  0.0962  0.5261
 3168SOL     OW10944   1.227   3.654   1.048  0.0956  0.1151 -0.4287
 3168SOL    HW110945   1.264   3.720   0.990 -2.6677  3.0343  0.8367
 3168SOL    HW210946   1.192   3.703   1.122 -0.2892 -3.0179  1.6601
 3169SOL     OW10947   1.069   5.014   2.552 -0.3780 -0.0571  0.1773
 3169SOL    HW110948   1.068   4.990   2.645  1.7147  0.7223  0.4669
 3169SOL    HW210949   0.979   5.037   2.532 -1.1002 -1.3624  1.6995
 3170SOL     OW10950   0.114   3.482   3.130  0.2885  0.2387 -0.0674
 3170SOL    HW110951   0.133   3.413   3.195  0.1670 -0.6999 -1.0062
 3170SOL    HW210952   0.175   3.552   3.153  0.8002 -0.3907  0.5818
 3171SOL     OW10953   2.661   3.585   3.147  0.9120 -0.2215  0.0778
 3171SOL    HW110954   2.621   3.555   3.229  0.5175 -0.2690 -0.1282
 3171SOL    HW210955   2.599   3.559   3.079  0.9872  0.2858 -0.1897
 3172SOL     OW10956   1.016   6.061   1.137 -0.1711 -0.0637  0.6662
 3172SOL    HW110957   0.994   5.986   1.081 -2.6890  0.0258  1.4072
 3172SOL    HW210958   1.009   6.027   1.226 -1.1380  0.9669  1.0083
 3173SOL     OW10959   6.319   2.764   2.256  0.0198 -0.0163  0.4527
 3173SOL    HW110960   6.400   2.808   2.232 -0.3839  1.1697  1.1934
 3173SOL    HW210961   6.270   2.758   2.174  1.4395 -2.1036 -0.3160
 3174SOL     OW10962   0.960   3.320   0.887 -0.1592  0.2134  0.0184
 3174SOL    HW110963   1.044   3.311   0.931 -1.3558 -0.8491  2.2023
 3174SOL    HW210964   0.921   3.398   0.925  0.1092  1.1681 -1.5628
 3175SOL     OW10965   0.405   4.422   3.874 -0.2122  0.5497 -0.5059
 3175SOL    HW110966   0.314   4.447   3.886 -0.4069  0.0620 -0.9443
 3175SOL    HW210967   0.422   4.434   3.781 -0.6263 -1.8889 -0.9562
 3176SOL     OW10968   1.519   4.562   3.560  0.0442  0.3758 -0.6313
 3176SOL    HW110969   1.521   4.549   3.655 -0.5016 -1.7424 -0.8552
 3176SOL    HW210970   1.593   4.511   3.528  0.7657  1.7952 -1.3154
 3177SOL     OW10971   0.006   3.170   2.572 -0.3484  0.0529 -0.2632
 3177SOL    HW110972  -0.033   3.232   2.634  1.4746  0.8395  0.1496
 3177SOL    HW210973   0.009   3.087   2.619 -0.5188  0.2386  0.0797
 3178SOL     OW10974   0.722   5.468   0.929  0.1631  0.4135  0.4707
 3178SOL    HW110975   0.816   5.483   0.923  0.2354 -0.6044 -1.8407
 3178SOL    HW210976   0.685   5.516   0.856 -0.9562 -0.3472  0.5075
 3179SOL     OW10977   2.294   2.832   3.887 -0.1127 -0.2056  0.7727
 3179SOL    HW110978   2.321   2.848   3.978  0.1554  3.3331  0.2253
 3179SOL    HW210979   2.377   2.822   3.840 -0.2616 -2.6943  0.9190
 3180SOL     OW10980   1.653   4.140   1.238 -0.3855  0.3736  0.1271
 3180SOL    HW110981   1.613   4.213   1.285 -0.1657 -0.4658  1.6599
 3180SOL    HW210982   1.582   4.077   1.225 -0.7188  1.0573 -1.7168
 3181SOL     OW10983   1.185   4.957   3.049  0.1500 -0.0152 -0.3362
 3181SOL    HW110984   1.220   4.888   3.106 -1.3405 -0.9490 -0.5050
 3181SOL    HW210985   1.184   5.035   3.105  0.0522 -0.5741  0.4628
 3182SOL     OW10986   0.951   3.003   2.296 -0.6097 -0.2111 -0.4735
 3182SOL    HW110987   0.922   3.087   2.333  0.3654 -0.1862  0.2802
 3182SOL    HW210988   1.043   3.017   2.275  0.1269 -1.6449  1.4587
 3183SOL     OW10989   1.761   3.237   2.983  0.1180 -0.1485  0.0290
 3183SOL    HW110990   1.740   3.222   3.076 -1.3415  0.3756 -0.1759
 3183SOL    HW210991   1.805   3.157   2.955 -0.9947 -1.0476  0.7498
 3184SOL     OW10992   1.805   4.895   3.621 -0.0269 -0.0976 -0.6560
 3184SOL    HW110993   1.733   4.881   3.559 -0.4995  0.4647 -0.2438
 3184SOL    HW210994   1.837   4.807   3.640 -0.6665 -0.3667 -0.7765
 3185SOL     OW10995   1.564   3.602   3.751 -0.5001 -0.6300  0.2997
 3185SOL    HW110996   1.595   3.517   3.720  0.1243 -0.9185  1.6367
 3185SOL    HW210997   1.595   3.665   3.686  0.4152 -1.2512  0.1239
 3186SOL     OW10998   1.473   3.758   2.322 -0.2591 -0.5125 -0.2738
 3186SOL    HW110999   1.499   3.802   2.403 -0.2088  1.3234 -1.2335
 3186SOL    HW211000   1.499   3.819   2.253  0.6887 -2.4930 -1.7628
 3187SOL     OW11001   7.406   4.839   2.356 -0.5836 -0.6499 -0.1143
 3187SOL    HW111002   7.499   4.816   2.360 -0.7464 -1.4574 -0.7280
 3187SOL    HW211003   7.381   4.853   2.448  0.4874  1.0454 -0.0474
 3188SOL     OW11004   2.628   4.253   2.332 -0.4843 -0.1024 -0.2615
 3188SOL    HW111005   2.642   4.333   2.282 -0.4471 -1.0150 -1.7773
 3188SOL    HW211006   2.652   4.276   2.422 -0.1511  1.4774 -0.7274
 3189SOL     OW11007   0.565   2.965   1.646 -0.6890 -0.6658  0.3013
 3189SOL    HW111008   0.639   2.938   1.702  1.5929  3.5641 -0.2700
 3189SOL    HW211009   0.510   3.018   1.703 -1.1354 -0.5540 -0.2333
 3190SOL     OW11010   0.621   4.174  12.076 -0.6283 -0.4904  0.3388
 3190SOL    HW111011   0.621   4.090  12.031 -1.6311 -0.8875  1.0461
 3190SOL    HW211012   0.534   4.180  12.116 -1.5407  1.9797 -1.7099
 3191SOL     OW11013   1.974   4.623   2.282 -0.0601 -0.5354 -0.3703
 3191SOL    HW111014   2.051   4.619   2.338 -0.0006 -2.4514 -0.4972
 3191SOL    HW211015   1.925   4.700   2.312  1.0579 -0.2674  0.8327
 3192SOL     OW11016   0.757   4.524   2.419  1.0083  0.2025 -1.0474
 3192SOL    HW111017   0.781   4.591   2.355  2.7679  0.9060  0.2512
 3192SOL    HW211018   0.723   4.573   2.494 -1.5294 -0.6300 -1.5452
 3193SOL     OW11019   1.060   5.589   4.934  0.2121  0.6308 -0.3645
 3193SOL    HW111020   1.071   5.680   4.963  2.1743  0.4289 -0.3015
 3193SOL    HW211021   0.994   5.553   4.993  0.9852  1.4263  1.0638
 3194SOL     OW11022   2.831   4.548   2.696  0.1511  0.0208 -0.1301
 3194SOL    HW111023   2.884   4.578   2.769  0.9020 -1.0208 -0.2298
 3194SOL    HW211024   2.879   4.577   2.618  0.0044  0.0369 -0.2154
 3195SOL     OW11025   1.684   5.042   1.213  0.1901  0.5962 -0.0203
 3195SOL    HW111026   1.629   5.041   1.292  0.9877  1.2324  0.5600
 3195SOL    HW211027   1.655   5.120   1.165  1.3307  1.6036  0.8577
 3196SOL     OW11028   7.252   3.125   3.289  0.0006  0.4103 -0.4590
 3196SOL    HW111029   7.197   3.130   3.211  1.2476  1.5418 -1.3098
 3196SOL    HW211030   7.252   3.214   3.324  1.5156  0.5120 -0.6664
 3197SOL     OW11031   1.033   5.401   3.910  0.5388 -0.3712  0.5057
 3197SOL    HW111032   0.960   5.396   3.971 -1.0030 -2.4012 -1.3328
 3197SOL    HW211033   1.050   5.495   3.899 -3.5903  0.3944 -0.9488
 3198SOL     OW11034   1.239   3.558   2.646 -0.3040  0.3178 -0.3146
 3198SOL    HW111035   1.320   3.595   2.682 -0.8192  1.4240 -0.2649
 3198SOL    HW211036   1.218   3.485   2.704  0.9214 -0.3238 -0.6249
 3199SOL     OW11037   1.949   1.868   3.470 -0.4932 -0.0171  0.6289
 3199SOL    HW111038   1.868   1.818   3.475 -1.7307  1.8297  0.0101
 3199SOL    HW211039   1.995   1.833   3.394 -1.3264 -0.2027  0.2048
 3200SOL     OW11040   2.936   2.439   2.860  0.5432  0.1942 -0.0028
 3200SOL    HW111041   3.010   2.469   2.913 -0.0420  1.6973  0.0102
 3200SOL    HW211042   2.909   2.357   2.901  1.2071  0.4326  0.9597
 3201SOL     OW11043   0.934   4.937   3.791 -0.1488 -0.4833  0.2766
 3201SOL    HW111044   0.876   4.880   3.842  1.3364 -3.4393 -1.0763
 3201SOL    HW211045   0.875   4.990   3.738 -1.6673 -1.8496  0.5118
 3202SOL     OW11046   0.085   5.259   3.448 -0.3120 -0.3087  0.1509
 3202SOL    HW111047   0.167   5.308   3.441 -0.8536  0.6585  0.3949
 3202SOL    HW211048   0.048   5.262   3.359 -0.4036 -0.1803  0.1943
 3203SOL     OW11049   7.247   5.997   3.852 -0.1229  0.1314  0.9935
 3203SOL    HW111050   7.212   5.908   3.863  0.0285 -0.1399 -0.4640
 3203SOL    HW211051   7.254   6.008   3.757  0.1207  1.6115  1.1633
 3204SOL     OW11052   0.828   6.148   0.018 -0.1619  0.2860 -0.3050
 3204SOL    HW111053   0.820   6.187   0.105  0.0437 -2.2332  0.9170
 3204SOL    HW211054   0.898   6.084   0.026 -2.1000 -2.1367 -1.4348
 3205SOL     OW11055   0.574   4.742   1.854  0.0687 -0.1249  0.0241
 3205SOL    HW111056   0.527   4.823   1.874  1.0446  0.5227 -0.2503
 3205SOL    HW211057   0.536   4.712   1.771  0.1669  0.4146 -0.2168
 3206SOL     OW11058   1.474   3.324   1.623 -0.1307  0.0470  1.0046
 3206SOL    HW111059   1.559   3.363   1.643  0.3638 -0.9496  0.9512
 3206SOL    HW211060   1.469   3.246   1.679 -1.2271  0.3499  1.3619
 3207SOL     OW11061   0.504   5.033   3.547  0.2258  0.3270 -0.3522
 3207SOL    HW111062   0.434   5.030   3.612 -0.2637 -0.8377 -0.8909
 3207SOL    HW211063   0.584   5.041   3.598 -0.0349 -1.8240  0.5257
 3208SOL     OW11064   7.713   5.290   3.383 -0.2384  0.5065  0.1850
 3208SOL    HW111065   7.745   5.379   3.395  0.1625  0.2785  0.8363
 3208SOL    HW211066   7.759   5.238   3.449  1.1518 -0.5904 -1.5572
 3209SOL     OW11067   1.507   4.401   2.529 -0.1382 -0.1918 -0.3571
 3209SOL    HW111068   1.525   4.489   2.561 -1.1352 -0.3949  0.8004
 3209SOL    HW211069   1.593   4.358   2.528  0.1712  0.4009  0.2839
 3210SOL     OW11070   1.406   4.346   5.812 -0.2524 -0.2166 -0.2879
 3210SOL    HW111071   1.385   4.440   5.808  0.2352 -0.0893 -0.0120
 3210SOL    HW211072   1.499   4.344   5.834 -0.2287 -0.7685 -0.4270
 3211SOL     OW11073   1.414   2.052   3.533  0.4949  0.4762  0.6623
 3211SOL    HW111074   1.402   2.061   3.627  0.5144 -0.7048  0.7877
 3211SOL    HW211075   1.326   2.044   3.497  0.5422 -0.6179  0.7601
 3212SOL     OW11076   7.387   5.811   2.030  0.0669  0.6104 -0.4387
 3212SOL    HW111077   7.430   5.735   1.990  0.5707  0.7524 -0.1769
 3212SOL    HW211078   7.414   5.808   2.122 -1.6404 -0.1152  0.0785
 3213SOL     OW11079   7.808   4.228   2.392 -0.4543 -0.0815  0.1469
 3213SOL    HW111080   7.783   4.320   2.403 -0.7349 -0.2402  0.9216
 3213SOL    HW211081   7.810   4.215   2.297 -0.5022  0.7006  0.0307
 3214SOL     OW11082   1.635   2.945   4.584 -0.2113 -0.2005 -0.3264
 3214SOL    HW111083   1.706   3.004   4.557  0.7549 -0.7536  0.9228
 3214SOL    HW211084   1.641   2.871   4.523  0.9813 -0.7423  0.4333
 3215SOL     OW11085   7.200   4.441   2.544 -0.1233  0.5025 -0.1217
 3215SOL    HW111086   7.272   4.431   2.481  0.7076  1.1042  0.7172
 3215SOL    HW211087   7.205   4.532   2.572 -0.9140  0.4184  0.3078
 3216SOL     OW11088   7.815   3.529   2.516  0.0553  0.1912  1.0820
 3216SOL    HW111089   7.909   3.509   2.511  0.0097  0.2768 -0.6725
 3216SOL    HW211090   7.779   3.459   2.570  1.1434  0.2489  1.9241
 3217SOL     OW11091   0.305   4.676   4.530 -0.1429  0.3374 -0.3569
 3217SOL    HW111092   0.320   4.626   4.610 -0.2410  1.1316  0.1655
 3217SOL    HW211093   0.393   4.703   4.501 -0.2171  1.6707  0.5546
 3218SOL     OW11094   3.464   6.179   1.431 -0.4637  0.1748 -0.1042
 3218SOL    HW111095   3.509   6.098   1.453  0.1104  0.6186  0.3787
 3218SOL    HW211096   3.482   6.192   1.338 -2.5264 -1.4721 -0.8180
 3219SOL     OW11097   5.790   1.926   2.525 -0.4921  0.5231  0.3923
 3219SOL    HW111098   5.728   1.871   2.572 -0.1502 -0.6881 -0.5210
 3219SOL    HW211099   5.758   2.015   2.537 -1.6007  0.0438  1.1007
 3220SOL     OW11100   0.789   3.227   1.733  0.1390 -0.1230  0.0009
 3220SOL    HW111101   0.803   3.136   1.759 -1.0051 -0.5639 -0.8654
 3220SOL    HW211102   0.729   3.261   1.799 -0.3613 -0.3400 -0.3448
 3221SOL     OW11103   1.820   2.767   4.948 -0.3260 -0.3526  0.3716
 3221SOL    HW111104   1.910   2.754   4.979  0.2675 -0.3099 -1.2346
 3221SOL    HW211105   1.800   2.688   4.899 -1.0248 -0.1804  0.3694
 3222SOL     OW11106   2.318   4.552   2.291 -0.0129 -0.2135 -0.4962
 3222SOL    HW111107   2.312   4.647   2.306 -1.0053 -0.2613 -0.4781
 3222SOL    HW211108   2.287   4.514   2.374 -1.7946 -0.5172 -1.2515
 3223SOL     OW11109   1.567   5.774   2.556  0.4807  0.3233  0.1133
 3223SOL    HW111110   1.538   5.721   2.630 -1.4379 -0.8775 -1.3972
 3223SOL    HW211111   1.630   5.719   2.510  0.1686  0.2665 -0.2435
 3224SOL     OW11112   7.243   6.588   3.314 -0.3450  0.7065 -0.0148
 3224SOL    HW111113   7.290   6.569   3.234  1.0410  0.5381  0.8094
 3224SOL    HW211114   7.242   6.683   3.321 -0.1281  0.7092 -0.0324
 3225SOL     OW11115   2.393   2.835   3.526  0.4990 -0.0961  0.5245
 3225SOL    HW111116   2.374   2.926   3.547  0.9497  0.1245 -0.0056
 3225SOL    HW211117   2.443   2.802   3.600 -1.1985 -0.4477  1.5654
 3226SOL     OW11118   2.598   4.130   0.855  0.2134 -0.1295 -0.6142
 3226SOL    HW111119   2.534   4.139   0.925  1.1591  0.0445  0.2517
 3226SOL    HW211120   2.547   4.106   0.778 -0.9282  0.4185 -0.0390
 3227SOL     OW11121   0.626   4.932   2.164  0.5546 -0.1031  0.2908
 3227SOL    HW111122   0.668   5.017   2.156  0.8038 -0.2585 -0.0982
 3227SOL    HW211123   0.568   4.926   2.087  1.1097 -0.5951 -0.0972
 3228SOL     OW11124   7.878   4.411   3.614  0.0246 -0.9627  0.7122
 3228SOL    HW111125   7.953   4.456   3.574 -0.9381  1.0124  1.0020
 3228SOL    HW211126   7.854   4.466   3.689 -1.0725 -2.1189  1.2517
 3229SOL     OW11127   7.586   5.181   2.295  0.3512  0.3837  0.1482
 3229SOL    HW111128   7.503   5.161   2.251 -0.1040  0.1395  1.1028
 3229SOL    HW211129   7.594   5.277   2.287  0.3919  0.3252 -0.6520
 3230SOL     OW11130   3.014   4.460   3.839  0.4719 -0.3017 -0.1232
 3230SOL    HW111131   3.064   4.499   3.910  0.5331 -0.8883  0.1614
 3230SOL    HW211132   3.071   4.392   3.804  0.5368  0.1338 -0.8922
 3231SOL     OW11133   1.489   2.739   2.814 -0.3311 -0.1264 -0.8133
 3231SOL    HW111134   1.532   2.691   2.884 -0.8705  0.4639 -0.0652
 3231SOL    HW211135   1.395   2.728   2.830 -0.4610  0.5025 -1.0949
 3232SOL     OW11136   6.540   5.060   1.351 -0.2732 -0.1353  0.1329
 3232SOL    HW111137   6.495   5.013   1.422  0.2454  0.0592  0.5962
 3232SOL    HW211138   6.628   5.024   1.351  0.1130  0.7929  0.4451
 3233SOL     OW11139   6.986   7.029   3.596  0.4371 -0.5158 -0.2418
 3233SOL    HW111140   6.908   7.050   3.545  0.3008  0.3384  0.3024
 3233SOL    HW211141   6.965   6.948   3.641  0.1110 -0.6391 -0.6189
 3234SOL     OW11142   7.170   5.094   3.700  0.0846  0.2846  0.3093
 3234SOL    HW111143   7.134   5.181   3.684 -0.0602 -0.0865 -1.6213
 3234SOL    HW211144   7.222   5.075   3.622  2.5545 -0.1824  1.9637
 3235SOL     OW11145   2.199   2.827   2.487  0.1315  0.0636 -0.2369
 3235SOL    HW111146   2.243   2.889   2.546  1.4839 -1.3629  0.3300
 3235SOL    HW211147   2.150   2.770   2.546  0.6656 -0.7452 -0.5673
 3236SOL     OW11148   0.476   4.215   3.640  0.5563  0.0509 -0.0718
 3236SOL    HW111149   0.489   4.310   3.649 -0.0527  0.3243 -1.6981
 3236SOL    HW211150   0.382   4.205   3.627  0.6962 -0.7266 -0.5088
 3237SOL     OW11151   7.298   3.162   3.664 -0.2232  0.2942 -0.4542
 3237SOL    HW111152   7.376   3.207   3.695 -1.0192  1.5850 -0.2396
 3237SOL    HW211153   7.319   3.069   3.672  0.5608  0.5875  1.5567
 3238SOL     OW11154   1.654   3.548   6.815 -0.2486  0.2815 -0.6215
 3238SOL    HW111155   1.690   3.471   6.771  0.0951 -0.1847  0.4402
 3238SOL    HW211156   1.730   3.605   6.830 -0.1649 -0.0520  0.3178
 3239SOL     OW11157   1.348   5.022   2.535 -0.1461 -0.5607  0.1864
 3239SOL    HW111158   1.254   5.026   2.520  0.1014 -0.6295 -1.7282
 3239SOL    HW211159   1.358   5.012   2.629 -2.0437 -0.4615  0.4276
 3240SOL     OW11160   0.965   3.289   2.016  0.0393 -0.1132  0.2087
 3240SOL    HW111161   1.015   3.315   2.093 -0.7096  0.6241  0.4671
 3240SOL    HW211162   1.027   3.242   1.961 -0.2112 -3.8834  2.7923
 3241SOL     OW11163   2.855   5.372   3.326  0.5003 -0.3834  0.1023
 3241SOL    HW111164   2.925   5.345   3.267 -1.8163 -0.6305 -2.7558
 3241SOL    HW211165   2.792   5.301   3.323 -1.1565  1.0155  0.3662
 3242SOL     OW11166   0.507   4.224   3.298 -0.8900  0.0849 -0.3871
 3242SOL    HW111167   0.557   4.143   3.297 -1.2460 -0.1356 -0.2915
 3242SOL    HW211168   0.545   4.274   3.371 -1.4123 -0.4622  0.2735
 3243SOL     OW11169   1.969   3.915   4.474 -0.0759  0.1626  0.4376
 3243SOL    HW111170   2.028   3.889   4.546 -0.6150  0.0658  0.8499
 3243SOL    HW211171   2.028   3.937   4.402  0.4683  0.0439  0.8377
 3244SOL     OW11172   0.620   3.259   1.447 -0.0354  0.4597 -0.2877
 3244SOL    HW111173   0.662   3.195   1.504  0.9313  1.2077 -0.1359
 3244SOL    HW211174   0.644   3.344   1.485 -0.6029  0.9319 -0.9621
 3245SOL     OW11175   0.247   5.668   3.361  0.6400  0.7717  0.3010
 3245SOL    HW111176   0.248   5.752   3.407  2.5981  0.8762  0.1292
 3245SOL    HW211177   0.337   5.655   3.333 -0.6495  1.7204 -5.4874
 3246SOL     OW11178   1.237   4.397   4.072  0.0621  0.0604 -1.0226
 3246SOL    HW111179   1.297   4.464   4.107  0.1453 -0.2758 -0.5049
 3246SOL    HW211180   1.293   4.321   4.056 -0.1239 -0.0627 -1.0890
 3247SOL     OW11181   0.683   5.361   0.539  0.0212 -0.0360  0.0389
 3247SOL    HW111182   0.666   5.276   0.578  2.0913 -1.0325 -1.0371
 3247SOL    HW211183   0.644   5.356   0.451 -0.7231  0.5199  0.3272
 3248SOL     OW11184   1.458   7.072   3.545  0.0555 -0.5579 -0.0535
 3248SOL    HW111185   1.449   6.979   3.525 -2.2400 -0.6530  1.0649
 3248SOL    HW211186   1.519   7.076   3.619  0.2373 -1.1514 -0.1666
 3249SOL     OW11187   1.211   5.566   2.501 -0.1216 -0.1156  0.3850
 3249SOL    HW111188   1.193   5.547   2.593 -1.7815  1.5646  0.4657
 3249SOL    HW211189   1.169   5.651   2.486  1.1000  0.1834 -1.6373
 3250SOL     OW11190   0.992   4.581   1.725  0.0358  0.1812  0.2755
 3250SOL    HW111191   1.076   4.537   1.740  0.1524 -0.3560 -1.7171
 3250SOL    HW211192   0.975   4.629   1.807  1.7975 -0.4684  1.0652
 3251SOL     OW11193   0.646   3.621   3.445 -0.2218 -0.1189 -0.2716
 3251SOL    HW111194   0.576   3.683   3.423 -0.1116 -0.4346 -1.5752
 3251SOL    HW211195   0.707   3.628   3.372  1.3442  0.4486  1.0418
 3252SOL     OW11196   1.296   4.346   2.819 -0.5681  0.2612 -0.3232
 3252SOL    HW111197   1.375   4.332   2.766  0.1661 -0.6756  0.9396
 3252SOL    HW211198   1.255   4.424   2.781  1.3708  1.2304 -0.5648
 3253SOL     OW11199   1.683   5.754   1.522  0.8068  0.0478  0.2657
 3253SOL    HW111200   1.668   5.722   1.611  2.6186 -0.3643  0.4603
 3253SOL    HW211201   1.778   5.753   1.512  0.5977 -1.3990 -2.2282
 3254SOL     OW11202   1.047   7.240   3.794  0.0193 -0.4494 -0.2980
 3254SOL    HW111203   1.061   7.181   3.867 -0.2827 -0.0279  0.1053
 3254SOL    HW211204   1.104   7.206   3.725  0.8867 -0.4127  0.3788
 3255SOL     OW11205   1.456   4.792   2.753  0.5052  0.2728 -0.1568
 3255SOL    HW111206   1.430   4.877   2.787 -0.1734 -0.0287  0.1004
 3255SOL    HW211207   1.503   4.750   2.825  0.4756  0.2718 -0.1380
 3256SOL     OW11208   7.101   5.303   5.012  0.5102 -0.1470  0.1369
 3256SOL    HW111209   7.119   5.396   5.000 -3.5186  0.8418  0.1691
 3256SOL    HW211210   7.098   5.267   4.924  0.7787  0.0663  0.0414
 3257SOL     OW11211   0.164   4.751   1.089  0.0712 -0.4616  0.1451
 3257SOL    HW111212   0.092   4.813   1.098  1.7246  1.5390  0.4316
 3257SOL    HW211213   0.128   4.680   1.037 -1.9209  0.7747 -0.2782
 3258SOL     OW11214   2.429   3.758   1.773 -0.1103  0.0556 -0.7516
 3258SOL    HW111215   2.336   3.778   1.781  0.0437  0.1200  1.4227
 3258SOL    HW211216   2.432   3.662   1.768 -0.2232 -0.1474  1.8097
 3259SOL     OW11217   2.497   3.145   4.352 -0.1824 -0.5205  0.2073
 3259SOL    HW111218   2.540   3.061   4.367 -2.0586 -1.6307 -0.2663
 3259SOL    HW211219   2.561   3.196   4.303  2.2100 -0.4390  3.1464
 3260SOL     OW11220   1.884   4.456   3.008  0.1718  0.0921 -0.4722
 3260SOL    HW111221   1.895   4.427   3.099  0.0193 -1.0078 -0.7901
 3260SOL    HW211222   1.900   4.378   2.956  1.4510  0.9691 -1.4683
 3261SOL     OW11223   7.924   4.885   1.094  0.6388  0.2104 -0.1922
 3261SOL    HW111224   7.863   4.909   1.164 -0.2179 -1.8822 -0.1470
 3261SOL    HW211225   7.963   4.968   1.067 -1.0989  1.4322  0.8283
 3262SOL     OW11226   1.155   5.379   2.732  0.3807  0.0427 -0.0741
 3262SOL    HW111227   1.198   5.406   2.813  0.8776  1.1112 -0.6822
 3262SOL    HW211228   1.225   5.338   2.681  0.3042  0.2978 -0.3841
 3263SOL     OW11229   1.313   4.998   1.153  0.1666  0.0460  0.1421
 3263SOL    HW111230   1.366   5.073   1.179 -1.1843  0.9386  0.3984
 3263SOL    HW211231   1.257   5.031   1.083 -2.2157  0.0346  1.9117
 3264SOL     OW11232   0.378   5.097   1.256  0.2138 -0.0034  0.4482
 3264SOL    HW111233   0.463   5.089   1.299 -1.2631  0.5584  3.7788
 3264SOL    HW211234   0.318   5.120   1.326 -3.1623 -2.5776 -1.2868
 3265SOL     OW11235   7.800   4.139   2.798  0.0707 -0.3574  0.3858
 3265SOL    HW111236   7.753   4.123   2.716  1.8460 -0.5319 -0.6579
 3265SOL    HW211237   7.732   4.153   2.863 -1.3944 -0.3765 -1.0914
 3266SOL     OW11238   1.702   3.665   1.910 -0.1255 -0.0583  0.2470
 3266SOL    HW111239   1.709   3.753   1.871 -1.8359  1.4127  2.9264
 3266SOL    HW211240   1.610   3.641   1.899  0.4842 -1.9616 -1.1726
 3267SOL     OW11241   0.016   4.646   2.081 -0.1759  0.5398 -0.2704
 3267SOL    HW111242   0.080   4.613   2.144 -0.4672  0.4640 -0.0110
 3267SOL    HW211243   0.069   4.679   2.008  0.0905 -2.7128 -1.6965
 3268SOL     OW11244   6.844   2.916   5.009 -0.4506 -0.4883 -0.3220
 3268SOL    HW111245   6.789   2.994   5.006  0.5860  0.2777  0.0949
 3268SOL    HW211246   6.932   2.947   4.987  0.3142 -1.1865  1.5022
 3269SOL     OW11247   7.135   5.632   1.340 -0.3345  0.3478 -0.1439
 3269SOL    HW111248   7.069   5.640   1.408  1.3593  1.2652  1.4910
 3269SOL    HW211249   7.099   5.680   1.265 -1.7513  0.2976  0.4881
 3270SOL     OW11250   1.460   3.890   3.070  0.2685  0.3370  0.1156
 3270SOL    HW111251   1.368   3.865   3.071 -0.0074  1.2975 -0.1514
 3270SOL    HW211252   1.503   3.825   3.126 -0.7485  0.5978  1.2434
 3271SOL     OW11253   5.961   6.311   4.712  0.6756 -0.3893  0.5480
 3271SOL    HW111254   5.872   6.332   4.741  0.1381 -1.3501 -0.3316
 3271SOL    HW211255   5.992   6.391   4.670  0.8874  0.5127  2.2962
 3272SOL     OW11256   0.131   4.285   3.812  0.0235 -0.3696  0.4110
 3272SOL    HW111257   0.161   4.215   3.871 -0.1688 -1.6589 -0.9462
 3272SOL    HW211258   0.099   4.353   3.870 -0.6813 -1.8204  1.8066
 3273SOL     OW11259   7.122   5.109   5.207 -0.6483 -0.3482  0.2906
 3273SOL    HW111260   7.036   5.106   5.250 -0.5894 -0.0140  0.4372
 3273SOL    HW211261   7.114   5.180   5.143 -0.3527 -0.0487  0.5840
 3274SOL     OW11262   7.860   3.572   3.185  0.1373  0.5303  0.3215
 3274SOL    HW111263   7.819   3.646   3.140 -0.0889 -0.8343 -1.8720
 3274SOL    HW211264   7.947   3.566   3.146 -1.0052 -2.3643 -2.1706
 3275SOL     OW11265   1.546   5.186   4.288  0.3588  0.4919 -0.4791
 3275SOL    HW111266   1.610   5.118   4.267  0.9398  0.9937 -0.3666
 3275SOL    HW211267   1.584   5.266   4.252 -0.0510  0.8531 -0.1139
 3276SOL     OW11268   2.107   3.425   2.654  0.3289 -0.0663  0.5107
 3276SOL    HW111269   2.131   3.358   2.590  0.7990  0.7627 -0.1993
 3276SOL    HW211270   2.168   3.411   2.727  0.0477 -0.7618  0.6220
 3277SOL     OW11271   1.714   4.107   2.456  0.3168  0.0731 -0.0075
 3277SOL    HW111272   1.731   4.135   2.366 -1.3098  1.6416  0.1059
 3277SOL    HW211273   1.729   4.186   2.508  1.0386 -0.7640  1.0823
 3278SOL     OW11274   0.728   4.492   3.220  0.5145 -0.4922  0.1096
 3278SOL    HW111275   0.804   4.528   3.266  1.8399 -2.3548 -0.5241
 3278SOL    HW211276   0.693   4.425   3.279  0.2024 -0.6121 -0.2042
 3279SOL     OW11277   7.947   5.879   2.266 -0.0198 -0.0976 -0.2301
 3279SOL    HW111278   7.855   5.903   2.270 -0.1095 -0.5966  1.3174
 3279SOL    HW211279   7.970   5.855   2.356  1.6430  0.1024 -0.5586
 3280SOL     OW11280   7.590   3.590   4.150  0.5204 -0.1682  0.3143
 3280SOL    HW111281   7.605   3.608   4.243  1.7643 -0.5596  0.2000
 3280SOL    HW211282   7.547   3.669   4.118 -2.0556 -0.8989  1.6871
 3281SOL     OW11283   2.137   4.711   3.329  0.3416  0.4658  0.6417
 3281SOL    HW111284   2.170   4.737   3.243 -0.3225 -1.5592 -0.2896
 3281SOL    HW211285   2.198   4.644   3.359 -1.3319 -1.4252  0.0701
 3282SOL     OW11286   0.880   5.234   5.285 -0.1842 -0.3773  0.2111
 3282SOL    HW111287   0.803   5.184   5.313 -1.0508  0.3602 -0.7558
 3282SOL    HW211288   0.893   5.209   5.193 -0.0179  0.3927  0.0150
 3283SOL     OW11289   2.051   4.439   1.366  0.3694 -0.1256  0.0537
 3283SOL    HW111290   1.979   4.496   1.392  0.4056  0.0428 -0.2143
 3283SOL    HW211291   2.012   4.378   1.303 -0.2989 -2.0580  2.2095
 3284SOL     OW11292   1.540   3.663   3.221 -1.0136  0.2259  0.5502
 3284SOL    HW111293   1.552   3.653   3.127  0.7123 -0.1624  0.7737
 3284SOL    HW211294   1.500   3.581   3.249 -0.6078 -0.0657  0.2867
 3285SOL     OW11295   7.451   5.384   4.545  0.3371 -0.5096  0.4491
 3285SOL    HW111296   7.480   5.416   4.460 -1.1507 -0.4682 -0.0785
 3285SOL    HW211297   7.411   5.299   4.527 -1.8117  0.3768  0.7351
 3286SOL     OW11298   2.002   1.077   6.413 -0.2059 -0.4049  0.8774
 3286SOL    HW111299   1.933   1.141   6.395 -0.3397  0.2836  3.3734
 3286SOL    HW211300   1.985   1.005   6.352 -0.7643  1.3858 -1.2156
 3287SOL     OW11301   1.764   4.685   2.949 -0.4739  0.6052 -0.1000
 3287SOL    HW111302   1.780   4.591   2.964  0.2044  0.3378 -2.2407
 3287SOL    HW211303   1.672   4.697   2.971 -0.3816 -0.3787  0.9445
 3288SOL     OW11304   1.352   5.114   2.023  0.3427 -0.0115  0.7048
 3288SOL    HW111305   1.367   5.060   1.946  0.6851 -0.3187  0.9894
 3288SOL    HW211306   1.287   5.179   1.994  0.4090 -0.1749  0.1846
 3289SOL     OW11307   0.245   5.852   3.990 -0.0411  0.5200  0.2339
 3289SOL    HW111308   0.215   5.906   4.062  0.5866  0.7454  0.3266
 3289SOL    HW211309   0.299   5.784   4.030 -0.6575 -0.0655  0.0980
 3290SOL     OW11310   0.576   3.390   2.141  0.0312 -0.4641 -0.2589
 3290SOL    HW111311   0.608   3.479   2.158  2.2466 -1.3253  0.5529
 3290SOL    HW211312   0.519   3.370   2.215 -0.0741  0.1227 -0.1791
 3291SOL     OW11313   3.270   4.306   0.008 -0.4700 -0.0477  0.3808
 3291SOL    HW111314   3.336   4.320   0.076 -0.6709  0.0247  0.5639
 3291SOL    HW211315   3.299   4.228  -0.038  1.5733  1.7905 -1.7109
 3292SOL     OW11316   0.317   4.278   4.408  0.3178 -0.1044 -0.0165
 3292SOL    HW111317   0.355   4.233   4.483  1.9215  1.0364 -0.0914
 3292SOL    HW211318   0.390   4.291   4.348  0.2805  3.5463  0.4796
 3293SOL     OW11319   6.124   5.421   2.350 -0.1114  0.1120 -0.4536
 3293SOL    HW111320   6.069   5.483   2.399  0.4340  0.8411 -0.7390
 3293SOL    HW211321   6.099   5.335   2.384 -0.3806  0.5376  0.4692
 3294SOL     OW11322   2.128   4.448   4.296  0.1883 -0.3114 -0.3749
 3294SOL    HW111323   2.209   4.399   4.287  0.6413  0.2271  0.6380
 3294SOL    HW211324   2.059   4.384   4.278  0.7539 -1.3882  1.0975
 3295SOL     OW11325   2.747   3.726   3.859  0.1322 -0.3042  0.2099
 3295SOL    HW111326   2.701   3.786   3.919 -2.2840 -1.8430  0.0290
 3295SOL    HW211327   2.781   3.782   3.790 -1.8781  0.9548  0.1509
 3296SOL     OW11328   0.182   5.547   4.173 -0.2335  0.1324  0.5017
 3296SOL    HW111329   0.177   5.581   4.263 -0.4439 -0.1410  0.5936
 3296SOL    HW211330   0.256   5.486   4.176 -1.8020 -1.8319  1.1502
 3297SOL     OW11331   1.057   4.687   1.465 -0.4400 -0.0897  0.1259
 3297SOL    HW111332   1.145   4.661   1.491 -0.4274  0.9338  1.1657
 3297SOL    HW211333   1.002   4.667   1.541 -0.4884  2.4533  0.8757
 3298SOL     OW11334   7.647   2.333   3.446 -0.4176  0.0260 -0.2512
 3298SOL    HW111335   7.668   2.340   3.539  1.8572  2.2831 -0.8055
 3298SOL    HW211336   7.725   2.292   3.407 -1.4301 -1.0974 -1.1744
 3299SOL     OW11337   1.077   4.945   2.065  0.3533  0.3244 -0.1802
 3299SOL    HW111338   1.032   5.017   2.021  2.3008  1.1870 -0.9120
 3299SOL    HW211339   1.097   4.882   1.996 -0.2339 -0.3419  0.2393
 3300SOL     OW11340   0.726   4.167   2.754  0.9152 -0.1207 -0.0631
 3300SOL    HW111341   0.719   4.210   2.839  1.3931 -0.1586  0.0004
 3300SOL    HW211342   0.636   4.164   2.721  0.5435 -1.1846  0.9587
 3301SOL     OW11343   0.251   1.791   1.497  0.5827  0.5873  0.4383
 3301SOL    HW111344   0.256   1.695   1.500  3.1278  0.6222 -0.3254
 3301SOL    HW211345   0.158   1.810   1.484  0.0294 -1.7751  0.4958
 3302SOL     OW11346   1.483   4.058  11.636  0.3249  0.0165 -0.9285
 3302SOL    HW111347   1.531   4.052  11.553 -0.2714  0.1968 -1.2951
 3302SOL    HW211348   1.423   3.984  11.634 -3.2728  2.6772 -3.0138
 3303SOL     OW11349   7.410   5.314   3.204 -0.8475 -0.5860 -0.1972
 3303SOL    HW111350   7.378   5.225   3.190  0.5858 -1.0717 -0.5891
 3303SOL    HW211351   7.505   5.307   3.192 -0.8695  1.3358 -2.0080
 3304SOL     OW11352   1.919   2.891   1.733 -0.2830  0.2964  0.3024
 3304SOL    HW111353   2.006   2.852   1.732 -0.4730 -0.1462 -0.5632
 3304SOL    HW211354   1.884   2.871   1.820 -0.6817 -2.2134 -0.3608
 3305SOL     OW11355   1.811   2.491   1.470  0.8303 -0.1902  0.2016
 3305SOL    HW111356   1.848   2.403   1.483 -0.8591 -1.1287 -1.0056
 3305SOL    HW211357   1.754   2.505   1.546 -2.1441 -1.9735 -1.5066
 3306SOL     OW11358   0.957   4.481   4.045 -0.3242  0.0121 -0.1721
 3306SOL    HW111359   1.039   4.445   4.079  0.2836  0.0349 -1.5623
 3306SOL    HW211360   0.934   4.551   4.107  0.6395 -0.0747  0.3009
 3307SOL     OW11361   6.143   5.133   2.610  0.6644 -0.7717  0.2094
 3307SOL    HW111362   6.236   5.134   2.591  0.2304  1.6911 -2.6624
 3307SOL    HW211363   6.133   5.186   2.689  1.5798  1.0906 -0.8645
 3308SOL     OW11364   1.731   5.091   2.605 -0.4854 -0.1899  0.0945
 3308SOL    HW111365   1.738   5.186   2.617 -0.8415 -0.2838  1.1062
 3308SOL    HW211366   1.738   5.055   2.693 -1.5530 -1.0374 -0.1497
 3309SOL     OW11367   7.295   7.110   4.198 -0.6812 -0.3188 -0.2379
 3309SOL    HW111368   7.321   7.096   4.107  1.3366  1.7076 -0.0566
 3309SOL    HW211369   7.206   7.145   4.193  0.0180  1.3957 -1.6150
 3310SOL     OW11370   1.311   4.322   4.353  0.5219 -0.1314 -0.2694
 3310SOL    HW111371   1.376   4.254   4.337  0.6783  0.0679 -0.4730
 3310SOL    HW211372   1.317   4.380   4.277 -0.8172 -0.8421 -0.9585
 3311SOL     OW11373   0.609   2.777   5.299  0.3058  0.1854  0.2936
 3311SOL    HW111374   0.636   2.778   5.391 -0.7744 -2.0371  0.7091
 3311SOL    HW211375   0.589   2.868   5.279  0.0054  0.6538  2.4463
 3312SOL     OW11376   7.232   4.874   5.058 -0.2677  0.3490 -0.5190
 3312SOL    HW111377   7.139   4.857   5.052 -0.4649  0.9906  0.4204
 3312SOL    HW211378   7.239   4.948   5.119  0.8712  0.0652 -0.2824
 3313SOL     OW11379   1.051   4.931   5.001  0.2542  0.4137  0.2499
 3313SOL    HW111380   1.099   4.975   5.071  1.6706  0.9903 -1.0229
 3313SOL    HW211381   1.009   4.856   5.043  2.0470  0.0566  1.4794
 3314SOL     OW11382   0.483   6.680   5.548 -0.1860 -0.5226 -0.3396
 3314SOL    HW111383   0.521   6.691   5.635 -2.3051  0.4459  0.5412
 3314SOL    HW211384   0.428   6.757   5.536 -1.0404 -1.3302 -1.9541
 3315SOL     OW11385   2.759   3.935   4.668  0.3339 -0.1020  0.0974
 3315SOL    HW111386   2.827   3.950   4.601 -0.3470 -0.6420 -0.7339
 3315SOL    HW211387   2.799   3.872   4.728  0.6492 -0.2680 -0.2766
 3316SOL     OW11388   1.045   4.841   3.423  0.0424 -0.1033  0.1863
 3316SOL    HW111389   1.010   4.777   3.361 -0.0103  0.1515 -0.0488
 3316SOL    HW211390   1.136   4.816   3.436  0.1155 -0.0263 -0.1688
 3317SOL     OW11391   0.358   4.614   6.934 -0.0366 -0.0729 -0.6820
 3317SOL    HW111392   0.301   4.538   6.924  1.0729 -1.0154  0.0168
 3317SOL    HW211393   0.438   4.590   6.887 -0.2763  1.3557 -1.9209
 3318SOL     OW11394   0.403   5.791   4.479 -0.0417 -0.7276  0.1431
 3318SOL    HW111395   0.446   5.859   4.530 -0.6862 -1.2764  1.4735
 3318SOL    HW211396   0.409   5.821   4.389  1.3073  0.1860  0.5083
 3319SOL     OW11397   1.390   4.817   6.647 -0.9099 -0.7229  0.5661
 3319SOL    HW111398   1.395   4.763   6.726  0.3094  0.3996  1.3050
 3319SOL    HW211399   1.379   4.907   6.680 -1.1383 -0.3076 -0.5773
 3320SOL     OW11400   7.480   6.646   3.498 -0.1734 -0.0835  0.0224
 3320SOL    HW111401   7.411   6.693   3.452 -0.7743  0.2711  1.2400
 3320SOL    HW211402   7.540   6.617   3.429 -1.1984  0.1499 -0.9995
 3321SOL     OW11403   7.227   5.150   4.790  0.3781 -0.1274  0.3093
 3321SOL    HW111404   7.164   5.114   4.728 -0.0340  1.7230 -0.4262
 3321SOL    HW211405   7.294   5.082   4.798 -1.3397 -1.8647  0.6032
 3322SOL     OW11406   6.488   6.901   5.930 -0.3386 -0.1415  0.1779
 3322SOL    HW111407   6.410   6.934   5.974  0.6130  1.1855  0.9454
 3322SOL    HW211408   6.501   6.813   5.966 -1.8566 -0.6520 -0.4854
 3323SOL     OW11409   1.730   4.755   5.711  0.0541  0.0316 -0.3035
 3323SOL    HW111410   1.779   4.676   5.686 -0.1098 -0.8295  1.8818
 3323SOL    HW211411   1.783   4.828   5.679  1.4884 -0.9314 -0.2132
 3324SOL     OW11412   6.192   7.117   4.894  0.5927  0.1897 -0.5461
 3324SOL    HW111413   6.274   7.077   4.920  0.3318 -1.0912 -1.5927
 3324SOL    HW211414   6.143   7.127   4.976  1.5766  0.5225  0.0194
 3325SOL     OW11415   6.442   5.822   5.669  0.2922 -0.6127  0.1130
 3325SOL    HW111416   6.401   5.890   5.616 -0.1256 -1.5128 -0.7468
 3325SOL    HW211417   6.383   5.811   5.744 -0.0486 -0.5759 -0.1469
 3326SOL     OW11418   7.219   3.436   3.231  0.2839 -0.2312 -0.3534
 3326SOL    HW111419   7.142   3.442   3.287  0.4617 -0.4090 -0.0823
 3326SOL    HW211420   7.259   3.523   3.234  0.5006 -0.3416  0.1054
 3327SOL     OW11421   7.555   4.811   4.400  0.0645  0.0332 -0.2211
 3327SOL    HW111422   7.479   4.783   4.451 -0.8273  1.0265 -0.9643
 3327SOL    HW211423   7.629   4.797   4.459 -0.4063 -2.7972 -0.1467
 3328SOL     OW11424   7.508   5.446   4.292 -0.0316 -0.3751 -0.3546
 3328SOL    HW111425   7.581   5.506   4.279 -1.1361  1.5994  1.8250
 3328SOL    HW211426   7.430   5.500   4.276 -1.0626 -1.4382  0.8929
 3329SOL     OW11427   0.561   5.829   3.610 -0.5397  0.5250 -0.2169
 3329SOL    HW111428   0.656   5.817   3.618 -0.4873  1.1760  0.3627
 3329SOL    HW211429   0.551   5.891   3.538 -0.4289  1.3377  0.4353
 3330SOL     OW11430   0.053   3.175   6.114  0.2473 -0.3831  0.1286
 3330SOL    HW111431   0.024   3.188   6.024 -0.8475 -1.0093  0.3745
 3330SOL    HW211432  -0.027   3.161   6.164  0.8210  0.0930  1.2380
 3331SOL     OW11433   7.960   3.572   3.634  0.3409  0.8307 -0.4574
 3331SOL    HW111434   7.926   3.624   3.707 -0.0911 -0.7089  0.4930
 3331SOL    HW211435   7.882   3.549   3.584  0.2129 -0.7825  0.4278
 3332SOL     OW11436   2.338   4.270   3.999  0.5864 -0.5032  0.2139
 3332SOL    HW111437   2.410   4.234   4.051  0.8461 -0.3501 -0.0327
 3332SOL    HW211438   2.346   4.365   4.010  0.3586 -0.4899  0.2686
 3333SOL     OW11439   1.646   2.910   2.643 -0.0316  0.2807  0.0326
 3333SOL    HW111440   1.585   2.850   2.687  0.0647  0.3510  0.2616
 3333SOL    HW211441   1.610   2.997   2.659  0.9233  0.4390  1.4334
 3334SOL     OW11442   1.445   3.482   4.809  0.0320  0.0966  0.0062
 3334SOL    HW111443   1.466   3.520   4.723  0.3402  1.1070  0.5037
 3334SOL    HW211444   1.385   3.545   4.849  1.6673  0.8350  1.4330
 3335SOL     OW11445   0.174   6.508   2.955  0.0236  0.6687 -0.5066
 3335SOL    HW111446   0.253   6.468   2.918 -0.7323 -0.0438 -1.4037
 3335SOL    HW211447   0.136   6.558   2.883  1.2020  3.5437  0.7087
 3336SOL     OW11448   1.215   3.656   4.933  0.3811  0.0199  0.0713
 3336SOL    HW111449   1.146   3.593   4.952 -0.1875  0.8385  0.7920
 3336SOL    HW211450   1.180   3.711   4.863  0.7216 -0.2147 -0.2886
 3337SOL     OW11451   0.459   5.200   4.439 -0.1596  0.2658  0.4293
 3337SOL    HW111452   0.526   5.184   4.372 -0.0900 -0.2972  0.6300
 3337SOL    HW211453   0.401   5.265   4.399 -0.1855 -0.1477 -0.2332
 3338SOL     OW11454   0.805   3.998   5.566 -0.5076  0.3526  0.4023
 3338SOL    HW111455   0.719   4.023   5.600 -0.5521 -0.1630  0.6744
 3338SOL    HW211456   0.852   4.081   5.556 -1.3420  0.7331 -0.6113
 3339SOL     OW11457   1.486   4.940   5.228  0.3102  0.6372  0.0059
 3339SOL    HW111458   1.520   4.912   5.313 -0.4918  2.6788  1.0661
 3339SOL    HW211459   1.406   4.888   5.216  0.7023 -0.0299  0.2350
 3340SOL     OW11460   0.802   6.011   4.498  0.0393  0.1270  0.7806
 3340SOL    HW111461   0.771   6.090   4.453 -0.1040 -0.7475 -0.7023
 3340SOL    HW211462   0.839   6.044   4.580 -0.1613  1.7178  0.2718
 3341SOL     OW11463   0.706   2.929   6.198  0.2290 -0.1819 -0.7291
 3341SOL    HW111464   0.718   2.953   6.290 -0.5741 -0.4628 -0.5448
 3341SOL    HW211465   0.795   2.929   6.162  0.3072  3.0521 -0.7575
 3342SOL     OW11466   7.083   6.029   7.501  0.0803 -0.1000 -0.2038
 3342SOL    HW111467   7.147   6.098   7.519  0.1627 -0.0937 -0.5175
 3342SOL    HW211468   7.004   6.076   7.473 -0.1786 -0.0912  0.5168
 3343SOL     OW11469   7.909   5.714   5.274  0.3847  0.0341  0.0915
 3343SOL    HW111470   8.001   5.696   5.295  0.5791  1.0156  0.1339
 3343SOL    HW211471   7.892   5.661   5.195  1.3548  0.7849 -0.6484
 3344SOL     OW11472   1.480   6.002   4.948 -0.2627 -0.1586  0.2815
 3344SOL    HW111473   1.409   6.011   5.011 -1.4048 -0.8612 -0.8653
 3344SOL    HW211474   1.520   5.917   4.970 -0.2687 -0.1211  0.4411
 3345SOL     OW11475   0.087   3.820   3.852  0.1432 -0.3276 -0.3419
 3345SOL    HW111476   0.107   3.905   3.891  0.5850 -0.2270 -0.7771
 3345SOL    HW211477   0.097   3.833   3.758 -0.6281 -0.6442 -0.4771
 3346SOL     OW11478   1.629   4.144   5.977  0.1253  0.0600 -0.1013
 3346SOL    HW111479   1.631   4.054   6.009 -0.1868 -0.3891 -1.2919
 3346SOL    HW211480   1.647   4.137   5.883  3.3134  1.5193  0.2589
 3347SOL     OW11481   0.599   6.606   2.718  0.7202 -0.2766 -0.2010
 3347SOL    HW111482   0.615   6.546   2.644 -2.3480 -0.1599 -1.1492
 3347SOL    HW211483   0.561   6.684   2.677 -1.6198 -0.4319  1.4484
 3348SOL     OW11484   7.325   3.714   4.279 -0.2575  0.9027  0.7934
 3348SOL    HW111485   7.262   3.759   4.336 -0.0889  1.0654  0.8517
 3348SOL    HW211486   7.404   3.706   4.332 -0.1892  0.8075  0.6773
 3349SOL     OW11487   1.337   3.786   4.348  0.3002  0.4360  0.7531
 3349SOL    HW111488   1.263   3.725   4.348 -0.2219  0.9180  3.5121
 3349SOL    HW211489   1.413   3.731   4.364  0.0423  0.2832  1.5267
 3350SOL     OW11490   1.124   3.920   4.070  0.3234  0.1366 -0.1823
 3350SOL    HW111491   1.186   3.988   4.043  0.2987  0.1177 -0.2865
 3350SOL    HW211492   1.046   3.936   4.017  0.2357  0.1663 -0.0450
 3351SOL     OW11493   2.213   5.087   2.943  0.1316 -0.0276 -0.2275
 3351SOL    HW111494   2.287   5.050   2.895  0.4561 -1.7493  1.4754
 3351SOL    HW211495   2.139   5.080   2.882  1.0222  0.2285 -1.3692
 3352SOL     OW11496   0.620   3.986   4.874 -0.1426 -0.4643  0.2723
 3352SOL    HW111497   0.539   4.028   4.845  1.0371  0.8091 -1.3915
 3352SOL    HW211498   0.681   3.998   4.801  1.4080 -1.8198  1.2723
 3353SOL     OW11499   7.107   3.855   5.067  0.3438 -0.6184 -0.1537
 3353SOL    HW111500   7.013   3.871   5.077  0.5361  0.5928 -0.1246
 3353SOL    HW211501   7.129   3.794   5.137 -0.7456 -2.3692 -1.2566
 3354SOL     OW11502   7.203   7.880   5.314  0.0469  0.1142  0.0461
 3354SOL    HW111503   7.122   7.904   5.360  0.1973  0.4818  0.1211
 3354SOL    HW211504   7.172   7.837   5.234 -0.2120 -0.5621  0.5029
 3355SOL     OW11505   1.046   5.238   4.694 -0.0491 -0.1969  0.1589
 3355SOL    HW111506   1.107   5.233   4.768  0.6371  1.2835 -0.2740
 3355SOL    HW211507   1.098   5.274   4.623 -1.3098  0.6786 -0.3521
 3356SOL     OW11508   3.202   3.035   7.647  0.3974 -0.4952  0.1677
 3356SOL    HW111509   3.218   3.078   7.731  2.4703  0.3005 -0.5415
 3356SOL    HW211510   3.281   3.054   7.596 -0.7767 -0.9766 -1.9482
 3357SOL     OW11511   2.276   3.291   4.378  0.4750 -0.3199 -0.2792
 3357SOL    HW111512   2.343   3.223   4.384 -0.2412 -1.2542 -2.0385
 3357SOL    HW211513   2.243   3.284   4.288 -0.3452  1.6862 -0.1849
 3358SOL     OW11514   7.838   5.428   3.770 -0.1306 -0.0541 -0.0128
 3358SOL    HW111515   7.896   5.491   3.813  0.1009  0.8636 -1.5894
 3358SOL    HW211516   7.897   5.358   3.743 -0.0248  0.0912 -0.1646
 3359SOL     OW11517   1.005   4.446   4.528  0.0943 -0.0988  0.0602
 3359SOL    HW111518   1.031   4.364   4.570 -0.6632  0.0692  0.8884
 3359SOL    HW211519   1.036   4.438   4.438  0.6511 -0.9965  0.3223
 3360SOL     OW11520   0.352   7.215   5.746  0.0305  0.2957 -0.1169
 3360SOL    HW111521   0.260   7.240   5.734  0.1437  0.1928 -1.3853
 3360SOL    HW211522   0.348   7.134   5.796 -0.6507 -0.4079 -1.2684
 3361SOL     OW11523   1.780   5.481   5.968  0.2657 -0.0129  0.0849
 3361SOL    HW111524   1.847   5.518   5.911  0.3527  0.6826  0.6289
 3361SOL    HW211525   1.698   5.494   5.920  0.5159 -1.0225 -0.6596
 3362SOL     OW11526   1.488   3.513   5.522 -0.1635  0.1794  0.2552
 3362SOL    HW111527   1.448   3.434   5.485  2.6071 -0.9706 -0.5590
 3362SOL    HW211528   1.567   3.526   5.471  1.2485  1.5050  2.5872
 3363SOL     OW11529   7.523   5.047   5.013 -0.0197  0.4699 -0.2264
 3363SOL    HW111530   7.528   4.956   4.983  1.3129  1.1149 -2.1220
 3363SOL    HW211531   7.482   5.041   5.099  0.5626 -1.9833 -0.0408
 3364SOL     OW11532   2.609   5.249   4.607 -0.0088  0.6184  0.4215
 3364SOL    HW111533   2.567   5.244   4.693  0.4082 -1.8866  0.5613
 3364SOL    HW211534   2.673   5.178   4.608 -0.3085  0.2308 -2.1216
 3365SOL     OW11535   6.811   6.415   6.672 -0.1564  0.3138 -0.4119
 3365SOL    HW111536   6.765   6.334   6.695 -1.0809 -0.3035 -3.8958
 3365SOL    HW211537   6.856   6.440   6.752 -0.9573 -2.8839  1.2104
 3366SOL     OW11538   0.468   4.464   1.668 -0.2069  0.4819  0.3474
 3366SOL    HW111539   0.393   4.408   1.649 -0.8756  0.9590  1.5030
 3366SOL    HW211540   0.544   4.406   1.664 -0.8480 -0.4256  1.0863
 3367SOL     OW11541   7.239   2.754   4.474 -0.2547 -0.6907 -0.1287
 3367SOL    HW111542   7.145   2.754   4.454 -0.2523 -1.2569 -0.1548
 3367SOL    HW211543   7.267   2.844   4.457 -0.6900 -0.6424 -0.6288
 3368SOL     OW11544   1.415   4.717   4.412 -0.4721  0.1312 -0.3429
 3368SOL    HW111545   1.451   4.786   4.467 -1.4219  0.2582  0.1431
 3368SOL    HW211546   1.389   4.648   4.474  0.5884 -0.7375 -0.8304
 3369SOL     OW11547   0.653   4.167   3.855  0.2835 -0.3766 -0.0063
 3369SOL    HW111548   0.596   4.199   3.925  1.7753  1.8701  0.2937
 3369SOL    HW211549   0.600   4.173   3.776 -0.0401  1.4117  0.3034
 3370SOL     OW11550   1.366   4.628   5.779 -0.2356  0.1413 -0.1062
 3370SOL    HW111551   1.357   4.658   5.689 -0.2954  0.0404 -0.1336
 3370SOL    HW211552   1.290   4.663   5.825  0.0949  0.6820  0.0370
 3371SOL     OW11553   7.166   5.824   3.490 -0.0739  0.5594 -0.1742
 3371SOL    HW111554   7.106   5.848   3.560  0.8092  0.5850  0.6035
 3371SOL    HW211555   7.132   5.869   3.413 -0.9022  0.7675  0.2985
 3372SOL     OW11556   1.657   3.235   5.642  0.2906 -0.2583 -0.0272
 3372SOL    HW111557   1.570   3.240   5.683 -0.5642  3.3206 -1.8609
 3372SOL    HW211558   1.718   3.257   5.713 -0.9746  3.6596  0.1157
 3373SOL     OW11559   7.495   4.841   1.083  0.1494 -0.3779 -0.2543
 3373SOL    HW111560   7.525   4.873   1.168 -0.0786 -2.4373  0.6650
 3373SOL    HW211561   7.558   4.774   1.059 -0.3254 -0.4842 -1.2496
 3374SOL     OW11562   1.136   4.540   6.980 -0.2368 -0.2937 -0.0640
 3374SOL    HW111563   1.044   4.525   6.958 -1.0612  2.3796  1.0699
 3374SOL    HW211564   1.144   4.507   7.070 -0.5362  0.7865  0.3788
 3375SOL     OW11565   1.356   4.680   6.892 -0.7817  0.2919 -0.1963
 3375SOL    HW111566   1.284   4.648   6.947  0.2559 -1.6267  0.1378
 3375SOL    HW211567   1.434   4.670   6.947 -0.1160  1.4138 -0.9020
 3376SOL     OW11568   0.553   7.510   5.180  0.5809 -0.1122 -0.7038
 3376SOL    HW111569   0.514   7.538   5.097 -1.5689 -0.7403  0.0226
 3376SOL    HW211570   0.565   7.591   5.229  2.2111  0.3059 -1.7237
 3377SOL     OW11571   1.252   5.392   6.401  0.4776  0.4078 -0.2384
 3377SOL    HW111572   1.256   5.451   6.326  3.2432  0.0273 -0.5068
 3377SOL    HW211573   1.212   5.312   6.367 -0.6511  1.0985 -0.5982
 3378SOL     OW11574   0.119   4.236   5.013  0.3584  0.1453 -0.4157
 3378SOL    HW111575   0.214   4.223   5.008  0.3720 -0.5662  1.1264
 3378SOL    HW211576   0.105   4.275   5.099 -0.7772  0.0536 -0.5488
 3379SOL     OW11577   1.561   4.708   2.516 -0.1199  0.1784  0.1185
 3379SOL    HW111578   1.648   4.744   2.535  0.4034 -0.4718 -0.9917
 3379SOL    HW211579   1.511   4.724   2.596  1.3456 -0.4601  1.1938
 3380SOL     OW11580   1.100   3.574   5.612 -0.0554  0.1548 -0.0825
 3380SOL    HW111581   1.122   3.631   5.537  0.4767  2.3428  1.6401
 3380SOL    HW211582   1.005   3.569   5.610 -0.1142  1.0395 -0.3406
 3381SOL     OW11583   1.912   4.288   4.214  0.4230  0.2693  0.8204
 3381SOL    HW111584   1.821   4.316   4.225  0.4466  0.0198  1.7967
 3381SOL    HW211585   1.910   4.224   4.143 -0.6684 -1.8563  2.6317
 3382SOL     OW11586   6.586   3.982   5.056 -0.0730 -0.0113  0.2501
 3382SOL    HW111587   6.542   3.983   4.971  1.0693  2.8442 -0.4054
 3382SOL    HW211588   6.517   3.956   5.117 -1.7437  0.8409 -1.1639
 3383SOL     OW11589   0.439   5.311   2.886 -0.3967 -0.2883  0.2237
 3383SOL    HW111590   0.348   5.312   2.858 -0.7474 -2.4242  1.0448
 3383SOL    HW211591   0.436   5.336   2.979 -0.0713  0.2502  0.0913
 3384SOL     OW11592   0.102   4.817   5.704 -0.0537  0.3218 -0.9055
 3384SOL    HW111593   0.193   4.785   5.703 -0.0990  0.1960 -1.2587
 3384SOL    HW211594   0.049   4.739   5.690 -0.3588  0.0071  1.5258
 3385SOL     OW11595   0.227   5.508   4.709 -0.2701  0.2937 -0.0584
 3385SOL    HW111596   0.220   5.593   4.752  3.3513  0.4361  0.5651
 3385SOL    HW211597   0.192   5.446   4.774  0.2480  0.9932  0.9172
 3386SOL     OW11598   0.764   5.026   5.380  0.2954 -0.6653  0.0313
 3386SOL    HW111599   0.801   5.025   5.468 -2.0890 -0.9468  1.1066
 3386SOL    HW211600   0.762   4.934   5.354  0.3124 -0.6540 -0.0097
 3387SOL     OW11601   2.078   5.350   3.211 -0.1703  0.4882  0.1924
 3387SOL    HW111602   2.117   5.332   3.297 -2.0367  0.7694  1.1422
 3387SOL    HW211603   2.053   5.442   3.215 -0.1094  0.5525 -0.7281
 3388SOL     OW11604   1.683   4.428   4.614 -0.2216  0.0183 -0.4805
 3388SOL    HW111605   1.620   4.403   4.681 -0.8548 -0.9372 -1.3995
 3388SOL    HW211606   1.737   4.496   4.656 -0.9518 -0.1458  0.7859
 3389SOL     OW11607   1.248   4.563   3.021  0.4095  0.1382  0.0489
 3389SOL    HW111608   1.299   4.546   3.100 -2.1306  0.2890  1.8541
 3389SOL    HW211609   1.256   4.483   2.969 -0.2917 -1.2388  1.9388
 3390SOL     OW11610   0.300   3.464   4.396  0.1992 -0.0461 -0.1851
 3390SOL    HW111611   0.292   3.478   4.490 -3.6431 -0.5242 -0.2759
 3390SOL    HW211612   0.279   3.549   4.357  1.4411  0.0658 -0.6528
 3391SOL     OW11613   7.814   4.656   3.817  0.0666  0.0764 -0.2817
 3391SOL    HW111614   7.848   4.735   3.777  0.0842 -0.2849 -1.0083
 3391SOL    HW211615   7.821   4.671   3.911 -1.1231  1.4555 -0.3803
 3392SOL     OW11616   1.613   5.267   4.680 -0.0302 -0.1284  0.1299
 3392SOL    HW111617   1.702   5.290   4.654  0.2074 -2.4014 -1.4009
 3392SOL    HW211618   1.620   5.242   4.772  0.9177 -0.2195  0.0423
 3393SOL     OW11619   1.323   2.744   6.219 -0.3295  0.1247 -0.1742
 3393SOL    HW111620   1.360   2.820   6.265 -0.6257  1.4171 -1.9772
 3393SOL    HW211621   1.249   2.779   6.171 -0.2541 -1.2398 -1.3384
 3394SOL     OW11622   7.985   5.963   3.429  0.1511 -0.3985 -0.1748
 3394SOL    HW111623   8.067   5.914   3.427 -0.6874 -1.9902 -3.1528
 3394SOL    HW211624   8.007   6.049   3.394  0.6779 -0.5543 -0.2361
 3395SOL     OW11625   2.025   4.371   3.512  0.3552  0.1842 -0.1373
 3395SOL    HW111626   2.106   4.398   3.555  0.8378 -1.3440  0.0042
 3395SOL    HW211627   2.052   4.298   3.455 -0.6460  0.7407 -1.3750
 3396SOL     OW11628   0.288   5.110   4.882  0.6164 -0.4472  0.4471
 3396SOL    HW111629   0.328   5.142   4.801  0.1005  1.1754  0.7938
 3396SOL    HW211630   0.362   5.091   4.940  1.0244 -2.4091 -0.6355
 3397SOL     OW11631   1.784   4.607   3.811 -0.2868 -0.3647  0.5951
 3397SOL    HW111632   1.820   4.527   3.849  0.3185 -0.4846 -0.2066
 3397SOL    HW211633   1.848   4.633   3.744 -1.4004 -0.2691 -0.4638
 3398SOL     OW11634   0.088   3.925   4.309  0.2747 -0.2839  0.4285
 3398SOL    HW111635   0.161   3.864   4.316 -0.9864 -1.7602  1.4627
 3398SOL    HW211636   0.011   3.871   4.327 -1.2330  0.8855 -1.9951
 3399SOL     OW11637   1.895   5.282   3.829  0.4147  0.0209  0.0033
 3399SOL    HW111638   1.835   5.346   3.868 -0.2429 -0.2936 -0.4781
 3399SOL    HW211639   1.919   5.319   3.744 -1.9760 -1.4812 -1.4353
 3400SOL     OW11640   7.764   5.242   4.924  0.1655  0.1367 -0.1604
 3400SOL    HW111641   7.738   5.159   4.884 -0.0101  0.3510 -0.5004
 3400SOL    HW211642   7.685   5.271   4.971  0.3725 -0.1160  0.3543
 3401SOL     OW11643   2.617   3.938   5.371 -0.2880  0.0217 -0.0864
 3401SOL    HW111644   2.644   3.960   5.461  1.5586 -1.6495 -0.1781
 3401SOL    HW211645   2.611   3.843   5.370  1.4931 -0.1428 -2.1574
 3402SOL     OW11646   7.888   5.670   4.546 -0.0182 -0.3039  0.3160
 3402SOL    HW111647   7.819   5.698   4.607 -2.3451 -0.8457 -1.9222
 3402SOL    HW211648   7.943   5.748   4.535 -0.7350  0.4071  1.5083
 3403SOL     OW11649   0.823   6.168   3.543 -0.5064 -0.5548 -0.4087
 3403SOL    HW111650   0.872   6.246   3.516 -0.1872 -0.9126 -0.8767
 3403SOL    HW211651   0.821   6.173   3.639 -0.2374 -0.1238 -0.4210
 3404SOL     OW11652   1.240   3.552   4.075 -0.2777  0.0216 -0.7815
 3404SOL    HW111653   1.326   3.593   4.065 -1.0406  2.0881  0.3973
 3404SOL    HW211654   1.185   3.622   4.111 -2.4086 -1.2990 -1.3178
 3405SOL     OW11655   7.585   3.949   4.139  0.0946  0.0793 -0.1162
 3405SOL    HW111656   7.572   4.043   4.121  2.7733  0.6962  0.7247
 3405SOL    HW211657   7.663   3.925   4.089  0.9345 -1.0247  1.6102
 3406SOL     OW11658   1.297   4.265   3.300  0.1647 -0.2659  0.4271
 3406SOL    HW111659   1.207   4.237   3.284  0.0770 -2.2536  3.5825
 3406SOL    HW211660   1.295   4.304   3.387  1.8768  2.6442 -0.6851
 3407SOL     OW11661   0.214   5.603   4.436 -0.2830 -0.3403 -0.0399
 3407SOL    HW111662   0.292   5.658   4.425 -0.0824 -0.6767 -0.3333
 3407SOL    HW211663   0.210   5.584   4.529 -1.3979  1.6951  0.3776
 3408SOL     OW11664   2.357   3.509   4.491 -0.1747 -0.0533  0.1482
 3408SOL    HW111665   2.441   3.512   4.444 -0.5052 -0.6713 -0.4965
 3408SOL    HW211666   2.310   3.435   4.452 -0.4242 -0.6564  1.5389
 3409SOL     OW11667   7.164   6.587   4.804 -0.4832 -0.7457  0.3190
 3409SOL    HW111668   7.143   6.527   4.733 -0.0044  1.7357 -2.1027
 3409SOL    HW211669   7.259   6.595   4.801 -0.4365 -0.6851  1.3802
 3410SOL     OW11670   1.398   6.125   3.729 -0.1528 -0.1034  0.2043
 3410SOL    HW111671   1.493   6.131   3.729 -0.1845  0.6132  1.4099
 3410SOL    HW211672   1.379   6.039   3.768 -0.0168  0.5506  1.7550
 3411SOL     OW11673   0.910   5.962   3.876  0.0061  0.0563 -0.0215
 3411SOL    HW111674   0.852   5.998   3.944  0.8258 -0.8385  1.1865
 3411SOL    HW211675   0.984   6.022   3.875  0.3693 -0.3845  0.4505
 3412SOL     OW11676   2.582   3.935   3.547  0.0954 -0.3446  0.2373
 3412SOL    HW111677   2.553   3.853   3.586  0.8034 -0.5902  0.2528
 3412SOL    HW211678   2.664   3.956   3.592  0.0590  0.2319  0.0470
 3413SOL     OW11679   0.851   4.458   4.968 -0.1263  0.1691 -0.0945
 3413SOL    HW111680   0.868   4.420   5.054  0.6690  0.1098 -0.2702
 3413SOL    HW211681   0.842   4.382   4.910 -1.7263  0.1639  0.0984
 3414SOL     OW11682   1.480   2.656   5.486 -0.1008 -0.3232 -0.1913
 3414SOL    HW111683   1.493   2.737   5.536  1.4496 -1.1435  0.8024
 3414SOL    HW211684   1.516   2.676   5.399  1.7064 -0.3921  0.5079
 3415SOL     OW11685   7.578   5.975   4.367  0.2184  0.3671  0.5002
 3415SOL    HW111686   7.603   5.918   4.294 -0.1186  0.9779 -0.1067
 3415SOL    HW211687   7.631   6.054   4.355 -0.2189  0.6842  0.5989
 3416SOL     OW11688   0.040   5.354   4.904  0.3476 -0.5023 -0.0992
 3416SOL    HW111689  -0.012   5.393   4.833  0.7418 -1.9233 -1.2122
 3416SOL    HW211690  -0.003   5.270   4.921  1.6817 -1.2612 -0.3588
 3417SOL     OW11691   2.103   3.141   7.329 -0.1528 -0.3987 -0.3529
 3417SOL    HW111692   2.136   3.144   7.239  1.8633  2.6739  0.3223
 3417SOL    HW211693   2.076   3.231   7.347 -2.1478 -1.3010  1.6194
 3418SOL     OW11694   0.194   3.372   7.059  0.4469 -0.0095  0.1988
 3418SOL    HW111695   0.117   3.322   7.034  0.1678 -0.1966  1.4046
 3418SOL    HW211696   0.164   3.430   7.129  1.2438  0.4086  0.2141
 3419SOL     OW11697   6.879   2.542   6.802 -0.1610  0.1554 -0.4987
 3419SOL    HW111698   6.801   2.488   6.810  0.9813 -1.3959  0.9049
 3419SOL    HW211699   6.926   2.528   6.884  1.1518  1.7663 -0.9257
 3420SOL     OW11700   0.759   2.650   6.853 -0.2166  0.0015 -0.2245
 3420SOL    HW111701   0.731   2.726   6.801  0.4704 -0.4467 -1.2945
 3420SOL    HW211702   0.690   2.585   6.840 -0.6792  0.3424  0.4851
 3421SOL     OW11703   2.093   4.347   5.085  0.3314 -0.1925  0.1241
 3421SOL    HW111704   2.104   4.440   5.064  0.6680 -0.6588 -1.9196
 3421SOL    HW211705   2.176   4.307   5.059  0.3182 -1.0361  1.3069
 3422SOL     OW11706   0.038   4.941   4.294  0.1448 -0.4207  0.1757
 3422SOL    HW111707   0.111   4.945   4.356 -1.3554  1.1630  1.9960
 3422SOL    HW211708  -0.000   4.854   4.309 -0.2361 -0.0434  1.5956
 3423SOL     OW11709   7.466   2.227   5.935  0.1610 -0.6686  0.7878
 3423SOL    HW111710   7.443   2.165   5.866 -0.5294 -1.3683  1.6132
 3423SOL    HW211711   7.387   2.278   5.949  0.7263  0.4150  0.1240
 3424SOL     OW11712   0.161   5.525   3.917  0.4586 -0.0137 -0.4977
 3424SOL    HW111713   0.121   5.604   3.881 -2.3533 -1.1216 -0.0463
 3424SOL    HW211714   0.179   5.547   4.009 -1.4194 -0.1943 -0.0441
 3425SOL     OW11715   0.709   5.467   6.760  0.0920  0.0909  0.6688
 3425SOL    HW111716   0.730   5.373   6.763  0.8009  0.1869 -0.5111
 3425SOL    HW211717   0.794   5.511   6.758 -0.2364  0.7549  1.1057
 3426SOL     OW11718   1.513   5.741   5.623 -0.4094  0.6551  0.4310
 3426SOL    HW111719   1.554   5.655   5.626 -1.8967 -0.1305 -0.6561
 3426SOL    HW211720   1.431   5.730   5.670 -0.9732  1.2634 -0.3908
 3427SOL     OW11721   0.854   3.838   5.346 -0.1843 -0.2362  0.5896
 3427SOL    HW111722   0.818   3.881   5.424 -0.3479  0.8068 -0.0424
 3427SOL    HW211723   0.947   3.860   5.348  0.0603 -1.2330  1.1256
 3428SOL     OW11724   3.007   3.924   5.780 -0.2522 -0.1292  0.7308
 3428SOL    HW111725   2.956   3.862   5.832  1.2164 -0.0181  2.4216
 3428SOL    HW211726   2.978   4.010   5.809  2.0481 -0.0220  3.1459
 3429SOL     OW11727   1.869   3.236   6.115  0.1556 -0.2456  0.4301
 3429SOL    HW111728   1.895   3.159   6.166  1.0507 -0.4799 -0.3582
 3429SOL    HW211729   1.896   3.311   6.168 -0.9223 -0.4421  1.3081
 3430SOL     OW11730   1.635   7.791   6.090 -0.0274 -0.5937  0.3920
 3430SOL    HW111731   1.669   7.784   6.179 -0.7597 -0.0192  0.7291
 3430SOL    HW211732   1.647   7.882   6.066 -1.0845 -0.4325  0.4318
 3431SOL     OW11733   0.866   4.994   4.666  0.5052  0.1691  0.4611
 3431SOL    HW111734   0.896   4.913   4.708  1.2358  0.6575  0.9026
 3431SOL    HW211735   0.938   5.056   4.679 -0.1924  1.0018  0.4345
 3432SOL     OW11736   0.594   6.261   5.816  0.2511 -0.3397 -0.0519
 3432SOL    HW111737   0.648   6.256   5.738  1.3171 -2.0658  0.7466
 3432SOL    HW211738   0.583   6.170   5.844 -2.3288  0.0284  0.3412
 3433SOL     OW11739   0.532   4.620   4.013  0.3309 -0.1999  0.0308
 3433SOL    HW111740   0.496   4.557   3.950  1.4065  1.0395 -1.9276
 3433SOL    HW211741   0.574   4.566   4.080 -1.6097 -1.5802  0.2117
 3434SOL     OW11742   1.372   3.474   4.512  0.0634 -0.4164  0.0897
 3434SOL    HW111743   1.286   3.497   4.478  0.5641 -0.2948 -1.1375
 3434SOL    HW211744   1.434   3.520   4.456  0.9327  0.1283  1.4411
 3435SOL     OW11745   0.055   6.152   5.216  0.6171  0.3790  0.0817
 3435SOL    HW111746  -0.010   6.099   5.261  1.0285  0.0527  0.2996
 3435SOL    HW211747   0.111   6.186   5.286  0.6843  0.6586 -0.1031
 3436SOL     OW11748   1.670   3.596   5.339 -0.2140  0.3528 -0.1626
 3436SOL    HW111749   1.743   3.540   5.364  0.7873  2.1528  1.2149
 3436SOL    HW211750   1.707   3.658   5.277 -1.2165 -0.2003 -1.3723
 3437SOL     OW11751   6.909   4.855   6.031 -0.1213  0.0313  0.6480
 3437SOL    HW111752   6.888   4.890   5.945 -0.5330  0.0085  0.7368
 3437SOL    HW211753   6.983   4.908   6.062 -1.2985  1.4256  1.1594
 3438SOL     OW11754   7.918   3.255   6.490 -0.1555  0.4170  0.6140
 3438SOL    HW111755   7.884   3.231   6.404  3.1973  0.4907 -0.8926
 3438SOL    HW211756   7.869   3.333   6.515 -1.7514 -0.0721 -0.8173
 3439SOL     OW11757   3.266   3.882   4.381  0.0419  0.1152 -0.1962
 3439SOL    HW111758   3.243   3.803   4.429  0.8809 -1.1562 -1.7738
 3439SOL    HW211759   3.348   3.912   4.419  0.3662 -0.5074 -0.3955
 3440SOL     OW11760   7.614   7.740   4.642 -0.5181  0.3534  0.0573
 3440SOL    HW111761   7.614   7.770   4.733 -1.4864  0.1380  0.1482
 3440SOL    HW211762   7.635   7.646   4.647 -1.5149  0.1177  0.1708
 3441SOL     OW11763   5.840   5.732   3.478 -0.0449 -0.4490  0.0803
 3441SOL    HW111764   5.893   5.722   3.557 -0.4862 -0.8015  0.3368
 3441SOL    HW211765   5.883   5.676   3.413  0.5026  0.0854 -0.0363
 3442SOL     OW11766   0.742   4.645   5.800  0.3056  0.2148  0.2529
 3442SOL    HW111767   0.676   4.577   5.816  0.1079  0.4740  0.5389
 3442SOL    HW211768   0.733   4.666   5.707  1.8644 -1.7386 -0.4104
 3443SOL     OW11769   0.577   3.093   5.890  0.1088 -0.1396 -0.0466
 3443SOL    HW111770   0.663   3.077   5.928 -0.0655 -1.7043 -0.2264
 3443SOL    HW211771   0.517   3.042   5.946 -0.5704  0.1792 -0.4736
 3444SOL     OW11772   6.642   2.378   6.747 -0.3041 -0.3186  0.2179
 3444SOL    HW111773   6.714   2.340   6.697  0.7967  0.5898  1.0614
 3444SOL    HW211774   6.593   2.302   6.780 -0.1018 -0.9365 -0.8658
 3445SOL     OW11775   7.587   4.205   5.467  0.2303  0.5683  0.2133
 3445SOL    HW111776   7.530   4.188   5.542  0.7881  0.7227  0.6783
 3445SOL    HW211777   7.587   4.300   5.458 -0.7887  0.5029 -0.7457
 3446SOL     OW11778   0.363   4.539   4.772  0.0131 -0.0982 -0.2074
 3446SOL    HW111779   0.314   4.599   4.828  0.2791 -0.4030  0.3624
 3446SOL    HW211780   0.298   4.477   4.741 -0.3639  0.7875 -1.2277
 3447SOL     OW11781   0.091   4.799   3.538  0.3425  0.0775 -0.1889
 3447SOL    HW111782   0.099   4.782   3.444  1.0455  1.3589 -0.3838
 3447SOL    HW211783   0.161   4.862   3.557  1.0666 -1.1402  1.4645
 3448SOL     OW11784   2.215   3.108   5.663 -0.8391 -0.7791 -0.0674
 3448SOL    HW111785   2.305   3.079   5.677  0.1223  1.9842  0.2128
 3448SOL    HW211786   2.196   3.083   5.573  2.3208  3.0805 -2.1613
 3449SOL     OW11787   7.628   4.800   4.907 -0.0462  0.0887  0.0950
 3449SOL    HW111788   7.642   4.716   4.862  0.2771 -1.1862  2.4184
 3449SOL    HW211789   7.709   4.815   4.956 -1.0045  0.4820  1.6421
 3450SOL     OW11790   7.397   5.331   4.923 -0.4427 -0.5213 -0.1116
 3450SOL    HW111791   7.346   5.267   4.873 -0.6875  0.5818 -1.3349
 3450SOL    HW211792   7.431   5.282   4.998 -1.8810 -1.6977 -0.1879
 3451SOL     OW11793   1.894   4.268   7.061 -0.0097 -0.1690  0.4775
 3451SOL    HW111794   1.852   4.217   7.130 -0.6707  1.2579  1.1654
 3451SOL    HW211795   1.829   4.334   7.037 -0.2481 -1.3184 -2.3528
 3452SOL     OW11796   7.670   2.666   2.563 -0.0848  0.1208  0.5617
 3452SOL    HW111797   7.717   2.638   2.485 -0.2592 -0.7381  0.7493
 3452SOL    HW211798   7.585   2.623   2.557 -0.0183 -0.1382  1.3305
 3453SOL     OW11799   0.796   4.706   4.850 -0.1498 -0.0805  0.0097
 3453SOL    HW111800   0.872   4.717   4.794  1.0332  1.2405  1.7553
 3453SOL    HW211801   0.820   4.634   4.910  1.0048  2.1170  2.3746
 3454SOL     OW11802   0.970   4.943   5.581 -0.0227 -0.2482  0.3493
 3454SOL    HW111803   1.020   4.913   5.656 -0.1447 -2.4668 -0.3647
 3454SOL    HW211804   1.028   5.003   5.534  0.1383  0.9629  2.0172
 3455SOL     OW11805   2.814   5.500   2.748  0.2183 -0.1168 -0.2785
 3455SOL    HW111806   2.720   5.490   2.760  0.3846 -0.6234  0.6690
 3455SOL    HW211807   2.846   5.412   2.730  0.8165 -0.3577  1.7560
 3456SOL     OW11808   7.676   6.888   5.578  0.5087 -0.2457 -0.5702
 3456SOL    HW111809   7.742   6.943   5.534  0.2508  0.0599 -0.5776
 3456SOL    HW211810   7.603   6.885   5.516 -0.0371  0.5543  0.0100
 3457SOL     OW11811   0.760   6.271   3.869  0.0215  0.4044  0.4859
 3457SOL    HW111812   0.767   6.270   3.964  0.3372  1.1579  0.4813
 3457SOL    HW211813   0.668   6.251   3.851  0.0901 -0.3349  0.9210
 3458SOL     OW11814   0.210   5.954   4.777 -0.0683 -0.3275 -0.0365
 3458SOL    HW111815   0.147   5.900   4.825 -1.8260  0.3170 -1.5071
 3458SOL    HW211816   0.169   6.040   4.773  0.1178 -0.3018 -2.4361
 3459SOL     OW11817   0.560   4.844   6.450 -0.0427 -0.4017  0.1830
 3459SOL    HW111818   0.627   4.843   6.382  1.1964 -1.8247  1.3642
 3459SOL    HW211819   0.562   4.756   6.487 -0.9059  0.2399  1.8583
 3460SOL     OW11820   2.544   4.615   5.743  0.2394 -0.0849 -0.2723
 3460SOL    HW111821   2.510   4.538   5.697 -1.5488  1.2486 -1.3284
 3460SOL    HW211822   2.609   4.580   5.804  1.0060 -2.1984 -2.1583
 3461SOL     OW11823   2.941   6.089   3.492 -0.3181 -0.0191  0.5532
 3461SOL    HW111824   2.994   6.025   3.540  0.5695 -0.3542 -0.8069
 3461SOL    HW211825   2.852   6.055   3.497  0.3101 -2.1326 -1.2552
 3462SOL     OW11826   7.773   0.495   4.642 -0.2928  0.7136  0.3928
 3462SOL    HW111827   7.825   0.449   4.708  0.7680 -0.0439 -0.9031
 3462SOL    HW211828   7.775   0.587   4.669  1.5127  0.6717  0.5615
 3463SOL     OW11829   0.952   5.394   3.493  0.0489 -0.2875 -0.3951
 3463SOL    HW111830   1.022   5.442   3.450 -0.1751 -0.4471 -0.9455
 3463SOL    HW211831   0.974   5.301   3.480 -0.9696 -0.3586 -1.7783
 3464SOL     OW11832   7.112   4.203   6.803  0.1580  0.0407 -0.6506
 3464SOL    HW111833   7.027   4.240   6.782  0.0589  0.6847  0.7654
 3464SOL    HW211834   7.093   4.130   6.862  0.5888  0.5557  0.1553
 3465SOL     OW11835   0.352   6.385   5.054 -0.3374  0.4275 -0.0040
 3465SOL    HW111836   0.383   6.296   5.071  0.4791  0.4097 -1.4438
 3465SOL    HW211837   0.263   6.374   5.021  0.2616  0.0028 -1.5629
 3466SOL     OW11838   6.465   3.144   5.523 -0.2403  0.0783  0.1338
 3466SOL    HW111839   6.396   3.117   5.583 -0.2567 -0.1762  0.0048
 3466SOL    HW211840   6.479   3.236   5.541 -1.0738  0.2961 -0.2913
 3467SOL     OW11841   2.952   1.656   4.230 -0.5213 -0.1063  0.0439
 3467SOL    HW111842   2.896   1.636   4.155  0.4276  0.6918 -0.9131
 3467SOL    HW211843   3.023   1.592   4.225  0.4182  0.9522 -0.7288
 3468SOL     OW11844   1.178   3.856   5.596  0.0979 -0.3431  0.1678
 3468SOL    HW111845   1.221   3.845   5.681  0.2702 -1.3519 -0.0330
 3468SOL    HW211846   1.244   3.827   5.532 -0.4242 -0.6864 -0.2263
 3469SOL     OW11847   1.292   6.068   5.141  0.0152  0.0992  0.1483
 3469SOL    HW111848   1.329   6.143   5.187 -0.6431  1.5604 -1.6193
 3469SOL    HW211849   1.244   6.106   5.068  0.6295 -2.1111 -1.4938
 3470SOL     OW11850   7.628   4.208   4.350 -0.3517 -0.3045  0.1325
 3470SOL    HW111851   7.554   4.267   4.360 -1.0307 -1.1675  0.3495
 3470SOL    HW211852   7.641   4.201   4.255 -1.4228 -1.1768  0.0227
 3471SOL     OW11853   7.464   5.222   5.783 -0.3615  0.5927 -0.0048
 3471SOL    HW111854   7.481   5.310   5.749  0.9583  0.2530 -0.2644
 3471SOL    HW211855   7.371   5.207   5.765  0.0089  0.8575 -2.4770
 3472SOL     OW11856   1.307   4.714   1.983 -0.5042  0.3674 -0.0962
 3472SOL    HW111857   1.237   4.651   1.997  0.1434 -0.2728  0.3778
 3472SOL    HW211858   1.348   4.725   2.069  2.4580 -2.3091 -0.9620
 3473SOL     OW11859   6.367   7.059   4.444  0.3650 -0.1940  0.0320
 3473SOL    HW111860   6.278   7.091   4.427  0.2884 -0.2497  0.3217
 3473SOL    HW211861   6.410   7.062   4.358  0.2660  0.3949 -0.0014
 3474SOL     OW11862   1.559   4.133   4.316  0.2028  0.7457  0.1163
 3474SOL    HW111863   1.558   4.210   4.260  0.7740  0.9277  0.3471
 3474SOL    HW211864   1.647   4.133   4.355  0.1022  0.1522  0.3520
 3475SOL     OW11865   1.121   3.840   4.749  0.0188 -0.0649  0.3784
 3475SOL    HW111866   1.052   3.866   4.811  0.6156 -0.7808  1.3650
 3475SOL    HW211867   1.098   3.886   4.668 -1.5862 -0.2294  0.7017
 3476SOL     OW11868   1.391   2.489   5.182  0.9992  0.4361 -0.3273
 3476SOL    HW111869   1.476   2.457   5.211 -0.5569 -1.5016  2.6108
 3476SOL    HW211870   1.339   2.409   5.169 -1.3300  1.5834  1.3245
 3477SOL     OW11871   0.765   5.099   3.625  0.3524 -0.0872  0.0101
 3477SOL    HW111872   0.740   5.189   3.646  0.6517 -0.2803  1.2837
 3477SOL    HW211873   0.812   5.106   3.542 -0.8000  0.7346 -0.6070
 3478SOL     OW11874   3.135   3.601   6.011  0.4267 -0.4772  0.0910
 3478SOL    HW111875   3.218   3.645   6.028 -0.3948  1.1940 -0.0077
 3478SOL    HW211876   3.158   3.523   5.962  1.8653  0.4373 -0.7403
 3479SOL     OW11877   7.202   4.815   5.417  0.0130  0.3648 -0.1655
 3479SOL    HW111878   7.281   4.793   5.368  1.4158  2.4094  1.0360
 3479SOL    HW211879   7.207   4.761   5.496  1.1209  1.6634  0.6866
 3480SOL     OW11880   5.094   3.123   5.227 -0.3746  0.3131  0.0949
 3480SOL    HW111881   5.069   3.176   5.303  1.5901  2.1878 -0.4542
 3480SOL    HW211882   5.047   3.040   5.238 -0.9009  0.8923  2.8232
 3481SOL     OW11883   6.710   4.302   4.582  0.4135  0.2974  0.2091
 3481SOL    HW111884   6.737   4.247   4.655 -2.4229  0.0128  1.1565
 3481SOL    HW211885   6.720   4.246   4.505  0.7709 -0.3654  0.7259
 3482SOL     OW11886   2.622   4.931   4.935  0.6423 -0.3140  0.1087
 3482SOL    HW111887   2.542   4.956   4.981  0.3670 -0.9812  0.0016
 3482SOL    HW211888   2.595   4.919   4.844  1.3840  2.0459 -0.4968
 3483SOL     OW11889   0.131   3.464   4.966  0.0107  0.3333 -0.7148
 3483SOL    HW111890   0.193   3.441   4.897  0.4525  0.7792 -0.4669
 3483SOL    HW211891   0.059   3.508   4.920 -1.4131 -2.4194 -1.3894
 3484SOL     OW11892   0.459   4.452   5.783 -0.3386  0.3448 -0.3596
 3484SOL    HW111893   0.391   4.392   5.816 -0.3069  0.1536 -0.6380
 3484SOL    HW211894   0.538   4.426   5.829 -0.2391 -0.0896 -0.7692
 3485SOL     OW11895   2.352   5.133   6.321 -0.2021 -0.0811  0.0994
 3485SOL    HW111896   2.422   5.197   6.311 -0.8817  0.7034  0.2929
 3485SOL    HW211897   2.391   5.051   6.291  0.6458  0.4360 -0.2627
 3486SOL     OW11898   7.759   5.844   3.301  0.4565  0.1322  0.0506
 3486SOL    HW111899   7.830   5.908   3.310  0.1906  0.5701 -0.8095
 3486SOL    HW211900   7.733   5.824   3.391 -0.6030  2.5620  0.3647
 3487SOL     OW11901   0.283   3.144   5.866  0.3586  0.7294  0.2593
 3487SOL    HW111902   0.368   3.176   5.897  0.5652  0.3534  0.0871
 3487SOL    HW211903   0.267   3.065   5.917  0.0727  0.8451  0.3492
 3488SOL     OW11904   2.018   3.623   6.088  0.6779  0.5517 -0.1468
 3488SOL    HW111905   1.969   3.629   6.006 -0.5521 -2.1265  0.2674
 3488SOL    HW211906   2.043   3.713   6.108 -2.7348  1.9287 -1.2349
 3489SOL     OW11907   0.354   3.791   5.818 -0.1856 -0.6011  0.3602
 3489SOL    HW111908   0.413   3.719   5.797  0.2041 -0.2897  0.3624
 3489SOL    HW211909   0.410   3.857   5.860 -0.4102 -0.0470 -0.1871
 3490SOL     OW11910   2.305   5.363   6.617 -0.1912 -0.7749  0.1077
 3490SOL    HW111911   2.364   5.296   6.653 -0.1627 -0.7608  0.0874
 3490SOL    HW211912   2.362   5.417   6.562 -0.5166 -1.6741 -1.1454
 3491SOL     OW11913   0.537   3.355   3.440 -0.4172 -0.0641  0.0770
 3491SOL    HW111914   0.561   3.448   3.438 -1.4737  0.3677  2.6440
 3491SOL    HW211915   0.603   3.315   3.497 -1.1942 -0.4050  0.7618
 3492SOL     OW11916   7.919   4.124   4.208  0.1991  0.5901 -0.6350
 3492SOL    HW111917   7.898   4.175   4.287 -0.1620  0.4709 -0.6493
 3492SOL    HW211918   8.000   4.078   4.230 -0.0437  0.3462 -0.2305
 3493SOL     OW11919   1.887   4.526   5.706 -0.1095  0.3190 -0.4599
 3493SOL    HW111920   1.934   4.567   5.779 -0.1284 -2.1550  1.0695
 3493SOL    HW211921   1.954   4.517   5.637 -0.2123  3.1318 -1.0723
 3494SOL     OW11922   1.858   5.601   5.536  0.1453 -0.2475 -0.1898
 3494SOL    HW111923   1.842   5.637   5.449  0.9274  2.1915  0.6070
 3494SOL    HW211924   1.862   5.506   5.522  0.3319  0.0760 -2.8184
 3495SOL     OW11925   1.795   6.522   1.797 -0.3295 -0.5913  0.3261
 3495SOL    HW111926   1.804   6.582   1.722  1.0844  0.0965  1.0021
 3495SOL    HW211927   1.763   6.441   1.759  0.8519 -0.4209 -1.1424
 3496SOL     OW11928   6.979   5.416   5.608  0.4574 -0.1296  0.0836
 3496SOL    HW111929   6.946   5.326   5.612  1.7955 -0.6993 -0.9758
 3496SOL    HW211930   7.071   5.409   5.633  0.7775  0.8152 -0.7724
 3497SOL     OW11931   1.171   4.790   4.213 -0.3446  0.0146  0.0383
 3497SOL    HW111932   1.247   4.776   4.270  0.8591  0.2868 -1.4421
 3497SOL    HW211933   1.129   4.868   4.249  1.1133  0.9316 -0.1332
 3498SOL     OW11934   2.316   6.729   6.703 -0.0071 -0.8733 -0.5714
 3498SOL    HW111935   2.297   6.684   6.785 -1.7708  2.7463  1.2358
 3498SOL    HW211936   2.412   6.737   6.702  0.1567 -2.3057  0.2808
 3499SOL     OW11937   1.017   4.700   4.668  0.0415  0.4927  0.3036
 3499SOL    HW111938   1.028   4.610   4.638  0.7460  0.5075  0.5071
 3499SOL    HW211939   1.090   4.747   4.628  0.5121  0.6837  1.3774
 3500SOL     OW11940   0.314   5.421   5.950  0.2427  0.2107  0.3802
 3500SOL    HW111941   0.308   5.493   5.888 -0.4674  0.0726  0.2774
 3500SOL    HW211942   0.250   5.357   5.919  0.8702 -0.4767  0.4618
 3501SOL     OW11943   0.087   6.566   4.867 -0.1689 -0.2343  0.8886
 3501SOL    HW111944   0.135   6.507   4.809 -2.0521  0.8939 -2.0555
 3501SOL    HW211945   0.036   6.509   4.923  0.1754 -1.4092  0.0367
 3502SOL     OW11946   0.051   4.807   5.231  0.1661 -0.5422 -0.0239
 3502SOL    HW111947   0.119   4.843   5.288  0.1369 -0.6928  0.1040
 3502SOL    HW211948   0.096   4.740   5.180  0.8205  1.1980 -1.9273
 3503SOL     OW11949   2.761   4.598   4.507  0.3908 -0.7425 -0.3637
 3503SOL    HW111950   2.685   4.590   4.449 -0.7720  1.4580  0.7337
 3503SOL    HW211951   2.785   4.507   4.527 -1.3390 -1.5139 -1.5130
 3504SOL     OW11952   1.222   4.160   3.003  0.1009  0.3597  0.3363
 3504SOL    HW111953   1.146   4.217   3.015 -0.9759 -0.6204 -1.3104
 3504SOL    HW211954   1.273   4.203   2.935  0.5107  0.5247  0.7484
 3505SOL     OW11955   1.245   5.304   3.342  0.2999  0.5666  0.3960
 3505SOL    HW111956   1.322   5.250   3.359 -0.6409 -0.8490  0.4364
 3505SOL    HW211957   1.235   5.357   3.420 -0.1759 -1.0775  1.5180
 3506SOL     OW11958   7.050   4.141   6.270  0.2252  0.3358 -0.3469
 3506SOL    HW111959   7.065   4.111   6.360  4.3691  0.0574 -0.9510
 3506SOL    HW211960   7.089   4.228   6.266 -1.6971  1.2202 -1.4717
 3507SOL     OW11961   1.245   6.193   4.050  0.0843 -0.5718  0.0327
 3507SOL    HW111962   1.302   6.131   4.095 -0.3708 -0.7376  0.3914
 3507SOL    HW211963   1.230   6.263   4.114  0.6232 -0.0663 -0.3799
 3508SOL     OW11964   0.161   4.713   4.881 -0.1409  0.1853 -0.4087
 3508SOL    HW111965   0.091   4.678   4.826 -1.3468 -1.4043  1.9262
 3508SOL    HW211966   0.142   4.806   4.888 -1.6355 -0.0849 -0.4424
 3509SOL     OW11967   7.372   3.485   4.637  0.3169 -0.3907 -0.6463
 3509SOL    HW111968   7.299   3.521   4.588 -0.4208  1.0480  1.3378
 3509SOL    HW211969   7.369   3.531   4.721  2.9791 -0.9104 -0.1602
 3510SOL     OW11970   7.492   4.951   4.720  0.6066  0.3439  0.1607
 3510SOL    HW111971   7.536   4.906   4.791  2.5398 -1.8790 -2.2439
 3510SOL    HW211972   7.450   4.882   4.669  0.5657  1.6458 -1.6881
 3511SOL     OW11973   1.522   4.076   5.669 -0.8336 -0.1768  0.4668
 3511SOL    HW111974   1.554   4.019   5.599 -1.4600  0.6951 -0.5526
 3511SOL    HW211975   1.470   4.018   5.725 -1.9109 -0.5342 -0.8425
 3512SOL     OW11976   0.159   3.440   5.643  0.3652  0.2143  0.5879
 3512SOL    HW111977   0.186   3.455   5.552  0.5253 -2.4896  0.0953
 3512SOL    HW211978   0.090   3.374   5.636  2.1595 -2.0125  2.5301
 3513SOL     OW11979   1.531   4.283   4.008  0.3635  0.8725  0.5443
 3513SOL    HW111980   1.567   4.322   3.929  0.5376 -0.8555 -0.2755
 3513SOL    HW211981   1.602   4.229   4.043 -0.7093 -0.9843  0.0141
 3514SOL     OW11982   1.660   3.107   6.375 -0.2202  0.0729 -0.6231
 3514SOL    HW111983   1.743   3.069   6.344  0.8535  1.2090  0.7218
 3514SOL    HW211984   1.651   3.188   6.325  0.9524  1.3513  1.1190
 3515SOL     OW11985   1.411   3.993   4.520  0.2630  0.4672 -0.2191
 3515SOL    HW111986   1.466   4.037   4.456  1.7220 -1.6271 -0.5017
 3515SOL    HW211987   1.364   3.926   4.469 -0.1350  0.1356  0.5631
 3516SOL     OW11988   0.172   5.135   5.457 -0.0878  0.5229 -0.5512
 3516SOL    HW111989   0.262   5.163   5.438  0.2611 -0.0140  0.2398
 3516SOL    HW211990   0.118   5.182   5.394  0.9985 -1.1793 -2.9045
 3517SOL     OW11991   0.241   3.975   6.125 -1.0407 -0.1740 -0.6084
 3517SOL    HW111992   0.292   3.895   6.115  0.8316  1.1043 -2.0006
 3517SOL    HW211993   0.155   3.954   6.088 -0.6801 -1.5728 -0.7117
 3518SOL     OW11994   6.188   4.589   5.505  0.6191  0.1356  0.1361
 3518SOL    HW111995   6.179   4.499   5.537  1.1981 -0.3593 -1.0416
 3518SOL    HW211996   6.164   4.583   5.413  2.5701  0.8007 -0.4519
 3519SOL     OW11997   1.115   5.847   6.208  0.0810 -0.4850  0.6749
 3519SOL    HW111998   1.030   5.883   6.184  0.5912 -0.0527 -0.5955
 3519SOL    HW211999   1.137   5.890   6.291 -0.3072  0.4849  0.2887
 3520SOL     OW12000   1.536   5.571   7.911 -0.0031 -0.0068 -0.1194
 3520SOL    HW112001   1.476   5.583   7.838  0.1454 -0.9585 -0.4147
 3520SOL    HW212002   1.620   5.606   7.880  0.2505 -1.0992 -0.6992
 3521SOL     OW12003   0.577   4.099   6.638 -0.3477 -0.1247 -0.9090
 3521SOL    HW112004   0.566   4.041   6.714 -0.4154 -0.7135 -1.3625
 3521SOL    HW212005   0.661   4.074   6.601  2.0990  3.3248  1.6527
 3522SOL     OW12006   1.908   4.572   4.740 -0.1988  0.2331 -0.0104
 3522SOL    HW112007   1.996   4.593   4.707  0.1039 -1.6285 -0.5021
 3522SOL    HW212008   1.916   4.582   4.835  0.9689 -1.2159  0.0836
 3523SOL     OW12009   2.038   4.159   8.212  0.0879  0.0477  0.0644
 3523SOL    HW112010   2.039   4.071   8.249  0.0239  0.1624  0.3399
 3523SOL    HW212011   2.084   4.150   8.128 -1.4757 -0.6060 -0.7616
 3524SOL     OW12012   6.878   4.178   7.043  0.0014 -0.3824  0.4207
 3524SOL    HW112013   6.862   4.249   6.982 -0.4927 -0.5282  0.3782
 3524SOL    HW212014   6.942   4.122   6.999  2.5196  1.4008  1.5266
 3525SOL     OW12015   1.753   5.267   6.173 -0.3331 -0.3690  0.5556
 3525SOL    HW112016   1.838   5.241   6.210 -0.3998  0.2107  1.1288
 3525SOL    HW212017   1.772   5.345   6.122 -0.7820  0.7384  2.0278
 3526SOL     OW12018   7.789   4.897   6.431  0.3102  0.1163 -0.5265
 3526SOL    HW112019   7.768   4.909   6.338 -0.8246 -0.8141 -0.4174
 3526SOL    HW212020   7.799   4.802   6.441  0.9349  0.2493  0.2097
 3527SOL     OW12021   1.365   5.101   6.715 -0.1133  0.0558  0.6226
 3527SOL    HW112022   1.414   5.146   6.647 -1.1053 -0.8077 -0.7292
 3527SOL    HW212023   1.277   5.139   6.712 -0.5570 -0.9238  0.4396
 3528SOL     OW12024   0.251   7.692   8.269 -0.0476  0.2422 -0.5185
 3528SOL    HW112025   0.186   7.626   8.245  0.3903 -0.4913  0.2707
 3528SOL    HW212026   0.304   7.704   8.190  0.9817 -1.6627 -0.1748
 3529SOL     OW12027   0.516   4.064   7.376  0.5019 -0.5741  0.5737
 3529SOL    HW112028   0.587   4.007   7.407  0.5724 -0.4614  0.6199
 3529SOL    HW212029   0.436   4.013   7.392  0.3806  0.1168  2.4778
 3530SOL     OW12030   1.528   4.607   7.112  0.3919 -0.5202  0.0367
 3530SOL    HW112031   1.451   4.565   7.149  0.7150  0.4264  1.9170
 3530SOL    HW212032   1.521   4.699   7.139  2.4921 -0.5425  0.8515
 3531SOL     OW12033   0.754   5.233   7.599 -0.1138 -0.0682  0.3873
 3531SOL    HW112034   0.671   5.280   7.588 -1.0143 -1.5577  0.5952
 3531SOL    HW212035   0.750   5.162   7.535  1.4615  0.3969 -0.2911
 3532SOL     OW12036   2.272   5.107   9.409  0.8413 -0.4153 -0.2618
 3532SOL    HW112037   2.365   5.104   9.433  0.8889 -1.4264 -0.5605
 3532SOL    HW212038   2.227   5.116   9.493  1.2638  2.4767 -0.2167
 3533SOL     OW12039   1.412   3.957   6.673  0.2508  0.0285  0.1736
 3533SOL    HW112040   1.437   3.966   6.581 -0.6142 -0.6204 -0.1338
 3533SOL    HW212041   1.390   3.865   6.684 -0.5651  0.2756  0.7818
 3534SOL     OW12042   1.892   3.776   5.577  0.1573 -0.1298  0.5892
 3534SOL    HW112043   1.917   3.700   5.524 -0.2865  0.3879 -0.3815
 3534SOL    HW212044   1.947   3.847   5.545  0.8359 -0.0967  1.7475
 3535SOL     OW12045   7.904   6.163   7.953  0.3129  0.3431 -0.0520
 3535SOL    HW112046   7.842   6.229   7.921 -0.7659 -1.2756 -1.5173
 3535SOL    HW212047   7.978   6.167   7.891 -0.3690 -0.6755 -0.9828
 3536SOL     OW12048   1.234   5.999   7.427  0.2326 -0.0973 -0.1345
 3536SOL    HW112049   1.204   6.085   7.398  0.9941  0.5162  0.8403
 3536SOL    HW212050   1.279   5.963   7.352 -0.0910  0.3503 -0.5520
 3537SOL     OW12051   0.580   3.168   6.956  0.0328 -0.0527 -0.2293
 3537SOL    HW112052   0.549   3.098   7.014 -0.2341  0.0746 -0.2186
 3537SOL    HW212053   0.662   3.134   6.920  0.0104 -0.2865 -0.0631
 3538SOL     OW12054   0.292   4.669   5.896 -0.4082 -0.4802  0.4488
 3538SOL    HW112055   0.319   4.676   5.988 -0.1623  1.1148  0.2782
 3538SOL    HW212056   0.344   4.596   5.862 -1.0871 -1.6291  1.7488
 3539SOL     OW12057   7.949   3.671   4.816 -0.0833  0.0922  0.1162
 3539SOL    HW112058   7.890   3.744   4.799 -1.2668 -0.6035  1.0885
 3539SOL    HW212059   7.968   3.634   4.730 -2.1731 -0.4991 -0.1262
 3540SOL     OW12060   0.828   6.225   5.068  0.4524  0.2693  0.7528
 3540SOL    HW112061   0.914   6.222   5.026  0.6927 -0.4603  1.2648
 3540SOL    HW212062   0.816   6.137   5.104 -0.7596  0.1862  0.2023
 3541SOL     OW12063   1.445   5.211   7.132  0.3406 -0.3104 -0.6465
 3541SOL    HW112064   1.388   5.272   7.086 -2.5351 -1.4580  1.0805
 3541SOL    HW212065   1.526   5.260   7.148 -0.6740  1.9511 -1.9710
 3542SOL     OW12066   1.305   5.350   6.122 -0.4617 -0.4293 -0.2963
 3542SOL    HW112067   1.230   5.320   6.071 -0.5562 -1.4626  0.4056
 3542SOL    HW212068   1.326   5.436   6.087 -1.1165 -0.7121 -1.4188
 3543SOL     OW12069   0.559   3.751   8.279  0.5405 -0.1196  0.2981
 3543SOL    HW112070   0.573   3.751   8.184  1.2407  0.1292  0.3924
 3543SOL    HW212071   0.646   3.734   8.316  1.4633  4.6616  1.0306
 3544SOL     OW12072   7.907   6.085   6.107 -0.4062  0.2792 -0.5443
 3544SOL    HW112073   7.826   6.108   6.063 -0.6967  1.2418  0.4362
 3544SOL    HW212074   7.943   6.012   6.056 -0.8725  1.1379 -2.1636
 3545SOL     OW12075   1.902   5.672   8.351 -0.5403 -0.7989 -0.1182
 3545SOL    HW112076   1.911   5.726   8.272  1.9777  0.0382  0.6463
 3545SOL    HW212077   1.812   5.686   8.380 -0.9317  0.3684 -1.7972
 3546SOL     OW12078   7.436   3.083   8.047 -0.4505 -0.0144  0.5393
 3546SOL    HW112079   7.444   3.130   7.965 -0.8908 -0.3333  0.3075
 3546SOL    HW212080   7.419   3.150   8.112  1.5535  0.4443  0.6752
 3547SOL     OW12081   7.904   4.084   6.764 -0.3732 -0.1442  0.2540
 3547SOL    HW112082   7.833   4.020   6.768 -1.3971  0.9920  0.8497
 3547SOL    HW212083   7.959   4.063   6.840 -0.9857 -0.0284  0.7444
 3548SOL     OW12084   1.326   4.478   6.153 -0.6800 -0.3447  0.1177
 3548SOL    HW112085   1.269   4.453   6.226 -0.3810 -1.1576  0.0847
 3548SOL    HW212086   1.382   4.547   6.189 -0.0089 -1.2709  0.9038
 3549SOL     OW12087   7.776   3.545   5.419  0.0777  0.1259  0.4313
 3549SOL    HW112088   7.808   3.605   5.485 -0.4264 -0.2700  1.0543
 3549SOL    HW212089   7.826   3.565   5.340  0.0629  1.2032  0.6915
 3550SOL     OW12090   7.819   4.889   5.393 -0.2042  0.6249 -0.0676
 3550SOL    HW112091   7.869   4.924   5.320  0.7863 -0.3292  0.1315
 3550SOL    HW212092   7.730   4.881   5.360  0.5982 -1.8182 -1.9314
 3551SOL     OW12093   1.621   4.545   5.939 -0.7348  0.1857  0.4667
 3551SOL    HW112094   1.553   4.548   6.005 -1.5405 -1.1539 -0.2609
 3551SOL    HW212095   1.597   4.613   5.876 -0.4766  0.8220  1.0344
 3552SOL     OW12096   1.438   5.235   7.824 -0.2737  0.8525  0.4203
 3552SOL    HW112097   1.466   5.265   7.738 -0.6817  3.7258  1.2039
 3552SOL    HW212098   1.495   5.280   7.886 -1.2666  0.3856  1.7403
 3553SOL     OW12099   0.366   5.573   6.412 -0.6726 -0.1626 -0.1980
 3553SOL    HW112100   0.338   5.504   6.352  2.7594 -2.4740  0.5862
 3553SOL    HW212101   0.336   5.544   6.498  1.9946 -1.5912  0.3436
 3554SOL     OW12102   1.989   5.156   7.438  0.1047 -0.3393  0.0352
 3554SOL    HW112103   2.007   5.073   7.394 -0.7022 -1.2879  1.4405
 3554SOL    HW212104   2.032   5.148   7.523  0.4757  0.9204 -0.0008
 3555SOL     OW12105   0.142   4.800   6.231  0.2615  0.7839  0.0798
 3555SOL    HW112106   0.204   4.750   6.178 -2.3718 -0.2139 -2.3426
 3555SOL    HW212107   0.134   4.750   6.313  0.5763 -0.6434 -0.7312
 3556SOL     OW12108   7.661   4.800   7.147  0.1883  0.1086 -0.1773
 3556SOL    HW112109   7.694   4.710   7.153 -0.2460  0.0334  2.1655
 3556SOL    HW212110   7.568   4.790   7.127 -0.1638 -0.0663  1.4221
 3557SOL     OW12111   2.321   5.513   7.356  0.4007 -0.6127 -0.4268
 3557SOL    HW112112   2.386   5.523   7.426  0.6677 -0.6653 -0.6693
 3557SOL    HW212113   2.356   5.445   7.300  1.0120  0.5820 -1.5457
 3558SOL     OW12114   1.982   4.153   7.809 -0.0914 -0.3220 -0.0477
 3558SOL    HW112115   2.034   4.187   7.736  0.0627  2.2574  1.1918
 3558SOL    HW212116   2.046   4.108   7.865 -0.1854 -2.1786 -1.3389
 3559SOL     OW12117   3.146   2.676   7.062 -0.1850 -0.4955  0.1683
 3559SOL    HW112118   3.093   2.756   7.068  0.8418  0.2788 -0.8608
 3559SOL    HW212119   3.094   2.617   7.007  0.0759  0.3218 -0.9820
 3560SOL     OW12120   0.320   3.131   6.816 -0.2610 -0.1065 -0.2378
 3560SOL    HW112121   0.323   3.196   6.887 -1.0330 -0.0054 -0.2905
 3560SOL    HW212122   0.377   3.168   6.748 -0.2210  0.2262 -0.0278
 3561SOL     OW12123   7.671   6.736   4.382  0.5328 -0.0178  0.2275
 3561SOL    HW112124   7.577   6.728   4.395  0.6436  0.1546  1.1905
 3561SOL    HW212125   7.680   6.788   4.302 -0.1813 -0.3334 -0.0639
 3562SOL     OW12126   1.475   4.298   7.332 -0.4194 -0.4959 -0.1153
 3562SOL    HW112127   1.491   4.232   7.264 -0.1433  1.2960 -1.9065
 3562SOL    HW212128   1.391   4.337   7.308 -0.3810  0.0906  0.6546
 3563SOL     OW12129   0.121   4.048   6.443  0.0913 -0.1428 -0.1694
 3563SOL    HW112130   0.067   3.990   6.496  1.1824  1.0435  2.3703
 3563SOL    HW212131   0.191   3.992   6.410  0.1449 -0.6446  0.7794
 3564SOL     OW12132   1.823   5.240   7.614  0.3171 -0.4103  0.1429
 3564SOL    HW112133   1.867   5.212   7.533 -1.1707 -1.0272 -0.4799
 3564SOL    HW212134   1.765   5.168   7.636  0.3070 -0.0083  1.4800
 3565SOL     OW12135   1.887   3.427   5.353 -0.0253  0.1103  0.1509
 3565SOL    HW112136   1.949   3.473   5.409  0.6466  0.8741 -1.1667
 3565SOL    HW212137   1.940   3.358   5.312 -1.1750 -2.4908  2.6915
 3566SOL     OW12138   2.472   3.218   7.276  0.6032 -0.2244 -0.4444
 3566SOL    HW112139   2.538   3.285   7.293  0.4704 -0.1318 -0.2862
 3566SOL    HW212140   2.515   3.156   7.217  1.0914 -0.5786  0.2624
 3567SOL     OW12141   1.808   4.996   6.048  0.0945  0.5913 -0.0518
 3567SOL    HW112142   1.867   4.951   5.987 -1.2610 -0.8884 -0.3292
 3567SOL    HW212143   1.830   5.089   6.038  3.0541  0.0636  0.6198
 3568SOL     OW12144   1.621   4.880   7.417 -0.1331  1.0075 -0.3493
 3568SOL    HW112145   1.537   4.834   7.420  0.4139 -0.0086 -0.0209
 3568SOL    HW212146   1.627   4.913   7.328  0.5223 -1.6725 -1.3815
 3569SOL     OW12147   1.740   4.956   7.645 -0.3108 -0.0434 -0.6649
 3569SOL    HW112148   1.696   4.911   7.572 -1.0998 -1.1230  0.4306
 3569SOL    HW212149   1.696   4.923   7.723  1.5156 -0.0639  0.4147
 3570SOL     OW12150   1.102   4.888   6.603 -0.3358 -0.4931 -0.0462
 3570SOL    HW112151   1.188   4.846   6.601  0.3644  0.7558  1.6053
 3570SOL    HW212152   1.074   4.881   6.694 -2.0569 -0.9270 -0.5599
 3571SOL     OW12153   0.475   6.560   4.535 -0.3685  0.1021 -0.4837
 3571SOL    HW112154   0.389   6.598   4.519 -0.7324  0.4129  1.9111
 3571SOL    HW212155   0.520   6.623   4.590  0.3537 -1.2724  0.5790
 3572SOL     OW12156   2.381   4.480   8.417 -0.0723 -0.4911  0.0716
 3572SOL    HW112157   2.370   4.386   8.401 -0.0671 -0.5936  0.6299
 3572SOL    HW212158   2.376   4.520   8.331  2.5307 -1.2619 -0.5215
 3573SOL     OW12159   6.147   5.030   6.151 -0.3380  0.1652  0.2210
 3573SOL    HW112160   6.163   5.072   6.067 -0.2990  0.9071  0.5953
 3573SOL    HW212161   6.229   4.985   6.171 -0.7985 -1.1713 -0.7816
 3574SOL     OW12162   1.605   6.729   6.923  0.1955 -0.5953  0.4026
 3574SOL    HW112163   1.692   6.723   6.885  0.6552 -1.4671  1.5370
 3574SOL    HW212164   1.574   6.638   6.927  0.3435 -0.5922  2.4633
 3575SOL     OW12165   7.075   4.086   7.450 -0.3704  0.4944  0.2977
 3575SOL    HW112166   7.126   4.151   7.401  0.0115 -0.0222  0.0039
 3575SOL    HW212167   7.074   4.009   7.393 -2.5781  0.8950 -0.3189
 3576SOL     OW12168   1.596   3.925   5.227 -0.1104 -0.3424  0.4021
 3576SOL    HW112169   1.596   3.950   5.135 -0.5065 -1.9149 -0.0583
 3576SOL    HW212170   1.506   3.898   5.245  0.5955 -3.0237  0.3447
 3577SOL     OW12171   3.009   5.216   6.196 -0.0019  0.1947 -0.6423
 3577SOL    HW112172   2.918   5.186   6.198  0.1972 -0.5959 -2.2957
 3577SOL    HW212173   3.045   5.189   6.281 -1.1708  0.1239 -0.1474
 3578SOL     OW12174   2.114   2.896   6.868 -0.2995 -0.4688  0.0282
 3578SOL    HW112175   2.200   2.893   6.910 -0.2310  2.8953  0.4347
 3578SOL    HW212176   2.128   2.860   6.781  1.8166  0.8241 -0.2314
 3579SOL     OW12177   1.450   6.023   6.421 -0.1368  0.3878 -0.1076
 3579SOL    HW112178   1.503   5.945   6.440 -2.1646 -0.7352  1.3443
 3579SOL    HW212179   1.493   6.093   6.470 -0.0544 -0.5290  1.1925
 3580SOL     OW12180   1.441   6.309   5.881 -0.0097 -0.1917  0.1059
 3580SOL    HW112181   1.476   6.290   5.968 -2.1990  1.3073  1.4012
 3580SOL    HW212182   1.466   6.400   5.865  2.2280 -1.0177 -1.8903
 3581SOL     OW12183   1.710   4.228   5.116 -0.6595 -0.4926 -0.4331
 3581SOL    HW112184   1.715   4.149   5.062  1.0311 -0.2323 -0.7272
 3581SOL    HW212185   1.700   4.299   5.053 -2.7249 -0.4828 -0.1390
 3582SOL     OW12186   2.174   5.398   6.906  1.0407 -0.4009 -0.3012
 3582SOL    HW112187   2.235   5.471   6.917 -0.9230  1.2613  0.3428
 3582SOL    HW212188   2.229   5.320   6.901  3.2011  1.0517 -0.3620
 3583SOL     OW12189   6.512   6.166   5.400 -0.3795 -0.1157 -0.1939
 3583SOL    HW112190   6.567   6.241   5.377 -0.1289 -0.4569 -0.7218
 3583SOL    HW212191   6.556   6.090   5.360 -1.6996 -0.2831 -1.4290
 3584SOL     OW12192   7.434   1.999   8.112  0.4848 -0.0393 -0.1621
 3584SOL    HW112193   7.358   2.050   8.085  1.1051  0.9950 -0.0043
 3584SOL    HW212194   7.508   2.041   8.068  1.2548  0.4047  1.4775
 3585SOL     OW12195   0.723   4.949   5.694 -0.5935 -0.1414  0.2419
 3585SOL    HW112196   0.811   4.943   5.655 -0.7531  1.8165 -0.5421
 3585SOL    HW212197   0.738   4.981   5.782 -0.5105  0.0301  0.1657
 3586SOL     OW12198   6.855   3.650   4.972  0.7244  0.4538  0.5577
 3586SOL    HW112199   6.846   3.739   5.005  1.1584  0.8455 -0.3250
 3586SOL    HW212200   6.792   3.645   4.900  0.8782  0.1332  0.4430
 3587SOL     OW12201   1.605   4.095   6.876 -0.1994  0.4066 -0.1197
 3587SOL    HW112202   1.560   4.089   6.792 -0.7249  2.3982 -0.0532
 3587SOL    HW212203   1.605   4.189   6.896 -1.3437 -0.0973  2.7624
 3588SOL     OW12204   0.162   2.508   7.503  0.5405  0.2540  0.7730
 3588SOL    HW112205   0.097   2.468   7.445  2.0426 -2.2665  0.6529
 3588SOL    HW212206   0.118   2.585   7.540 -1.7396 -0.1690 -0.8492
 3589SOL     OW12207   6.987   4.781   5.737  0.3105  0.3852  0.5438
 3589SOL    HW112208   6.949   4.699   5.768  1.4583 -0.4415 -0.1496
 3589SOL    HW212209   6.969   4.781   5.643  0.8491  0.6300  0.4396
 3590SOL     OW12210   0.839   3.371   5.741 -0.6853  0.2338  0.0936
 3590SOL    HW112211   0.875   3.283   5.726 -0.0804  0.2498  1.3022
 3590SOL    HW212212   0.825   3.407   5.654  0.0213 -0.6789 -0.4148
 3591SOL     OW12213   0.313   2.635   6.021 -0.1290  0.1235  0.3102
 3591SOL    HW112214   0.353   2.586   5.949  0.5462  1.9611 -0.6193
 3591SOL    HW212215   0.384   2.648   6.083 -0.7304 -1.5313  1.4173
 3592SOL     OW12216   6.903   3.334   7.515  0.0681 -0.0169  0.2147
 3592SOL    HW112217   6.872   3.270   7.580  1.5966 -2.0540 -0.9163
 3592SOL    HW212218   6.827   3.389   7.497 -2.0983 -2.9388 -0.3450
 3593SOL     OW12219   2.401   4.733   5.543 -0.5795 -0.3662  0.2642
 3593SOL    HW112220   2.455   4.715   5.466 -1.5004 -0.5070 -0.3722
 3593SOL    HW212221   2.451   4.697   5.617 -0.3935 -1.6381 -0.4592
 3594SOL     OW12222   0.995   6.891   5.717 -0.0098  0.2877 -0.4385
 3594SOL    HW112223   0.990   6.966   5.657  1.2358  1.0238  0.3453
 3594SOL    HW212224   1.054   6.920   5.787 -0.3951 -1.0299  0.4649
 3595SOL     OW12225   0.656   4.658   3.532 -0.8165 -0.4765  0.1888
 3595SOL    HW112226   0.649   4.698   3.446 -0.0918  0.1553  0.4203
 3595SOL    HW212227   0.743   4.682   3.564 -1.3625 -0.0440  1.4217
 3596SOL     OW12228   7.752   4.183   5.250 -0.6907  0.5532 -0.3086
 3596SOL    HW112229   7.712   4.173   5.336 -1.0944 -1.7973 -0.7063
 3596SOL    HW212230   7.846   4.189   5.267 -0.6518 -1.2453  0.2660
 3597SOL     OW12231   0.951   3.863   6.360 -0.2443 -0.1627 -0.3690
 3597SOL    HW112232   0.897   3.792   6.396 -1.2570  0.5027 -0.5492
 3597SOL    HW212233   0.947   3.849   6.265  0.1299 -0.2611 -0.3738
 3598SOL     OW12234   0.863   3.246   6.425 -0.1007 -0.7943  0.4080
 3598SOL    HW112235   0.903   3.269   6.508  0.7465 -1.1039  0.0960
 3598SOL    HW212236   0.803   3.174   6.446  0.8561 -1.5555  0.6028
 3599SOL     OW12237   0.954   4.874   7.700 -0.2043  0.0587 -0.5679
 3599SOL    HW112238   0.863   4.851   7.719 -0.5978 -0.1615 -2.4873
 3599SOL    HW212239   0.991   4.898   7.785 -2.2656  0.8903  0.1612
 3600SOL     OW12240   2.339   2.183   7.674 -0.3781 -0.1435  0.4270
 3600SOL    HW112241   2.374   2.162   7.588 -0.1128  1.6317  0.0713
 3600SOL    HW212242   2.417   2.196   7.729 -0.5389 -1.6443  1.0795
 3601SOL     OW12243   1.889   3.666   5.853  0.2881  0.0731 -0.1721
 3601SOL    HW112244   1.812   3.621   5.819  0.3465 -0.1450 -0.0258
 3601SOL    HW212245   1.929   3.707   5.777 -0.3368  0.7485 -0.1429
 3602SOL     OW12246   0.482   4.715   8.165  0.3973 -0.2738 -0.0083
 3602SOL    HW112247   0.518   4.690   8.080 -0.2123  1.0416 -0.6742
 3602SOL    HW212248   0.397   4.672   8.169 -1.2472  2.5361 -1.7266
 3603SOL     OW12249   0.982   3.121   5.732  0.5941  0.3862 -0.3809
 3603SOL    HW112250   0.908   3.074   5.771  1.1948 -0.3873 -0.1486
 3603SOL    HW212251   1.059   3.084   5.775  1.1137  1.2701 -0.5289
 3604SOL     OW12252   7.719   5.713   4.759 -0.2991 -0.2420 -0.0877
 3604SOL    HW112253   7.649   5.778   4.769 -0.7529 -0.7535  0.0532
 3604SOL    HW212254   7.675   5.629   4.764  0.1290 -0.5637 -1.4082
 3605SOL     OW12255   1.936   5.351   6.778 -0.0199 -0.2449  0.0171
 3605SOL    HW112256   2.005   5.393   6.829  0.8946 -1.4749 -0.1670
 3605SOL    HW212257   1.981   5.284   6.726 -1.2568 -0.6166 -0.6228
 3606SOL     OW12258   2.514   4.649   6.062 -0.2020  0.3755  0.6695
 3606SOL    HW112259   2.581   4.593   6.023 -0.3812  0.0549  0.8151
 3606SOL    HW212260   2.524   4.637   6.156 -1.4118 -0.8215  0.6663
 3607SOL     OW12261   0.672   4.290   6.271  0.2982  0.6365  0.5520
 3607SOL    HW112262   0.606   4.224   6.253  0.0434  0.8077  0.8474
 3607SOL    HW212263   0.751   4.240   6.294 -0.1383  0.4363  1.6545
 3608SOL     OW12264   1.650   7.041   8.692  0.0357 -0.2967 -0.2490
 3608SOL    HW112265   1.599   6.966   8.661  1.2211 -0.2129 -2.5592
 3608SOL    HW212266   1.627   7.048   8.785  0.0499 -3.6745  0.1509
 3609SOL     OW12267   1.645   6.127   6.833 -0.3290 -0.2837 -0.6659
 3609SOL    HW112268   1.689   6.062   6.888  0.2090  2.2032  2.1063
 3609SOL    HW212269   1.553   6.104   6.839 -0.2321 -0.3728  0.9526
 3610SOL     OW12270   2.081   7.530   8.013  0.2219 -0.1453 -0.4203
 3610SOL    HW112271   2.013   7.565   7.956  1.4205  0.8732 -1.2935
 3610SOL    HW212272   2.057   7.560   8.101 -2.1048 -2.4351 -0.1442
 3611SOL     OW12273   0.948   3.583   5.865 -0.2852  0.1285  0.4061
 3611SOL    HW112274   0.896   3.507   5.838  1.1556 -1.1207  1.0174
 3611SOL    HW212275   1.014   3.592   5.797 -1.1057  1.5649 -0.2471
 3612SOL     OW12276   0.854   3.662   6.520  0.2522  0.4491  0.1413
 3612SOL    HW112277   0.937   3.651   6.566 -0.2759 -1.2386  0.7382
 3612SOL    HW212278   0.787   3.645   6.586 -0.5500  0.1843 -0.7175
 3613SOL     OW12279   0.672   4.194   9.288  0.2713 -0.6574 -0.0886
 3613SOL    HW112280   0.659   4.206   9.194 -2.1177 -1.1865  0.1005
 3613SOL    HW212281   0.652   4.280   9.326 -0.5005 -0.8922  0.0490
 3614SOL     OW12282   7.936   5.544   7.438  0.3473 -0.1028  0.5618
 3614SOL    HW112283   8.031   5.536   7.449  0.5099  0.7354 -0.1721
 3614SOL    HW212284   7.916   5.489   7.362  0.0983 -0.9907  1.2451
 3615SOL     OW12285   0.506   3.575   5.787 -0.5492  0.1823 -0.0355
 3615SOL    HW112286   0.479   3.507   5.849 -1.8668 -0.9718 -1.7610
 3615SOL    HW212287   0.597   3.552   5.766 -0.1158  0.5347  1.3378
 3616SOL     OW12288   0.746   3.655   6.958 -0.1960  0.4203  0.1204
 3616SOL    HW112289   0.741   3.740   7.002  1.8205  1.2952 -1.1722
 3616SOL    HW212290   0.818   3.609   7.001  1.3405  1.0126 -1.6366
 3617SOL     OW12291   1.376   4.051   8.205 -0.2826 -0.5266 -0.3469
 3617SOL    HW112292   1.351   4.143   8.197  0.8973 -0.1728 -0.2029
 3617SOL    HW212293   1.466   4.048   8.172  0.1778 -1.3736  0.9052
 3618SOL     OW12294   1.098   4.366   7.806 -0.6089 -0.3691  0.6181
 3618SOL    HW112295   1.134   4.308   7.872 -1.7545 -1.8548 -0.0137
 3618SOL    HW212296   1.161   4.365   7.735 -0.2647 -0.2214  0.9179
 3619SOL     OW12297   7.920   4.812   6.063  0.0435 -0.6142 -0.1046
 3619SOL    HW112298   7.976   4.807   6.141  1.0681  1.6811 -0.6167
 3619SOL    HW212299   7.959   4.750   6.001  2.4233  1.2581 -0.6192
 3620SOL     OW12300   0.750   3.603   7.375  0.2409  0.3933  0.2530
 3620SOL    HW112301   0.845   3.610   7.360  0.5673 -2.0661  0.7378
 3620SOL    HW212302   0.712   3.614   7.288  1.1567 -0.7743 -0.3260
 3621SOL     OW12303   7.743   5.642   7.602 -0.0168  0.5132  0.1383
 3621SOL    HW112304   7.818   5.625   7.544 -1.7383 -0.8797 -1.8583
 3621SOL    HW212305   7.711   5.555   7.625 -0.2201  1.0674  2.1431
 3622SOL     OW12306   3.612   6.383   7.198 -0.2133  0.1224 -0.4706
 3622SOL    HW112307   3.706   6.370   7.213  0.0902 -2.5172 -3.5681
 3622SOL    HW212308   3.570   6.308   7.239 -0.7952  0.4459 -0.4594
 3623SOL     OW12309   2.177   2.056   4.864 -0.0045 -0.1774 -0.1558
 3623SOL    HW112310   2.236   2.128   4.888  0.1434 -0.8353  1.6068
 3623SOL    HW212311   2.221   2.011   4.793  1.3666 -0.3145  0.7531
 3624SOL     OW12312   1.178   4.245   6.381  0.7575  0.4725 -0.4983
 3624SOL    HW112313   1.227   4.315   6.423  2.1102  0.6368 -2.2565
 3624SOL    HW212314   1.245   4.190   6.340 -0.0876 -2.8073  2.0572
 3625SOL     OW12315   0.352   5.857   7.180 -0.1646 -0.1397  0.7092
 3625SOL    HW112316   0.337   5.764   7.193 -1.8128  0.1325  0.9884
 3625SOL    HW212317   0.354   5.894   7.269 -0.4700  0.2111  0.5750
 3626SOL     OW12318   2.704   4.306   5.294 -0.5405  0.0599  0.0508
 3626SOL    HW112319   2.770   4.247   5.330  2.5546  2.1962 -1.6442
 3626SOL    HW212320   2.669   4.258   5.218  1.6853  0.1039 -1.1087
 3627SOL     OW12321   0.258   3.556   8.203  0.2533  0.1856 -0.1945
 3627SOL    HW112322   0.271   3.502   8.281 -0.3467 -0.0456 -0.2508
 3627SOL    HW212323   0.299   3.506   8.133  1.5276  0.7726  0.0923
 3628SOL     OW12324   7.549   4.673   6.590  0.2044 -0.1443 -0.4369
 3628SOL    HW112325   7.552   4.692   6.684  0.3213 -1.0952 -0.2388
 3628SOL    HW212326   7.640   4.658   6.565  0.0490 -1.1658 -0.4201
 3629SOL     OW12327   7.854   3.830   7.090 -0.3671 -0.5360 -0.1711
 3629SOL    HW112328   7.897   3.892   7.030  0.2190  0.7656  1.5088
 3629SOL    HW212329   7.898   3.845   7.174 -2.9738 -0.3381  1.2432
 3630SOL     OW12330   0.982   4.598   7.387 -0.3715  0.1974 -0.7649
 3630SOL    HW112331   1.039   4.522   7.373  1.1021  1.0473  0.2828
 3630SOL    HW212332   0.903   4.561   7.426  0.1081 -0.8707 -0.7536
 3631SOL     OW12333   0.336   4.416   5.302  0.4654 -0.0750 -0.1472
 3631SOL    HW112334   0.431   4.403   5.303  0.4671 -0.1416  1.0466
 3631SOL    HW212335   0.316   4.446   5.391 -0.8431 -1.5737  0.0903
 3632SOL     OW12336   6.374   4.856   7.390 -0.5579 -0.1280 -0.2611
 3632SOL    HW112337   6.453   4.808   7.414  0.1239  0.1014 -1.8940
 3632SOL    HW212338   6.319   4.791   7.347 -0.1807  0.2245 -1.3210
 3633SOL     OW12339   7.658   6.003   6.429  0.3896 -0.5111  0.0978
 3633SOL    HW112340   7.653   5.913   6.399  1.0972 -1.0455  1.5118
 3633SOL    HW212341   7.596   6.007   6.502  1.1869 -0.1687  0.7684
 3634SOL     OW12342   7.878   6.182   8.654 -0.2464  0.2063 -0.4221
 3634SOL    HW112343   7.901   6.243   8.724  0.5452  0.2500 -0.7107
 3634SOL    HW212344   7.801   6.221   8.611  1.3137  1.9641 -1.7734
 3635SOL     OW12345   1.836   4.379   8.419  0.0833  0.4601 -0.2566
 3635SOL    HW112346   1.856   4.459   8.466 -0.0394 -0.0815  0.7305
 3635SOL    HW212347   1.895   4.380   8.343 -0.9609  2.2143 -1.0906
 3636SOL     OW12348   0.512   4.906   7.597  0.7590  0.2338 -0.0666
 3636SOL    HW112349   0.483   4.969   7.663 -0.5249  0.7167 -1.0694
 3636SOL    HW212350   0.512   4.955   7.515 -0.3764 -1.0760 -0.8920
 3637SOL     OW12351   1.381   3.079   8.069 -0.1516 -0.2799  0.1651
 3637SOL    HW112352   1.366   2.984   8.064  0.0073 -0.3004  0.0933
 3637SOL    HW212353   1.461   3.094   8.019 -0.7947  0.0473 -0.7944
 3638SOL     OW12354   0.654   4.686   7.494  0.0284  0.2217  0.1215
 3638SOL    HW112355   0.695   4.739   7.426 -0.2714 -0.5950 -0.7233
 3638SOL    HW212356   0.628   4.748   7.561 -0.2455  1.1362 -0.8057
 3639SOL     OW12357   0.841   6.025   5.784  0.1298 -0.0736 -0.4153
 3639SOL    HW112358   0.922   5.980   5.759  1.4314  1.8158  0.1209
 3639SOL    HW212359   0.775   5.993   5.723  1.4268 -1.1798 -1.2920
 3640SOL     OW12360   2.623   6.079   7.621 -0.1339 -0.1094  0.1586
 3640SOL    HW112361   2.717   6.077   7.606 -0.2602  1.1654 -1.0251
 3640SOL    HW212362   2.585   6.040   7.543 -0.5756 -2.5605  1.5119
 3641SOL     OW12363   0.969   6.421   8.214 -0.5874 -0.0070 -0.0986
 3641SOL    HW112364   0.900   6.414   8.281  0.6837 -0.4625  1.2126
 3641SOL    HW212365   1.035   6.356   8.240  0.2661  0.2920 -1.4175
 3642SOL     OW12366   1.504   3.655   6.637  0.0625  0.4468  0.2951
 3642SOL    HW112367   1.540   3.615   6.716 -0.1534  1.3338  0.8570
 3642SOL    HW212368   1.427   3.602   6.617  0.1588  0.1730  0.6432
 3643SOL     OW12369   0.819   3.842   5.840  0.0984  0.7654  0.0926
 3643SOL    HW112370   0.800   3.875   5.752 -1.7179  0.5649  0.3752
 3643SOL    HW212371   0.863   3.758   5.824  0.1042  0.8919 -0.6232
 3644SOL     OW12372   1.167   5.832   7.829  0.1186 -0.1222  0.2324
 3644SOL    HW112373   1.221   5.880   7.766 -0.6292 -1.6313 -1.6509
 3644SOL    HW212374   1.199   5.742   7.824 -0.1741 -0.3419  1.8146
 3645SOL     OW12375   1.258   4.199   7.125  0.3581  0.0449 -0.1843
 3645SOL    HW112376   1.273   4.279   7.176 -0.4034 -0.1969  0.4424
 3645SOL    HW212377   1.331   4.141   7.149 -0.4812 -0.4136  1.3745
 3646SOL     OW12378   0.680   4.929   6.817  1.0692 -0.2311  0.6609
 3646SOL    HW112379   0.717   5.016   6.835  1.0441 -0.5568  2.5619
 3646SOL    HW212380   0.724   4.872   6.880  1.1981 -1.6565 -0.6627
 3647SOL     OW12381   7.912   3.088   8.051 -0.2388 -0.1626  0.2419
 3647SOL    HW112382   7.848   3.028   8.013 -0.5028 -0.7587  1.5672
 3647SOL    HW212383   7.862   3.167   8.072 -0.5174 -0.5438  1.0667
 3648SOL     OW12384   1.284   4.399   7.572 -0.1819 -0.4252 -0.3367
 3648SOL    HW112385   1.252   4.406   7.482 -1.5237 -1.3170  0.0436
 3648SOL    HW212386   1.374   4.430   7.567 -0.2065 -0.4941 -1.9987
 3649SOL     OW12387   7.394   4.988   6.147 -0.4090 -0.1747 -0.2198
 3649SOL    HW112388   7.436   5.072   6.166 -0.7864  0.2060 -1.0574
 3649SOL    HW212389   7.455   4.944   6.088 -1.0245  0.2638 -1.2156
 3650SOL     OW12390   1.398   2.733   6.665 -0.0637  0.5555 -0.7330
 3650SOL    HW112391   1.476   2.680   6.681 -0.5979 -0.7760 -2.2264
 3650SOL    HW212392   1.326   2.670   6.664 -1.0492  1.6480 -0.2291
 3651SOL     OW12393   6.657   4.317   7.497  0.1565  0.1894  0.0003
 3651SOL    HW112394   6.735   4.310   7.443 -0.5512  0.1686 -1.0496
 3651SOL    HW212395   6.605   4.386   7.455 -0.0492  0.7452  1.1312
 3652SOL     OW12396   1.772   5.156   8.034 -0.2995 -0.2839  0.1607
 3652SOL    HW112397   1.724   5.091   8.084  1.0542  0.5902  2.8074
 3652SOL    HW212398   1.708   5.224   8.014 -1.4035 -1.7158 -1.4898
 3653SOL     OW12399   0.384   4.379   7.628 -0.0652  0.0352 -0.0032
 3653SOL    HW112400   0.321   4.340   7.567 -0.9769 -0.2241  1.0647
 3653SOL    HW212401   0.331   4.434   7.685  0.6423 -0.3533  1.0627
 3654SOL     OW12402   7.332   5.352   7.489 -0.1207 -0.6296 -0.1598
 3654SOL    HW112403   7.257   5.294   7.501 -0.7386  0.1969  0.0408
 3654SOL    HW212404   7.317   5.425   7.549  0.1026  0.2541 -1.1298
 3655SOL     OW12405   7.956   3.419   7.480 -0.1703 -0.2103 -0.1937
 3655SOL    HW112406   7.876   3.375   7.450  0.3927 -1.0858 -0.4318
 3655SOL    HW212407   8.005   3.437   7.400 -0.5370  1.1712 -0.1323
 3656SOL     OW12408   1.658   4.435   7.880  0.1194  0.1005  0.0251
 3656SOL    HW112409   1.661   4.473   7.968 -1.8761  1.8968 -0.5898
 3656SOL    HW212410   1.691   4.346   7.891 -0.8103 -0.0072  2.7571
 3657SOL     OW12411   1.955   5.064   6.962 -0.1228  0.3272  0.4690
 3657SOL    HW112412   2.005   5.019   7.030  0.3305  3.3154  2.2959
 3657SOL    HW212413   2.020   5.112   6.911 -0.7959  2.0164  1.1084
 3658SOL     OW12414   6.467   6.501   7.851  0.4099  0.3804 -0.4969
 3658SOL    HW112415   6.423   6.447   7.785  2.3601 -1.5905 -0.3028
 3658SOL    HW212416   6.558   6.505   7.821  0.6729  2.1982  0.4236
 3659SOL     OW12417   2.071   2.756   6.338  0.2679 -0.1191 -0.0762
 3659SOL    HW112418   2.026   2.688   6.389 -1.6077 -0.1853 -1.6910
 3659SOL    HW212419   2.153   2.714   6.310  0.4426 -0.7183  1.2488
 3660SOL     OW12420   1.365   5.178   5.455 -0.3106  0.2098 -0.0954
 3660SOL    HW112421   1.316   5.096   5.443 -0.1881 -0.0939  1.2950
 3660SOL    HW212422   1.311   5.244   5.412 -1.3587 -0.3109  0.3675
 3661SOL     OW12423   7.883   5.063   4.636 -0.3669  0.1351 -0.4166
 3661SOL    HW112424   7.857   5.146   4.598 -2.3714 -0.3899 -0.3073
 3661SOL    HW212425   7.814   5.002   4.610  0.5356 -1.2629  0.3368
 3662SOL     OW12426   0.490   4.991   7.100  0.3248 -0.2980  0.6296
 3662SOL    HW112427   0.517   5.082   7.112 -0.5814  0.3239 -1.5562
 3662SOL    HW212428   0.404   4.997   7.059  1.8726 -1.9467 -3.4102
 3663SOL     OW12429   1.484   3.750   7.526 -0.2123 -0.1705 -0.4202
 3663SOL    HW112430   1.551   3.809   7.490 -0.2386 -0.2273 -0.5589
 3663SOL    HW212431   1.457   3.696   7.453 -1.5519  0.8954 -0.7616
 3664SOL     OW12432   1.425   5.968   5.492 -0.0604 -0.3015  0.3990
 3664SOL    HW112433   1.406   6.020   5.570  4.8597  0.3896  1.5039
 3664SOL    HW212434   1.446   5.881   5.526 -0.3237 -0.7213 -0.4860
 3665SOL     OW12435   0.948   5.630   6.130 -0.3413 -0.0036  0.2688
 3665SOL    HW112436   0.895   5.594   6.201 -0.3606 -0.1803  0.1640
 3665SOL    HW212437   0.997   5.702   6.171 -0.5577  0.0714  0.3969
 3666SOL     OW12438   3.306   7.005   7.815  0.4544  0.0115 -0.3618
 3666SOL    HW112439   3.366   6.949   7.865  0.5656 -0.0436 -0.5588
 3666SOL    HW212440   3.275   6.949   7.744 -0.3022 -0.1562  0.0863
 3667SOL     OW12441   2.021   4.936   7.711  0.8144 -0.6504 -0.1415
 3667SOL    HW112442   2.038   4.843   7.697  2.1650 -0.2718 -1.1953
 3667SOL    HW212443   1.927   4.946   7.694  0.3213 -2.0429  1.4712
 3668SOL     OW12444   0.962   4.797   5.931 -0.2245 -0.4563  0.1402
 3668SOL    HW112445   1.017   4.719   5.931  0.0506 -0.2646 -0.6623
 3668SOL    HW212446   0.886   4.773   5.878  0.2375  0.0724 -0.7809
 3669SOL     OW12447   0.856   3.356   6.056 -0.4365 -0.7150 -0.1329
 3669SOL    HW112448   0.919   3.427   6.065 -2.0241  0.6990  0.3038
 3669SOL    HW212449   0.805   3.359   6.136 -0.9677 -1.9328 -0.4051
 3670SOL     OW12450   1.125   4.608   6.401 -0.3654 -0.1226  0.3629
 3670SOL    HW112451   1.219   4.597   6.410 -0.1244  2.3277  1.6153
 3670SOL    HW212452   1.089   4.573   6.483 -0.1506  2.0916  1.4900
 3671SOL     OW12453   7.846   4.317   6.637  0.1395 -0.1884 -0.4293
 3671SOL    HW112454   7.865   4.227   6.663  0.7439  0.6516  2.3696
 3671SOL    HW212455   7.916   4.340   6.575  1.8514 -0.7013  1.2326
 3672SOL     OW12456   1.291   6.447   7.050 -0.1044  0.1513  0.0145
 3672SOL    HW112457   1.241   6.407   7.122 -0.6466  2.4176  0.9844
 3672SOL    HW212458   1.369   6.481   7.092  0.1406  0.4762 -0.7054
 3673SOL     OW12459   1.108   5.201   8.634  0.7926 -0.6490  0.0742
 3673SOL    HW112460   1.048   5.193   8.560  2.5325 -2.4050 -1.2519
 3673SOL    HW212461   1.065   5.153   8.705  1.4714 -3.8781 -1.5163
 3674SOL     OW12462   1.465   6.085   6.136 -0.2339 -0.1932  0.1031
 3674SOL    HW112463   1.410   6.162   6.152  1.1883  0.7834  0.5751
 3674SOL    HW212464   1.490   6.055   6.223 -0.3655 -0.8730 -0.0935
 3675SOL     OW12465   1.311   6.500   6.722  0.1510  0.0395  0.4370
 3675SOL    HW112466   1.355   6.449   6.790  3.1345  0.0361 -1.3449
 3675SOL    HW212467   1.369   6.574   6.706  0.4131 -0.7828 -3.1348
 3676SOL     OW12468   2.889   3.693   5.914  0.6146  0.0911  0.0514
 3676SOL    HW112469   2.835   3.614   5.902  0.2541 -0.0659  2.2876
 3676SOL    HW212470   2.968   3.662   5.958 -0.0475  1.0949  2.0498
 3677SOL     OW12471   0.111   3.567   5.930  0.0497 -0.2275  0.2671
 3677SOL    HW112472   0.073   3.481   5.917 -1.2563  0.6621 -2.4445
 3677SOL    HW212473   0.199   3.561   5.893  1.0507 -1.0554  2.5668
 3678SOL     OW12474   1.680   5.762   5.360  0.0772 -0.2257 -0.4408
 3678SOL    HW112475   1.646   5.762   5.449 -0.3934 -0.2002 -0.6169
 3678SOL    HW212476   1.626   5.699   5.313  0.7551 -0.7344 -0.5505
 3679SOL     OW12477   1.381   4.334   8.123 -1.0682  0.2509  0.3132
 3679SOL    HW112478   1.465   4.378   8.125 -0.3465 -1.0649  2.5842
 3679SOL    HW212479   1.318   4.402   8.147 -0.1778  0.4554  2.2188
 3680SOL     OW12480   2.023   4.396   6.750 -0.1763 -0.4956  0.0537
 3680SOL    HW112481   2.000   4.456   6.821  1.2824  0.0148  0.1371
 3680SOL    HW212482   2.004   4.309   6.784 -1.8878 -0.1349  0.1067
 3681SOL     OW12483   0.595   3.590   4.553 -0.4609  0.0190  0.2396
 3681SOL    HW112484   0.507   3.626   4.562 -0.1359  1.1693 -0.9886
 3681SOL    HW212485   0.639   3.615   4.635 -0.6420  1.2976 -0.0400
 3682SOL     OW12486   7.916   4.538   6.840 -0.6996  0.1447  0.2814
 3682SOL    HW112487   7.998   4.495   6.863 -0.3777  1.0073  0.8313
 3682SOL    HW212488   7.877   4.483   6.772  0.0370 -0.5971  0.4471
 3683SOL     OW12489   7.688   2.732   7.559  0.0006 -0.0548  0.3958
 3683SOL    HW112490   7.753   2.746   7.491 -0.5417 -1.4542 -0.4582
 3683SOL    HW212491   7.619   2.796   7.541  1.3886  1.9548  1.7499
 3684SOL     OW12492   1.076   3.567   6.765  0.3002  0.0140  0.5170
 3684SOL    HW112493   1.149   3.516   6.730  0.0186  1.2378 -2.0939
 3684SOL    HW212494   1.106   3.658   6.760  0.1909  0.3117  3.5880
 3685SOL     OW12495   7.314   3.037   4.465  0.1463  0.1996 -0.3896
 3685SOL    HW112496   7.298   3.091   4.388  0.3659  0.9768  0.0913
 3685SOL    HW212497   7.285   3.091   4.539  0.8886 -0.1079  0.1471
 3686SOL     OW12498   0.630   3.900   6.219  0.1410  0.0129  0.2369
 3686SOL    HW112499   0.629   3.821   6.273  1.7918  1.3884  2.4475
 3686SOL    HW212500   0.704   3.887   6.160 -0.0921 -0.4236  0.0341
 3687SOL     OW12501   0.758   4.402   7.407  0.1003  0.2988  0.5291
 3687SOL    HW112502   0.838   4.374   7.453 -0.6310 -0.7087  1.2425
 3687SOL    HW212503   0.758   4.352   7.326 -0.1179 -0.1985  0.8274
 3688SOL     OW12504   7.997   5.910   4.198  0.3619 -0.4802 -0.6273
 3688SOL    HW112505   7.904   5.893   4.207  0.3408 -0.1360 -0.1763
 3688SOL    HW212506   8.029   5.839   4.142  0.2931 -2.0742  1.2786
 3689SOL     OW12507   0.760   5.654   6.351 -0.4723  0.0607 -0.1451
 3689SOL    HW112508   0.700   5.591   6.311  1.0565 -2.3363  1.0835
 3689SOL    HW212509   0.714   5.686   6.428 -1.2140  0.3538 -0.6989
 3690SOL     OW12510   2.570   5.051   8.591  0.4774 -1.2080  0.0709
 3690SOL    HW112511   2.528   4.975   8.632 -1.0740 -0.2967  0.2436
 3690SOL    HW212512   2.510   5.078   8.523  1.0961 -0.2271 -0.1046
 3691SOL     OW12513   2.281   3.305   6.122 -0.1318  0.3735 -0.5867
 3691SOL    HW112514   2.227   3.270   6.193  0.3824  1.2162  0.2546
 3691SOL    HW212515   2.354   3.244   6.116 -0.3022  0.1641 -0.5496
 3692SOL     OW12516   1.965   3.468   6.646 -0.1147  0.0135  0.0909
 3692SOL    HW112517   1.901   3.507   6.586 -0.8056  3.0410  2.5317
 3692SOL    HW212518   1.918   3.397   6.689 -1.0695  0.6534  0.1296
 3693SOL     OW12519   7.486   4.178   7.339  0.1840  0.2213  0.0924
 3693SOL    HW112520   7.415   4.242   7.342  1.1781  1.3333  1.7545
 3693SOL    HW212521   7.454   4.108   7.282 -1.7567  1.2284 -0.1140
 3694SOL     OW12522   0.842   6.524   3.769  0.4441 -0.1636  0.3296
 3694SOL    HW112523   0.829   6.430   3.766  0.8387 -0.2040 -1.2336
 3694SOL    HW212524   0.928   6.535   3.810 -0.2328 -0.3802  1.8673
 3695SOL     OW12525   0.362   2.853   7.242 -0.2781 -0.4168 -0.7301
 3695SOL    HW112526   0.344   2.881   7.332  0.7105  0.2432 -0.7312
 3695SOL    HW212527   0.303   2.906   7.188  0.7748  0.9035 -0.6400
 3696SOL     OW12528   2.774   4.953   7.910 -0.6656  0.0179 -0.1337
 3696SOL    HW112529   2.859   4.996   7.926 -0.9927  0.8948 -0.6898
 3696SOL    HW212530   2.791   4.894   7.837 -0.5656  0.2924 -0.3345
 3697SOL     OW12531   7.877   3.551   8.465  1.0093  0.0564  0.0021
 3697SOL    HW112532   7.876   3.457   8.478  2.2122  0.1842  1.2771
 3697SOL    HW212533   7.839   3.564   8.378 -0.8593 -1.4372  0.5416
 3698SOL     OW12534   3.642   7.366   7.659  0.1520 -0.4456  0.1043
 3698SOL    HW112535   3.619   7.281   7.697  0.9012 -1.3958 -1.4886
 3698SOL    HW212536   3.563   7.394   7.613  0.5422 -1.2801 -1.0998
 3699SOL     OW12537   0.094   4.709   6.499 -0.2507 -0.1333  0.1595
 3699SOL    HW112538   0.155   4.705   6.573  2.0008 -0.8086 -1.6548
 3699SOL    HW212539   0.082   4.618   6.472 -1.4965  0.0603 -0.0184
 3700SOL     OW12540   1.246   5.522   7.785 -0.1701  0.3713 -0.8748
 3700SOL    HW112541   1.290   5.585   7.728  0.1879  1.1070  0.1880
 3700SOL    HW212542   1.283   5.437   7.760 -0.9476  0.4887 -2.6050
 3701SOL     OW12543   7.811   3.440   6.963  0.1494 -0.0131 -0.0999
 3701SOL    HW112544   7.732   3.397   6.931  1.8825 -2.1254 -1.9009
 3701SOL    HW212545   7.821   3.517   6.906  0.3076 -0.7531 -1.1079
 3702SOL     OW12546   1.921   2.781   5.811  0.3351 -0.6015  0.3619
 3702SOL    HW112547   1.913   2.802   5.718 -1.2792 -0.0696  0.5873
 3702SOL    HW212548   2.010   2.807   5.834  1.1246 -1.6775 -1.2411
 3703SOL     OW12549   2.215   3.548   6.559 -0.2049  0.3033  0.1032
 3703SOL    HW112550   2.237   3.641   6.562 -0.9864  0.4794  1.7111
 3703SOL    HW212551   2.121   3.545   6.580 -0.6551 -0.7308 -1.8455
 3704SOL     OW12552   1.581   3.603   7.080 -0.1448  0.0170  0.1622
 3704SOL    HW112553   1.615   3.594   6.991 -1.3181 -0.3805 -0.2670
 3704SOL    HW212554   1.659   3.610   7.135  0.5990  0.7805 -0.9394
 3705SOL     OW12555   2.730   5.044   6.310 -0.2466  0.3624 -0.9875
 3705SOL    HW112556   2.657   4.987   6.287 -0.3081  0.7050 -1.6643
 3705SOL    HW212557   2.689   5.123   6.344 -0.1547 -0.6129  1.5931
 3706SOL     OW12558   0.001   5.383   6.673  0.9022 -0.5025 -0.3971
 3706SOL    HW112559   0.089   5.402   6.706  0.3155  1.5849  0.1030
 3706SOL    HW212560   0.013   5.367   6.579  2.0352 -2.2533 -0.0018
 3707SOL     OW12561   0.620   4.583   4.649 -0.0091  0.4507  0.5062
 3707SOL    HW112562   0.535   4.596   4.691 -0.5806  1.4528 -0.8812
 3707SOL    HW212563   0.683   4.620   4.711 -0.7506  1.2195  0.8217
 3708SOL     OW12564   0.533   3.731   4.872  0.7002 -0.4308  0.6573
 3708SOL    HW112565   0.478   3.750   4.948  0.1175 -0.6244  0.2877
 3708SOL    HW212566   0.581   3.813   4.856  0.5930 -0.2940  1.0383
 3709SOL     OW12567   3.208   5.525   6.680 -0.2724  0.1004 -0.0721
 3709SOL    HW112568   3.283   5.576   6.649 -0.0679 -0.6183 -0.8294
 3709SOL    HW212569   3.246   5.442   6.710 -0.8173 -0.6809 -1.4069
 3710SOL     OW12570   7.833   5.704   5.768 -0.1160  0.3541  0.1805
 3710SOL    HW112571   7.831   5.622   5.817 -1.9088  0.6773  0.7153
 3710SOL    HW212572   7.797   5.682   5.682 -1.2420  0.6748  0.5459
 3711SOL     OW12573   1.696   3.279   7.648 -0.1602  0.5947  0.3520
 3711SOL    HW112574   1.689   3.365   7.689  0.7112  0.4921  0.7420
 3711SOL    HW212575   1.784   3.249   7.671 -0.3942 -0.3253  0.0723
 3712SOL     OW12576   7.555   6.416   7.485 -0.2256 -0.2288  0.8099
 3712SOL    HW112577   7.490   6.357   7.446 -0.7783  1.4959 -1.0978
 3712SOL    HW212578   7.514   6.447   7.565 -1.6535  0.4841 -0.1386
 3713SOL     OW12579   1.812   3.777   8.290 -0.1231  0.0059 -0.0200
 3713SOL    HW112580   1.854   3.862   8.299 -0.5550  0.1503  0.7627
 3713SOL    HW212581   1.802   3.764   8.196 -0.1064  0.8464 -0.1409
 3714SOL     OW12582   6.787   3.490   5.749  0.1004 -0.1393  0.6174
 3714SOL    HW112583   6.714   3.464   5.805  1.0104 -2.0523  0.9929
 3714SOL    HW212584   6.853   3.524   5.810  0.3553 -0.4284  0.5030
 3715SOL     OW12585   2.884   5.562   7.573  0.4420 -0.0854  0.9505
 3715SOL    HW112586   2.805   5.553   7.520  0.0639  1.0741  1.2872
 3715SOL    HW212587   2.871   5.500   7.645  0.2247 -0.4965  0.5659
 3716SOL     OW12588   7.165   4.389   7.068 -0.1638  0.2655 -0.0880
 3716SOL    HW112589   7.119   4.446   7.006 -1.1141 -1.5523 -1.1363
 3716SOL    HW212590   7.243   4.360   7.019  0.1491  0.4154  0.3193
 3717SOL     OW12591   1.760   6.650   4.785  0.0372 -0.3099 -0.0643
 3717SOL    HW112592   1.667   6.673   4.784 -0.1718 -1.0954  0.1601
 3717SOL    HW212593   1.795   6.684   4.703 -0.6560 -0.8176 -0.5781
 3718SOL     OW12594   2.491   3.833   5.812 -0.3609 -0.1195 -0.4505
 3718SOL    HW112595   2.452   3.786   5.886  1.7097 -0.0299  0.7938
 3718SOL    HW212596   2.539   3.766   5.763  0.7969  0.2801  0.0846
 3719SOL     OW12597   1.672   2.761   8.039 -0.1398 -0.3599 -0.1084
 3719SOL    HW112598   1.689   2.834   7.980 -0.9181  0.6268  0.8517
 3719SOL    HW212599   1.747   2.702   8.026  0.4312  0.5266 -1.0023
 3720SOL     OW12600   0.383   3.466   6.878 -0.0659  0.2450 -0.1066
 3720SOL    HW112601   0.332   3.436   6.952  1.6710  0.8290  1.3956
 3720SOL    HW212602   0.318   3.499   6.815 -1.5785 -0.5376  1.0056
 3721SOL     OW12603   0.800   6.165   7.107  0.2146  0.2590 -0.0875
 3721SOL    HW112604   0.739   6.092   7.099  0.7468 -0.2144  0.1581
 3721SOL    HW212605   0.799   6.207   7.021  0.8235 -0.7629 -0.5998
 3722SOL     OW12606   0.571   2.929   7.061 -0.6502  0.2280 -0.4548
 3722SOL    HW112607   0.659   2.925   7.098 -0.6374  0.0149 -0.5063
 3722SOL    HW212608   0.523   2.858   7.105 -1.0086  0.8269  0.1272
 3723SOL     OW12609   2.406   4.629   7.606  0.1887  0.5061  0.1076
 3723SOL    HW112610   2.484   4.583   7.638 -0.2709  0.5063  1.2834
 3723SOL    HW212611   2.368   4.570   7.541 -0.2930 -0.7456  1.4643
 3724SOL     OW12612   0.847   4.817   7.286  0.4215 -0.0141  0.1536
 3724SOL    HW112613   0.920   4.856   7.238  1.4239 -0.3642  1.3151
 3724SOL    HW212614   0.889   4.757   7.348 -0.7159  1.0303  2.0379
 3725SOL     OW12615   0.126   5.970   7.074  0.0953  0.3275  0.4202
 3725SOL    HW112616   0.210   5.933   7.099 -0.2163 -0.2064  0.7023
 3725SOL    HW212617   0.088   6.001   7.156 -1.1331 -1.8434  0.7304
 3726SOL     OW12618   1.443   5.582   6.836 -0.1947  0.1128 -0.5212
 3726SOL    HW112619   1.459   5.658   6.780 -0.4387  0.2847 -0.3591
 3726SOL    HW212620   1.505   5.516   6.805  0.6261  0.6693 -0.0915
 3727SOL     OW12621   7.669   2.982   6.460  0.0655  0.2145 -0.0412
 3727SOL    HW112622   7.586   3.029   6.468  0.2836  0.3294  1.8833
 3727SOL    HW212623   7.651   2.912   6.396 -1.3368  0.5879 -0.0757
 3728SOL     OW12624   0.635   2.357   8.144  0.0306 -0.0709 -0.1177
 3728SOL    HW112625   0.688   2.324   8.217  0.8388  0.8427 -0.2777
 3728SOL    HW212626   0.546   2.332   8.167  0.2610  0.2343  1.2043
 3729SOL     OW12627   7.637   3.827   8.243 -0.0015  0.4875 -0.1130
 3729SOL    HW112628   7.711   3.886   8.251  0.5140 -0.2971  1.1222
 3729SOL    HW212629   7.604   3.842   8.154  1.9516  0.4782 -0.8895
 3730SOL     OW12630   7.640   5.944   7.031 -0.0242  0.1445 -0.0334
 3730SOL    HW112631   7.673   5.907   7.113  1.6126 -2.2616 -1.6231
 3730SOL    HW212632   7.710   6.002   7.001 -0.3893  0.5985 -0.0284
 3731SOL     OW12633   0.902   5.786   9.495  0.3982 -0.3760 -0.3706
 3731SOL    HW112634   0.893   5.871   9.452  0.4786  0.0793  0.4882
 3731SOL    HW212635   0.840   5.729   9.450  0.1067  0.2273 -0.7419
 3732SOL     OW12636   1.319   4.968   8.293  0.2041  0.1053 -0.0477
 3732SOL    HW112637   1.365   4.885   8.283 -0.6210 -0.3744  0.0484
 3732SOL    HW212638   1.312   5.002   8.204 -1.4537 -1.0397 -0.3860
 3733SOL     OW12639   1.871   4.627   8.548 -0.3558 -0.1462 -0.0566
 3733SOL    HW112640   1.818   4.682   8.606 -0.5351 -2.1362  1.7663
 3733SOL    HW212641   1.961   4.649   8.572 -0.4094  0.1431 -0.1153
 3734SOL     OW12642   1.353   5.994   7.685  0.0237  0.1006  0.4668
 3734SOL    HW112643   1.295   6.002   7.610 -0.5115  0.5382  0.9132
 3734SOL    HW212644   1.429   6.047   7.663 -0.5730  1.0507  0.6403
 3735SOL     OW12645   0.752   3.456   9.581 -0.1481  0.1960  0.0058
 3735SOL    HW112646   0.713   3.522   9.639 -0.4498  0.4186 -0.4333
 3735SOL    HW212647   0.714   3.373   9.610 -2.3361  0.5738 -1.4510
 3736SOL     OW12648   1.537   5.604   8.792 -0.4950 -0.5066 -0.0334
 3736SOL    HW112649   1.623   5.629   8.826 -1.3358  0.3941  1.5491
 3736SOL    HW212650   1.496   5.555   8.864 -0.6600 -2.5209 -1.4117
 3737SOL     OW12651   7.299   4.373   8.325  0.0411 -0.9222  0.0428
 3737SOL    HW112652   7.279   4.417   8.407  0.4497 -1.1684  0.2745
 3737SOL    HW212653   7.234   4.409   8.263  0.8388  0.5884  0.0241
 3738SOL     OW12654   0.532   5.695   9.106 -0.6740  0.3682  0.2069
 3738SOL    HW112655   0.491   5.619   9.064 -2.2613  1.0668  0.4013
 3738SOL    HW212656   0.575   5.742   9.034  0.4330 -0.7568  0.1081
 3739SOL     OW12657   0.928   4.891   9.036 -0.5083  0.1579 -0.3694
 3739SOL    HW112658   0.896   4.961   9.093  1.1344  3.1362 -2.7986
 3739SOL    HW212659   0.848   4.853   8.998 -1.4892 -0.1101  1.8045
 3740SOL     OW12660   1.802   6.034   7.463  0.2465  0.0187  0.6639
 3740SOL    HW112661   1.848   5.952   7.476  1.9594  0.9904  1.0838
 3740SOL    HW212662   1.743   6.017   7.389  2.0932 -0.9956 -0.6532
 3741SOL     OW12663   0.052   5.337   6.395  0.4331  0.3824 -0.3773
 3741SOL    HW112664   0.020   5.250   6.369 -0.7625  0.7778 -0.2650
 3741SOL    HW212665   0.123   5.355   6.333  1.4400 -1.1276  0.2779
 3742SOL     OW12666   7.930   4.875  10.383  0.1338  0.1870  0.5831
 3742SOL    HW112667   7.954   4.899  10.472  1.4643  1.6811 -0.1315
 3742SOL    HW212668   7.935   4.956  10.333  1.3038 -0.9200 -1.2353
 3743SOL     OW12669   6.971   4.920   7.589  0.5959 -0.4705 -0.6677
 3743SOL    HW112670   7.046   4.888   7.638 -0.6916 -0.3475  1.5214
 3743SOL    HW212671   6.916   4.843   7.575 -0.2434 -0.0956  0.3925
 3744SOL     OW12672   1.331   3.516   8.235 -0.3039 -0.0142  0.0283
 3744SOL    HW112673   1.295   3.603   8.217  0.3238  0.2751  0.1335
 3744SOL    HW212674   1.418   3.518   8.195  0.6091  0.1938  1.9233
 3745SOL     OW12675   0.768   6.708   9.378  0.4028  0.8326  0.6447
 3745SOL    HW112676   0.710   6.784   9.378 -0.0025  0.5686 -1.2372
 3745SOL    HW212677   0.756   6.669   9.292  1.3714 -0.7916  1.2061
 3746SOL     OW12678   7.636   2.276   7.437  0.3407  0.1601  0.6024
 3746SOL    HW112679   7.691   2.331   7.382  1.0747 -1.2228 -0.0949
 3746SOL    HW212680   7.627   2.325   7.519  0.6756  1.4518 -0.0985
 3747SOL     OW12681   2.455   4.019   8.470  0.5522  0.3169  0.0688
 3747SOL    HW112682   2.530   4.062   8.430  0.4917  0.9334  0.6094
 3747SOL    HW212683   2.384   4.083   8.465 -0.0460 -0.3824 -0.7488
 3748SOL     OW12684   7.534   4.129   6.946  0.1533 -0.3339  0.0765
 3748SOL    HW112685   7.483   4.051   6.967 -1.8437  1.1599  1.2012
 3748SOL    HW212686   7.468   4.194   6.918  1.6564  1.1193 -0.2590
 3749SOL     OW12687   2.484   6.381   8.623  0.4278  0.0306  0.5568
 3749SOL    HW112688   2.474   6.387   8.528  1.9010  0.0158  0.3780
 3749SOL    HW212689   2.423   6.312   8.649  0.9681 -0.9118 -0.5605
 3750SOL     OW12690   6.447   5.588   7.654 -0.5635  0.2289 -0.0311
 3750SOL    HW112691   6.424   5.673   7.618 -1.8917 -0.6064 -1.2674
 3750SOL    HW212692   6.383   5.527   7.617  1.6867 -1.7061 -1.0592
 3751SOL     OW12693   2.333   3.053   7.469  0.6428  0.1703  0.2612
 3751SOL    HW112694   2.397   3.102   7.418  0.6862  0.5643  0.6868
 3751SOL    HW212695   2.256   3.047   7.412  0.6740  0.6474  0.1679
 3752SOL     OW12696   1.114   5.186   8.254 -0.9052  0.0732  0.2095
 3752SOL    HW112697   1.188   5.222   8.206 -0.8958  0.2312  0.3434
 3752SOL    HW212698   1.083   5.114   8.199 -0.1461 -0.5210  0.5486
 3753SOL     OW12699   7.329   5.437   9.719  0.7374 -0.1272 -0.1199
 3753SOL    HW112700   7.389   5.362   9.726  1.6290  0.4161 -1.4873
 3753SOL    HW212701   7.344   5.487   9.798  0.0181 -1.4550  0.8992
 3754SOL     OW12702   0.912   2.892   7.431  0.4672  0.3920 -0.4328
 3754SOL    HW112703   0.870   2.900   7.345 -0.6257  0.5418  0.1109
 3754SOL    HW212704   0.997   2.853   7.411 -0.8657 -2.3004 -1.3276
 3755SOL     OW12705   1.479   5.234   9.074 -0.4119 -0.1733 -0.4308
 3755SOL    HW112706   1.570   5.242   9.045  0.2121  1.3052  1.6446
 3755SOL    HW212707   1.482   5.168   9.143 -0.9872 -0.3835 -0.6030
 3756SOL     OW12708   7.194   4.368   7.785  0.3124  0.1610 -0.0430
 3756SOL    HW112709   7.255   4.313   7.834 -1.0206 -1.7543 -0.4005
 3756SOL    HW212710   7.114   4.316   7.780 -1.3163  2.4553  0.2276
 3757SOL     OW12711   0.173   4.775  11.083  0.1728 -0.4223  0.0880
 3757SOL    HW112712   0.192   4.866  11.108  0.3576 -0.6363  0.7224
 3757SOL    HW212713   0.228   4.760  11.006  0.6670 -0.2246  0.4008
 3758SOL     OW12714   1.009   3.795   8.380  0.0639 -0.6020  0.1189
 3758SOL    HW112715   0.984   3.887   8.369  0.5130 -0.6216 -1.2206
 3758SOL    HW212716   1.089   3.785   8.328  1.1777 -1.2714  1.8808
 3759SOL     OW12717   0.569   6.268   9.617 -0.0184 -0.0058 -0.0887
 3759SOL    HW112718   0.642   6.250   9.557 -0.6911 -0.2893 -0.8446
 3759SOL    HW212719   0.593   6.223   9.698  1.0732  0.6760 -0.0059
 3760SOL     OW12720   0.171   4.188  11.153  0.6930 -0.1331 -0.1629
 3760SOL    HW112721   0.173   4.279  11.183  1.2759 -0.5379  1.1428
 3760SOL    HW212722   0.173   4.194  11.058  1.9331  1.2229 -0.1045
 3761SOL     OW12723   1.106   6.088   9.614 -0.2442  0.6762  0.4255
 3761SOL    HW112724   1.195   6.067   9.643 -0.0044  1.4346  0.2578
 3761SOL    HW212725   1.052   6.018   9.651  0.5498 -0.3678 -0.3380
 3762SOL     OW12726   0.660   5.454   8.280 -0.1051 -0.5904 -0.2135
 3762SOL    HW112727   0.676   5.435   8.188 -0.2901 -2.0710  0.0492
 3762SOL    HW212728   0.598   5.387   8.309  0.4346 -0.5372  1.1440
 3763SOL     OW12729   0.650   2.258   8.651 -0.0923  0.3203 -0.3192
 3763SOL    HW112730   0.608   2.184   8.694 -2.2248  1.7186  0.1940
 3763SOL    HW212731   0.631   2.247   8.558 -1.6651  0.8760 -0.1078
 3764SOL     OW12732   1.049   3.754   7.954 -0.4290  0.2173 -0.3784
 3764SOL    HW112733   1.133   3.708   7.959  0.2613  1.2492 -1.9666
 3764SOL    HW212734   0.983   3.684   7.960  0.5658 -0.8235 -1.2549
 3765SOL     OW12735   0.984   5.531   6.752 -0.3625  0.4828 -0.3479
 3765SOL    HW112736   1.005   5.610   6.802 -0.0705  0.5553 -0.5875
 3765SOL    HW212737   1.012   5.550   6.663  0.2417 -0.1053 -0.2945
 3766SOL     OW12738   1.301   4.314   8.885  0.1168  0.6577  0.5589
 3766SOL    HW112739   1.239   4.243   8.869  1.1008 -0.0349 -0.3131
 3766SOL    HW212740   1.271   4.354   8.967 -0.8518 -0.3248  0.7062
 3767SOL     OW12741   0.419   2.667  10.382  0.4740 -0.2161 -0.1585
 3767SOL    HW112742   0.390   2.638  10.295 -1.5847  0.7573  0.1543
 3767SOL    HW212743   0.448   2.587  10.425 -0.5743 -1.0713 -0.9776
 3768SOL     OW12744   1.367   6.646   9.217 -0.0668  0.3473  0.3508
 3768SOL    HW112745   1.325   6.567   9.252 -1.3712  0.1754 -1.4402
 3768SOL    HW212746   1.454   6.617   9.189 -0.1377 -0.2079  0.6884
 3769SOL     OW12747   0.744   3.943   7.462 -0.2194  0.2289 -0.7044
 3769SOL    HW112748   0.758   3.862   7.511  0.8652 -0.3366 -1.8962
 3769SOL    HW212749   0.813   4.001   7.493  0.6475 -0.2274 -1.7245
 3770SOL     OW12750   1.245   3.793   8.208 -0.5141 -0.3061  0.0558
 3770SOL    HW112751   1.294   3.875   8.198 -1.0699  0.0899  0.5286
 3770SOL    HW212752   1.247   3.754   8.120 -1.0124  0.6598 -0.4133
 3771SOL     OW12753   0.220   3.161   7.314  0.6890  0.4682 -0.2699
 3771SOL    HW112754   0.226   3.129   7.224 -0.0867 -1.1341  0.2176
 3771SOL    HW212755   0.132   3.198   7.322 -0.0264 -1.2699  0.3718
 3772SOL     OW12756   6.959   5.129   9.897  0.6431  0.2916  0.2636
 3772SOL    HW112757   6.868   5.156   9.890  0.3728 -0.3148  1.2389
 3772SOL    HW212758   6.993   5.178   9.972  1.2689  0.8936 -0.3962
 3773SOL     OW12759   7.587   4.793   7.481  0.1776  0.3639 -0.2654
 3773SOL    HW112760   7.662   4.847   7.505  1.3589 -0.7870 -1.1840
 3773SOL    HW212761   7.549   4.838   7.405  0.5323  0.4421 -0.3990
 3774SOL     OW12762   1.920   4.896   9.283 -0.4827 -0.6192 -0.0911
 3774SOL    HW112763   1.988   4.887   9.350 -1.2608 -0.9352  0.6927
 3774SOL    HW212764   1.849   4.840   9.315 -1.7426  0.9331 -0.0294
 3775SOL     OW12765   0.164   5.304   7.614 -0.5748  0.0206  0.1140
 3775SOL    HW112766   0.196   5.234   7.558  2.2127  1.2223  0.0209
 3775SOL    HW212767   0.213   5.382   7.586  0.1986  0.9142  3.4487
 3776SOL     OW12768   7.105   3.666   7.571 -0.0671  0.0336 -0.1104
 3776SOL    HW112769   7.097   3.607   7.646 -0.8967  1.6916  1.1439
 3776SOL    HW212770   7.191   3.644   7.533  0.7526 -0.2749  1.8164
 3777SOL     OW12771   1.170   3.385   9.137  0.8049 -0.1301  0.0174
 3777SOL    HW112772   1.146   3.381   9.230 -0.0876 -0.6461 -0.2218
 3777SOL    HW212773   1.105   3.444   9.098 -0.5785 -2.0669 -0.7670
 3778SOL     OW12774   7.992   6.636   9.097  1.1110 -0.2014  1.0977
 3778SOL    HW112775   7.900   6.611   9.112  0.8812 -0.8318 -0.9762
 3778SOL    HW212776   8.031   6.636   9.184 -0.6174 -0.9192  1.9362
 3779SOL     OW12777   0.572   5.702  11.148  0.6905  0.0370 -0.2369
 3779SOL    HW112778   0.581   5.628  11.088  3.0450  0.1406 -0.1208
 3779SOL    HW212779   0.590   5.779  11.095  3.7617  0.0612  0.6738
 3780SOL     OW12780   1.154   4.814   9.892  0.1956  0.6795 -0.1083
 3780SOL    HW112781   1.117   4.742   9.841  0.8110  0.4137 -0.1846
 3780SOL    HW212782   1.078   4.864   9.922 -0.4693 -1.4720  2.1927
 3781SOL     OW12783   0.978   5.896   7.297  0.0647 -0.1491  0.9223
 3781SOL    HW112784   0.894   5.868   7.332  0.0469 -0.9088  0.2781
 3781SOL    HW212785   1.033   5.909   7.375 -0.3311 -0.6671  1.2912
 3782SOL     OW12786   1.297   5.006   7.590  0.0369 -0.5787  0.1421
 3782SOL    HW112787   1.231   4.938   7.602  0.0950 -0.4742  1.1737
 3782SOL    HW212788   1.371   4.975   7.643  0.6892 -0.5211 -0.7123
 3783SOL     OW12789   0.407   2.466   8.564 -0.1264 -1.1098  0.0583
 3783SOL    HW112790   0.437   2.377   8.547 -1.3557 -1.7850  1.2482
 3783SOL    HW212791   0.311   2.458   8.567 -0.2304  0.1845  0.5346
 3784SOL     OW12792   0.680   6.087   8.191  0.1126  0.7571  0.0045
 3784SOL    HW112793   0.724   6.126   8.267  0.7558  0.5368 -0.2412
 3784SOL    HW212794   0.707   6.142   8.118  3.0285 -1.4603 -0.7540
 3785SOL     OW12795   0.134   5.762  10.514  0.1820  0.2811  0.0355
 3785SOL    HW112796   0.070   5.829  10.539 -0.6754 -0.7738  0.8116
 3785SOL    HW212797   0.097   5.681  10.550  1.2559 -0.5771 -0.7627
 3786SOL     OW12798   1.675   5.664   7.334 -0.0483  0.1918 -0.1193
 3786SOL    HW112799   1.705   5.626   7.416  1.2688  2.3302  0.4550
 3786SOL    HW212800   1.723   5.616   7.266 -0.5759 -1.0713  0.3783
 3787SOL     OW12801   0.248   6.373   8.919  0.1552 -0.4210  0.3502
 3787SOL    HW112802   0.252   6.467   8.899 -0.0555 -0.3751  0.5098
 3787SOL    HW212803   0.268   6.330   8.836 -1.7243 -0.2426 -0.2615
 3788SOL     OW12804   0.133   3.409   9.057 -0.5164  0.0569 -0.1562
 3788SOL    HW112805   0.108   3.498   9.081  0.1060 -0.2336  1.7366
 3788SOL    HW212806   0.094   3.354   9.124 -0.9318 -1.1213 -1.3291
 3789SOL     OW12807   5.901   5.720   6.993 -0.1520 -0.8858  0.3983
 3789SOL    HW112808   5.986   5.698   6.955  0.2343 -0.0681  0.7772
 3789SOL    HW212809   5.842   5.651   6.961 -0.0187  0.0908 -2.2321
 3790SOL     OW12810   2.001   6.103   8.191  0.1379  0.3362  0.3904
 3790SOL    HW112811   2.036   6.125   8.105 -1.2391  0.0588 -0.2804
 3790SOL    HW212812   1.953   6.181   8.219  1.5881  0.8762  1.4954
 3791SOL     OW12813   0.283   6.067   8.310 -0.5732  0.1067  0.5600
 3791SOL    HW112814   0.326   6.150   8.292 -2.1886  0.7279 -0.7254
 3791SOL    HW212815   0.255   6.073   8.401 -0.6103  0.9392  0.4947
 3792SOL     OW12816   1.535   5.370   8.317  0.3476  0.1512 -0.6681
 3792SOL    HW112817   1.621   5.410   8.325 -0.4845  2.0958 -0.9303
 3792SOL    HW212818   1.502   5.363   8.406 -0.0303  1.2994 -0.7109
 3793SOL     OW12819   7.160   3.603   8.420  0.5862  0.1594 -0.7878
 3793SOL    HW112820   7.100   3.672   8.449 -0.1162 -1.3930  1.7161
 3793SOL    HW212821   7.246   3.646   8.418  0.2049  1.0956  0.9383
 3794SOL     OW12822   1.743   3.374   9.871  0.0749  0.3639 -0.5147
 3794SOL    HW112823   1.757   3.411   9.959  1.1848 -2.2554  0.5358
 3794SOL    HW212824   1.826   3.388   9.826  0.7700 -1.3197  0.1469
 3795SOL     OW12825   7.997   3.671   9.136 -1.0920  0.1177 -0.5023
 3795SOL    HW112826   8.075   3.716   9.168 -0.0312 -1.2506 -1.0850
 3795SOL    HW212827   7.955   3.735   9.078 -0.5810  0.9705  0.0439
 3796SOL     OW12828   2.450   3.804   8.296 -0.5679 -0.1869  0.2484
 3796SOL    HW112829   2.435   3.873   8.361 -1.4035 -0.6688  0.5789
 3796SOL    HW212830   2.543   3.811   8.275 -0.5921  0.8930  0.4422
 3797SOL     OW12831   0.974   5.115   8.891  0.0122 -0.2170 -0.1773
 3797SOL    HW112832   1.014   5.163   8.963  1.1657  0.8719 -1.5114
 3797SOL    HW212833   0.956   5.028   8.928  0.2822  0.4037  1.4956
 3798SOL     OW12834   0.563   4.712   8.702 -0.1925 -0.1434  0.1792
 3798SOL    HW112835   0.642   4.658   8.704  0.4990  0.8223 -0.4261
 3798SOL    HW212836   0.524   4.694   8.616  0.2540  0.6193 -0.1841
 3799SOL     OW12837   7.342   4.705   7.114 -0.4618 -0.8556  0.1155
 3799SOL    HW112838   7.310   4.705   7.204  1.2401 -1.9149  0.7816
 3799SOL    HW212839   7.361   4.797   7.095 -1.2671 -0.5647  0.6606
 3800SOL     OW12840   1.423   6.200   8.193 -0.0572 -0.3741 -0.5262
 3800SOL    HW112841   1.492   6.185   8.128  0.4252  1.4218 -0.4689
 3800SOL    HW212842   1.366   6.266   8.152 -0.0741  0.3413  0.6235
 3801SOL     OW12843   7.381   5.523   7.926  0.1829  0.7638  0.0226
 3801SOL    HW112844   7.350   5.464   7.995  0.0934 -1.4132 -1.7428
 3801SOL    HW212845   7.476   5.520   7.933  0.1717  0.6882  0.1516
 3802SOL     OW12846   0.052   4.212   8.088 -0.0194 -0.0588 -0.2914
 3802SOL    HW112847  -0.004   4.267   8.033 -0.4391 -0.1912  0.0026
 3802SOL    HW212848   0.095   4.152   8.027  0.8798  0.9488 -0.6989
 3803SOL     OW12849   0.036   3.508   9.344 -0.4525  0.6273  0.2058
 3803SOL    HW112850   0.128   3.488   9.326 -0.7617 -1.2896  0.5180
 3803SOL    HW212851   0.007   3.558   9.268  0.0085 -1.5941 -1.5511
 3804SOL     OW12852   1.129   5.167   7.422 -0.3351  0.5204 -0.3648
 3804SOL    HW112853   1.162   5.097   7.478 -1.6318 -0.5636 -0.9082
 3804SOL    HW212854   1.141   5.247   7.474  0.2245 -0.2133  0.6759
 3805SOL     OW12855   6.697   4.439   8.742  0.1534 -0.8119 -0.5941
 3805SOL    HW112856   6.672   4.389   8.820 -0.1143  0.7336  0.3443
 3805SOL    HW212857   6.621   4.493   8.723  0.9230  0.2444 -0.7470
 3806SOL     OW12858   0.669   6.263   8.425  0.6757  0.2495  0.0793
 3806SOL    HW112859   0.705   6.352   8.427  0.0589  0.5161 -0.3779
 3806SOL    HW212860   0.589   6.271   8.374  0.9421 -0.6940 -0.5047
 3807SOL     OW12861   1.081   4.015   9.479 -0.0654 -0.1876  0.5980
 3807SOL    HW112862   0.987   4.032   9.483 -0.4548 -1.8902 -0.3973
 3807SOL    HW212863   1.092   3.954   9.407  1.9678  0.8101 -0.0180
 3808SOL     OW12864   0.554   5.327  10.068  0.0148 -0.0742 -0.6706
 3808SOL    HW112865   0.481   5.298  10.122  0.7258 -1.4756 -0.3995
 3808SOL    HW212866   0.532   5.417  10.043 -0.6531  0.3995  1.4002
 3809SOL     OW12867   7.456   3.784   9.964 -0.1829 -0.5353 -0.3198
 3809SOL    HW112868   7.525   3.823   9.910 -1.7962 -0.0756 -2.1423
 3809SOL    HW212869   7.414   3.720   9.907 -2.1267  0.1407  0.2637
 3810SOL     OW12870   2.436   4.252   8.176 -0.3730 -0.1258 -0.3051
 3810SOL    HW112871   2.465   4.338   8.147  0.4796 -0.4665 -0.5029
 3810SOL    HW212872   2.385   4.218   8.102  1.1528 -0.6767 -1.1659
 3811SOL     OW12873   0.906   2.548   9.301  0.2360 -0.9000  0.1117
 3811SOL    HW112874   0.984   2.571   9.251  0.0968 -0.4377  0.1009
 3811SOL    HW212875   0.939   2.524   9.388  0.2624  1.1366  0.7138
 3812SOL     OW12876   1.735   5.740  11.257  0.1997  0.1716  0.3513
 3812SOL    HW112877   1.688   5.663  11.227  2.1865 -0.1285 -2.3184
 3812SOL    HW212878   1.819   5.706  11.288  0.6657  1.1524  0.1938
 3813SOL     OW12879   0.406   5.095   9.931  0.2573  0.2383  0.2772
 3813SOL    HW112880   0.311   5.084   9.933  0.3414 -0.5644  0.1059
 3813SOL    HW212881   0.426   5.150  10.007 -0.3330  0.2947  0.3901
 3814SOL     OW12882   1.626   4.464   9.021 -0.0866  0.3638  0.0332
 3814SOL    HW112883   1.690   4.530   9.050 -0.8705  0.3402  1.9808
 3814SOL    HW212884   1.563   4.459   9.093 -1.5804 -0.5496 -1.2759
 3815SOL     OW12885   0.298   4.987   5.882 -0.0005  0.2839  0.0965
 3815SOL    HW112886   0.211   4.947   5.877 -0.3538  1.0093  0.3541
 3815SOL    HW212887   0.352   4.934   5.824 -0.9510  0.6707 -1.1786
 3816SOL     OW12888   1.486   6.846   8.261  0.3068  0.1426 -0.0513
 3816SOL    HW112889   1.397   6.850   8.296  0.1591 -0.2341 -0.3816
 3816SOL    HW212890   1.509   6.753   8.264  0.7539  0.2563  0.1817
 3817SOL     OW12891   7.743   4.236   8.251 -0.2009 -0.1474  0.0325
 3817SOL    HW112892   7.653   4.217   8.278 -0.2613  0.2884  0.1391
 3817SOL    HW212893   7.782   4.150   8.237 -0.8934 -0.3395 -0.8762
 3818SOL     OW12894   6.797   4.928   8.018  0.0256  0.2269 -0.4810
 3818SOL    HW112895   6.757   4.998   8.069  0.7195  0.8410 -0.7582
 3818SOL    HW212896   6.796   4.961   7.928 -1.8815 -1.1530 -1.0260
 3819SOL     OW12897   1.462   5.186   7.460 -0.1900  0.2063  0.2831
 3819SOL    HW112898   1.442   5.172   7.367 -0.4597 -0.4469  0.4318
 3819SOL    HW212899   1.390   5.143   7.506 -1.3103  2.5078  0.7919
 3820SOL     OW12900   2.149   5.107   9.648 -0.1274  0.0048 -0.1249
 3820SOL    HW112901   2.096   5.030   9.667  0.0599 -0.2658 -0.6712
 3820SOL    HW212902   2.171   5.143   9.734 -1.8527  0.6013  0.1112
 3821SOL     OW12903   2.079   5.020   9.971  0.3230  0.5351 -0.0805
 3821SOL    HW112904   2.101   5.104  10.009  1.3324 -0.3263  1.3391
 3821SOL    HW212905   1.987   5.006   9.993  0.5435  0.6399  0.9197
 3822SOL     OW12906   1.044   4.174   8.544 -0.6483 -0.0445 -0.6360
 3822SOL    HW112907   1.044   4.265   8.513 -0.8482 -0.4693 -1.9367
 3822SOL    HW212908   1.016   4.123   8.468  0.3678 -1.2985 -0.2011
 3823SOL     OW12909   0.293   5.073   9.222  0.2056 -0.6692 -0.4658
 3823SOL    HW112910   0.239   5.048   9.147  0.7274 -0.0086 -1.0773
 3823SOL    HW212911   0.354   5.138   9.187 -0.5187  0.7849  0.8701
 3824SOL     OW12912   0.973   3.457  10.068  0.2553  0.0537  0.1913
 3824SOL    HW112913   1.023   3.498  10.139 -0.3843  1.1559  0.0261
 3824SOL    HW212914   1.031   3.465   9.991  0.5741 -0.3228  0.3905
 3825SOL     OW12915   0.984   2.954   9.144 -0.2432 -0.3116  0.1148
 3825SOL    HW112916   0.893   2.922   9.149 -0.9941  1.2448 -1.9213
 3825SOL    HW212917   1.028   2.889   9.089  0.3949 -1.9529  2.4216
 3826SOL     OW12918   1.326   5.167   8.493  0.2036 -0.1082  0.2499
 3826SOL    HW112919   1.313   5.087   8.442  0.2172  0.2113 -0.2519
 3826SOL    HW212920   1.241   5.183   8.534 -0.5986  1.0585 -1.7241
 3827SOL     OW12921   0.460   4.398   8.573  0.2172 -0.0584 -0.3241
 3827SOL    HW112922   0.471   4.402   8.478 -1.3302  0.9031 -0.5034
 3827SOL    HW212923   0.542   4.432   8.608  0.4718  0.4254 -1.3502
 3828SOL     OW12924   0.153   4.286   9.683  0.3619  0.1133 -0.0304
 3828SOL    HW112925   0.083   4.258   9.742 -0.2446  0.8962 -0.3619
 3828SOL    HW212926   0.207   4.207   9.671 -0.9990 -0.7845 -0.5229
 3829SOL     OW12927   1.437   6.354   8.759  0.1028  0.4012  0.8845
 3829SOL    HW112928   1.384   6.289   8.805  0.1731  0.3531  0.8969
 3829SOL    HW212929   1.523   6.315   8.752 -0.0807  0.1106  0.0920
 3830SOL     OW12930   7.231   4.794   5.844 -0.0702  0.2740 -0.3633
 3830SOL    HW112931   7.144   4.804   5.806 -0.1540  0.2329 -0.1843
 3830SOL    HW212932   7.219   4.728   5.912  0.2606 -0.2992 -0.8557
 3831SOL     OW12933   6.409   3.541   7.834  0.0368 -0.5429 -0.0063
 3831SOL    HW112934   6.379   3.452   7.850 -1.4112  0.0121  0.5876
 3831SOL    HW212935   6.342   3.580   7.778  0.4615  0.2701  0.0245
 3832SOL     OW12936   1.006   4.358   8.202  0.0564 -0.1631 -0.2093
 3832SOL    HW112937   0.937   4.382   8.140 -0.0230 -1.2720 -0.5650
 3832SOL    HW212938   0.999   4.263   8.210 -1.2468  0.0615  3.0291
 3833SOL     OW12939   1.018   4.006   8.063 -0.0947 -0.4299  0.0216
 3833SOL    HW112940   1.081   4.057   8.012  0.7237  0.3231  1.7122
 3833SOL    HW212941   1.026   3.917   8.027  1.6744 -0.2796 -0.0794
 3834SOL     OW12942   1.929   5.370   8.034 -0.1218 -0.1245 -0.1532
 3834SOL    HW112943   1.886   5.424   8.100  0.5424 -0.7021  0.7578
 3834SOL    HW212944   1.881   5.287   8.036 -1.7218  0.6505 -2.1668
 3835SOL     OW12945   6.729   6.838   8.036  0.0372  0.7555  0.1475
 3835SOL    HW112946   6.718   6.749   8.001  0.2830  0.7214  0.1564
 3835SOL    HW212947   6.802   6.830   8.098 -0.9928  0.5992  1.3839
 3836SOL     OW12948   0.367   5.386   8.669 -0.0096  0.2528  0.0382
 3836SOL    HW112949   0.306   5.414   8.600 -0.0087 -0.1925 -0.1476
 3836SOL    HW212950   0.424   5.462   8.682  0.2013  0.2367 -0.6908
 3837SOL     OW12951   0.268   7.022   8.226  0.1107 -0.6236  0.4076
 3837SOL    HW112952   0.204   7.063   8.169  1.3301  1.3918  0.3865
 3837SOL    HW212953   0.351   7.065   8.203  0.8577 -0.6740  2.7824
 3838SOL     OW12954   7.684   2.966   9.250 -0.4062 -0.2725 -0.0671
 3838SOL    HW112955   7.605   2.968   9.197 -0.8306 -0.8579  0.5263
 3838SOL    HW212956   7.654   2.989   9.338  0.0094 -0.9223  0.2522
 3839SOL     OW12957   0.416   4.056   9.071  0.0004  0.5594 -0.4707
 3839SOL    HW112958   0.432   3.976   9.022 -0.0226  1.6843 -2.3930
 3839SOL    HW212959   0.502   4.099   9.075 -0.0419  0.5939  0.3221
 3840SOL     OW12960   6.514   6.243  10.314 -0.2127 -0.2276  0.7694
 3840SOL    HW112961   6.431   6.223  10.272  0.6327 -2.3053 -0.0643
 3840SOL    HW212962   6.570   6.168  10.292  2.0686  1.3753  0.7855
 3841SOL     OW12963   0.337   3.176   8.240  0.2343 -0.4575  0.3895
 3841SOL    HW112964   0.297   3.241   8.299  0.8419  0.7507 -0.4789
 3841SOL    HW212965   0.329   3.093   8.287  0.7122  0.4531  2.1787
 3842SOL     OW12966   7.625   6.446   8.073 -0.6026 -0.0847 -0.5060
 3842SOL    HW112967   7.531   6.433   8.064 -0.7782  1.4494 -1.2485
 3842SOL    HW212968   7.660   6.433   7.985 -0.2945  0.5358 -0.4798
 3843SOL     OW12969   0.673   3.664   9.778  0.5205 -0.1278  0.3147
 3843SOL    HW112970   0.707   3.644   9.865  1.2728 -0.2713 -0.0022
 3843SOL    HW212971   0.620   3.742   9.791  0.0311 -0.5643  1.0256
 3844SOL     OW12972   1.287   4.058   8.510 -0.5125  0.3480  0.2640
 3844SOL    HW112973   1.296   4.052   8.415 -0.9933 -1.5177  0.2988
 3844SOL    HW212974   1.225   4.129   8.524  0.2167  1.2189 -0.7580
 3845SOL     OW12975   0.338   3.381   8.003  0.3216 -0.4206 -0.6993
 3845SOL    HW112976   0.377   3.401   7.919  3.0644 -1.6049  0.1778
 3845SOL    HW212977   0.373   3.295   8.026 -0.4896 -0.2252  1.5579
 3846SOL     OW12978   1.819   4.241   8.019  0.4159  0.3130 -0.1793
 3846SOL    HW112979   1.871   4.222   8.097 -0.1072 -0.9139 -0.0968
 3846SOL    HW212980   1.881   4.234   7.946  0.1470 -2.8242 -0.2531
 3847SOL     OW12981   1.506   2.241   8.573 -0.0476 -0.3738 -0.1184
 3847SOL    HW112982   1.559   2.308   8.616 -1.2205  1.1601 -0.9574
 3847SOL    HW212983   1.567   2.197   8.514  1.0044 -0.8357  1.2578
 3848SOL     OW12984   1.067   3.467   8.748 -0.2845  0.3148  0.2149
 3848SOL    HW112985   1.081   3.380   8.786  1.2629  0.9931  1.3005
 3848SOL    HW212986   1.129   3.472   8.676 -0.5336  0.4404  0.0081
 3849SOL     OW12987   1.392   5.254   8.766 -0.1287 -0.6008 -0.7018
 3849SOL    HW112988   1.319   5.232   8.708 -2.3661  0.7987  1.3871
 3849SOL    HW212989   1.373   5.206   8.847  2.1656 -1.4262 -0.5963
 3850SOL     OW12990   0.276   6.240  10.036 -0.0435 -0.3242  0.1021
 3850SOL    HW112991   0.329   6.320  10.032 -0.6032  0.0015 -1.9122
 3850SOL    HW212992   0.190   6.271  10.064 -0.9710  0.2839 -3.0340
 3851SOL     OW12993   1.886   5.202   8.424 -0.4014  0.0373 -0.2519
 3851SOL    HW112994   1.958   5.139   8.420  1.4964  2.1286 -1.9384
 3851SOL    HW212995   1.811   5.155   8.388  1.2045 -1.0174 -2.4599
 3852SOL     OW12996   6.460   4.174   9.250 -0.6953 -0.1135  0.0086
 3852SOL    HW112997   6.434   4.148   9.162 -1.4518 -1.9112  0.7238
 3852SOL    HW212998   6.500   4.260   9.239 -0.1288 -0.6031 -2.1862
 3853SOL     OW12999   0.412   3.387   7.705 -0.2638  0.2954 -0.5456
 3853SOL    HW113000   0.467   3.329   7.653  1.3693 -0.7944  2.1526
 3853SOL    HW213001   0.432   3.475   7.674  1.7232 -0.2207 -0.8200
 3854SOL     OW13002   0.981   3.647   7.266  0.3526 -0.2287  0.5426
 3854SOL    HW113003   1.013   3.599   7.190  1.4564  1.1164  0.1303
 3854SOL    HW213004   0.979   3.738   7.238 -0.5063  0.1358  1.7116
 3855SOL     OW13005   0.555   5.480   9.744 -0.1043  0.1549  0.1013
 3855SOL    HW113006   0.509   5.506   9.664 -1.1420 -1.1497  0.2305
 3855SOL    HW213007   0.516   5.535   9.812 -1.3698 -0.7893  0.1728
 3856SOL     OW13008   1.732   2.305   9.508  0.6309  0.1031  0.0002
 3856SOL    HW113009   1.774   2.261   9.581 -1.7455 -1.4557  0.5413
 3856SOL    HW213010   1.706   2.391   9.543  1.6855  0.3465  0.1985
 3857SOL     OW13011   1.166   5.465   8.503  0.0202 -0.3878  0.0107
 3857SOL    HW113012   1.224   5.393   8.528 -1.1474 -0.9752  1.1726
 3857SOL    HW213013   1.080   5.424   8.494 -0.9636  1.0360  2.0871
 3858SOL     OW13014   1.688   4.089   7.771  0.1761  0.0879 -0.0802
 3858SOL    HW113015   1.760   4.152   7.779 -0.7944  1.4082 -1.1925
 3858SOL    HW213016   1.657   4.100   7.681  0.0274 -2.0860 -0.3531
 3859SOL     OW13017   0.465   4.396   8.243  0.0088 -0.0059 -0.7601
 3859SOL    HW113018   0.385   4.426   8.286  0.7296 -0.5827  1.0776
 3859SOL    HW213019   0.436   4.365   8.157 -2.0639 -1.9539  0.5358
 3860SOL     OW13020   0.776   4.637   8.034  0.6630 -0.0671 -0.0651
 3860SOL    HW113021   0.776   4.669   8.124  1.5852  0.9157 -0.3842
 3860SOL    HW213022   0.782   4.542   8.042 -0.8218 -0.1111  0.9081
 3861SOL     OW13023   1.120   4.553   5.959 -0.5195  1.0236  0.1708
 3861SOL    HW113024   1.208   4.543   5.994 -0.1768  1.2275 -0.6314
 3861SOL    HW213025   1.064   4.559   6.037  0.1526  0.7591  0.6781
 3862SOL     OW13026   1.016   5.748   6.873 -1.0816  0.6649 -0.3729
 3862SOL    HW113027   1.098   5.796   6.880 -1.3970  1.0071  1.3834
 3862SOL    HW213028   0.952   5.813   6.845 -0.8126  0.4392 -1.5555
 3863SOL     OW13029   1.156   3.767  10.587  0.3476  0.2006  0.6770
 3863SOL    HW113030   1.133   3.723  10.506 -0.6233 -0.1146  1.1142
 3863SOL    HW213031   1.202   3.846  10.559  0.1661  0.0139 -0.1726
 3864SOL     OW13032   0.484   3.839   8.919 -0.1921 -0.1965 -0.3186
 3864SOL    HW113033   0.450   3.772   8.860 -0.0127  0.4224 -1.1456
 3864SOL    HW213034   0.579   3.824   8.920 -0.0444  0.5786 -1.2120
 3865SOL     OW13035   0.415   5.845  10.073 -0.2801 -0.1783 -0.0728
 3865SOL    HW113036   0.350   5.902  10.032 -0.4093  0.1729  0.6043
 3865SOL    HW213037   0.415   5.870  10.165  0.1559 -0.8072  0.1114
 3866SOL     OW13038   0.818   4.715   9.350 -0.3147 -0.1793 -0.1889
 3866SOL    HW113039   0.769   4.730   9.431 -0.1899 -1.0653  0.0565
 3866SOL    HW213040   0.765   4.755   9.282 -0.2389  0.9278  0.3696
 3867SOL     OW13041   2.886   1.609   8.671  0.0971 -0.2954 -0.0527
 3867SOL    HW113042   2.848   1.693   8.697  0.2971  0.1137 -1.0358
 3867SOL    HW213043   2.838   1.544   8.723  1.7126  0.5430  2.7558
 3868SOL     OW13044   2.688   0.276   9.553  0.2197 -0.3219 -0.2121
 3868SOL    HW113045   2.675   0.309   9.642  1.3693 -0.1946 -0.0776
 3868SOL    HW213046   2.679   0.181   9.561 -0.3433 -0.2595 -0.0848
 3869SOL     OW13047   7.085   6.703   9.951 -0.0598  0.5481  0.1242
 3869SOL    HW113048   7.057   6.794   9.954  0.5609  0.7609 -0.3041
 3869SOL    HW213049   7.127   6.693   9.865 -2.7348 -0.9356 -1.1322
 3870SOL     OW13050   0.286   4.037  11.585  0.4229 -0.5054 -0.0745
 3870SOL    HW113051   0.350   3.995  11.528  2.0640  1.5870  0.1410
 3870SOL    HW213052   0.300   3.996  11.671 -0.2753 -1.7965 -0.5421
 3871SOL     OW13053   1.050   4.163   8.826 -0.5091 -0.3319  0.3321
 3871SOL    HW113054   1.098   4.081   8.830  1.3655  0.6547 -0.3992
 3871SOL    HW213055   1.057   4.191   8.735 -1.2616  0.5598  0.5249
 3872SOL     OW13056   7.713   4.264   7.477 -0.2634  0.1131 -0.0954
 3872SOL    HW113057   7.649   4.207   7.433  0.5828 -2.6691  2.0648
 3872SOL    HW213058   7.661   4.310   7.543 -0.3061 -1.2507  0.8603
 3873SOL     OW13059   1.274   6.667   8.906  1.1273 -0.3018  0.2659
 3873SOL    HW113060   1.224   6.596   8.866  0.8257  0.7756 -1.3672
 3873SOL    HW213061   1.365   6.648   8.883  1.2260 -0.9647  1.1586
 3874SOL     OW13062   1.318   3.740   8.487  0.5070  0.4242  0.0218
 3874SOL    HW113063   1.305   3.753   8.393 -0.9813  1.4299  0.3411
 3874SOL    HW213064   1.373   3.814   8.514 -0.6329  1.1979  0.2642
 3875SOL     OW13065   0.425   3.826   7.735 -0.1239  0.0186 -0.2407
 3875SOL    HW113066   0.494   3.784   7.786 -1.0620 -0.3871  0.7349
 3875SOL    HW213067   0.446   3.919   7.737  0.1293 -0.0511  0.4430
 3876SOL     OW13068   1.039   5.283   9.097  0.0626 -0.4755  0.5945
 3876SOL    HW113069   1.033   5.369   9.055 -1.6971 -1.1156 -0.5781
 3876SOL    HW213070   1.106   5.294   9.164  1.2711  1.2684 -0.8028
 3877SOL     OW13071   0.142   4.840   8.591  0.5665 -0.0280  0.1797
 3877SOL    HW113072   0.181   4.841   8.504  1.0036  1.0489  0.3739
 3877SOL    HW213073   0.065   4.896   8.583 -0.1233 -0.9498  0.1759
 3878SOL     OW13074   0.217   4.273   7.469  0.1740 -0.3632 -0.0456
 3878SOL    HW113075   0.147   4.318   7.422  0.5283 -1.2273 -1.4490
 3878SOL    HW213076   0.255   4.213   7.405  1.9623 -0.1825  0.7870
 3879SOL     OW13077   7.673   3.807   8.862 -0.3516 -0.1879 -0.7118
 3879SOL    HW113078   7.582   3.804   8.833 -0.6284  0.4183  0.0675
 3879SOL    HW213079   7.722   3.839   8.786 -0.9663  0.7370 -0.7256
 3880SOL     OW13080   1.072   3.394   7.795 -0.8528  0.2739 -0.1191
 3880SOL    HW113081   1.017   3.470   7.778 -0.0802  0.6355 -1.0728
 3880SOL    HW213082   1.138   3.396   7.726  0.6279  0.0877  1.2307
 3881SOL     OW13083   0.466   5.241   6.606  0.4281  0.1780 -0.1888
 3881SOL    HW113084   0.535   5.292   6.563 -0.1367  1.3551  0.2739
 3881SOL    HW213085   0.441   5.176   6.540 -0.0985  1.6489 -1.5044
 3882SOL     OW13086   1.775   5.869  10.045 -0.1592  0.3054  0.1438
 3882SOL    HW113087   1.709   5.893   9.980 -1.5087 -0.5850  1.1315
 3882SOL    HW213088   1.859   5.887  10.002 -1.0115  0.3595 -1.5777
 3883SOL     OW13089   0.200   4.759   8.256  0.2333  0.2257  0.1644
 3883SOL    HW113090   0.276   4.817   8.261  0.9871 -0.7185 -0.1923
 3883SOL    HW213091   0.138   4.808   8.201  0.4969  1.0809  0.6027
 3884SOL     OW13092   1.173   6.608   9.652  0.5376 -0.5090  0.2171
 3884SOL    HW113093   1.157   6.589   9.745 -0.3614  0.0782  0.1934
 3884SOL    HW213094   1.088   6.639   9.619 -0.0432 -3.4700 -1.5142
 3885SOL     OW13095   0.546   4.993   7.357 -0.7573  0.0615 -0.2103
 3885SOL    HW113096   0.535   4.967   7.266  0.7455 -1.2405 -0.0780
 3885SOL    HW213097   0.638   5.017   7.365 -0.0595 -2.6425  1.5219
 3886SOL     OW13098   7.137   4.719   6.681  0.0520 -0.2658  0.3988
 3886SOL    HW113099   7.213   4.713   6.740  1.4126  2.4270 -0.8659
 3886SOL    HW213100   7.078   4.781   6.724 -0.2068 -0.3563  0.1789
 3887SOL     OW13101   2.176   2.435   7.695 -0.1066  0.0233  0.1273
 3887SOL    HW113102   2.228   2.504   7.655 -1.4734  1.2389  0.3744
 3887SOL    HW213103   2.199   2.356   7.646  1.5627  0.6082 -0.0884
 3888SOL     OW13104   2.755   3.815   7.959  0.2192  0.1799  0.2413
 3888SOL    HW113105   2.835   3.779   7.920  0.3433 -0.1750  0.8023
 3888SOL    HW213106   2.689   3.809   7.890  1.2073  2.5765 -1.0246
 3889SOL     OW13107   1.079   4.924   7.195  0.4394 -0.1634 -0.5379
 3889SOL    HW113108   1.136   4.975   7.252  0.3099 -1.2323  0.5762
 3889SOL    HW213109   1.133   4.904   7.118  1.4551 -0.8072  0.3155
 3890SOL     OW13110   3.139   7.484  10.263  0.2796 -0.0436 -0.6548
 3890SOL    HW113111   3.109   7.418  10.326 -1.4207 -1.0312 -2.3997
 3890SOL    HW213112   3.067   7.546  10.256  0.1506 -0.3299 -2.1124
 3891SOL     OW13113   0.915   6.570   7.964  0.1833 -0.0367  0.1081
 3891SOL    HW113114   0.968   6.566   8.044  1.8723  0.0940 -0.9492
 3891SOL    HW213115   0.963   6.631   7.907 -0.1173 -1.3227 -1.5929
 3892SOL     OW13116   0.432   3.289   8.646  0.3367  0.0931  0.5258
 3892SOL    HW113117   0.508   3.247   8.686  2.2656  2.4679 -0.4007
 3892SOL    HW213118   0.399   3.348   8.713 -0.0819 -0.2047  0.5833
 3893SOL     OW13119   1.408   5.501   9.050 -0.2668 -0.2302 -0.0320
 3893SOL    HW113120   1.403   5.406   9.060 -1.3268 -0.4783 -2.2890
 3893SOL    HW213121   1.487   5.526   9.099  0.5258 -2.3786 -0.0899
 3894SOL     OW13122   1.212   5.731   8.415  0.7910 -0.3611 -0.4052
 3894SOL    HW113123   1.189   5.642   8.440 -1.0073  0.0542 -0.4282
 3894SOL    HW213124   1.238   5.773   8.496 -1.7860  0.0399  0.3010
 3895SOL     OW13125   1.227   6.967   7.615 -0.0329  0.7805 -0.0521
 3895SOL    HW113126   1.290   6.974   7.544  1.9574  0.1961  1.5474
 3895SOL    HW213127   1.145   7.002   7.579  0.2020 -1.6072 -3.3069
 3896SOL     OW13128   2.029   4.901   6.431  0.7656  0.3856  0.8192
 3896SOL    HW113129   1.976   4.859   6.499 -1.8636  1.2128 -0.5720
 3896SOL    HW213130   2.085   4.962   6.479 -1.1533  1.1158  2.3049
 3897SOL     OW13131   3.046   4.316   9.595  0.2264 -0.1848 -0.2417
 3897SOL    HW113132   3.131   4.277   9.615  0.0443 -0.9759 -0.9117
 3897SOL    HW213133   3.060   4.362   9.512  0.4174  1.1577  0.4987
 3898SOL     OW13134   1.150   4.745   8.380 -0.0650 -0.1993 -0.2008
 3898SOL    HW113135   1.118   4.736   8.470  1.6612 -1.4329  0.3355
 3898SOL    HW213136   1.224   4.806   8.387 -0.6311  0.6157 -1.0073
 3899SOL     OW13137   0.832   4.514   8.456  0.0368  0.4527 -0.3120
 3899SOL    HW113138   0.924   4.490   8.446 -0.2407 -0.4655 -0.7378
 3899SOL    HW213139   0.800   4.458   8.526 -0.7367 -0.8131 -1.6246
 3900SOL     OW13140   6.970   4.123   7.829 -0.2974  0.1910 -0.2650
 3900SOL    HW113141   6.876   4.131   7.814 -0.6384 -1.5589  0.6139
 3900SOL    HW213142   6.999   4.060   7.763  0.6084  1.8972 -1.5729
 3901SOL     OW13143   7.633   4.033   5.918 -0.4778  0.3625 -0.5519
 3901SOL    HW113144   7.619   3.996   5.831 -0.7960  1.2736 -0.8921
 3901SOL    HW213145   7.728   4.043   5.925 -0.5152  1.1740 -1.1645
 3902SOL     OW13146   1.447   5.809   9.149 -0.3557  0.0791  0.1675
 3902SOL    HW113147   1.462   5.726   9.194  0.3906 -0.3058 -0.7381
 3902SOL    HW213148   1.520   5.815   9.087 -2.3304 -0.3928 -2.3944
 3903SOL     OW13149   6.951   4.523   5.856  0.0224  0.2913 -0.2526
 3903SOL    HW113150   6.898   4.445   5.870 -0.6636  0.5423 -1.3053
 3903SOL    HW213151   7.027   4.492   5.805 -0.6270  0.4054 -1.3324
 3904SOL     OW13152   0.335   6.817   8.436 -0.1174  0.5853 -0.1131
 3904SOL    HW113153   0.421   6.847   8.408 -0.1220  1.8748  1.1261
 3904SOL    HW213154   0.274   6.877   8.393 -0.3314  0.4157 -0.0468
 3905SOL     OW13155   0.967   3.932   9.072  0.0244 -0.0103  0.4871
 3905SOL    HW113156   0.917   3.897   9.146 -0.2044 -0.6568  0.0339
 3905SOL    HW213157   1.027   3.995   9.112 -0.0220 -0.4281  1.2417
 3906SOL     OW13158   2.116   7.471   8.876 -0.3578 -0.1341  0.3587
 3906SOL    HW113159   2.173   7.424   8.937 -0.3156 -2.2086 -1.1801
 3906SOL    HW213160   2.096   7.553   8.921  1.7908 -0.4241  2.0056
 3907SOL     OW13161   1.413   4.050   9.461 -0.1447  0.0131 -0.1219
 3907SOL    HW113162   1.330   4.091   9.436 -0.6370 -2.7055 -3.7032
 3907SOL    HW213163   1.450   4.018   9.379  2.7383 -1.9954  1.7761
 3908SOL     OW13164   1.862   7.398   8.905  0.1755 -0.6388 -0.0030
 3908SOL    HW113165   1.801   7.467   8.878  0.4437 -0.0917  0.7551
 3908SOL    HW213166   1.948   7.434   8.886  0.3551 -0.3885  1.2173
 3909SOL     OW13167   1.472   4.359   8.664  0.0617  0.2001  0.1175
 3909SOL    HW113168   1.417   4.326   8.735 -2.4152  1.2638 -1.1802
 3909SOL    HW213169   1.559   4.369   8.704 -0.0843 -3.4235  1.7426
 3910SOL     OW13170   1.158   7.273   9.867  0.3820 -0.3715 -0.1515
 3910SOL    HW113171   1.123   7.196   9.822 -0.8490 -0.0841  0.2724
 3910SOL    HW213172   1.133   7.347   9.812 -1.7552  0.0511  1.2697
 3911SOL     OW13173   1.226   4.222   9.392 -0.0258  0.0007  0.1557
 3911SOL    HW113174   1.223   4.315   9.414 -1.6307  0.2360 -0.8940
 3911SOL    HW213175   1.168   4.180   9.456  0.1346 -0.1838  0.1820
 3912SOL     OW13176   1.121   5.980   5.780  0.0100 -1.1155  0.2289
 3912SOL    HW113177   1.175   5.940   5.849  1.3694 -0.2908 -0.3289
 3912SOL    HW213178   1.120   6.073   5.801 -0.2610 -0.9689 -0.4170
 3913SOL     OW13179   2.627   4.497   7.703  0.1534  0.0476  0.0153
 3913SOL    HW113180   2.657   4.445   7.778 -0.7168  2.7267  2.3899
 3913SOL    HW213181   2.707   4.512   7.652  0.7360 -2.0013  0.2341
 3914SOL     OW13182   1.806   6.307   8.195 -0.1188  0.1599 -0.6199
 3914SOL    HW113183   1.755   6.246   8.142 -1.1849  0.6309 -0.1617
 3914SOL    HW213184   1.851   6.363   8.131 -0.3990 -0.0791 -1.0273
 3915SOL     OW13185   1.415   4.043   7.759  0.6641 -0.0798  0.3982
 3915SOL    HW113186   1.423   3.959   7.804 -0.5207  0.7537  2.2884
 3915SOL    HW213187   1.502   4.081   7.763  1.2951 -1.3172 -0.7700
 3916SOL     OW13188   1.240   4.187   7.938  0.3969 -0.3213  0.1472
 3916SOL    HW113189   1.298   4.232   8.000  2.3549 -1.7236 -0.5612
 3916SOL    HW213190   1.300   4.148   7.874 -1.4951  0.3790 -2.1895
 3917SOL     OW13191   1.161   5.581   9.237 -0.3614 -0.1996 -0.5359
 3917SOL    HW113192   1.250   5.602   9.208 -0.3784  0.5206 -0.0794
 3917SOL    HW213193   1.157   5.485   9.232  0.9750 -0.3858  0.9753
 3918SOL     OW13194   1.518   6.594   8.806  0.6851  0.4427 -0.1169
 3918SOL    HW113195   1.512   6.502   8.783  1.2440  0.0603  1.1719
 3918SOL    HW213196   1.600   6.602   8.855  0.8017  1.6791 -0.4713
 3919SOL     OW13197   1.513   4.683   9.338  0.2356 -0.0806  0.7265
 3919SOL    HW113198   1.600   4.664   9.374  0.5453 -0.0165  0.0140
 3919SOL    HW213199   1.489   4.603   9.291  0.8958  0.7161 -1.0149
 3920SOL     OW13200   6.120   4.462   9.245 -0.6344  0.2883 -0.3495
 3920SOL    HW113201   6.099   4.460   9.151 -2.0789  1.1925 -0.0898
 3920SOL    HW213202   6.038   4.437   9.287  0.1175 -0.5069  0.6778
 3921SOL     OW13203   6.911   3.714   6.406 -0.1467 -0.3338  0.3429
 3921SOL    HW113204   6.883   3.748   6.491 -2.0402  0.8331 -0.6988
 3921SOL    HW213205   6.927   3.791   6.352  0.0018 -1.0648 -0.6926
 3922SOL     OW13206   0.638   3.887   8.605 -0.0316 -0.3126 -0.4188
 3922SOL    HW113207   0.652   3.913   8.697  1.6952 -0.1562 -0.6854
 3922SOL    HW213208   0.686   3.805   8.596 -0.9807 -0.8251 -0.9653
 3923SOL     OW13209   0.283   2.952   9.979 -0.3162 -0.1453 -0.3136
 3923SOL    HW113210   0.274   2.933  10.072  0.4534  0.0612 -0.1906
 3923SOL    HW213211   0.267   3.046   9.972  1.4572  0.2103 -0.1061
 3924SOL     OW13212   0.241   3.786   9.262  0.0526  0.0349 -0.1125
 3924SOL    HW113213   0.256   3.850   9.193 -0.8129  0.8911  0.4830
 3924SOL    HW213214   0.234   3.838   9.342  2.2280 -1.0114  0.8412
 3925SOL     OW13215   2.615   6.346   7.679  0.0465  0.2161  0.2295
 3925SOL    HW113216   2.611   6.350   7.774  2.3042  0.5010  0.3669
 3925SOL    HW213217   2.583   6.259   7.657 -1.5035  0.5151  1.1253
 3926SOL     OW13218   1.541   3.557  11.218 -0.5880 -0.2547  0.5854
 3926SOL    HW113219   1.590   3.612  11.156  0.6422  0.1243  1.8540
 3926SOL    HW213220   1.560   3.595  11.304 -2.5913 -0.5081  1.1936
 3927SOL     OW13221   6.986   5.165   5.992  0.2018 -0.0965 -0.5511
 3927SOL    HW113222   7.037   5.140   6.069  1.0755  0.8181 -0.8081
 3927SOL    HW213223   6.900   5.188   6.026  0.3871 -0.3156  0.0694
 3928SOL     OW13224   2.831   5.170   9.463  0.0498  0.0053  0.5665
 3928SOL    HW113225   2.908   5.114   9.473 -0.0514 -0.0571  1.0416
 3928SOL    HW213226   2.782   5.131   9.391  0.4330  0.0140  0.2966
 3929SOL     OW13227   3.123   3.375   8.560 -0.1685  0.0581 -0.2347
 3929SOL    HW113228   3.073   3.333   8.489 -1.2284 -1.4693  1.3436
 3929SOL    HW213229   3.119   3.468   8.540 -2.7415 -0.0929 -0.7935
 3930SOL     OW13230   6.138   6.354   7.638 -0.0020 -0.1763  0.5653
 3930SOL    HW113231   6.138   6.442   7.675  0.3918 -0.1294  0.4504
 3930SOL    HW213232   6.143   6.296   7.714 -2.1084 -0.1672  0.7829
 3931SOL     OW13233   0.269   4.436   8.029 -0.4523  0.4620 -0.1157
 3931SOL    HW113234   0.191   4.414   8.080  0.7761 -0.8744  1.2938
 3931SOL    HW213235   0.237   4.493   7.959 -2.9818 -1.4659 -0.6817
 3932SOL     OW13236   2.376   4.640   7.136 -0.1419  0.7189 -0.2441
 3932SOL    HW113237   2.452   4.671   7.185 -0.4411  0.8698  0.1264
 3932SOL    HW213238   2.379   4.544   7.145 -0.1505  0.7419 -0.0062
 3933SOL     OW13239   1.972   3.543   8.366 -0.0371  0.2143  0.0115
 3933SOL    HW113240   1.908   3.611   8.388  0.2093 -0.1803  2.1002
 3933SOL    HW213241   2.057   3.584   8.379  0.1175 -0.2499  0.4979
 3934SOL     OW13242   1.277   3.709  10.190 -0.4466 -0.0286 -0.0187
 3934SOL    HW113243   1.217   3.782  10.176 -0.0242  0.3864  0.3199
 3934SOL    HW213244   1.224   3.644  10.237 -1.5097 -0.9188 -2.2553
 3935SOL     OW13245   7.062   1.908   8.997  0.8796  0.4646 -0.1251
 3935SOL    HW113246   7.046   1.860   8.916 -1.6149  0.3266  0.3626
 3935SOL    HW213247   7.062   2.000   8.970  0.5880  0.4002 -0.3444
 3936SOL     OW13248   7.421   3.522   6.790 -0.5322 -0.0537  0.2829
 3936SOL    HW113249   7.326   3.510   6.796 -0.7042  0.7962 -0.5763
 3936SOL    HW213250   7.433   3.580   6.715  0.6903 -0.3737  0.2165
 3937SOL     OW13251   7.118   5.158  10.299  0.4673  0.0766 -0.2121
 3937SOL    HW113252   7.044   5.101  10.322 -0.9197  2.1891  0.9308
 3937SOL    HW213253   7.183   5.099  10.261 -1.8474 -1.8775 -1.4366
 3938SOL     OW13254   0.078   2.576  11.202  0.0842  0.1344 -0.3839
 3938SOL    HW113255   0.056   2.669  11.210  0.8204  0.2978 -0.1035
 3938SOL    HW213256  -0.005   2.532  11.187 -0.7401  0.4620  2.7111
 3939SOL     OW13257   7.813   2.185  11.455  0.4016  0.0946  0.4805
 3939SOL    HW113258   7.734   2.141  11.486  1.5126 -1.8260  0.7403
 3939SOL    HW213259   7.824   2.154  11.365 -0.3893  2.2189 -0.4122
 3940SOL     OW13260   0.855   5.521  11.054  0.4577  0.0814 -0.0852
 3940SOL    HW113261   0.797   5.473  10.996  1.7215 -1.9832  0.2333
 3940SOL    HW213262   0.855   5.610  11.020  0.6474 -0.8745 -2.8861
 3941SOL     OW13263   2.826   7.496  12.360  0.2124  0.3662  0.0916
 3941SOL    HW113264   2.891   7.459  12.420 -0.0968  0.6641  0.6231
 3941SOL    HW213265   2.755   7.432  12.359 -0.6323  1.2219  1.5523
 3942SOL     OW13266   6.995   4.860   9.881  0.4040 -0.0042 -0.5430
 3942SOL    HW113267   6.935   4.838   9.953 -0.1793 -1.7713 -1.5203
 3942SOL    HW213268   6.985   4.955   9.870  0.1117  0.2281  1.3371
 3943SOL     OW13269   1.475   4.747   8.330  0.5586 -0.2698  0.4396
 3943SOL    HW113270   1.448   4.662   8.365  1.6987 -0.1099  1.8086
 3943SOL    HW213271   1.566   4.734   8.304  0.4912  0.3216 -0.1157
 3944SOL     OW13272   6.858   4.941  11.332 -0.4715  0.4716 -0.3687
 3944SOL    HW113273   6.793   4.922  11.399 -0.6335 -0.6975 -0.8278
 3944SOL    HW213274   6.835   4.883  11.259  1.2261 -0.1730 -0.4423
 3945SOL     OW13275   1.303   3.882  11.806  0.2695 -0.3287  0.3387
 3945SOL    HW113276   1.294   3.976  11.817 -0.3136 -0.3543  0.1158
 3945SOL    HW213277   1.232   3.845  11.859  1.3425 -0.7046  1.5635
 3946SOL     OW13278   0.461   4.526   9.684 -0.2974 -1.3834  0.1468
 3946SOL    HW113279   0.423   4.509   9.598  1.2670 -1.9252 -0.4646
 3946SOL    HW213280   0.386   4.525   9.744 -1.1449 -3.4131 -0.8602
 3947SOL     OW13281   5.195   6.891  11.342  0.8922  0.7617  0.1217
 3947SOL    HW113282   5.288   6.904  11.328  0.7709  1.9337  0.3592
 3947SOL    HW213283   5.189   6.860  11.433  1.2131 -1.5741 -0.5827
 3948SOL     OW13284   0.785   5.122  11.603  0.0839  0.2881 -0.5365
 3948SOL    HW113285   0.724   5.196  11.610  0.2914  0.3119  1.7913
 3948SOL    HW213286   0.730   5.047  11.584 -0.3698  0.7010 -0.8926
 3949SOL     OW13287   3.088   5.151   9.810  0.3089 -0.5289  0.1073
 3949SOL    HW113288   3.085   5.151   9.906  0.7291 -2.2380  0.1462
 3949SOL    HW213289   3.151   5.220   9.788 -1.9044  1.9136  0.9142
 3950SOL     OW13290   1.269   3.241  10.165 -0.2394 -0.3873 -0.5526
 3950SOL    HW113291   1.361   3.240  10.139  0.1661  2.7130  0.3626
 3950SOL    HW213292   1.269   3.206  10.254  0.3098  0.8054 -0.0598
 3951SOL     OW13293   2.547   4.128  11.003  0.1559  0.2966  0.5396
 3951SOL    HW113294   2.578   4.218  10.989 -1.0491  0.5825 -0.4357
 3951SOL    HW213295   2.602   4.095  11.074  0.1197  2.0494  1.4309
 3952SOL     OW13296   6.694   4.206   9.933 -0.4430  0.3792 -0.2118
 3952SOL    HW113297   6.652   4.256   9.864  1.3170 -0.2119 -1.8104
 3952SOL    HW213298   6.784   4.239   9.936 -0.3221  0.0192  1.4522
 3953SOL     OW13299   2.293   3.392  10.232 -0.2310  0.0399 -0.8069
 3953SOL    HW113300   2.378   3.365  10.197 -0.9133 -0.5094 -2.1459
 3953SOL    HW213301   2.229   3.351  10.173 -1.5376 -1.8709  1.7431
 3954SOL     OW13302   6.980   4.029  10.243 -0.3444 -0.1931  0.2263
 3954SOL    HW113303   7.040   4.059  10.174 -2.4886  0.1086 -1.6334
 3954SOL    HW213304   6.945   4.110  10.280 -1.3562 -0.3453 -0.3657
 3955SOL     OW13305   0.505   4.558  10.482  0.0712 -0.2896 -0.5041
 3955SOL    HW113306   0.577   4.588  10.427 -1.0042  0.9711 -1.2762
 3955SOL    HW213307   0.445   4.633  10.486 -1.4932 -1.5056 -0.3947
 3956SOL     OW13308   0.306   5.949  10.433 -0.0092  0.2895 -0.0520
 3956SOL    HW113309   0.266   5.865  10.456 -0.1762  0.1392 -0.8584
 3956SOL    HW213310   0.317   5.994  10.517 -1.6950  0.2544  0.2310
 3957SOL     OW13311   0.656   3.017   9.471  0.4872 -0.4028 -0.2927
 3957SOL    HW113312   0.681   3.093   9.524 -0.5741 -0.7874  0.8146
 3957SOL    HW213313   0.587   2.974   9.522  2.1346 -3.0468 -0.0770
 3958SOL     OW13314   1.644   3.874   9.520  0.3916  0.1972  0.0317
 3958SOL    HW113315   1.680   3.905   9.604 -0.4506 -0.4553  0.6472
 3958SOL    HW213316   1.583   3.943   9.494  1.4998  0.9536 -0.6445
 3959SOL     OW13317   0.609   2.934  10.410  0.0308  0.3061 -0.1491
 3959SOL    HW113318   0.559   2.857  10.383 -0.9887  0.2502  1.7803
 3959SOL    HW213319   0.555   3.009  10.384 -0.4535  0.2796  0.7679
 3960SOL     OW13320   1.152   5.934   9.060  0.0967 -0.2203  0.2831
 3960SOL    HW113321   1.194   5.850   9.078  0.9256  0.4609  1.7169
 3960SOL    HW213322   1.136   5.972   9.147 -0.2020  1.1274 -0.3331
 3961SOL     OW13323   6.534   4.700   9.167  0.3204  0.7004 -0.2697
 3961SOL    HW113324   6.529   4.699   9.071  0.3388 -0.7924 -0.2903
 3961SOL    HW213325   6.625   4.724   9.186  0.4823  0.4162 -0.6560
 3962SOL     OW13326   1.673   5.050   9.237 -0.1309 -0.3005  0.4877
 3962SOL    HW113327   1.759   5.029   9.201  0.1970  0.2953  0.9037
 3962SOL    HW213328   1.692   5.099   9.317 -0.8453 -0.9327  1.0673
 3963SOL     OW13329   2.460   6.716   9.223 -0.4445  0.6471 -0.3534
 3963SOL    HW113330   2.438   6.623   9.224  0.4124  0.4364  0.3972
 3963SOL    HW213331   2.549   6.720   9.259  0.1183  1.6013 -1.7444
 3964SOL     OW13332   7.914   4.626  10.774  0.3635 -0.0088  0.2078
 3964SOL    HW113333   7.955   4.544  10.745 -1.2547 -0.3605 -1.3350
 3964SOL    HW213334   7.864   4.655  10.698  0.9400  2.4940  0.6957
 3965SOL     OW13335   0.615   4.488   9.051 -0.5288 -0.1111  0.1081
 3965SOL    HW113336   0.615   4.513   9.144  0.4099  1.2226 -0.2091
 3965SOL    HW213337   0.529   4.513   9.019 -0.8079 -0.4482  0.5844
 3966SOL     OW13338   0.028   5.114  11.288  0.5350  0.2774 -0.9141
 3966SOL    HW113339  -0.017   5.060  11.353 -0.4717 -1.1131 -2.6787
 3966SOL    HW213340  -0.020   5.197  11.288  0.2838  0.1393 -0.1929
 3967SOL     OW13341   0.159   4.941  11.629  0.3515  0.5197  0.1935
 3967SOL    HW113342   0.137   4.954  11.721 -0.6756 -1.3416  0.2689
 3967SOL    HW213343   0.123   5.017  11.584 -2.1830 -0.1585  0.9371
 3968SOL     OW13344   1.617   2.585  10.795 -0.4122 -0.2752  0.3806
 3968SOL    HW113345   1.537   2.600  10.745 -0.4033 -0.0065  0.4478
 3968SOL    HW213346   1.592   2.524  10.864 -0.2776 -1.1844 -0.3550
 3969SOL     OW13347   0.994   7.076   9.158  0.1101 -0.3363  0.1879
 3969SOL    HW113348   0.911   7.120   9.138  0.7700  0.8374 -0.1084
 3969SOL    HW213349   1.012   7.022   9.082 -0.1909 -0.2803  0.0770
 3970SOL     OW13350   1.383   5.165  10.108  0.3633 -0.4834  0.0935
 3970SOL    HW113351   1.317   5.224  10.071 -0.0274 -0.8420  0.2033
 3970SOL    HW213352   1.350   5.077  10.087  1.0891 -0.6586 -0.3363
 3971SOL     OW13353   0.292   2.701   9.871  0.5533  0.2340 -0.4918
 3971SOL    HW113354   0.261   2.708   9.780  0.4285  0.7678 -0.4163
 3971SOL    HW213355   0.270   2.786   9.909 -0.9254 -0.5796  0.5318
 3972SOL     OW13356   2.009   4.532   9.994 -0.3623  0.3463  0.3738
 3972SOL    HW113357   2.085   4.520  10.051  0.5815  0.8658 -0.7303
 3972SOL    HW213358   2.046   4.559   9.910 -1.8362  2.0479  0.2095
 3973SOL     OW13359   2.303   5.472  10.084  0.0629 -0.7547  0.3802
 3973SOL    HW113360   2.351   5.503  10.006 -0.4152 -1.5501 -0.2466
 3973SOL    HW213361   2.363   5.488  10.156  0.3316  0.4553 -0.0749
 3974SOL     OW13362   1.210   4.410  10.252  0.0793  0.0373 -0.2517
 3974SOL    HW113363   1.178   4.336  10.201  0.6698 -1.0545  0.8941
 3974SOL    HW213364   1.297   4.427  10.218 -0.4999  1.0170 -1.3160
 3975SOL     OW13365   2.648   4.119  10.109 -0.1784  0.5346  0.3669
 3975SOL    HW113366   2.665   4.103  10.016  1.0346 -1.3500  0.8545
 3975SOL    HW213367   2.670   4.036  10.152 -0.5124  1.4283  2.3701
 3976SOL     OW13368   2.755   4.568   9.736  0.2239  0.1445 -0.7613
 3976SOL    HW113369   2.663   4.564   9.763  0.7878 -0.8642  1.1400
 3976SOL    HW213370   2.752   4.607   9.648 -1.8519  1.9923  0.0312
 3977SOL     OW13371   1.435   3.172  11.569  0.0848 -0.3156  0.4949
 3977SOL    HW113372   1.448   3.211  11.655  2.8071 -0.5141  0.2677
 3977SOL    HW213373   1.441   3.077  11.584  2.2055 -0.3224 -0.0390
 3978SOL     OW13374   1.569   4.172  10.487 -0.0201  0.2919  0.0886
 3978SOL    HW113375   1.490   4.192  10.537 -0.7622 -0.2969 -0.8246
 3978SOL    HW213376   1.621   4.117  10.546 -0.8717 -0.3841  0.2287
 3979SOL     OW13377   2.094   3.816  10.624  0.3457 -0.0441  0.2375
 3979SOL    HW113378   2.108   3.903  10.587 -1.0460  0.8781  1.7795
 3979SOL    HW213379   2.080   3.760  10.548  1.3995  1.0256 -0.7895
 3980SOL     OW13380   2.170   3.034  12.303 -0.0473 -0.0655  0.1594
 3980SOL    HW113381   2.077   3.031  12.325  0.5958  0.3215  3.3519
 3980SOL    HW213382   2.181   3.118  12.259 -1.2556 -0.3824 -0.8217
 3981SOL     OW13383   0.630   4.091   9.683 -0.4125  0.1273  0.0644
 3981SOL    HW113384   0.671   4.032   9.746  1.2035  1.2644  0.1477
 3981SOL    HW213385   0.638   4.178   9.723  0.0759  0.7910 -1.4133
 3982SOL     OW13386   7.819   4.992   9.854  0.0410  0.0815  0.0547
 3982SOL    HW113387   7.829   4.941   9.773 -1.8156  0.1471 -0.2675
 3982SOL    HW213388   7.749   5.054   9.834  1.7951  2.3700  0.6664
 3983SOL     OW13389   0.053   5.603  10.257 -0.0800  0.2134  0.5106
 3983SOL    HW113390   0.078   5.519  10.218 -0.9116  0.2578 -0.1427
 3983SOL    HW213391   0.082   5.597  10.348 -1.9563 -1.6205  1.0549
 3984SOL     OW13392   0.768   3.906   8.885 -0.3433  0.1195  0.4247
 3984SOL    HW113393   0.824   3.860   8.822 -0.2284 -1.0052  1.3057
 3984SOL    HW213394   0.826   3.925   8.959 -0.6864  0.6106  0.5666
 3985SOL     OW13395   2.225   4.044   9.266 -0.2422 -0.2742  0.1504
 3985SOL    HW113396   2.306   4.038   9.215 -0.5895  0.6279 -0.5425
 3985SOL    HW213397   2.193   3.954   9.270  0.0672 -0.4411 -0.7933
 3986SOL     OW13398   0.625   4.362   9.835 -0.4902 -0.1163 -0.0506
 3986SOL    HW113399   0.720   4.369   9.830 -0.2140 -1.0760  2.4129
 3986SOL    HW213400   0.592   4.439   9.789  1.5583  1.9586  1.7502
 3987SOL     OW13401   1.782   5.203  12.337 -0.3800 -0.2214  0.2803
 3987SOL    HW113402   1.854   5.264  12.324 -0.7715  0.6682  2.0276
 3987SOL    HW213403   1.823   5.123  12.370 -0.0671 -0.2170 -0.0883
 3988SOL     OW13404   7.491   4.575  11.087  0.9440 -0.7632  0.5856
 3988SOL    HW113405   7.543   4.646  11.125  0.6306 -0.8311  1.1472
 3988SOL    HW213406   7.405   4.613  11.072  1.5609 -0.1630 -1.8816
 3989SOL     OW13407   6.527   6.895  11.828  0.3958  0.3628  0.3569
 3989SOL    HW113408   6.612   6.852  11.818  0.0756 -0.0039 -0.9808
 3989SOL    HW213409   6.477   6.867  11.751 -0.2522  2.1783  0.0665
 3990SOL     OW13410   2.477   4.067   9.161 -0.0114  0.5738  0.0791
 3990SOL    HW113411   2.571   4.052   9.172 -0.1051 -0.7371 -0.6983
 3990SOL    HW213412   2.469   4.106   9.074 -0.2451 -0.1625 -0.2393
 3991SOL     OW13413   1.391   5.639   9.590  0.4309  0.6342 -0.2922
 3991SOL    HW113414   1.368   5.658   9.681  0.6635  0.5965 -0.2250
 3991SOL    HW213415   1.315   5.670   9.539  0.8627  1.9070 -0.1999
 3992SOL     OW13416   0.113   5.734   8.459  0.0796  0.0641  0.5187
 3992SOL    HW113417   0.172   5.706   8.389  0.0732  0.0498  0.5191
 3992SOL    HW213418   0.165   5.729   8.539  0.1537  0.2998  0.4849
 3993SOL     OW13419   0.640   3.514  10.709 -0.5068 -0.2041  0.0573
 3993SOL    HW113420   0.655   3.576  10.780 -2.7395 -0.3983  0.7891
 3993SOL    HW213421   0.556   3.540  10.672 -1.0924 -2.2507 -0.1849
 3994SOL     OW13422   0.782   6.992   9.564  0.3461  0.3719 -0.0678
 3994SOL    HW113423   0.868   7.026   9.538  0.3391  0.8508  0.5168
 3994SOL    HW213424   0.791   6.976   9.658 -0.0026 -0.1950 -0.1317
 3995SOL     OW13425   2.143   7.176   9.403  0.0311 -0.5269  0.5430
 3995SOL    HW113426   2.226   7.222   9.393  0.0733 -0.6638  0.2538
 3995SOL    HW213427   2.089   7.208   9.330 -0.1934 -0.3823  0.7734
 3996SOL     OW13428   1.537   3.221  10.084 -0.0868 -0.0430  0.1374
 3996SOL    HW113429   1.577   3.283  10.023 -0.5729  0.5986  0.4698
 3996SOL    HW213430   1.609   3.161  10.107  0.3664  0.3469 -0.2384
 3997SOL     OW13431   3.686   5.978  10.966 -0.4085  0.3979 -0.7627
 3997SOL    HW113432   3.771   5.980  10.923  0.3477 -0.2187  0.6407
 3997SOL    HW213433   3.645   5.897  10.936  0.5857 -0.6043  0.5048
 3998SOL     OW13434   7.873   4.893   9.588  0.1116  0.1057  0.2452
 3998SOL    HW113435   7.930   4.913   9.513  0.7560 -0.2540  0.6290
 3998SOL    HW213436   7.823   4.816   9.560 -0.4636  0.6497 -0.2368
 3999SOL     OW13437   1.943   2.843   7.969  0.1733  0.4650 -0.0908
 3999SOL    HW113438   1.979   2.923   7.931 -0.3985  1.3392  1.1500
 3999SOL    HW213439   1.953   2.855   8.064  1.7546 -1.7335  0.1092
 4000SOL     OW13440   0.323   3.776   9.560 -0.9679  0.3594  0.1865
 4000SOL    HW113441   0.332   3.863   9.599 -1.3773  0.5004 -0.0282
 4000SOL    HW213442   0.409   3.757   9.522 -0.4764  0.1083  1.3763
 4001SOL     OW13443   1.675   4.753  10.529  0.6018  0.3648  0.4834
 4001SOL    HW113444   1.765   4.751  10.560  0.8426  1.1296 -0.1473
 4001SOL    HW213445   1.626   4.795  10.600  0.8914  0.7561  0.4522
 4002SOL     OW13446   0.008   2.919  10.205 -0.0077 -0.2226 -0.4765
 4002SOL    HW113447  -0.025   2.942  10.291  0.7629 -0.4099 -0.1192
 4002SOL    HW213448   0.099   2.950  10.205  0.5295 -1.7006 -0.6027
 4003SOL     OW13449   1.561   5.282  11.334  0.5174  0.3337  0.1249
 4003SOL    HW113450   1.579   5.289  11.428 -2.4455  1.7079  0.7012
 4003SOL    HW213451   1.484   5.226  11.328  1.0932 -0.3632 -1.6070
 4004SOL     OW13452   0.633   4.223   9.003 -0.4650 -0.0224  0.1195
 4004SOL    HW113453   0.627   4.319   9.002 -2.5994 -0.0775  1.9622
 4004SOL    HW213454   0.577   4.195   8.930  0.7033  0.1035 -0.8580
 4005SOL     OW13455   1.128   4.141  11.380 -0.3638 -0.3333  0.3340
 4005SOL    HW113456   1.067   4.074  11.349 -0.8193  0.4561 -0.5470
 4005SOL    HW213457   1.114   4.144  11.474 -0.9614 -0.8704  0.2770
 4006SOL     OW13458   1.714   4.772   8.728 -0.2035  0.1935 -0.5689
 4006SOL    HW113459   1.625   4.742   8.743 -0.0879 -0.5609 -1.2810
 4006SOL    HW213460   1.749   4.790   8.815 -0.7319 -0.4534 -0.2143
 4007SOL     OW13461   2.501   3.514  12.113 -0.6091  0.0208  0.1721
 4007SOL    HW113462   2.509   3.421  12.093 -2.1238 -0.0694 -0.1208
 4007SOL    HW213463   2.572   3.531  12.175 -0.6192 -1.4431  0.6280
 4008SOL     OW13464   2.020   2.856   9.420 -0.1551  0.0465 -0.4640
 4008SOL    HW113465   2.051   2.941   9.389 -0.6987  0.5026  0.1912
 4008SOL    HW213466   2.096   2.815   9.460 -0.1701  0.7483  0.2992
 4009SOL     OW13467   1.426   4.442  10.569 -0.3000 -0.7401 -0.0845
 4009SOL    HW113468   1.468   4.461  10.485 -0.4330 -0.9950 -0.2108
 4009SOL    HW213469   1.499   4.431  10.630 -0.2176  1.1696  0.2310
 4010SOL     OW13470   6.177   2.253  10.988 -0.9041  0.7058 -0.3715
 4010SOL    HW113471   6.139   2.177  10.945  0.1432  0.5738 -1.1168
 4010SOL    HW213472   6.154   2.243  11.081 -1.3184 -0.1715 -0.5633
 4011SOL     OW13473   1.475   4.795  10.719  0.1675 -0.3950 -0.7606
 4011SOL    HW113474   1.534   4.744  10.774 -0.0834  2.2896  2.2493
 4011SOL    HW213475   1.393   4.747  10.719  0.2086 -0.5065  1.2197
 4012SOL     OW13476   0.816   2.728   8.562 -0.5727 -0.4897  0.2478
 4012SOL    HW113477   0.841   2.662   8.498  0.4054 -2.0375  2.1218
 4012SOL    HW213478   0.753   2.783   8.516 -0.5078 -1.9859 -1.7746
 4013SOL     OW13479   0.943   5.337   8.395  0.4001  0.1325 -0.1259
 4013SOL    HW113480   0.996   5.288   8.331  1.9497  0.9229  0.4943
 4013SOL    HW213481   0.862   5.358   8.349  1.3035  0.3172 -1.6826
 4014SOL     OW13482   0.420   4.931  10.728 -0.0884 -0.1657  0.2993
 4014SOL    HW113483   0.354   4.881  10.681  3.0442 -4.6568  0.0248
 4014SOL    HW213484   0.414   4.902  10.818  0.0709  1.1691  0.7688
 4015SOL     OW13485   8.000   4.199   8.958  0.2220  0.3491  0.4775
 4015SOL    HW113486   8.058   4.211   9.033  0.1982  0.6328  0.4539
 4015SOL    HW213487   8.043   4.133   8.904 -1.2872 -2.3091  2.2653
 4016SOL     OW13488   0.945   6.213   9.113 -0.5780  0.7247  0.1322
 4016SOL    HW113489   0.863   6.259   9.130 -0.6370  1.5205 -1.9509
 4016SOL    HW213490   0.927   6.159   9.036  0.7126  0.5898 -0.0980
 4017SOL     OW13491   7.702   4.880   9.228 -0.3094 -0.6996 -0.4671
 4017SOL    HW113492   7.739   4.967   9.214 -1.1878  0.2567  2.2861
 4017SOL    HW213493   7.624   4.896   9.282  1.0489 -3.2782  2.6597
 4018SOL     OW13494   2.552   5.363   9.254 -0.2338  0.1166 -0.1232
 4018SOL    HW113495   2.645   5.373   9.271 -0.3578 -1.7075  2.1476
 4018SOL    HW213496   2.539   5.268   9.248 -1.7347  0.3896 -1.8843
 4019SOL     OW13497   1.124   6.257  10.712  0.1179 -0.4534  0.3421
 4019SOL    HW113498   1.175   6.324  10.758  2.0226 -1.3573 -0.3426
 4019SOL    HW213499   1.132   6.279  10.620 -0.4261 -0.8443  0.1933
 4020SOL     OW13500   0.402   4.022  11.179 -0.0687 -0.5284 -0.0951
 4020SOL    HW113501   0.438   4.015  11.267  1.2866  1.3322 -0.4279
 4020SOL    HW213502   0.314   4.057  11.191  0.0584 -0.4229  0.5397
 4021SOL     OW13503   0.356   4.041   9.619  0.0326  0.4342  0.3602
 4021SOL    HW113504   0.438   4.075   9.652  1.6723 -2.9188  0.1848
 4021SOL    HW213505   0.369   4.035   9.524  1.3917 -3.7627  0.5954
 4022SOL     OW13506   0.136   3.523   8.633  0.2103 -0.1377  0.3727
 4022SOL    HW113507   0.113   3.474   8.712 -0.4842  1.0749  0.9539
 4022SOL    HW213508   0.057   3.520   8.579 -0.6395  2.0648  1.3501
 4023SOL     OW13509   2.925   5.754   9.401  0.1673  0.1886 -0.0151
 4023SOL    HW113510   2.998   5.694   9.383  0.3565  0.7100 -1.0425
 4023SOL    HW213511   2.898   5.786   9.315 -0.9153  0.4368  0.4021
 4024SOL     OW13512   1.636   5.232  10.043  0.3628  0.1721 -0.4466
 4024SOL    HW113513   1.545   5.204  10.050  0.3552  0.3189  0.0690
 4024SOL    HW213514   1.666   5.196   9.960 -0.5160  1.1241 -1.2072
 4025SOL     OW13515   1.217   3.985   8.892  0.5458  0.6922  0.9586
 4025SOL    HW113516   1.200   3.893   8.916  0.9395  0.4270  0.2501
 4025SOL    HW213517   1.210   4.033   8.974  0.6698 -0.0228  1.3966
 4026SOL     OW13518   7.239   4.438   9.707 -0.3106 -0.6631 -0.5594
 4026SOL    HW113519   7.304   4.442   9.777 -0.7578 -0.0201 -0.1747
 4026SOL    HW213520   7.164   4.394   9.745 -0.4195 -0.6464 -0.7526
 4027SOL     OW13521   2.846   5.862   9.160  0.5943 -0.2685 -0.4160
 4027SOL    HW113522   2.828   5.813   9.080 -1.3151  0.7689 -0.6901
 4027SOL    HW213523   2.796   5.942   9.151  3.5523  1.7905  0.0485
 4028SOL     OW13524   2.100   5.558   8.720  0.2804 -0.4894 -0.2107
 4028SOL    HW113525   2.079   5.468   8.744  0.4897 -0.4499  0.1232
 4028SOL    HW213526   2.113   5.556   8.625 -3.0269 -0.1992 -0.7884
 4029SOL     OW13527   7.820   4.541   9.797 -0.0272  0.6813 -0.1041
 4029SOL    HW113528   7.728   4.565   9.784  0.1240  1.0380 -0.5289
 4029SOL    HW213529   7.853   4.526   9.708  0.5471  1.3734 -0.0098
 4030SOL     OW13530   1.552   7.461   9.404  0.5338  0.1926 -0.2031
 4030SOL    HW113531   1.545   7.448   9.309 -0.8335 -0.1631 -0.0765
 4030SOL    HW213532   1.617   7.530   9.414  0.9086  0.0362 -1.3814
 4031SOL     OW13533   2.190   4.631   9.818 -0.1703  0.0534  0.3162
 4031SOL    HW113534   2.224   4.714   9.851 -1.4665  1.3940 -1.5370
 4031SOL    HW213535   2.257   4.600   9.757 -0.3525  0.4756 -0.0937
 4032SOL     OW13536   1.812   5.613  11.551 -0.2007  0.3609  0.1186
 4032SOL    HW113537   1.885   5.587  11.608 -0.2208  0.8233  0.3610
 4032SOL    HW213538   1.821   5.708  11.542 -0.5110  0.3589 -0.2167
 4033SOL     OW13539   0.233   5.981  10.929  0.3608  0.0321  0.1040
 4033SOL    HW113540   0.276   5.899  10.954 -1.1074 -0.2018  2.1291
 4033SOL    HW213541   0.147   5.953  10.898 -0.0106  0.7782  0.4571
 4034SOL     OW13542   1.063   7.066   9.717  0.1061 -0.0796  0.1444
 4034SOL    HW113543   1.077   6.976   9.747  0.3369 -0.5498 -1.3347
 4034SOL    HW213544   1.075   7.063   9.623  0.1308  1.5185  0.0644
 4035SOL     OW13545   2.398   4.543   9.632  0.5377 -0.3906  0.0665
 4035SOL    HW113546   2.344   4.617   9.604  0.2675 -0.4829  0.3359
 4035SOL    HW213547   2.424   4.499   9.551  2.3448  1.1381 -0.2533
 4036SOL     OW13548   2.577   4.673   9.934 -0.3079  0.2182 -0.3961
 4036SOL    HW113549   2.666   4.646   9.956 -0.6418 -0.2238  0.4283
 4036SOL    HW213550   2.526   4.592   9.933 -0.6995  0.4628 -0.9071
 4037SOL     OW13551   0.859   6.593  10.215 -0.0674 -0.0461  0.0698
 4037SOL    HW113552   0.860   6.571  10.308  0.1904 -0.1958  0.0332
 4037SOL    HW213553   0.948   6.622  10.196 -0.5427  1.6198  0.2438
 4038SOL     OW13554   7.279   4.898  10.529 -0.1637  0.5046 -0.3925
 4038SOL    HW113555   7.271   4.899  10.434 -0.7575 -0.3610 -0.3731
 4038SOL    HW213556   7.352   4.956  10.548 -0.0311  0.6810 -1.3784
 4039SOL     OW13557   0.043   6.407   9.997 -0.0802  0.2317  0.3623
 4039SOL    HW113558  -0.024   6.469   9.968  0.1262 -0.0842 -0.8381
 4039SOL    HW213559   0.121   6.431   9.946  0.8679  0.8565  2.0144
 4040SOL     OW13560   7.433   6.697  10.830  0.1244 -0.6666  0.7703
 4040SOL    HW113561   7.436   6.788  10.860 -0.5243  0.5966 -2.5097
 4040SOL    HW213562   7.469   6.701  10.741 -1.5276 -3.3150 -0.1185
 4041SOL     OW13563   1.432   5.239   9.786 -0.6551  0.2724  0.2844
 4041SOL    HW113564   1.427   5.145   9.767 -2.1780  0.0559  1.5650
 4041SOL    HW213565   1.360   5.255   9.847  0.3641  2.0377  1.0949
 4042SOL     OW13566   1.637   7.304   8.614  0.2285 -0.0506 -0.0926
 4042SOL    HW113567   1.725   7.341   8.610 -0.6740  2.3371  0.7847
 4042SOL    HW213568   1.649   7.218   8.656  2.0765  0.3969  0.3818
 4043SOL     OW13569   4.389   4.721  11.641 -0.2297  0.1222  0.0169
 4043SOL    HW113570   4.299   4.687  11.637 -0.1203 -0.0575 -0.9463
 4043SOL    HW213571   4.390   4.773  11.722 -0.4738 -1.9279  1.4047
 4044SOL     OW13572   7.897   3.688  11.418 -0.8084  0.3036  0.6021
 4044SOL    HW113573   7.895   3.782  11.404 -2.0560  0.1954 -0.1649
 4044SOL    HW213574   7.885   3.677  11.512  0.2326  0.9209  0.8124
 4045SOL     OW13575   6.425   6.686   9.983 -0.1255 -0.3077 -1.0081
 4045SOL    HW113576   6.515   6.710  10.005 -0.1126 -1.2591  0.0539
 4045SOL    HW213577   6.432   6.639   9.900  0.1976  0.6113 -1.5246
 4046SOL     OW13578   6.820   4.656  10.326  0.1801  0.1247 -0.0352
 4046SOL    HW113579   6.878   4.616  10.390  0.3006  2.7982  1.6925
 4046SOL    HW213580   6.738   4.606  10.332  0.5234 -0.2861  1.5015
 4047SOL     OW13581   2.075   3.255  10.672 -0.6357  0.4161  0.2585
 4047SOL    HW113582   2.042   3.288  10.755  0.2852  2.6971 -0.2065
 4047SOL    HW213583   2.165   3.286  10.668 -0.4344 -0.2739 -1.2726
 4048SOL     OW13584   1.616   2.452  12.327  0.7180 -0.3706 -0.0285
 4048SOL    HW113585   1.688   2.407  12.371 -0.1766 -2.1211 -0.2942
 4048SOL    HW213586   1.630   2.435  12.234 -0.7844 -1.9649 -0.0090
 4049SOL     OW13587   3.042   3.776  10.536 -0.3446 -0.3872  0.1078
 4049SOL    HW113588   3.035   3.685  10.506 -0.3650  0.4650 -2.6633
 4049SOL    HW213589   3.112   3.814  10.484 -1.4123  1.6199  0.0308
 4050SOL     OW13590   0.952   4.183  10.496 -0.0339 -0.6498 -0.7614
 4050SOL    HW113591   0.920   4.153  10.581 -0.2107  0.3781 -0.4482
 4050SOL    HW213592   1.047   4.190  10.507 -0.0955 -0.1624 -0.5289
 4051SOL     OW13593   1.977   5.278  10.462  0.5987 -0.2565 -0.2007
 4051SOL    HW113594   1.940   5.237  10.385 -0.4058 -1.6030  0.9506
 4051SOL    HW213595   1.961   5.372  10.450  0.4159 -0.4492 -1.5718
 4052SOL     OW13596   2.271   3.643  10.137  0.4203  0.1485 -0.4547
 4052SOL    HW113597   2.319   3.703  10.194  1.3007 -2.3488  1.6447
 4052SOL    HW213598   2.285   3.557  10.176 -2.9630 -1.1583 -1.7496
 4053SOL     OW13599   1.126   3.230  11.891 -0.1510  0.2979 -0.1115
 4053SOL    HW113600   1.112   3.148  11.844 -0.4601 -0.4702  1.2646
 4053SOL    HW213601   1.205   3.268  11.851  0.3168 -0.9493 -0.4070
 4054SOL     OW13602   0.002   4.720   9.861  0.3866 -0.6702  0.2493
 4054SOL    HW113603  -0.040   4.802   9.834  0.4245 -0.5429  0.5674
 4054SOL    HW213604  -0.064   4.653   9.845 -0.1042 -0.4199  1.1233
 4055SOL     OW13605   1.029   4.574  10.537  0.2218  0.0408 -0.2302
 4055SOL    HW113606   0.966   4.578  10.465 -0.3152 -2.5641  0.0166
 4055SOL    HW213607   1.082   4.496  10.519  2.1584  1.0853  0.5901
 4056SOL     OW13608   0.612   3.919  10.688 -0.1346 -0.5340 -0.5368
 4056SOL    HW113609   0.652   3.853  10.631  1.0334 -0.8589  0.6121
 4056SOL    HW213610   0.530   3.879  10.718 -0.1170 -0.8849 -0.9504
 4057SOL     OW13611   0.483   3.973  11.428  0.1881 -0.1569  0.4902
 4057SOL    HW113612   0.578   3.982  11.432  0.2520  0.0414 -0.8298
 4057SOL    HW213613   0.467   3.879  11.437  0.5425 -0.2329  0.3535
 4058SOL     OW13614   0.747   3.341   7.892  0.3898  0.1483  0.0855
 4058SOL    HW113615   0.826   3.289   7.899 -0.8246 -1.8699 -0.3950
 4058SOL    HW213616   0.676   3.277   7.885 -1.1206  1.8492 -1.3723
 4059SOL     OW13617   7.764   4.713  10.575  0.3786 -0.4328 -0.0165
 4059SOL    HW113618   7.744   4.630  10.533 -0.4618 -1.1171  1.6473
 4059SOL    HW213619   7.773   4.775  10.502  0.5801 -1.8554 -1.2631
 4060SOL     OW13620   0.079   4.856   8.909 -0.5398  0.1080  0.6275
 4060SOL    HW113621  -0.014   4.877   8.905 -0.4187  0.4575 -1.1533
 4060SOL    HW213622   0.122   4.926   8.860  0.5446 -0.6580  0.4335
 4061SOL     OW13623   1.069   5.964  11.503  0.3864 -0.6413 -0.4032
 4061SOL    HW113624   1.074   5.984  11.597  1.4471 -0.6108 -0.4538
 4061SOL    HW213625   1.007   6.027  11.468  0.1655 -0.4940  0.2400
 4062SOL     OW13626   1.555   5.356  12.288  0.1860  0.3698 -0.2860
 4062SOL    HW113627   1.533   5.306  12.210  0.1770  0.9879 -0.6882
 4062SOL    HW213628   1.642   5.324  12.314 -0.1195 -0.3329 -0.1325
 4063SOL     OW13629   1.207   4.450   9.523 -0.0690 -0.2383  0.3003
 4063SOL    HW113630   1.156   4.405   9.589 -2.8948  2.0459 -0.1297
 4063SOL    HW213631   1.256   4.517   9.571 -1.0079  0.4850  0.2694
 4064SOL     OW13632   2.748   4.895   8.895 -0.2689 -0.1890 -0.4658
 4064SOL    HW113633   2.671   4.923   8.945  0.5007 -0.3096  0.8198
 4064SOL    HW213634   2.760   4.803   8.917 -0.3391 -0.4472 -1.4541
 4065SOL     OW13635   0.635   5.300  10.373 -0.0722  0.1212 -0.3775
 4065SOL    HW113636   0.575   5.349  10.317  0.6341 -0.8518 -2.0531
 4065SOL    HW213637   0.709   5.279  10.317  0.9826 -0.3317  1.1239
 4066SOL     OW13638   6.566   4.515  10.811  0.0273  0.1592  0.1026
 4066SOL    HW113639   6.579   4.421  10.828  0.0115  0.1347 -0.0273
 4066SOL    HW213640   6.606   4.530  10.726 -0.1998  0.2187  0.0051
 4067SOL     OW13641   0.870   4.062  10.733 -0.3838  0.3157  0.1553
 4067SOL    HW113642   0.919   3.980  10.742  0.6498  0.8325 -0.5961
 4067SOL    HW213643   0.781   4.034  10.709  0.4731 -0.5694 -2.2919
 4068SOL     OW13644   0.816   3.881  10.138 -0.4591 -0.4951 -0.4452
 4068SOL    HW113645   0.796   3.949  10.203  0.1727 -0.6503 -0.0827
 4068SOL    HW213646   0.758   3.901  10.064  0.3512  0.9846 -0.7239
 4069SOL     OW13647   0.364   3.572  10.193  0.4488 -0.1528 -0.2500
 4069SOL    HW113648   0.422   3.610  10.260 -0.4627  1.2035 -0.1790
 4069SOL    HW213649   0.422   3.521  10.137  1.4568 -0.1487  0.7454
 4070SOL     OW13650   1.197   4.558   8.758 -0.2527  0.3788  0.6027
 4070SOL    HW113651   1.241   4.478   8.785 -0.8583 -0.6085 -1.1245
 4070SOL    HW213652   1.258   4.628   8.780  2.9039 -0.9730 -2.7970
 4071SOL     OW13653   6.520   5.327  11.031  0.1231 -0.3526 -0.2602
 4071SOL    HW113654   6.614   5.340  11.045 -0.0064  0.8270 -0.3844
 4071SOL    HW213655   6.511   5.233  11.017  1.1957 -0.5739  0.4253
 4072SOL     OW13656   0.304   5.447  11.244 -0.1347  0.2716  0.4458
 4072SOL    HW113657   0.350   5.527  11.269 -1.9042  1.6732 -0.5582
 4072SOL    HW213658   0.363   5.404  11.181  0.6375  1.0060  0.6495
 4073SOL     OW13659   1.620   2.840  11.100  0.3075  0.5283  0.0643
 4073SOL    HW113660   1.642   2.929  11.127 -0.8377  0.4702  1.3094
 4073SOL    HW213661   1.539   2.820  11.147  0.4253 -1.0962 -0.3539
 4074SOL     OW13662   6.806   3.847  10.139  0.0278 -0.2849 -0.1059
 4074SOL    HW113663   6.861   3.922  10.158 -1.6678  1.1840 -0.6910
 4074SOL    HW213664   6.864   3.785  10.095  1.3781  0.8632 -0.0125
 4075SOL     OW13665   0.677   2.729  10.141  0.6633  0.1239 -0.0783
 4075SOL    HW113666   0.587   2.698  10.152  1.0317 -1.1998 -0.6765
 4075SOL    HW213667   0.676   2.776  10.058  0.6806 -0.4964 -0.4311
 4076SOL     OW13668   1.972   5.381  11.737 -0.0948 -0.1950 -0.6974
 4076SOL    HW113669   2.022   5.404  11.658 -0.7266  0.2507 -0.9707
 4076SOL    HW213670   1.928   5.299  11.714  0.4151 -0.5304 -0.4944
 4077SOL     OW13671   0.579   2.262   9.897  0.6752 -0.2825  0.0028
 4077SOL    HW113672   0.560   2.356   9.890 -1.0904 -0.6402 -0.6846
 4077SOL    HW213673   0.663   2.251   9.854 -0.4947  0.6025 -2.7614
 4078SOL     OW13674   1.453   4.628  10.198 -0.3815 -0.4774  0.3774
 4078SOL    HW113675   1.511   4.599  10.268  1.2365 -0.0849 -0.7503
 4078SOL    HW213676   1.505   4.618  10.118 -1.8991 -0.1804 -0.6920
 4079SOL     OW13677   7.910   4.482  11.951 -0.1316  0.1500 -0.0858
 4079SOL    HW113678   7.832   4.482  11.896 -0.2677  1.3020  0.0945
 4079SOL    HW213679   7.983   4.472  11.889 -0.1844  2.7778 -0.6672
 4080SOL     OW13680   1.547   3.689  10.620  0.1623 -0.3952  0.3821
 4080SOL    HW113681   1.500   3.722  10.543 -0.1397  0.1039  0.7731
 4080SOL    HW213682   1.483   3.632  10.664 -0.2584  0.6300  1.1531
 4081SOL     OW13683   7.299   5.276  10.837 -0.1800 -0.1997  0.0533
 4081SOL    HW113684   7.298   5.205  10.901  0.9775  0.7781  1.2237
 4081SOL    HW213685   7.223   5.260  10.782 -2.6897  0.1727  3.1265
 4082SOL     OW13686   0.718   4.634  10.343 -0.1602 -0.3769  0.2340
 4082SOL    HW113687   0.761   4.689  10.278  0.7097  0.2967  1.3449
 4082SOL    HW213688   0.764   4.550  10.337 -1.0500 -0.8172 -0.9961
 4083SOL     OW13689   0.085   2.762  10.471  0.1049  0.0387 -0.0165
 4083SOL    HW113690   0.033   2.841  10.483 -0.2828  0.0890 -1.7077
 4083SOL    HW213691   0.137   2.753  10.551 -0.0525  1.8402  0.3055
 4084SOL     OW13692   0.476   2.344   9.286 -0.2618  0.8740 -0.0192
 4084SOL    HW113693   0.398   2.390   9.255 -0.8500  0.0058  0.1401
 4084SOL    HW213694   0.539   2.413   9.305 -1.1381  1.6125  0.2571
 4085SOL     OW13695   0.845   4.751  10.149  0.3872  0.2318 -1.0467
 4085SOL    HW113696   0.939   4.742  10.159  0.6590 -0.7956 -3.7141
 4085SOL    HW213697   0.833   4.834  10.102 -0.1112  0.7134 -0.0894
 4086SOL     OW13698   0.976   6.764   9.546  0.3803  0.2535  0.3574
 4086SOL    HW113699   0.911   6.715   9.496  0.7692  0.8499 -0.7466
 4086SOL    HW213700   0.930   6.787   9.627 -0.2507 -0.7193  0.3028
 4087SOL     OW13701   1.469   3.923  10.847  0.0822 -0.4502  0.3144
 4087SOL    HW113702   1.425   3.965  10.773  2.8981  0.2825 -1.0983
 4087SOL    HW213703   1.511   3.846  10.809 -0.2532 -1.3211  1.6517
 4088SOL     OW13704   0.416   6.494   9.954  0.0785  0.3929 -0.3795
 4088SOL    HW113705   0.511   6.489   9.954  0.0792  0.4085 -0.3392
 4088SOL    HW213706   0.393   6.515   9.863  0.1791  1.5863 -0.1403
 4089SOL     OW13707   2.412   4.882   8.700 -0.1995  0.3243  0.0948
 4089SOL    HW113708   2.425   4.802   8.649 -0.4273  0.0321  0.4894
 4089SOL    HW213709   2.317   4.892   8.705 -0.1906  1.6497 -1.5389
 4090SOL     OW13710   2.118   4.808   9.455  0.0520 -0.3210  0.2162
 4090SOL    HW113711   2.084   4.839   9.539  2.2438  1.8135  0.4300
 4090SOL    HW213712   2.213   4.801   9.469  0.6547  1.3925 -2.3928
 4091SOL     OW13713   2.053   4.294   9.624  0.0026  0.1509 -0.3531
 4091SOL    HW113714   2.132   4.262   9.582 -0.1569 -0.0094 -0.5278
 4091SOL    HW213715   2.046   4.242   9.704 -1.6419 -2.0714 -1.8418
 4092SOL     OW13716   1.267   6.302  11.111  0.1299  0.6759 -0.1733
 4092SOL    HW113717   1.323   6.294  11.189  1.3188  0.9167 -0.9731
 4092SOL    HW213718   1.281   6.220  11.064 -0.0169  0.8338 -0.4931
 4093SOL     OW13719   0.950   5.071  11.102  0.1278  0.0926  0.3409
 4093SOL    HW113720   0.978   5.053  11.012  0.0637 -0.8683  0.4978
 4093SOL    HW213721   1.028   5.106  11.145  0.5946 -0.8447  0.2939
 4094SOL     OW13722   0.976   6.563   9.871 -0.4239  0.1338 -0.3326
 4094SOL    HW113723   1.000   6.483   9.825 -0.3909 -0.0293 -0.0305
 4094SOL    HW213724   0.956   6.535   9.960 -0.3225  0.4743 -0.2010
 4095SOL     OW13725   7.935   5.248  10.649 -0.2441  0.4620 -0.7384
 4095SOL    HW113726   7.897   5.166  10.617  0.4307  0.2987 -1.1533
 4095SOL    HW213727   8.014   5.220  10.696 -0.5466  0.8024 -0.0154
 4096SOL     OW13728   0.773   5.437   9.906 -0.3301  0.8684  0.0086
 4096SOL    HW113729   0.711   5.449   9.834 -1.4723 -1.7051  0.4410
 4096SOL    HW213730   0.746   5.355   9.946  1.1073  1.5595  2.5687
 4097SOL     OW13731   2.034   2.452  10.683  0.3291  0.2088  0.6563
 4097SOL    HW113732   2.066   2.362  10.688 -0.1061 -0.1615 -1.7913
 4097SOL    HW213733   1.939   2.443  10.682  0.2696  0.4310 -1.8195
 4098SOL     OW13734   0.110   3.649   9.844 -0.3125 -0.1178 -0.1116
 4098SOL    HW113735   0.188   3.691   9.881 -1.0794  0.6312  0.7093
 4098SOL    HW213736   0.129   3.639   9.751 -0.1292  2.1733 -0.3681
 4099SOL     OW13737   0.572   6.016  11.990  0.2479 -0.4817 -0.3465
 4099SOL    HW113738   0.550   6.090  11.934  0.7381  0.1698  0.3109
 4099SOL    HW213739   0.658   5.987  11.960  1.2277  0.8502  1.0312
 4100SOL     OW13740   1.631   4.517  10.382 -0.1238 -0.5018 -0.0973
 4100SOL    HW113741   1.649   4.600  10.426 -0.5436 -0.4322 -0.0458
 4100SOL    HW213742   1.705   4.461  10.402  0.4757  0.0725 -0.6549
 4101SOL     OW13743   7.358   3.243   9.147  0.2108  0.0432  0.4612
 4101SOL    HW113744   7.341   3.189   9.223 -2.1208  0.0763  0.0678
 4101SOL    HW213745   7.385   3.182   9.079 -0.9018 -0.4478  0.4433
 4102SOL     OW13746   1.388   4.949   9.716 -0.5371 -0.6462 -0.3664
 4102SOL    HW113747   1.375   4.906   9.631 -1.2168  0.4065 -0.8163
 4102SOL    HW213748   1.312   4.924   9.767 -1.1516  0.3421 -0.7774
 4103SOL     OW13749   2.482   5.047   9.613  0.2274  0.4100  0.1211
 4103SOL    HW113750   2.563   5.086   9.646  0.8517 -1.4267  0.9190
 4103SOL    HW213751   2.418   5.061   9.682  0.6401 -0.5251  0.7186
 4104SOL     OW13752   1.997   5.372  10.815 -0.0131 -0.2900 -0.0157
 4104SOL    HW113753   1.907   5.351  10.791 -0.0824 -1.1152  0.9365
 4104SOL    HW213754   1.995   5.467  10.829 -1.2275 -0.5425  1.9257
 4105SOL     OW13755   1.440   4.444   9.223  0.1700  0.0486  0.1865
 4105SOL    HW113756   1.429   4.354   9.254  1.2419 -0.1242  0.0826
 4105SOL    HW213757   1.360   4.461   9.172  1.0893 -1.7872 -2.0274
 4106SOL     OW13758   7.135   4.366   9.245 -0.1753 -0.2352 -0.9031
 4106SOL    HW113759   7.122   4.448   9.197 -0.7454  0.3179  0.1648
 4106SOL    HW213760   7.128   4.391   9.337 -0.7358 -1.5510 -0.5722
 4107SOL     OW13761   0.136   4.093   8.745 -0.1338  0.8238  0.0891
 4107SOL    HW113762   0.048   4.090   8.708  0.2027 -0.2039 -0.6811
 4107SOL    HW213763   0.176   4.170   8.704 -0.6532  1.2597  0.3977
 4108SOL     OW13764   1.273   6.013  11.332 -0.0109  0.2989 -0.0208
 4108SOL    HW113765   1.208   5.983  11.395  0.1014  0.5086  0.2003
 4108SOL    HW213766   1.343   5.948  11.336 -0.0341  0.2771  0.0253
 4109SOL     OW13767   0.368   7.557  10.340 -0.3273  0.4372  0.0364
 4109SOL    HW113768   0.425   7.482  10.354 -0.1378  0.5666 -0.0412
 4109SOL    HW213769   0.427   7.629  10.319 -0.5645  0.3495 -0.9935
 4110SOL     OW13770   7.882   5.005  11.474 -0.4157 -0.2109  0.5081
 4110SOL    HW113771   7.840   5.085  11.506  2.2817  0.8795  1.6160
 4110SOL    HW213772   7.822   4.935  11.500 -1.4917  1.2168  2.1040
 4111SOL     OW13773   2.617   3.355  10.843  0.5049  0.2977  0.2533
 4111SOL    HW113774   2.536   3.304  10.839  1.1074 -0.7233  0.6003
 4111SOL    HW213775   2.686   3.291  10.824  1.1219  1.5087 -1.9499
 4112SOL     OW13776   1.251   3.998   9.719  0.2309  0.6410 -1.0661
 4112SOL    HW113777   1.310   4.060   9.676 -0.9074  3.2542  0.8388
 4112SOL    HW213778   1.177   3.991   9.660  0.3666  1.1512 -1.3060
 4113SOL     OW13779   1.067   5.976   0.074  0.3732 -0.3563  0.0207
 4113SOL    HW113780   1.070   5.882   0.057  0.2657 -0.6879  1.6563
 4113SOL    HW213781   1.127   5.989   0.147 -0.4370  0.6551  0.5409
 4114SOL     OW13782   7.784   3.130   9.984  0.0047 -0.0173  0.1016
 4114SOL    HW113783   7.797   3.042   9.951 -1.6649 -0.5458  0.7384
 4114SOL    HW213784   7.846   3.139  10.056 -0.3175 -0.9545  0.5096
 4115SOL     OW13785   7.839   4.422  10.568  0.0451  0.0184  0.0982
 4115SOL    HW113786   7.930   4.398  10.552 -0.1810 -0.4787 -0.4489
 4115SOL    HW213787   7.792   4.393  10.490 -0.4556  1.0061  0.0174
 4116SOL     OW13788   0.518   4.592  11.015 -0.5908 -0.1963 -0.3172
 4116SOL    HW113789   0.550   4.512  11.056 -1.8312 -0.8148 -0.4926
 4116SOL    HW213790   0.563   4.596  10.930  1.4180  0.6911  0.7227
 4117SOL     OW13791   0.986   5.634  10.748  0.3636 -0.1191  0.4936
 4117SOL    HW113792   1.009   5.541  10.754  0.4609 -0.0798  0.7279
 4117SOL    HW213793   0.950   5.643  10.660 -0.1784 -0.4981  0.6716
 4118SOL     OW13794   2.531   4.222   8.922  0.4684  0.1592  0.3619
 4118SOL    HW113795   2.562   4.142   8.880 -1.7350  0.0748 -1.2507
 4118SOL    HW213796   2.543   4.290   8.855 -0.3901  0.5982  0.6430
 4119SOL     OW13797   3.050   4.855  10.152  0.3998 -0.4211 -0.3427
 4119SOL    HW113798   3.104   4.863  10.230  0.1909  1.0029 -0.3179
 4119SOL    HW213799   3.106   4.813  10.088 -0.2289 -4.1256  1.2898
 4120SOL     OW13800   7.313   6.832  11.661 -0.3977 -0.2405  0.1581
 4120SOL    HW113801   7.394   6.855  11.707  0.1019 -0.7129 -0.4563
 4120SOL    HW213802   7.315   6.884  11.581 -1.1103  0.3512  0.5237
 4121SOL     OW13803   2.753   5.505  11.011  0.7760  0.5929  0.3689
 4121SOL    HW113804   2.792   5.419  11.023 -1.0526 -0.0816  2.0288
 4121SOL    HW213805   2.713   5.502  10.925 -2.1431 -1.5193  1.6653
 4122SOL     OW13806   1.033   3.467   8.089 -0.1398 -0.3144 -0.7372
 4122SOL    HW113807   1.055   3.444   7.999 -0.3235  0.7889 -1.0737
 4122SOL    HW213808   1.109   3.439   8.140 -0.6388 -2.2863 -1.0073
 4123SOL     OW13809   1.706   4.662   9.858  0.5115 -0.1223  0.2081
 4123SOL    HW113810   1.630   4.659   9.800  0.3455 -0.0588  0.4207
 4123SOL    HW213811   1.717   4.571   9.887  0.8281 -0.2247 -0.2171
 4124SOL     OW13812   2.919   2.547  11.627 -0.3225 -0.0267 -0.1002
 4124SOL    HW113813   2.967   2.469  11.597 -1.7807 -0.0308 -2.6404
 4124SOL    HW213814   2.828   2.518  11.633 -1.1925  1.8212 -2.7756
 4125SOL     OW13815   1.498   4.570  11.064 -0.5554 -0.2111 -0.1331
 4125SOL    HW113816   1.474   4.481  11.087 -0.1973 -0.2686  0.0178
 4125SOL    HW213817   1.451   4.625  11.127  0.6437 -0.3765  0.9336
 4126SOL     OW13818   1.779   4.647   8.303 -0.2073 -0.2445 -0.2405
 4126SOL    HW113819   1.816   4.641   8.392  0.6651  2.4822 -0.3126
 4126SOL    HW213820   1.853   4.675   8.249 -1.1581 -0.0407 -1.4716
 4127SOL     OW13821   0.566   6.879  10.846 -0.4164 -0.2430  0.0339
 4127SOL    HW113822   0.608   6.940  10.785 -0.9698 -0.5653 -0.6872
 4127SOL    HW213823   0.472   6.892  10.833 -0.5424 -0.4077  0.7392
 4128SOL     OW13824   2.154   5.162  10.835 -0.3646  0.1428  0.2103
 4128SOL    HW113825   2.086   5.229  10.846 -0.3202  0.2198  0.0258
 4128SOL    HW213826   2.223   5.206  10.786  1.2179  1.0329  3.0248
 4129SOL     OW13827   0.267   4.751  10.289 -0.0364 -0.3522 -0.0538
 4129SOL    HW113828   0.269   4.697  10.209  0.9234  1.1324 -1.0785
 4129SOL    HW213829   0.182   4.731  10.328  0.5710 -3.2137  0.0865
 4130SOL     OW13830   1.962   5.174   9.071 -0.5051 -0.0637  0.4607
 4130SOL    HW113831   1.882   5.217   9.044  0.2436 -0.3985 -2.6717
 4130SOL    HW213832   2.032   5.220   9.024  1.0521 -0.5088  2.1963
 4131SOL     OW13833   5.504   5.520   9.484  0.0501  0.1317 -0.2157
 4131SOL    HW113834   5.525   5.457   9.552 -2.8068 -0.4014  0.2583
 4131SOL    HW213835   5.449   5.472   9.422  1.1289  1.0956 -2.0066
 4132SOL     OW13836   1.132   6.383   8.896  0.0447 -0.0528 -0.2643
 4132SOL    HW113837   1.044   6.346   8.884  0.0083 -0.0125 -0.1273
 4132SOL    HW213838   1.185   6.308   8.924  0.6349 -0.6369 -2.7700
 4133SOL     OW13839   1.050   5.455  10.261  0.0638  0.2260  0.0748
 4133SOL    HW113840   0.991   5.395  10.307 -0.6901 -0.2543 -1.4536
 4133SOL    HW213841   1.005   5.539  10.264 -1.8344 -0.5396 -2.8593
 4134SOL     OW13842   2.529   4.431   9.420 -0.8704  0.4206  0.1468
 4134SOL    HW113843   2.618   4.461   9.399 -0.9831 -0.2178 -1.3879
 4134SOL    HW213844   2.541   4.343   9.454 -0.9732 -0.2560 -1.4564
 4135SOL     OW13845   0.175   6.309  10.500 -0.0635 -0.0577  0.2803
 4135SOL    HW113846   0.089   6.346  10.482  0.1934  1.4220  1.8311
 4135SOL    HW213847   0.231   6.345  10.430 -0.0686  1.6475  1.1001
 4136SOL     OW13848   2.196   5.510  10.612  0.0120 -0.0405 -0.2788
 4136SOL    HW113849   2.103   5.508  10.589 -0.2359  0.4776  0.6228
 4136SOL    HW213850   2.240   5.544  10.534 -0.4324 -1.2198 -1.0614
 4137SOL     OW13851   0.946   4.526  10.966 -0.0155 -0.7474 -0.3807
 4137SOL    HW113852   0.936   4.595  10.900 -3.0879 -0.5898  0.1175
 4137SOL    HW213853   0.986   4.570  11.041  2.2958 -0.6338 -1.5803
 4138SOL     OW13854   1.015   5.603   9.697  0.1303  0.5862  0.0166
 4138SOL    HW113855   0.976   5.677   9.652 -2.0839 -0.0599  0.7715
 4138SOL    HW213856   0.982   5.526   9.651 -0.3694 -0.0069  1.3201
 4139SOL     OW13857   1.932   4.757  10.285  0.1293  0.0835  0.3949
 4139SOL    HW113858   1.927   4.784  10.377  1.3799  0.8421  0.2565
 4139SOL    HW213859   1.951   4.663  10.289  0.4828  0.1704  0.9169
 4140SOL     OW13860   2.158   3.799  11.447 -0.4856  0.0807 -0.4068
 4140SOL    HW113861   2.199   3.845  11.374  2.5451  0.1552  1.1617
 4140SOL    HW213862   2.181   3.707  11.433  0.6711  0.1722  0.6984
 4141SOL     OW13863   1.375   6.163  12.066 -0.1651 -0.5309  0.2471
 4141SOL    HW113864   1.453   6.193  12.019 -0.9879 -0.2142 -0.9444
 4141SOL    HW213865   1.343   6.089  12.015 -2.2543  1.0848 -0.9614
 4142SOL     OW13866   7.174   6.128   9.506  0.1054  0.3350 -0.3451
 4142SOL    HW113867   7.262   6.091   9.513 -0.0806  0.0215  0.4078
 4142SOL    HW213868   7.179   6.187   9.430  0.8866  0.1191 -0.4733
 4143SOL     OW13869   2.106   4.591  10.749 -0.0897 -0.2206  0.1361
 4143SOL    HW113870   2.151   4.595  10.665  1.2362  0.1279  0.8280
 4143SOL    HW213871   2.114   4.499  10.777 -1.3569 -0.5500 -0.5303
 4144SOL     OW13872   0.534   3.946  10.048  0.1485 -0.2819 -0.5264
 4144SOL    HW113873   0.521   4.032  10.008  2.0532 -0.2098 -1.0903
 4144SOL    HW213874   0.500   3.955  10.137 -2.9394 -0.0457 -1.6138
 4145SOL     OW13875   1.982   5.213   9.332 -0.6438  0.1934  0.2146
 4145SOL    HW113876   2.038   5.147   9.372 -0.2737  0.2231 -0.2417
 4145SOL    HW213877   1.980   5.190   9.239  1.0663  1.8820 -0.3357
 4146SOL     OW13878   0.521   4.170  10.987 -0.0068  0.5116 -0.5171
 4146SOL    HW113879   0.592   4.219  11.028  0.1233  0.0979 -0.2407
 4146SOL    HW213880   0.481   4.121  11.060 -2.3133  2.7825 -0.1321
 4147SOL     OW13881   7.231   4.910  10.270 -1.0115 -0.3938 -0.0059
 4147SOL    HW113882   7.181   4.829  10.283 -2.0614  0.2682  0.2435
 4147SOL    HW213883   7.256   4.908  10.178 -0.5057 -1.2742  0.1324
 4148SOL     OW13884   1.814   4.559  11.498 -0.0415 -0.0082 -0.2436
 4148SOL    HW113885   1.734   4.506  11.496  0.7186 -1.1976 -0.1387
 4148SOL    HW213886   1.873   4.517  11.435  0.9715  0.0708  0.6250
 4149SOL     OW13887   0.427   5.321  12.317  0.3200 -0.3422 -0.1233
 4149SOL    HW113888   0.474   5.245  12.282  0.1876  0.0937 -1.2927
 4149SOL    HW213889   0.399   5.293  12.405  1.2381 -1.2325 -0.0826
 4150SOL     OW13890   7.173   5.046  11.471 -0.1766  0.1945 -0.5003
 4150SOL    HW113891   7.079   5.057  11.458 -0.3035  2.2282  1.5758
 4150SOL    HW213892   7.206   5.135  11.488  2.1601 -0.4466 -1.2074
 4151SOL     OW13893   0.499   4.930   3.034 -0.1134 -0.4438  0.2424
 4151SOL    HW113894   0.575   4.882   3.003 -0.1458 -0.6268  0.4410
 4151SOL    HW213895   0.532   4.981   3.108  0.0690  0.3538 -0.3850
 4152SOL     OW13896   1.451   5.626   0.804 -0.0895  0.3778 -0.2647
 4152SOL    HW113897   1.411   5.686   0.868 -1.5201 -2.2790  1.4893
 4152SOL    HW213898   1.390   5.625   0.731 -1.5119 -0.8970  0.8667
 4153SOL     OW13899   0.322   3.795   0.470 -0.0155  0.1229 -0.0193
 4153SOL    HW113900   0.322   3.705   0.437  1.6855 -0.0997  0.4778
 4153SOL    HW213901   0.415   3.818   0.476 -0.4146  1.8551  0.0498
 4154SOL     OW13902   2.508   5.505  10.259 -0.5468  0.2351 -0.0994
 4154SOL    HW113903   2.535   5.577  10.316  0.1154  0.6583 -0.9326
 4154SOL    HW213904   2.502   5.429  10.318  1.7690  0.2759  0.2693
 4155SOL     OW13905   1.143   4.157   1.356 -0.1811  0.3357  0.3124
 4155SOL    HW113906   1.165   4.220   1.424 -0.8000  2.3774 -1.2464
 4155SOL    HW213907   1.071   4.199   1.307 -0.5688 -1.5561 -0.8699
 4156SOL     OW13908   1.227   3.435  12.375  1.0495  0.0210 -0.3853
 4156SOL    HW113909   1.321   3.440  12.357  0.8539 -0.3290 -1.5589
 4156SOL    HW213910   1.190   3.390  12.299 -0.4988  2.9020 -1.4886
 4157SOL     OW13911   5.151   6.576  11.191  0.5705  0.1887 -0.4790
 4157SOL    HW113912   5.061   6.603  11.210  0.5776  2.2522 -2.7836
 4157SOL    HW213913   5.184   6.542  11.274 -2.4020 -0.9896  0.3600
 4158SOL     OW13914   1.158   4.106  10.938  0.3562 -0.8495  1.2696
 4158SOL    HW113915   1.249   4.090  10.962  2.5681  0.9586 -4.2341
 4158SOL    HW213916   1.157   4.195  10.903 -3.5860 -0.8024  0.9749
 4159SOL     OW13917   7.911   6.107   0.527 -0.3975 -0.1154  0.5178
 4159SOL    HW113918   7.838   6.107   0.589 -0.9640 -2.1436 -0.0642
 4159SOL    HW213919   7.989   6.097   0.581 -0.8776 -1.7887  0.9588
 4160SOL     OW13920   0.271   4.629  12.243 -0.2214 -0.1957  0.0776
 4160SOL    HW113921   0.271   4.693  12.315 -0.9906  0.1047 -0.1746
 4160SOL    HW213922   0.201   4.567  12.266  0.3410 -0.7930  0.1841
 4161SOL     OW13923   0.784   4.495   0.517 -0.5682 -0.0097  0.1072
 4161SOL    HW113924   0.733   4.555   0.463  0.1937  1.3888  0.8770
 4161SOL    HW213925   0.841   4.449   0.455 -1.1057  0.1091 -0.4816
 4162SOL     OW13926   1.365   3.746  11.055 -0.3273  0.4454 -0.3243
 4162SOL    HW113927   1.407   3.794  10.983  1.2362 -1.1391 -0.5257
 4162SOL    HW213928   1.397   3.790  11.134 -0.2072  0.7463 -0.5356
 4163SOL     OW13929   0.170   3.875  11.032 -0.1320 -0.6127 -0.1491
 4163SOL    HW113930   0.263   3.900  11.039 -0.0529 -0.9207 -0.0999
 4163SOL    HW213931   0.172   3.790  10.988 -0.4119 -0.4554 -0.4672
 4164SOL     OW13932   3.077   4.409   0.245  0.6697 -0.1294 -0.4547
 4164SOL    HW113933   3.068   4.359   0.164 -0.8933 -1.0549  0.2485
 4164SOL    HW213934   3.171   4.424   0.254  0.7899  1.4116 -3.2578
 4165SOL     OW13935   0.993   4.848  11.648  0.0503  0.2471 -0.2474
 4165SOL    HW113936   0.973   4.853  11.742  0.1918 -0.4847 -0.1686
 4165SOL    HW213937   0.960   4.762  11.622  1.5361 -0.2825 -0.4891
 4166SOL     OW13938   1.378   4.117  11.187  0.3896 -0.5096 -0.2647
 4166SOL    HW113939   1.406   4.044  11.242  0.2034 -1.2308 -1.1217
 4166SOL    HW213940   1.312   4.162  11.240  0.5719 -0.8903  0.3029
 4167SOL     OW13941   1.131   5.695  11.470 -0.3057  0.4268 -0.4449
 4167SOL    HW113942   1.096   5.639  11.540  0.7179  0.3607  0.0432
 4167SOL    HW213943   1.121   5.784  11.504 -1.5154  0.5339 -1.0269
 4168SOL     OW13944   6.767   5.881  12.368  0.1628  0.4281  0.3168
 4168SOL    HW113945   6.805   5.912  12.450 -0.1529 -2.8916  1.8856
 4168SOL    HW213946   6.678   5.855  12.391 -0.2882  0.3436 -1.3482
 4169SOL     OW13947   7.226   6.352   0.625 -0.0346  0.1061  0.2941
 4169SOL    HW113948   7.251   6.300   0.549  0.7081  0.2205  0.4533
 4169SOL    HW213949   7.196   6.288   0.690  1.8886 -0.2549  0.8871
 4170SOL     OW13950   2.562   1.936  12.358  0.0236 -0.2951 -0.6253
 4170SOL    HW113951   2.612   1.916  12.437  2.2458 -0.7967 -2.0619
 4170SOL    HW213952   2.536   1.850  12.323  0.1804 -0.1504 -1.1059
 4171SOL     OW13953   6.285   6.763  11.952 -0.1359  0.5528 -0.4659
 4171SOL    HW113954   6.205   6.782  11.904 -0.0428  0.6196 -0.5956
 4171SOL    HW213955   6.350   6.824  11.917 -0.9705  3.3511  2.3421
 4172SOL     OW13956   0.671   3.089  12.160  0.1244 -0.5580  0.2303
 4172SOL    HW113957   0.596   3.088  12.101 -0.7201  1.7459  1.1403
 4172SOL    HW213958   0.658   3.013  12.217 -1.1723 -0.5696 -0.0536
 4173SOL     OW13959   2.324   5.967  11.576 -0.8376 -0.5055 -0.3392
 4173SOL    HW113960   2.326   5.878  11.540 -1.8814 -0.8687  0.4148
 4173SOL    HW213961   2.365   5.958  11.662 -1.7900 -0.4842  0.1375
 4174SOL     OW13962   2.484   6.228   0.312  0.6753  0.3358  0.7295
 4174SOL    HW113963   2.432   6.290   0.363 -0.8837 -1.1028  0.9795
 4174SOL    HW213964   2.438   6.145   0.321  1.0807 -0.2680 -1.9608
 4175SOL     OW13965   0.399   3.423   0.206 -0.0448 -0.2172 -0.0507
 4175SOL    HW113966   0.365   3.415   0.117 -0.7334 -0.9672  0.2721
 4175SOL    HW213967   0.328   3.462   0.256 -0.4029 -1.6527  0.5946
 4176SOL     OW13968   1.778   3.990  10.933 -0.2013  0.3351  0.4008
 4176SOL    HW113969   1.766   3.974  11.027  1.1578 -1.5655  0.3055
 4176SOL    HW213970   1.825   3.913  10.901  1.8822  2.1862 -1.3148
 4177SOL     OW13971   1.208   5.334  11.989  0.3623  0.3294  0.0950
 4177SOL    HW113972   1.205   5.384  11.908 -0.6052 -0.1274 -0.1649
 4177SOL    HW213973   1.142   5.376  12.045  0.0799 -0.1805  0.1494
 4178SOL     OW13974   0.964   4.980  12.265  0.1266  0.0654  0.5216
 4178SOL    HW113975   1.023   5.046  12.300 -0.4957  1.0701 -0.2668
 4178SOL    HW213976   0.950   5.006  12.173  0.5211 -1.6323 -0.0538
 4179SOL     OW13977   0.273   5.690  11.582  0.0239 -0.0123  0.0382
 4179SOL    HW113978   0.284   5.597  11.597 -0.7449 -0.0531  0.4234
 4179SOL    HW213979   0.290   5.702  11.488  0.0956 -0.5450 -0.0175
 4180SOL     OW13980   1.483   5.379  11.787 -0.0730 -0.4391 -0.0618
 4180SOL    HW113981   1.389   5.389  11.803  0.0627  0.1536  0.4061
 4180SOL    HW213982   1.520   5.363  11.874  0.2202 -1.0365 -0.2906
 4181SOL     OW13983   7.589   6.022  12.137 -0.4666 -0.7463  0.2102
 4181SOL    HW113984   7.668   6.057  12.097 -0.1206 -0.1550  1.3620
 4181SOL    HW213985   7.615   5.938  12.173 -0.3176 -0.4973  0.6958
 4182SOL     OW13986   0.342   3.649  11.900  0.6520 -0.2381 -0.7674
 4182SOL    HW113987   0.429   3.688  11.911  1.3198 -1.4688 -1.4874
 4182SOL    HW213988   0.316   3.673  11.811  0.1374  0.3423 -0.4633
 4183SOL     OW13989   1.243   5.093  11.619  0.5310 -1.3267  0.3108
 4183SOL    HW113990   1.200   5.122  11.699  0.9839  0.3654 -0.0218
 4183SOL    HW213991   1.173   5.084  11.555  0.4709  0.1062  0.1426
 4184SOL     OW13992   7.994   4.044  11.986 -0.3982  0.3700  0.2635
 4184SOL    HW113993   7.908   4.067  12.023  0.3246 -0.4008  2.5664
 4184SOL    HW213994   8.009   4.111  11.919 -3.3491 -0.2136 -1.1794
 4185SOL     OW13995   0.120   5.430  12.167  0.2055  0.1548 -0.5637
 4185SOL    HW113996   0.111   5.452  12.259 -0.5864  0.9442 -0.8111
 4185SOL    HW213997   0.146   5.512  12.125  1.3972 -0.3867 -0.9372
 4186SOL     OW13998   0.491   4.201   0.226 -0.2994  0.0862  0.3504
 4186SOL    HW113999   0.486   4.290   0.191 -3.2039  0.3051  1.0891
 4186SOL    HW214000   0.585   4.183   0.231  0.3598  2.1368 -2.1560
 4187SOL     OW14001   2.652   4.781  10.248 -0.0360  0.3826 -0.2011
 4187SOL    HW114002   2.700   4.793  10.330  0.2993  0.5233 -0.4178
 4187SOL    HW214003   2.692   4.843  10.187  0.1977 -0.2195 -0.6767
 4188SOL     OW14004   7.107   4.210  11.743 -0.7498 -0.1972  0.1584
 4188SOL    HW114005   7.167   4.136  11.739 -1.0566 -0.4202 -0.6145
 4188SOL    HW214006   7.125   4.260  11.664 -0.8426  0.3219  0.4601
 4189SOL     OW14007   2.100   5.365  11.497 -0.6011 -0.1691  0.2253
 4189SOL    HW114008   2.145   5.445  11.473 -1.3908  0.1602 -0.1718
 4189SOL    HW214009   2.070   5.328  11.414 -1.5706 -0.0747  0.5193
 4190SOL     OW14010   1.034   4.519  11.533  0.8504 -0.0134 -0.3129
 4190SOL    HW114011   1.063   4.546  11.620 -0.6024 -1.1543  0.5646
 4190SOL    HW214012   1.104   4.462  11.502  1.7357  0.9927 -0.2446
 4191SOL     OW14013   1.501   5.702   9.951 -0.3473  0.8329  0.1987
 4191SOL    HW114014   1.494   5.774  10.012  0.8819 -1.5826  3.4712
 4191SOL    HW214015   1.416   5.658   9.956 -0.6812  1.3270 -0.8680
 4192SOL     OW14016   7.396   4.479  10.401 -0.0259 -0.0413  0.8638
 4192SOL    HW114017   7.395   4.511  10.491 -1.2166  1.7901  0.2575
 4192SOL    HW214018   7.488   4.463  10.382  0.0970 -3.2042  3.2434
 4193SOL     OW14019   0.177   3.490  12.076  0.0182 -0.6275 -0.3967
 4193SOL    HW114020   0.223   3.559  12.027  1.2597 -0.8971  0.3408
 4193SOL    HW214021   0.115   3.537  12.131  1.7906  0.0626  1.0992
 4194SOL     OW14022   0.635   5.698   9.353  0.1847  0.0409  0.0338
 4194SOL    HW114023   0.662   5.609   9.378  1.2087 -0.2606 -1.9504
 4194SOL    HW214024   0.619   5.693   9.259  1.8539  2.2881 -0.4587
 4195SOL     OW14025   7.946   5.256   0.067  0.2651  0.1927  0.4600
 4195SOL    HW114026   7.878   5.196   0.039 -1.1709  2.1970 -0.5399
 4195SOL    HW214027   7.935   5.262   0.162  0.3208 -0.9494  0.5519
 4196SOL     OW14028   0.526   2.560  11.321  0.4436 -0.2479 -0.5264
 4196SOL    HW114029   0.608   2.597  11.354  1.2966  0.2909 -3.0401
 4196SOL    HW214030   0.541   2.465  11.323  0.1698 -0.2959  1.2133
 4197SOL     OW14031   1.278   4.090   0.099 -0.2839 -0.2853 -0.2165
 4197SOL    HW114032   1.185   4.071   0.086 -0.5912 -1.1685  2.4817
 4197SOL    HW214033   1.293   4.072   0.192  2.5515  0.0517 -0.5089
 4198SOL     OW14034   0.166   5.140  10.767  0.5818  0.4175  0.0392
 4198SOL    HW114035   0.157   5.136  10.862  1.6810  0.9190  0.1821
 4198SOL    HW214036   0.256   5.170  10.753  0.9441 -1.1492 -1.1844
 4199SOL     OW14037   0.632   5.620   0.384 -0.4821  0.2308 -0.0621
 4199SOL    HW114038   0.540   5.639   0.364 -0.8942 -0.3367  1.1413
 4199SOL    HW214039   0.645   5.531   0.352  0.0117  0.7346 -1.3016
 4200SOL     OW14040   0.322   3.432  12.448  0.0782 -0.0595  0.7259
 4200SOL    HW114041   0.230   3.406  12.443 -0.2023  0.9244  0.3418
 4200SOL    HW214042   0.324   3.517  12.404  1.4009 -0.6299 -0.3782
 4201SOL     OW14043   1.704   5.647  10.642 -0.1487 -0.2104  0.0271
 4201SOL    HW114044   1.739   5.579  10.699 -1.8948 -0.9052  0.3390
 4201SOL    HW214045   1.676   5.600  10.564 -0.4107  0.3147 -0.1952
 4202SOL     OW14046   2.156   4.113  10.533 -0.7603 -0.7895  0.2773
 4202SOL    HW114047   2.197   4.127  10.619  1.0232 -2.2154 -0.2734
 4202SOL    HW214048   2.199   4.176  10.476 -1.3048 -0.4541  0.2310
 4203SOL     OW14049   1.537   3.190   0.112 -0.1153 -0.2354 -0.2303
 4203SOL    HW114050   1.504   3.140   0.037  0.4117 -1.0141  0.0423
 4203SOL    HW214051   1.462   3.240   0.143 -0.6042 -0.7092 -0.6413
 4204SOL     OW14052   1.006   5.220  11.717  0.2750  0.1007  0.2541
 4204SOL    HW114053   0.930   5.168  11.692  0.2019  0.4681 -0.3114
 4204SOL    HW214054   0.988   5.307  11.681  1.1940  0.0561 -0.3189
 4205SOL     OW14055   1.107   5.956  11.781  0.1929  0.0506  0.1677
 4205SOL    HW114056   1.051   5.880  11.798 -0.1290 -0.0800 -1.3341
 4205SOL    HW214057   1.185   5.939  11.834 -0.4307 -0.6509  0.9047
 4206SOL     OW14058   0.958   5.438  11.585  0.2026 -0.1250 -0.3056
 4206SOL    HW114059   0.928   5.424  11.495  0.1960 -2.1390 -0.0227
 4206SOL    HW214060   0.880   5.465  11.633 -0.3207 -1.3829 -0.4219
 4207SOL     OW14061   1.936   3.825   9.786 -0.0928  0.0945 -0.3389
 4207SOL    HW114062   1.891   3.766   9.726 -0.7489  0.3037 -0.0622
 4207SOL    HW214063   2.005   3.772   9.825  0.8284  0.1461 -1.8148
 4208SOL     OW14064   1.181   4.691  12.041  0.1833  0.0290  0.0762
 4208SOL    HW114065   1.238   4.756  12.000  1.4471  0.2398  2.0538
 4208SOL    HW214066   1.230   4.660  12.116 -1.5601 -1.1999  0.7766
 4209SOL     OW14067   0.393   4.131   0.751  0.4620  0.0727  0.7122
 4209SOL    HW114068   0.323   4.067   0.735 -0.7135  1.5989 -0.5571
 4209SOL    HW214069   0.471   4.091   0.713 -0.0588 -0.9435  0.6706
 4210SOL     OW14070   1.323   3.785   0.828 -0.0664 -0.5717  0.2775
 4210SOL    HW114071   1.418   3.780   0.822  0.0382  1.8880 -1.2080
 4210SOL    HW214072   1.292   3.762   0.740 -0.8454 -0.8698  0.6181
 4211SOL     OW14073   2.837   4.530  11.740 -0.0048  0.2159  0.3275
 4211SOL    HW114074   2.890   4.599  11.701  0.5984  0.4517  1.5280
 4211SOL    HW214075   2.861   4.530  11.833 -0.9689 -0.7170  0.6018
 4212SOL     OW14076   1.981   5.500   0.134  0.1445 -0.1255 -0.2149
 4212SOL    HW114077   2.038   5.549   0.193 -1.4569  2.9151 -0.9933
 4212SOL    HW214078   1.964   5.417   0.179  2.3100  0.3267  1.5816
 4213SOL     OW14079   1.224   4.260  10.551 -0.3083  0.2136 -0.0157
 4213SOL    HW114080   1.192   4.283  10.637  0.3368  0.4480  0.1677
 4213SOL    HW214081   1.301   4.315  10.538 -1.1688  1.1983 -1.3112
 4214SOL     OW14082   7.846   3.629   9.750 -0.1192  0.5662 -0.2858
 4214SOL    HW114083   7.790   3.642   9.827 -0.1537  0.4329 -0.2880
 4214SOL    HW214084   7.935   3.642   9.783 -0.2079  1.8426 -0.5133
 4215SOL     OW14085   1.528   7.849  12.052  0.2732  0.0607  0.1192
 4215SOL    HW114086   1.476   7.800  12.116  0.7207  0.2866  0.6738
 4215SOL    HW214087   1.618   7.820  12.067  0.2803 -0.5838 -1.0702
 4216SOL     OW14088   1.542   4.898  11.505 -0.3488  0.1302 -0.6955
 4216SOL    HW114089   1.510   4.929  11.590  2.2909 -2.1194  1.3351
 4216SOL    HW214090   1.477   4.833  11.477 -2.5723  2.6700 -1.8189
 4217SOL     OW14091   1.518   5.259  10.353  0.4519 -0.2018 -0.0097
 4217SOL    HW114092   1.432   5.284  10.387  0.2039 -1.0985  0.0597
 4217SOL    HW214093   1.499   5.215  10.270  0.8175 -0.5830  0.1056
 4218SOL     OW14094   0.300   4.762  12.006 -0.4640 -0.0845 -0.7742
 4218SOL    HW114095   0.251   4.705  11.947 -1.3921 -0.1719  0.0585
 4218SOL    HW214096   0.299   4.718  12.091 -1.0508  1.0575 -0.1543
 4219SOL     OW14097   1.330   4.329  11.993 -0.1938 -0.2618 -0.0907
 4219SOL    HW114098   1.369   4.388  11.928  1.8256 -0.3505  0.9605
 4219SOL    HW214099   1.404   4.281  12.029 -1.4662 -1.4115  1.1015
 4220SOL     OW14100   2.854   5.589   0.117  0.3030  0.5142 -0.1739
 4220SOL    HW114101   2.847   5.685   0.116  1.7237  0.6356 -1.4903
 4220SOL    HW214102   2.935   5.571   0.164  0.1601 -0.0364 -0.1379
 4221SOL     OW14103   7.484   6.067   1.447 -0.7608  1.6436  0.3386
 4221SOL    HW114104   7.412   6.118   1.411 -1.3098  0.6595  0.0012
 4221SOL    HW214105   7.478   5.982   1.403  1.0483  1.7708 -0.2269
 4222SOL     OW14106   2.368   4.521  11.488 -0.0855 -0.0071 -0.0533
 4222SOL    HW114107   2.439   4.480  11.440 -0.0858 -2.1436  1.6257
 4222SOL    HW214108   2.410   4.565  11.562 -0.4114 -0.5800  0.4859
 4223SOL     OW14109   0.185   3.577   0.310  0.0195  0.0357 -0.0734
 4223SOL    HW114110   0.101   3.601   0.349  0.0696 -0.2153  0.1939
 4223SOL    HW214111   0.198   3.641   0.240 -0.2271  0.2894  0.1086
 4224SOL     OW14112   7.729   4.310   0.311  0.6629  0.1726 -0.3280
 4224SOL    HW114113   7.797   4.377   0.301  0.5664  0.4577  0.8289
 4224SOL    HW214114   7.647   4.359   0.320  0.6462 -0.0560  0.9861
 4225SOL     OW14115   1.179   3.352  11.010  0.0807  0.8644  0.8672
 4225SOL    HW114116   1.094   3.390  10.985 -0.6298 -0.3101  1.4240
 4225SOL    HW214117   1.225   3.424  11.053 -0.2025  1.8197 -0.3451
 4226SOL     OW14118   0.638   5.153   1.553 -0.5247 -0.1229 -0.0291
 4226SOL    HW114119   0.638   5.102   1.472  0.2239 -1.2538  0.6521
 4226SOL    HW214120   0.580   5.105   1.612 -1.1225  0.7314  0.0939
 4227SOL     OW14121   2.133   3.914  11.694  0.3211  0.0680 -0.4494
 4227SOL    HW114122   2.053   3.863  11.709 -0.9326  1.6030 -1.4794
 4227SOL    HW214123   2.157   3.894  11.604  0.4250  0.4662 -0.5117
 4228SOL     OW14124   7.201   5.318  12.423  0.5338  0.3577  0.4121
 4228SOL    HW114125   7.117   5.342  12.385 -0.3024 -1.7527  0.8464
 4228SOL    HW214126   7.194   5.345  12.515  0.8477  1.3180  0.1734
 4229SOL     OW14127   7.787   5.135   0.923  0.1671 -0.4772  0.0514
 4229SOL    HW114128   7.726   5.194   0.968 -0.7998 -1.5656  0.2214
 4229SOL    HW214129   7.859   5.124   0.985 -0.3529 -0.6281  0.6421
 4230SOL     OW14130   1.331   4.908  10.081 -0.6657 -0.5627 -0.0329
 4230SOL    HW114131   1.258   4.867  10.035 -0.8661 -1.3184  0.9174
 4230SOL    HW214132   1.390   4.836  10.102 -0.5517 -0.2401  0.8198
 4231SOL     OW14133   0.942   3.487  10.949  0.9386 -0.0263 -0.1401
 4231SOL    HW114134   0.847   3.495  10.944  0.8938 -0.0662  0.5817
 4231SOL    HW214135   0.970   3.567  10.993  1.3378  0.4580 -1.2468
 4232SOL     OW14136   1.629   3.760   0.161  0.1241  0.6625 -0.0581
 4232SOL    HW114137   1.674   3.687   0.204  0.7431 -0.2793 -2.1350
 4232SOL    HW214138   1.693   3.792   0.096 -0.7898  1.8948 -0.3825
 4233SOL     OW14139   7.643   4.823  11.124  0.0712 -0.1101 -0.1687
 4233SOL    HW114140   7.655   4.913  11.093  1.1043  0.0362  0.6048
 4233SOL    HW214141   7.731   4.785  11.119 -0.1112 -0.6693  0.7446
 4234SOL     OW14142   1.093   4.530  11.832 -0.8000  0.0031  0.0141
 4234SOL    HW114143   1.117   4.566  11.918  0.5648  1.7751 -1.0283
 4234SOL    HW214144   1.176   4.523  11.785 -1.4576 -1.4988 -0.9863
 4235SOL     OW14145   0.945   3.680  11.395 -0.1888  0.0880 -0.5728
 4235SOL    HW114146   1.003   3.611  11.427 -0.4038 -0.6504 -1.7174
 4235SOL    HW214147   0.986   3.762  11.425  1.2619 -0.4315 -1.0566
 4236SOL     OW14148   2.962   2.417   0.240 -0.2433  0.6520  0.3583
 4236SOL    HW114149   2.989   2.498   0.284 -2.1160  0.4618  1.9724
 4236SOL    HW214150   2.883   2.441   0.192  0.2024  0.1621 -0.6553
 4237SOL     OW14151   7.023   2.844   0.070 -0.2377  0.0577 -0.4164
 4237SOL    HW114152   6.943   2.792   0.062 -0.0593 -0.1631 -0.7888
 4237SOL    HW214153   7.001   2.911   0.134 -0.3869 -0.6371  0.2766
 4238SOL     OW14154   7.653   3.492  10.829 -0.3374  0.8758  0.2053
 4238SOL    HW114155   7.661   3.436  10.907 -1.5409 -0.7583 -0.7770
 4238SOL    HW214156   7.606   3.438  10.766 -1.0859  2.8478 -1.0027
 4239SOL     OW14157   7.952   5.917  11.230  0.4287 -0.3635  0.5413
 4239SOL    HW114158   8.015   5.989  11.226 -0.0646  0.1747  1.7950
 4239SOL    HW214159   7.915   5.923  11.318  0.1145 -1.9450  0.5468
 4240SOL     OW14160   1.618   5.297   1.739  0.3715 -0.5355  0.4290
 4240SOL    HW114161   1.564   5.241   1.795  0.1790  1.1300  2.0424
 4240SOL    HW214162   1.564   5.313   1.662 -0.1615 -1.3538  0.6133
 4241SOL     OW14163   1.192   6.281   0.673 -0.4027  0.3296 -0.0600
 4241SOL    HW114164   1.128   6.213   0.652 -0.6628  0.5859 -0.1050
 4241SOL    HW214165   1.195   6.336   0.594  1.9957 -1.2993 -1.2470
 4242SOL     OW14166   0.526   4.474  11.901  0.3861 -0.0828 -0.3518
 4242SOL    HW114167   0.549   4.557  11.942 -0.6674  1.9623 -3.5274
 4242SOL    HW214168   0.608   4.441  11.864  0.2450  1.5724 -2.2907
 4243SOL     OW14169   7.655   3.251  12.174 -0.3078 -0.0931 -0.0754
 4243SOL    HW114170   7.580   3.248  12.115 -0.5374  0.0852  0.2086
 4243SOL    HW214171   7.717   3.189  12.136  0.0806  0.9552 -1.2284
 4244SOL     OW14172   0.328   4.280  11.912  0.6612  0.3690  0.1497
 4244SOL    HW114173   0.339   4.260  12.005  0.4029  1.4476  0.4329
 4244SOL    HW214174   0.370   4.366  11.901 -1.1958  1.2804 -0.2485
 4245SOL     OW14175   7.745   6.444  12.220  0.0085 -0.5395 -0.1970
 4245SOL    HW114176   7.670   6.387  12.236 -0.8557  0.8087  0.6972
 4245SOL    HW214177   7.741   6.463  12.126 -0.4601 -0.9004 -0.2533
 4246SOL     OW14178   0.274   7.042  12.128  0.6599 -0.7584 -0.1711
 4246SOL    HW114179   0.327   6.981  12.179  2.6846  0.9416 -0.0987
 4246SOL    HW214180   0.302   7.028  12.038  0.6231 -0.4369 -0.2331
 4247SOL     OW14181   1.474   4.491   0.421  0.7683 -0.8499  0.0534
 4247SOL    HW114182   1.504   4.497   0.330  0.4954 -0.0601  0.0068
 4247SOL    HW214183   1.554   4.489   0.473  0.9218 -0.5552 -0.1676
 4248SOL     OW14184   0.592   5.057  11.062  0.0088  0.0272  0.3282
 4248SOL    HW114185   0.634   5.124  11.116  0.8744 -0.1064 -0.1653
 4248SOL    HW214186   0.597   4.977  11.115 -0.7341  0.2745  0.7807
 4249SOL     OW14187   0.058   4.406   0.984 -0.1837  0.5702  0.3000
 4249SOL    HW114188   0.048   4.443   0.897 -0.9209  1.8485  0.8949
 4249SOL    HW214189   0.001   4.330   0.985 -0.0603  0.4605 -0.3639
 4250SOL     OW14190   1.593   4.557   0.188 -0.3331 -0.0649 -0.2852
 4250SOL    HW114191   1.516   4.522   0.143 -1.3242 -0.2154  1.4409
 4250SOL    HW214192   1.649   4.481   0.203  1.0265  0.2642 -2.9861
 4251SOL     OW14193   1.321   3.371   0.135 -0.1061  0.1216 -0.3343
 4251SOL    HW114194   1.229   3.345   0.133 -0.3950  0.5122  2.7201
 4251SOL    HW214195   1.337   3.409   0.048 -2.1291 -2.0163 -1.7703
 4252SOL     OW14196   1.348   5.097  11.348 -0.2618  0.4301 -0.1012
 4252SOL    HW114197   1.420   5.054  11.394  0.9969 -2.1810 -4.0361
 4252SOL    HW214198   1.272   5.041  11.363 -0.5673  1.0809  0.8980
 4253SOL     OW14199   2.037   3.174  11.167 -0.1093  0.4084 -0.0756
 4253SOL    HW114200   2.097   3.201  11.097 -0.8575  0.8268 -0.5594
 4253SOL    HW214201   2.085   3.105  11.213  0.2681 -0.0878 -1.1824
 4254SOL     OW14202   2.238   3.921   0.383 -0.3865 -0.4201  0.0457
 4254SOL    HW114203   2.326   3.917   0.345  0.1989 -1.5476  1.4012
 4254SOL    HW214204   2.205   3.831   0.376 -0.2848 -0.6590  2.0298
 4255SOL     OW14205   1.134   3.438   9.441  0.6802  0.1913  0.5444
 4255SOL    HW114206   1.081   3.381   9.497  0.9542  1.1621  1.8444
 4255SOL    HW214207   1.223   3.426   9.472  1.2863 -1.3843 -1.5970
 4256SOL     OW14208   2.529   5.777   0.301  0.4655 -0.0498 -0.5544
 4256SOL    HW114209   2.448   5.826   0.286  0.0989  0.3848  2.2066
 4256SOL    HW214210   2.505   5.686   0.285 -0.7255  0.0308  0.5882
 4257SOL     OW14211   1.265   5.358  11.478 -0.1026  0.0307  0.0587
 4257SOL    HW114212   1.217   5.382  11.558 -1.4551  1.2777 -1.0650
 4257SOL    HW214213   1.246   5.265  11.467 -3.5507  0.7064 -1.0547
 4258SOL     OW14214   7.834   4.211  11.716  0.0002 -0.0404 -0.2933
 4258SOL    HW114215   7.863   4.149  11.649  0.6291 -0.6042  0.4922
 4258SOL    HW214216   7.912   4.229  11.768 -0.4822  0.4006  0.2885
 4259SOL     OW14217   1.987   3.459  10.959  0.0683 -0.3314  0.3082
 4259SOL    HW114218   1.992   3.465  10.864  0.1265  0.9582  0.3806
 4259SOL    HW214219   2.073   3.485  10.990 -1.1768  3.9133  0.8348
 4260SOL     OW14220   1.975   4.873   9.694 -0.4067  0.5402  0.0445
 4260SOL    HW114221   1.885   4.877   9.664 -0.2678 -0.0872 -0.4652
 4260SOL    HW214222   1.969   4.839   9.784 -0.7845  2.0000  0.5971
 4261SOL     OW14223   2.837   5.869   0.132  0.0968  0.4067 -0.1095
 4261SOL    HW114224   2.810   5.877   0.224  1.1010  1.5907  0.1131
 4261SOL    HW214225   2.786   5.936   0.086  1.0041  1.1650 -0.0531
 4262SOL     OW14226   7.878   7.006  10.719  0.4270  0.0459 -0.2696
 4262SOL    HW114227   7.833   6.927  10.748  0.5789 -0.1175 -0.4804
 4262SOL    HW214228   7.961   7.007  10.767 -0.5259  1.2604  1.4667
 4263SOL     OW14229   1.878   4.766  11.027 -0.4204  0.0522  0.4587
 4263SOL    HW114230   1.877   4.834  11.095 -1.8535  1.5069 -0.9227
 4263SOL    HW214231   1.960   4.781  10.980  0.1720 -0.4182  1.3072
 4264SOL     OW14232   0.296   3.434   1.489 -0.0284  0.2101 -0.0608
 4264SOL    HW114233   0.391   3.431   1.482  0.0320  0.4091  0.6182
 4264SOL    HW214234   0.265   3.369   1.426  0.5040  1.1194 -1.3185
 4265SOL     OW14235   6.813   4.226  11.023  0.2531 -0.4816 -0.5525
 4265SOL    HW114236   6.856   4.142  11.005  1.8155 -0.3041  1.9320
 4265SOL    HW214237   6.869   4.268  11.088  0.4562  3.3147 -2.8869
 4266SOL     OW14238   6.486   5.779  11.143  0.3674  0.2742 -0.1263
 4266SOL    HW114239   6.578   5.779  11.119  0.7608  0.0197  1.3335
 4266SOL    HW214240   6.465   5.686  11.156  0.0992  0.3846  0.2429
 4267SOL     OW14241   0.621   5.578   0.699  0.2399 -0.2150  0.4935
 4267SOL    HW114242   0.639   5.651   0.640  0.8001 -0.2011  0.6752
 4267SOL    HW214243   0.626   5.500   0.644  0.8011 -0.2054  0.5268
 4268SOL     OW14244   1.612   4.353  10.736 -0.5110 -0.2336 -0.1600
 4268SOL    HW114245   1.677   4.415  10.769  0.3971 -1.0474 -0.3758
 4268SOL    HW214246   1.550   4.342  10.808  0.3923 -0.5434  0.5881
 4269SOL     OW14247   1.530   5.264  12.037 -0.5383  0.2837  0.0672
 4269SOL    HW114248   1.463   5.196  12.037  0.9033 -1.2090 -0.4377
 4269SOL    HW214249   1.612   5.217  12.017  0.7906  1.8807  1.4022
 4270SOL     OW14250   2.412   5.904  11.830  0.0272 -0.3273 -0.2448
 4270SOL    HW114251   2.430   5.819  11.791 -1.7394 -1.0475  0.4203
 4270SOL    HW214252   2.454   5.901  11.916  1.4764  0.1804 -0.9025
 4271SOL     OW14253   3.106   4.799   0.002 -0.3851 -0.4803 -0.2604
 4271SOL    HW114254   3.092   4.828   0.092  0.3884 -0.9885  0.0249
 4271SOL    HW214255   3.046   4.725  -0.009 -1.0104  0.0377 -0.4044
 4272SOL     OW14256   0.700   5.399  10.848  0.6545  0.0106  0.1113
 4272SOL    HW114257   0.693   5.304  10.839  0.8488 -0.0190  0.2647
 4272SOL    HW214258   0.750   5.426  10.770 -0.6214  0.1577 -0.6832
 4273SOL     OW14259   0.419   5.229   0.579 -0.0422 -0.4153  0.8626
 4273SOL    HW114260   0.396   5.321   0.570 -1.2082 -0.7845 -0.1734
 4273SOL    HW214261   0.362   5.196   0.649  1.6300  0.0205  2.5141
 4274SOL     OW14262   7.904   5.375  11.269 -0.0277 -0.4306 -0.2529
 4274SOL    HW114263   7.852   5.380  11.189 -2.3772  0.1315  1.2138
 4274SOL    HW214264   7.924   5.466  11.290 -0.8189 -0.4398  0.6195
 4275SOL     OW14265   1.384   3.560  10.822 -0.7068 -0.3262  0.2142
 4275SOL    HW114266   1.351   3.613  10.895  1.8326 -0.3423  1.4844
 4275SOL    HW214267   1.411   3.477  10.863 -1.0420 -1.1101 -1.0939
 4276SOL     OW14268   7.573   4.690   9.907  0.0528 -0.0107  0.4575
 4276SOL    HW114269   7.589   4.761   9.844 -1.1248 -0.6000 -0.5593
 4276SOL    HW214270   7.624   4.714   9.984  1.3677  0.8524 -0.6347
 4277SOL     OW14271   0.243   5.692  11.005 -0.0995 -0.3289  0.1086
 4277SOL    HW114272   0.157   5.670  11.042 -0.2830 -0.3083 -0.3045
 4277SOL    HW214273   0.271   5.611  10.961  0.1006 -0.3404  0.2548
 4278SOL     OW14274   4.426   5.201   0.704 -0.1383  0.4901 -0.1927
 4278SOL    HW114275   4.419   5.145   0.627  0.1425  0.4793 -0.2091
 4278SOL    HW214276   4.515   5.234   0.702 -0.5071  1.5044 -0.5698
 4279SOL     OW14277   1.677   4.442   0.622 -0.0966  0.1726 -0.7207
 4279SOL    HW114278   1.727   4.386   0.562  1.3799 -0.9275  1.4006
 4279SOL    HW214279   1.693   4.404   0.709 -2.9648  1.0621  0.3168
 4280SOL     OW14280   2.673   3.210  10.509 -0.2805  0.0876  0.1209
 4280SOL    HW114281   2.758   3.169  10.525 -0.2317  0.6148  1.3318
 4280SOL    HW214282   2.623   3.193  10.589 -0.0124  2.9438  0.9934
 4281SOL     OW14283   7.633   4.773  10.817 -0.1794  0.6502 -0.0470
 4281SOL    HW114284   7.681   4.776  10.734 -1.3119 -1.4534 -0.8605
 4281SOL    HW214285   7.697   4.743  10.881  1.0427  3.4896  0.1880
 4282SOL     OW14286   2.153   4.803  12.357 -0.2205 -0.7806  0.3464
 4282SOL    HW114287   2.219   4.859  12.398 -0.4861 -1.5816  1.9880
 4282SOL    HW214288   2.190   4.778  12.273  0.4923  0.7311  0.1807
 4283SOL     OW14289   0.175   4.488  11.110 -0.0411  0.0374 -0.2617
 4283SOL    HW114290   0.164   4.583  11.102  0.1119  0.0825  0.0546
 4283SOL    HW214291   0.237   4.465  11.041 -0.4351  0.1001 -0.6399
 4284SOL     OW14292   6.993   5.891  11.681  0.4046 -0.5992  0.6655
 4284SOL    HW114293   6.918   5.950  11.684  0.3168 -0.7321  1.6442
 4284SOL    HW214294   7.045   5.915  11.758  1.3726 -0.5035 -0.0098
 4285SOL     OW14295   2.158   3.674   9.887  0.0855  0.4660  0.1994
 4285SOL    HW114296   2.216   3.673   9.963  1.3637 -1.2874 -0.7343
 4285SOL    HW214297   2.095   3.604   9.904 -0.7384  1.2490  0.4332
 4286SOL     OW14298   1.402   4.810  11.862  0.3682  0.0394 -0.0820
 4286SOL    HW114299   1.433   4.893  11.825  1.8962 -0.9152 -1.0764
 4286SOL    HW214300   1.464   4.745  11.829  0.8074 -1.1525  2.8543
 4287SOL     OW14301   0.240   6.173   0.116 -0.0777 -0.0427  0.1601
 4287SOL    HW114302   0.284   6.104   0.166 -0.9855  0.7146  2.0891
 4287SOL    HW214303   0.164   6.131   0.077  0.7213 -0.6724 -0.7884
 4288SOL     OW14304   0.266   3.765   0.095  0.1512  0.7037  0.1465
 4288SOL    HW114305   0.285   3.756   0.001  0.4668  1.5685  0.1162
 4288SOL    HW214306   0.337   3.820   0.128  0.9169 -0.8360  1.2129
 4289SOL     OW14307   2.807   4.986  10.110 -0.2406 -0.0106 -0.3270
 4289SOL    HW114308   2.819   5.081  10.117 -1.2772  0.0610  0.8968
 4289SOL    HW214309   2.879   4.949  10.161 -0.1568  0.1249 -0.3464
 4290SOL     OW14310   0.449   3.925   0.205  0.0411 -0.4667  0.4457
 4290SOL    HW114311   0.456   4.020   0.194  1.1975 -0.5064  0.6952
 4290SOL    HW214312   0.525   3.902   0.257 -0.0454 -1.5800  0.0964
 4291SOL     OW14313   2.036   5.662  12.104 -0.6534  0.1161  0.2147
 4291SOL    HW114314   2.054   5.575  12.070  0.1618  0.5480 -0.5055
 4291SOL    HW214315   2.067   5.721  12.035  1.9851  1.0674  2.0575
 4292SOL     OW14316   1.337   3.987  12.088  0.6486 -0.0434  0.6098
 4292SOL    HW114317   1.342   3.922  12.158  0.7736 -1.8075 -0.9501
 4292SOL    HW214318   1.250   4.024  12.096 -0.7685 -2.8480 -0.4163
 4293SOL     OW14319   0.344   3.054  12.076 -0.1930  0.4490 -0.8345
 4293SOL    HW114320   0.281   3.046  12.005 -1.4078  0.7328  0.1824
 4293SOL    HW214321   0.319   2.987  12.138 -0.8074  1.8843  0.5413
 4294SOL     OW14322   7.559   2.364   0.362  0.0822  0.2660 -0.2922
 4294SOL    HW114323   7.642   2.344   0.317 -0.7677  0.4791 -2.0186
 4294SOL    HW214324   7.494   2.365   0.293 -1.2450  0.9802  0.9233
 4295SOL     OW14325   0.690   6.461   9.929  0.1951 -0.2476 -0.0472
 4295SOL    HW114326   0.740   6.381   9.915 -0.8745 -0.6796 -1.7114
 4295SOL    HW214327   0.667   6.491   9.841 -0.6443  1.1102  0.5965
 4296SOL     OW14328   1.436   3.826  10.376 -0.1083 -0.4798 -0.4763
 4296SOL    HW114329   1.387   3.766  10.320 -0.5341 -0.2529 -0.3557
 4296SOL    HW214330   1.443   3.906  10.324 -0.9565 -0.0928 -0.0179
 4297SOL     OW14331   1.359   4.040   0.370 -0.5106  0.1323  0.0012
 4297SOL    HW114332   1.452   4.025   0.354 -0.8263 -0.2634 -1.6671
 4297SOL    HW214333   1.356   4.085   0.454  1.3322  1.8534 -0.7687
 4298SOL     OW14334   0.153   3.254   1.321  0.1154 -0.2515  0.0631
 4298SOL    HW114335   0.081   3.244   1.383 -0.5170 -0.0286 -0.6194
 4298SOL    HW214336   0.155   3.171   1.273  0.0295 -0.0925 -0.2162
 4299SOL     OW14337   2.403   3.440  11.592 -0.3269 -0.3484 -0.0360
 4299SOL    HW114338   2.403   3.351  11.557 -0.0879 -0.2108 -0.3975
 4299SOL    HW214339   2.311   3.467  11.589 -0.1975  0.0369 -1.5632
 4300SOL     OW14340   7.741   5.261  11.446 -0.5248 -0.3402  0.3033
 4300SOL    HW114341   7.771   5.285  11.358  0.1775 -0.9935  0.3534
 4300SOL    HW214342   7.799   5.310  11.505  0.6766 -1.8193  0.4015
 4301SOL     OW14343   7.998   7.214   0.055 -0.1945 -0.0480  0.2929
 4301SOL    HW114344   8.058   7.176  -0.008  0.1559  0.9892 -0.0139
 4301SOL    HW214345   8.049   7.220   0.136  0.1172  0.7638  0.0513
 4302SOL     OW14346   0.737   5.398  12.148  0.2674  0.0314  0.4379
 4302SOL    HW114347   0.686   5.464  12.195 -0.4372 -0.0011 -0.2523
 4302SOL    HW214348   0.674   5.328  12.130  0.9604 -0.7603  1.0050
 4303SOL     OW14349   7.796   6.099   3.023 -0.4991 -0.4570  0.6859
 4303SOL    HW114350   7.720   6.042   3.036  0.3877 -1.6392  0.8363
 4303SOL    HW214351   7.841   6.063   2.947 -0.1847  0.3457  0.4811
 4304SOL     OW14352   0.550   6.675   0.201  0.3226  0.1290 -0.7003
 4304SOL    HW114353   0.640   6.663   0.230  0.2071 -1.8399 -1.0000
 4304SOL    HW214354   0.496   6.639   0.272 -0.2477  1.2463 -0.5409
 4305SOL     OW14355   0.294   6.452  11.729 -0.0664  0.3399 -0.7850
 4305SOL    HW114356   0.336   6.410  11.653 -0.8190  0.6802 -1.3990
 4305SOL    HW214357   0.340   6.535  11.738  1.7126 -0.7238  0.6891
 4306SOL     OW14358   7.708   6.228   1.523 -0.4519 -0.4343  0.2243
 4306SOL    HW114359   7.634   6.177   1.555 -0.4873  0.3172  1.3982
 4306SOL    HW214360   7.780   6.207   1.583 -0.3968  0.6736  0.5800
 4307SOL     OW14361   2.667   0.063  11.219 -0.2134 -0.3585 -0.0366
 4307SOL    HW114362   2.612   0.057  11.141 -0.6046  1.0579  0.0917
 4307SOL    HW214363   2.732   0.130  11.197 -0.6376  0.4382  1.0020
 4308SOL     OW14364   7.736   7.008   2.909 -0.5761 -0.6914 -0.0865
 4308SOL    HW114365   7.690   7.050   2.982  0.3317  1.3587 -0.6171
 4308SOL    HW214366   7.825   6.992   2.943 -0.5253 -0.9511 -0.3379
 4309SOL     OW14367   0.984   4.542   0.886 -0.1128  0.0090 -0.1855
 4309SOL    HW114368   1.019   4.475   0.945 -0.3337 -0.2169 -0.3069
 4309SOL    HW214369   0.922   4.494   0.830 -0.1939  0.2956 -0.3420
 4310SOL     OW14370   0.788   5.843   1.666 -0.1655  0.1387 -0.4370
 4310SOL    HW114371   0.710   5.843   1.722  0.8121  0.7718  0.9789
 4310SOL    HW214372   0.772   5.772   1.603 -0.4770 -1.9890  1.8638
 4311SOL     OW14373   0.145   7.675   2.433 -0.3024 -0.0338  0.3084
 4311SOL    HW114374   0.075   7.617   2.461 -0.1749  0.0798  0.8902
 4311SOL    HW214375   0.208   7.673   2.506  0.5390 -0.5213 -0.4098
 4312SOL     OW14376   2.556   1.444  11.646 -0.2691  0.4961 -0.3277
 4312SOL    HW114377   2.591   1.419  11.561  0.7151 -1.1694  0.5166
 4312SOL    HW214378   2.602   1.525  11.667  0.3449  0.3022 -0.8754
 4313SOL     OW14379   2.389   6.138   0.928  0.2687 -0.0972  0.4382
 4313SOL    HW114380   2.366   6.198   0.858 -0.8995  1.3767  1.9840
 4313SOL    HW214381   2.471   6.172   0.964  0.7022 -0.6646 -0.0050
 4314SOL     OW14382   0.545   6.991   0.679 -0.2612  0.1936 -0.3155
 4314SOL    HW114383   0.589   6.911   0.650 -3.0763 -1.3667 -0.6620
 4314SOL    HW214384   0.506   7.027   0.599 -0.6890  0.8067  0.1576
 4315SOL     OW14385   1.668   6.365  11.734  0.0580  0.8233 -0.2648
 4315SOL    HW114386   1.723   6.395  11.661  0.6624  2.1814  0.7123
 4315SOL    HW214387   1.593   6.426  11.733  0.6273  1.5626  0.9231
 4316SOL     OW14388   0.953   5.690   1.111 -0.5342 -0.1022 -0.0703
 4316SOL    HW114389   0.917   5.762   1.060  0.6048  1.5141  1.2691
 4316SOL    HW214390   1.026   5.657   1.059 -1.7903 -1.1355 -1.2371
 4317SOL     OW14391   2.267   6.955   2.171 -0.1351 -0.1493  0.1540
 4317SOL    HW114392   2.353   6.971   2.212  0.4435 -1.0253 -0.6877
 4317SOL    HW214393   2.204   6.989   2.235  0.7922 -0.3304  1.2030
 4318SOL     OW14394   0.939   7.447  12.436  0.1781  0.1773 -0.6442
 4318SOL    HW114395   0.960   7.355  12.451 -1.4542 -0.0841  0.2448
 4318SOL    HW214396   0.843   7.452  12.444  0.3231  2.1754  0.7430
 4319SOL     OW14397   6.497   6.240   3.168  0.1727  0.2566  0.0939
 4319SOL    HW114398   6.581   6.198   3.182  0.2453  0.2969 -0.2121
 4319SOL    HW214399   6.482   6.234   3.074 -1.1362 -1.5990  0.3789
 4320SOL     OW14400   7.390   7.341   1.717  0.3203 -0.1264 -0.5147
 4320SOL    HW114401   7.334   7.336   1.794  1.2820  1.9338  0.4102
 4320SOL    HW214402   7.399   7.251   1.687 -2.2641 -0.6699  0.1587
 4321SOL     OW14403   1.523   6.547   0.216  0.0985 -0.2246 -0.1492
 4321SOL    HW114404   1.446   6.579   0.168  0.4493 -0.4022 -0.8410
 4321SOL    HW214405   1.515   6.451   0.211  0.5248 -0.2424 -0.4848
 4322SOL     OW14406   0.507   4.857   2.621  0.0883  0.0033 -0.0172
 4322SOL    HW114407   0.475   4.933   2.671  1.0760  0.1484  0.4298
 4322SOL    HW214408   0.428   4.810   2.596 -0.4818  0.3296  1.0665
 4323SOL     OW14409   7.544   5.433   1.474  0.0376 -0.1064 -0.3269
 4323SOL    HW114410   7.455   5.401   1.466 -0.1443  0.2750  0.0953
 4323SOL    HW214411   7.555   5.450   1.568  0.4878  0.0352 -0.4005
 4324SOL     OW14412   2.489   0.672  12.214  0.0318  0.0659  0.0184
 4324SOL    HW114413   2.428   0.734  12.174  1.2679  1.1368 -0.2616
 4324SOL    HW214414   2.476   0.683  12.308  0.3879  0.9280 -0.0257
 4325SOL     OW14415   1.810   7.473  11.272 -0.0051  0.7375 -0.7968
 4325SOL    HW114416   1.763   7.532  11.331 -0.1187  0.8712 -1.0205
 4325SOL    HW214417   1.900   7.473  11.305 -0.8496 -2.8024  2.3477
 4326SOL     OW14418   1.789   7.016   1.401 -0.0085  0.5489  0.1108
 4326SOL    HW114419   1.725   6.966   1.352  1.8715  1.5693 -3.8278
 4326SOL    HW214420   1.762   7.108   1.389 -0.4839  0.8216  2.6986
 4327SOL     OW14421   1.887   0.870  12.324  0.6608  0.9308  0.6252
 4327SOL    HW114422   1.799   0.881  12.358  0.8489  0.4538  1.2853
 4327SOL    HW214423   1.893   0.777  12.303  0.3675  1.2879 -1.2578
 4328SOL     OW14424   6.721   6.013   2.763 -0.2136 -0.2886  0.9365
 4328SOL    HW114425   6.710   6.053   2.850 -0.4308 -0.4574  0.9893
 4328SOL    HW214426   6.636   5.972   2.745  0.0047 -0.7188  0.8819
 4329SOL     OW14427   1.970   7.851   1.626  0.3679  0.6447  0.2122
 4329SOL    HW114428   1.900   7.917   1.623  1.3089  1.7773  1.8740
 4329SOL    HW214429   1.956   7.799   1.547 -1.1834  2.0410 -0.5080
 4330SOL     OW14430   3.310   6.636   2.302 -0.2633 -0.0208  0.0540
 4330SOL    HW114431   3.361   6.561   2.272 -0.7162 -0.1887 -0.3100
 4330SOL    HW214432   3.355   6.712   2.264 -0.8258 -0.2273 -1.0935
 4331SOL     OW14433   1.272   5.648   2.031 -0.0927  0.0740 -0.0490
 4331SOL    HW114434   1.251   5.675   1.942  0.0240 -0.0439 -0.1130
 4331SOL    HW214435   1.258   5.727   2.084 -1.2056 -0.1440 -0.0044
 4332SOL     OW14436   0.132   5.706   2.514 -0.3938 -0.2313 -0.3577
 4332SOL    HW114437   0.169   5.697   2.602  0.3389  0.7773 -0.5450
 4332SOL    HW214438   0.182   5.644   2.460  0.9928  1.0125 -0.5782
 4333SOL     OW14439   1.070   5.278   0.185 -0.1161 -0.0328  0.4881
 4333SOL    HW114440   1.049   5.190   0.152  0.2287 -0.4347  1.3158
 4333SOL    HW214441   1.144   5.265   0.245 -0.7692  0.6583  1.4843
 4334SOL     OW14442   2.054   7.075   0.175 -0.3130 -0.0047  0.1983
 4334SOL    HW114443   2.031   7.129   0.250 -2.4575  2.1540 -1.8084
 4334SOL    HW214444   2.139   7.038   0.196  0.7174  3.1752  2.3034
 4335SOL     OW14445   0.010   6.843   2.940 -0.4801 -0.2911 -0.3329
 4335SOL    HW114446   0.079   6.906   2.961 -1.2678  0.6327 -0.4524
 4335SOL    HW214447  -0.035   6.828   3.023  0.0493 -1.1548 -0.1816
 4336SOL     OW14448   2.439   6.334  12.170  0.0296  0.2422 -0.1072
 4336SOL    HW114449   2.493   6.378  12.104 -1.1830  3.0568  0.6148
 4336SOL    HW214450   2.483   6.352  12.253 -0.6014  0.3030  0.2235
 4337SOL     OW14451   0.915   7.432   0.850 -0.4934  0.3168 -0.0955
 4337SOL    HW114452   0.891   7.367   0.917  1.6898  1.5605  2.0654
 4337SOL    HW214453   0.856   7.505   0.865 -0.2857  0.4246  0.2085
 4338SOL     OW14454   0.993   6.090   0.723  0.1653 -0.0505  0.4512
 4338SOL    HW114455   0.992   6.089   0.627 -0.6592  1.2484  0.4214
 4338SOL    HW214456   0.908   6.128   0.747  1.3676  2.0505  1.6205
 4339SOL     OW14457   1.105   5.126   1.011  0.1614  0.4836  0.9604
 4339SOL    HW114458   1.091   5.212   1.052  0.4684 -0.2637  2.7372
 4339SOL    HW214459   1.019   5.085   1.012  0.0247  0.7322  0.1527
 4340SOL     OW14460   0.672   7.773   0.168 -0.3011  0.1212 -0.3460
 4340SOL    HW114461   0.657   7.813   0.254 -0.1701  0.7879 -0.6207
 4340SOL    HW214462   0.761   7.738   0.174 -0.4726 -0.2771 -0.0506
 4341SOL     OW14463   0.882   5.684   1.907  0.3149 -0.1047 -0.3395
 4341SOL    HW114464   0.845   5.745   1.971  0.3137 -0.0899 -0.3544
 4341SOL    HW214465   0.874   5.730   1.823  0.1511 -0.1980 -0.3753
 4342SOL     OW14466   0.768   6.222   2.954  0.3768  0.3100  0.3985
 4342SOL    HW114467   0.834   6.266   3.009  0.4563 -0.1889  0.7063
 4342SOL    HW214468   0.788   6.252   2.865  2.6697 -1.7653  0.0834
 4343SOL     OW14469   0.494   6.739  11.068 -0.2284 -0.5981  0.3256
 4343SOL    HW114470   0.514   6.813  11.011 -1.9876 -0.2215  0.1651
 4343SOL    HW214471   0.451   6.675  11.011  0.6584 -1.4862  0.6149
 4344SOL     OW14472   7.890   7.000   1.800 -0.2229 -0.2059 -0.2196
 4344SOL    HW114473   7.838   7.028   1.725  1.0540 -0.0773 -1.0962
 4344SOL    HW214474   7.863   6.909   1.814 -0.0364 -0.4356 -1.2484
 4345SOL     OW14475   0.747   6.155  11.067 -0.0359  0.4038 -0.0170
 4345SOL    HW114476   0.694   6.223  11.026 -1.2063  0.0595  0.9029
 4345SOL    HW214477   0.825   6.201  11.098  0.2824  0.8923 -1.4616
 4346SOL     OW14478   0.698   3.756   0.720 -0.1180 -0.1529  0.3516
 4346SOL    HW114479   0.684   3.672   0.763 -0.0707 -0.9386 -1.0775
 4346SOL    HW214480   0.763   3.737   0.652 -1.4367  0.5898 -1.1896
 4347SOL     OW14481   0.376   5.913   1.603 -0.4638  0.6813 -0.0758
 4347SOL    HW114482   0.447   5.903   1.541 -0.2087 -0.2279  0.3314
 4347SOL    HW214483   0.296   5.897   1.552 -0.2029 -1.0334 -0.0045
 4348SOL     OW14484   1.771   5.848   0.492 -0.5004  0.3663 -0.3825
 4348SOL    HW114485   1.863   5.866   0.512 -0.6429  0.7988 -0.0996
 4348SOL    HW214486   1.768   5.754   0.476 -0.0075  0.3484 -0.3956
 4349SOL     OW14487   1.490   5.540   1.431  0.5967 -0.4635  0.3690
 4349SOL    HW114488   1.514   5.556   1.522 -0.2864 -1.8399  0.8819
 4349SOL    HW214489   1.569   5.505   1.390  1.0631  0.3799  0.5442
 4350SOL     OW14490   1.092   6.962  12.375  0.1246  0.0261  0.4741
 4350SOL    HW114491   1.070   7.044  12.419  1.5804  0.0836  1.1437
 4350SOL    HW214492   1.022   6.902  12.402 -1.1951  1.1266 -0.3599
 4351SOL     OW14493   7.354   6.475   1.949 -0.5576  0.1752  0.0050
 4351SOL    HW114494   7.405   6.450   2.026 -0.1589  0.2705 -0.2213
 4351SOL    HW214495   7.410   6.451   1.875 -0.9410  0.0697 -0.2563
 4352SOL     OW14496   0.403   6.530   0.769  0.0055 -0.3380  0.5722
 4352SOL    HW114497   0.350   6.536   0.689 -0.5925  1.0715  1.0422
 4352SOL    HW214498   0.407   6.437   0.788  1.7438 -0.9194 -2.1213
 4353SOL     OW14499   0.311   7.678   1.107 -0.0968 -0.7333 -0.5789
 4353SOL    HW114500   0.322   7.639   1.021  0.7706  0.4231 -1.0132
 4353SOL    HW214501   0.217   7.697   1.113  0.0848  0.9898 -2.1231
 4354SOL     OW14502   0.598   6.681   2.124  0.0157 -0.1410  0.0503
 4354SOL    HW114503   0.652   6.720   2.056  1.7459  0.2218  1.5417
 4354SOL    HW214504   0.623   6.588   2.125  0.2730 -0.0722  0.4134
 4355SOL     OW14505   0.497   6.401  11.486 -0.1775  0.1851 -0.1521
 4355SOL    HW114506   0.523   6.316  11.452 -0.6699 -0.1940  0.4130
 4355SOL    HW214507   0.497   6.458  11.409  2.4544  0.2675 -0.2082
 4356SOL     OW14508   0.568   6.755  12.012 -0.2296 -0.2430 -0.5137
 4356SOL    HW114509   0.537   6.731  11.924  1.7736  1.6115 -1.8348
 4356SOL    HW214510   0.624   6.683  12.039 -0.6071 -0.6813 -0.8877
 4357SOL     OW14511   0.449   6.718   0.999 -0.4392  0.2882  0.4780
 4357SOL    HW114512   0.378   6.687   0.943  1.2842  0.9611 -2.3274
 4357SOL    HW214513   0.495   6.639   1.026  0.2473 -0.0111 -1.3950
 4358SOL     OW14514   0.969   6.582   0.935 -0.2518  0.2734  0.4028
 4358SOL    HW114515   0.979   6.508   0.994  1.7254 -1.3941 -1.7978
 4358SOL    HW214516   1.058   6.610   0.915 -0.8022  0.7863 -1.6802
 4359SOL     OW14517   0.213   7.238   0.263 -0.0928  0.1360  0.4848
 4359SOL    HW114518   0.234   7.145   0.252 -1.0105 -0.1721  1.2080
 4359SOL    HW214519   0.296   7.279   0.286  0.3290 -0.4936  0.1301
 4360SOL     OW14520   6.935   5.665   1.512 -0.6209  0.1329 -0.0316
 4360SOL    HW114521   6.862   5.719   1.481 -1.7796 -0.6793  1.1618
 4360SOL    HW214522   6.943   5.686   1.605 -1.0444 -1.6174  0.4454
 4361SOL     OW14523   7.903   5.414   1.397 -0.4606 -0.5705 -0.2287
 4361SOL    HW114524   7.874   5.492   1.444 -0.7026  0.1874 -1.6060
 4361SOL    HW214525   7.823   5.378   1.359 -0.2741 -1.2215 -0.0231
 4362SOL     OW14526   1.479   6.921   0.141  0.0456  0.2217 -0.1694
 4362SOL    HW114527   1.413   6.911   0.210  0.4863  2.6117  0.7190
 4362SOL    HW214528   1.436   6.892   0.061 -1.2650 -0.5024  0.7698
 4363SOL     OW14529   1.727   4.698   0.616 -0.0990  0.0256  0.3287
 4363SOL    HW114530   1.637   4.725   0.632 -0.3865 -0.7081  0.0003
 4363SOL    HW214531   1.727   4.603   0.631  0.3873 -0.1453 -0.6567
 4364SOL     OW14532   1.023   0.116   0.751 -0.3284 -0.2874 -0.0737
 4364SOL    HW114533   0.967   0.039   0.740  0.4111 -0.9257  0.5371
 4364SOL    HW214534   1.108   0.090   0.714  0.1166  0.0011  0.7248
 4365SOL     OW14535   0.620   7.170   0.865 -0.1115 -0.1581  0.0466
 4365SOL    HW114536   0.709   7.181   0.833 -0.1889  2.2895  0.4676
 4365SOL    HW214537   0.584   7.098   0.813  2.6264 -2.4905  1.1233
 4366SOL     OW14538   1.030   6.130   0.417  0.0727  0.0636 -0.1517
 4366SOL    HW114539   1.110   6.175   0.389 -0.2769  0.5160 -0.4379
 4366SOL    HW214540   0.959   6.188   0.391 -0.3607 -0.3847  0.0042
 4367SOL     OW14541   1.354   3.506   2.367  0.4452 -0.3931 -0.5626
 4367SOL    HW114542   1.314   3.518   2.453  1.8354 -2.4978  0.4527
 4367SOL    HW214543   1.400   3.588   2.350  1.5527 -0.5116  1.5203
 4368SOL     OW14544   7.522   6.547   1.533 -0.0623 -0.3273 -0.0728
 4368SOL    HW114545   7.482   6.555   1.446  0.5864  0.6653 -0.2921
 4368SOL    HW214546   7.615   6.531   1.516  0.6630  2.7572  0.3590
 4369SOL     OW14547   1.908   5.235   1.419  0.4194 -0.1817  0.6254
 4369SOL    HW114548   1.939   5.178   1.349 -0.2207 -0.1552  0.3057
 4369SOL    HW214549   1.835   5.186   1.459 -1.2518  1.0713 -0.7329
 4370SOL     OW14550   7.830   0.051   1.580  0.0160  0.3730 -0.3764
 4370SOL    HW114551   7.822   0.075   1.672 -3.5519  1.5552 -0.8410
 4370SOL    HW214552   7.809  -0.042   1.577  0.5807  0.2295  0.0396
 4371SOL     OW14553   7.085   6.367   3.055  0.4149 -0.1535 -0.2015
 4371SOL    HW114554   7.101   6.354   2.962  3.2100  0.0509  0.1867
 4371SOL    HW214555   7.060   6.459   3.063  0.8238 -0.0033 -0.6695
 4372SOL     OW14556   2.695   7.647   1.099  0.0441 -0.2777 -0.8704
 4372SOL    HW114557   2.756   7.601   1.041 -0.3491  0.0984 -1.6061
 4372SOL    HW214558   2.747   7.716   1.140  0.3238 -0.5293 -0.8026
 4373SOL     OW14559   0.914   3.507  11.944  0.7418 -0.0456 -0.4062
 4373SOL    HW114560   0.850   3.446  11.980  0.6878  0.7063  0.8405
 4373SOL    HW214561   0.994   3.491  11.995  0.1972  2.1828  1.3147
 4374SOL     OW14562   2.690   7.806  11.686 -0.2311 -0.0165  0.0345
 4374SOL    HW114563   2.779   7.777  11.704 -0.0381  0.9278  0.6887
 4374SOL    HW214564   2.694   7.844  11.598  0.1919  0.7080  0.3617
 4375SOL     OW14565   1.409   7.166  12.233 -0.2223  0.6401 -0.0998
 4375SOL    HW114566   1.396   7.228  12.305 -0.2532  1.2365 -0.6006
 4375SOL    HW214567   1.502   7.145  12.235 -0.4264 -0.2084  0.7907
 4376SOL     OW14568   6.542   6.539   0.527 -0.4930 -0.0804 -0.9592
 4376SOL    HW114569   6.547   6.474   0.457  1.1321 -0.7163 -0.2829
 4376SOL    HW214570   6.528   6.488   0.606  0.7468  0.3736 -0.4305
 4377SOL     OW14571   1.405   5.324   0.191 -0.0123  0.1853 -0.3468
 4377SOL    HW114572   1.407   5.295   0.282  2.0908  1.5687  0.1342
 4377SOL    HW214573   1.332   5.385   0.187  1.7750  2.6669  1.3913
 4378SOL     OW14574   0.324   6.794   2.888 -0.1084 -0.1850  0.2202
 4378SOL    HW114575   0.242   6.749   2.864 -0.3560  1.2568 -2.0089
 4378SOL    HW214576   0.365   6.814   2.804  0.9378  1.9906  1.1861
 4379SOL     OW14577   0.605   5.787   1.872 -0.2153 -0.4541 -1.0500
 4379SOL    HW114578   0.515   5.757   1.859 -1.1886  1.9545 -0.4946
 4379SOL    HW214579   0.603   5.829   1.958  0.7697  1.7563 -2.0305
 4380SOL     OW14580   6.780   7.448   2.115 -0.1699 -0.0083 -0.3922
 4380SOL    HW114581   6.716   7.504   2.159 -0.9121 -0.9843 -0.1815
 4380SOL    HW214582   6.810   7.500   2.041 -0.2276  0.9768  0.2470
 4381SOL     OW14583   3.698   0.657   1.672 -0.2301 -0.2026 -0.1490
 4381SOL    HW114584   3.619   0.695   1.710  0.3935  1.0792 -0.0727
 4381SOL    HW214585   3.763   0.660   1.742 -0.3992 -2.3490  0.1681
 4382SOL     OW14586   0.804   7.456  11.835  0.2414  0.1862 -0.2520
 4382SOL    HW114587   0.761   7.386  11.787 -0.5998 -0.6640  1.6196
 4382SOL    HW214588   0.835   7.414  11.916 -0.8398  2.0762  1.2238
 4383SOL     OW14589   7.139   4.848   3.214  0.0202  0.5087 -0.4501
 4383SOL    HW114590   7.069   4.851   3.149  0.2550  3.2202 -0.7077
 4383SOL    HW214591   7.113   4.778   3.274 -2.1234  0.4222 -1.3852
 4384SOL     OW14592   7.182   6.051   1.347 -0.1883  0.1447  0.2147
 4384SOL    HW114593   7.089   6.051   1.367 -0.0699 -0.9037  0.8479
 4384SOL    HW214594   7.213   5.966   1.378  1.3207  1.1192  1.5472
 4385SOL     OW14595   1.200   6.366  11.974 -0.4433  0.0097  0.3109
 4385SOL    HW114596   1.185   6.414  12.055 -0.6915  0.7725 -0.1826
 4385SOL    HW214597   1.246   6.287  12.002 -0.1720  0.4514  1.1459
 4386SOL     OW14598   0.997   7.195   0.387  0.3135 -0.6950 -0.2543
 4386SOL    HW114599   1.038   7.109   0.372  0.1032 -0.8718  0.1617
 4386SOL    HW214600   0.908   7.174   0.415  0.0984 -0.3245 -0.6440
 4387SOL     OW14601   2.018   7.075   1.016 -0.3322 -0.1393  0.3443
 4387SOL    HW114602   2.081   7.030   0.960  0.2776 -0.5861  1.3496
 4387SOL    HW214603   2.009   7.017   1.092 -0.3232  0.9440  1.1937
 4388SOL     OW14604   1.545   5.611   2.032  0.3233 -0.3109  0.0472
 4388SOL    HW114605   1.569   5.690   2.080  1.7905 -0.7055  0.0158
 4388SOL    HW214606   1.452   5.622   2.012  0.7938  2.0222 -1.1372
 4389SOL     OW14607   3.428   0.850   0.566 -0.1134 -0.0260  0.5863
 4389SOL    HW114608   3.349   0.809   0.531 -0.3720  1.7696 -1.0996
 4389SOL    HW214609   3.500   0.797   0.532 -0.4817  0.1487 -0.4850
 4390SOL     OW14610   0.622   7.777  12.128  0.0317 -0.1696  0.1664
 4390SOL    HW114611   0.596   7.815  12.212  1.2866  1.7031 -0.2170
 4390SOL    HW214612   0.552   7.802  12.068 -0.7686 -1.3387  0.5895
 4391SOL     OW14613   1.615   0.115  12.139 -0.2539 -0.5382  0.5711
 4391SOL    HW114614   1.587   0.036  12.093 -0.7112 -0.6363  1.0121
 4391SOL    HW214615   1.655   0.169  12.071 -1.5168 -0.3911 -0.0870
 4392SOL     OW14616   1.301   7.846   0.058  0.3555 -0.3925 -0.0641
 4392SOL    HW114617   1.206   7.845   0.046  0.2010 -0.1318  1.0827
 4392SOL    HW214618   1.333   7.905  -0.011 -0.3907  0.1864  0.0743
 4393SOL     OW14619   6.618   5.546   1.329  0.0119  0.4861 -0.2056
 4393SOL    HW114620   6.663   5.464   1.348  1.3654  1.0070 -1.0235
 4393SOL    HW214621   6.574   5.569   1.411  0.6116 -0.4421  0.3907
 4394SOL     OW14622   1.593   1.719   2.597  0.0536  0.1712 -0.4002
 4394SOL    HW114623   1.517   1.774   2.577 -0.3155 -0.9064 -2.2206
 4394SOL    HW214624   1.555   1.636   2.628  0.4036 -0.6472 -2.0429
 4395SOL     OW14625   1.364   6.204   1.550  0.0079  1.1626  0.4943
 4395SOL    HW114626   1.313   6.141   1.600  0.3702 -0.3816 -0.9579
 4395SOL    HW214627   1.305   6.235   1.482 -0.1219  2.3117  1.1114
 4396SOL     OW14628   7.138   6.585   2.847 -0.1518 -0.6402 -0.3317
 4396SOL    HW114629   7.139   6.620   2.758  1.2620 -1.8241 -0.8194
 4396SOL    HW214630   7.219   6.619   2.887 -0.3714 -0.7744  0.2355
 4397SOL     OW14631   2.399   0.046   1.402  0.3462 -0.0584  0.2365
 4397SOL    HW114632   2.382   0.136   1.430  0.7393  0.6260 -1.5827
 4397SOL    HW214633   2.372  -0.007   1.477  0.6580  1.5809  1.5913
 4398SOL     OW14634   1.549   6.912   2.642  0.2961  0.6835 -0.9158
 4398SOL    HW114635   1.620   6.862   2.684  0.2655  1.6093  0.2784
 4398SOL    HW214636   1.549   6.996   2.687 -1.2252  0.8974 -1.2684
 4399SOL     OW14637   0.437   4.842   0.355 -0.2144 -0.1692 -0.1580
 4399SOL    HW114638   0.359   4.794   0.328 -0.7923  0.6118  0.0884
 4399SOL    HW214639   0.412   4.935   0.348 -0.1378  0.0875  2.2394
 4400SOL     OW14640   0.910   4.880   1.754 -0.2510 -0.0707  0.2821
 4400SOL    HW114641   0.966   4.952   1.724 -0.8644  0.6257  0.7895
 4400SOL    HW214642   0.863   4.852   1.676 -0.3935  0.4198  0.1920
 4401SOL     OW14643   0.049   6.335   2.415 -0.2759 -0.1099 -0.6630
 4401SOL    HW114644   0.055   6.240   2.423 -1.1058 -0.3189 -2.0320
 4401SOL    HW214645   0.128   6.360   2.368  0.6223  0.0730  0.9098
 4402SOL     OW14646   0.992   0.206   3.281 -0.0698 -0.2636  0.0977
 4402SOL    HW114647   0.909   0.247   3.258 -0.5432 -0.4533  1.4099
 4402SOL    HW214648   1.057   0.252   3.229 -1.0664 -0.6018 -1.5200
 4403SOL     OW14649   0.596   0.708  11.927 -0.2743 -0.4023 -0.2964
 4403SOL    HW114650   0.546   0.785  11.898  1.3322  1.6397  1.8979
 4403SOL    HW214651   0.678   0.714  11.878  0.0772 -0.3726  0.2899
 4404SOL     OW14652   0.215   0.466   0.663  0.7227  0.0348 -0.1631
 4404SOL    HW114653   0.200   0.532   0.595 -0.7486  0.7269  0.7665
 4404SOL    HW214654   0.305   0.483   0.693  0.1905  2.0726  0.4621
 4405SOL     OW14655   0.630   6.991  12.193  0.3635  0.0724 -0.0091
 4405SOL    HW114656   0.614   6.952  12.108 -1.8492  1.7151 -0.4162
 4405SOL    HW214657   0.628   7.085  12.177  1.5500  0.4184  1.6086
 4406SOL     OW14658   7.287   5.522   2.191  0.3738 -0.1751 -0.1854
 4406SOL    HW114659   7.206   5.505   2.240 -0.5279  1.1566 -1.1442
 4406SOL    HW214660   7.334   5.587   2.243 -0.6896  1.4087 -1.1166
 4407SOL     OW14661   2.322   7.083   1.143  0.1229  0.4341 -0.1307
 4407SOL    HW114662   2.281   7.158   1.186  0.6370 -0.3888  1.9339
 4407SOL    HW214663   2.396   7.121   1.095  1.4892  1.1725  2.3340
 4408SOL     OW14664   7.613   7.478   2.410  0.2095 -0.0887  0.2885
 4408SOL    HW114665   7.688   7.470   2.469 -0.0309  2.1617  0.9639
 4408SOL    HW214666   7.541   7.437   2.458  0.5163 -0.3031  0.5738
 4409SOL     OW14667   1.209   5.701  12.249 -0.3436  0.1896 -0.0410
 4409SOL    HW114668   1.166   5.676  12.166  0.2031  0.6051 -0.4501
 4409SOL    HW214669   1.241   5.789  12.234 -0.9228  0.5693  0.8924
 4410SOL     OW14670   6.706   5.852   1.488  0.0215  0.2390 -0.1951
 4410SOL    HW114671   6.637   5.874   1.427  0.7861  0.7036 -0.9121
 4410SOL    HW214672   6.698   5.917   1.558 -1.2228 -0.6485  0.5437
 4411SOL     OW14673   1.658   6.231   2.004  0.3190 -0.0653 -0.1753
 4411SOL    HW114674   1.617   6.304   2.049  1.0754 -0.3536  1.0226
 4411SOL    HW214675   1.686   6.267   1.920 -0.0647  0.7938  0.0644
 4412SOL     OW14676   3.666   5.967   1.069 -0.2095 -0.7430  0.6286
 4412SOL    HW114677   3.591   6.009   1.028  1.3271  2.6491  0.9413
 4412SOL    HW214678   3.634   5.941   1.156 -0.6756  2.3283  1.4890
 4413SOL     OW14679   7.695   5.467   0.398 -0.2616  0.6171 -0.3628
 4413SOL    HW114680   7.629   5.399   0.408 -0.7106  1.0450 -0.3978
 4413SOL    HW214681   7.756   5.432   0.332  0.9212 -0.8332  1.3942
 4414SOL     OW14682   7.374   5.620   0.787 -0.3119 -0.0384 -0.4555
 4414SOL    HW114683   7.462   5.605   0.820 -0.0895 -0.8957 -1.3829
 4414SOL    HW214684   7.382   5.611   0.692 -1.3249  0.2463 -0.5810
 4415SOL     OW14685   0.627   7.424  11.587 -0.3812  0.1517  0.0236
 4415SOL    HW114686   0.602   7.332  11.590  2.5712 -0.6983  2.5617
 4415SOL    HW214687   0.706   7.426  11.533 -0.6138  1.2657 -0.2983
 4416SOL     OW14688   1.742   6.909   0.787 -0.0761  0.0055 -0.2547
 4416SOL    HW114689   1.646   6.912   0.792  0.0070  1.9254  1.2039
 4416SOL    HW214690   1.765   6.827   0.832 -1.0018 -0.0859  0.0878
 4417SOL     OW14691   0.787   3.480  11.317 -0.0841 -0.3648  0.0396
 4417SOL    HW114692   0.703   3.471  11.361 -0.2336 -0.3279 -0.2308
 4417SOL    HW214693   0.820   3.565  11.344 -1.1935  0.6505 -1.6068
 4418SOL     OW14694   7.097   6.068   2.746  0.0383  0.5636 -0.2047
 4418SOL    HW114695   7.147   6.149   2.733  0.4211  0.5806  1.1657
 4418SOL    HW214696   7.018   6.079   2.693  0.7124  1.2547 -1.0885
 4419SOL     OW14697   0.102   5.931   1.481  0.1078 -0.3145 -0.4330
 4419SOL    HW114698   0.013   5.914   1.452 -1.2414  2.0575  1.8747
 4419SOL    HW214699   0.099   6.019   1.518  3.9849  0.8205 -2.2638
 4420SOL     OW14700   7.778   5.023   0.052 -0.4466  0.1200  0.4268
 4420SOL    HW114701   7.772   4.949   0.113 -1.3583  0.1759  0.4113
 4420SOL    HW214702   7.713   5.085   0.082 -0.6714  0.2982 -0.4038
 4421SOL     OW14703   7.742   5.932  12.437 -0.4345  0.1578 -0.1232
 4421SOL    HW114704   7.677   6.000  12.456 -0.2354  0.0590  0.9228
 4421SOL    HW214705   7.777   5.957  12.351 -1.3254  0.6153 -0.3716
 4422SOL     OW14706   0.161   4.764   0.714 -0.0454 -0.2498 -0.5744
 4422SOL    HW114707   0.145   4.837   0.654 -0.3618 -1.4578 -2.0173
 4422SOL    HW214708   0.254   4.746   0.706 -0.1568 -0.6624 -1.0406
 4423SOL     OW14709   1.314   0.067  11.301  0.5873 -0.3029  0.5441
 4423SOL    HW114710   1.302   0.081  11.395 -1.6264  0.3700  0.2060
 4423SOL    HW214711   1.229   0.087  11.262  1.5074 -0.3525 -1.6474
 4424SOL     OW14712   7.694   5.629   1.318  0.3276  0.3610 -0.1985
 4424SOL    HW114713   7.657   5.576   1.248  0.3866 -1.8789  1.3802
 4424SOL    HW214714   7.651   5.598   1.398  3.4776 -0.4255  1.3478
 4425SOL     OW14715   0.804   0.187   4.042 -0.0543  0.0032  0.7444
 4425SOL    HW114716   0.845   0.241   4.109  2.3845  1.3134 -1.6027
 4425SOL    HW214717   0.785   0.248   3.970  0.9247 -1.8855 -1.2310
 4426SOL     OW14718   1.877   7.661   1.444 -0.3328  0.3392  0.1148
 4426SOL    HW114719   1.813   7.617   1.500  0.0062 -0.3429 -0.0273
 4426SOL    HW214720   1.941   7.593   1.422  0.2998  0.9464  0.0368
 4427SOL     OW14721   0.643   0.474   2.094 -0.0217  0.2574  0.0376
 4427SOL    HW114722   0.661   0.401   2.153  0.7175  0.6488  0.3113
 4427SOL    HW214723   0.602   0.541   2.149  0.0761  0.3717 -0.0259
 4428SOL     OW14724   1.461   5.704  11.862 -0.0236  0.1234  0.1377
 4428SOL    HW114725   1.484   5.659  11.781  2.0299  0.6831  0.3639
 4428SOL    HW214726   1.498   5.650  11.932  0.2177  0.8249  0.5623
 4429SOL     OW14727   1.138   5.224   1.908 -0.3601  0.5302  0.2871
 4429SOL    HW114728   1.061   5.201   1.856  0.6920 -0.1518 -1.0411
 4429SOL    HW214729   1.143   5.320   1.901 -2.2474  0.8356  2.1666
 4430SOL     OW14730   1.895   7.600   0.226  0.2963  0.2600 -0.3948
 4430SOL    HW114731   1.810   7.563   0.250 -0.6866  1.7218 -1.4339
 4430SOL    HW214732   1.877   7.651   0.146  2.1649  0.5519 -0.6786
 4431SOL     OW14733   6.922   7.099   2.757  0.1243 -0.3699 -0.1036
 4431SOL    HW114734   6.972   7.028   2.718  0.5845  0.2697 -0.6844
 4431SOL    HW214735   6.963   7.114   2.842  0.3925 -0.4089 -0.2278
 4432SOL     OW14736   0.939   5.192   1.566 -0.2418 -0.1525  0.0574
 4432SOL    HW114737   0.901   5.164   1.483 -1.8301 -0.0483  0.7147
 4432SOL    HW214738   0.875   5.165   1.632  0.1843  1.2429  1.0953
 4433SOL     OW14739   0.343   5.302   2.539  0.1227  0.1819 -0.0183
 4433SOL    HW114740   0.279   5.338   2.478  1.3996  0.0700 -1.4935
 4433SOL    HW214741   0.320   5.210   2.546 -0.9730  0.5074  0.9277
 4434SOL     OW14742   0.748   6.167   0.810  0.2140 -0.6901  0.0540
 4434SOL    HW114743   0.679   6.102   0.825 -0.0112 -0.5249 -0.2481
 4434SOL    HW214744   0.771   6.197   0.897 -0.9489  0.1229  0.1049
 4435SOL     OW14745   6.125   7.064  11.694 -0.4892  0.4026 -0.2551
 4435SOL    HW114746   6.046   7.051  11.641  0.1163 -2.1949 -0.6675
 4435SOL    HW214747   6.171   6.980  11.689  2.4458  1.8762 -0.2376
 4436SOL     OW14748   7.088   7.824   0.003  0.4707  0.6876 -0.0014
 4436SOL    HW114749   7.052   7.853  -0.081  1.2523 -0.5067 -0.7829
 4436SOL    HW214750   7.080   7.729   0.001  1.4259  0.5684  0.8347
 4437SOL     OW14751   1.766   7.925  11.859  0.0746 -0.3034 -0.1329
 4437SOL    HW114752   1.785   7.880  11.942 -3.0666  0.2165  1.0303
 4437SOL    HW214753   1.824   8.001  11.859 -0.4967  0.2124  2.1331
 4438SOL     OW14754   0.797   7.300   0.176 -0.0500  0.5226 -0.2413
 4438SOL    HW114755   0.708   7.283   0.147 -0.8844  0.4879  2.1329
 4438SOL    HW214756   0.788   7.364   0.246  1.6191 -0.6369  1.1185
 4439SOL     OW14757   5.960   6.254   1.126 -0.3098  0.1852 -0.3596
 4439SOL    HW114758   6.027   6.301   1.176 -1.8679  0.6316  1.4219
 4439SOL    HW214759   5.978   6.276   1.035  2.5327 -0.4867 -0.0725
 4440SOL     OW14760   6.544   6.570   3.383 -0.2272  0.1354 -0.2262
 4440SOL    HW114761   6.527   6.521   3.464  0.0834 -0.1583 -0.3410
 4440SOL    HW214762   6.456   6.594   3.352 -0.3098  1.2180  0.7885
 4441SOL     OW14763   2.051   7.450   1.352  0.0301 -0.3897 -0.2076
 4441SOL    HW114764   2.028   7.379   1.412 -0.8779 -0.3408 -0.4894
 4441SOL    HW214765   1.988   7.443   1.280 -0.4198  1.0189  0.0226
 4442SOL     OW14766   0.968   6.864   0.603 -0.5317  0.6512  0.2955
 4442SOL    HW114767   0.915   6.864   0.523 -1.0503  0.6336  0.6360
 4442SOL    HW214768   0.913   6.822   0.668  1.6385 -4.0202 -0.4759
 4443SOL     OW14769   0.759   4.886   0.102  0.0952 -0.0534  0.1866
 4443SOL    HW114770   0.670   4.905   0.072  0.5739  0.8445 -0.6971
 4443SOL    HW214771   0.756   4.901   0.197 -1.0528 -1.4847  0.4194
 4444SOL     OW14772   0.425   7.493   3.249  0.1900 -0.0475 -0.4029
 4444SOL    HW114773   0.379   7.577   3.240 -0.1749 -0.0119  1.3799
 4444SOL    HW214774   0.367   7.440   3.303  2.4306  0.2304  2.5293
 4445SOL     OW14775   7.902   5.677   1.120 -0.1671  1.0800 -0.3799
 4445SOL    HW114776   7.849   5.670   1.200  0.2549  0.4753 -0.1470
 4445SOL    HW214777   7.839   5.677   1.049 -0.4863  0.4638 -0.1017
 4446SOL     OW14778   1.971   6.901   1.233 -0.1653  0.2749  0.3425
 4446SOL    HW114779   2.032   6.867   1.297 -0.1798 -0.8411 -0.2140
 4446SOL    HW214780   1.899   6.938   1.284  1.1510  2.0449  1.0258
 4447SOL     OW14781   2.227   0.706  12.403  0.1527 -0.3182 -0.3620
 4447SOL    HW114782   2.189   0.792  12.424 -0.3533 -0.5417 -0.3543
 4447SOL    HW214783   2.165   0.643  12.440  1.9425 -0.6999  2.2843
 4448SOL     OW14784   0.149   6.591   2.696 -0.1352 -0.2237 -0.7624
 4448SOL    HW114785   0.066   6.611   2.651  0.4878 -0.9012 -2.3052
 4448SOL    HW214786   0.211   6.573   2.625  1.3946  0.4225  0.3469
 4449SOL     OW14787   2.705   6.990   1.618 -0.1389  0.1301 -0.1221
 4449SOL    HW114788   2.714   7.083   1.637  1.3662 -0.3198  1.7112
 4449SOL    HW214789   2.677   6.951   1.701  0.2854 -1.1594 -0.5597
 4450SOL     OW14790   1.391   5.685   0.372  0.1439 -0.2280 -0.0715
 4450SOL    HW114791   1.472   5.701   0.324 -0.6041  0.6611 -1.0887
 4450SOL    HW214792   1.339   5.630   0.313 -0.7726  0.8566 -0.3223
 4451SOL     OW14793   0.335   5.729   1.823 -0.1309  0.2494 -0.3327
 4451SOL    HW114794   0.351   5.799   1.759  1.0721  0.1951 -0.1176
 4451SOL    HW214795   0.245   5.743   1.851 -0.1371  1.2908 -0.8122
 4452SOL     OW14796   1.031   0.007  11.694 -0.6844  0.1747 -0.0336
 4452SOL    HW114797   1.080   0.048  11.765  1.1790 -0.5758 -0.8233
 4452SOL    HW214798   0.948  -0.018  11.734 -0.0010  0.4883  1.6740
 4453SOL     OW14799   7.436   6.397   0.860  0.5434 -0.6339  0.5921
 4453SOL    HW114800   7.360   6.350   0.824 -0.1616  0.3651  0.7532
 4453SOL    HW214801   7.452   6.467   0.797 -0.1546  0.6002  1.7490
 4454SOL     OW14802   0.630   7.124   1.144  0.1234  0.3262  0.5898
 4454SOL    HW114803   0.674   7.043   1.170  1.2970  0.5904 -0.4864
 4454SOL    HW214804   0.616   7.115   1.049 -1.9491  0.3707  0.8332
 4455SOL     OW14805   0.638   4.586   2.796 -0.3932  0.1714  0.5967
 4455SOL    HW114806   0.674   4.623   2.716 -0.3595 -0.5791  0.2519
 4455SOL    HW214807   0.545   4.576   2.779 -0.3181 -0.3745  0.4940
 4456SOL     OW14808   1.306   5.459   1.169 -0.0082  0.1661  0.3739
 4456SOL    HW114809   1.350   5.480   1.252  0.3680 -2.4024  0.9046
 4456SOL    HW214810   1.232   5.404   1.194 -0.6747  0.4294 -0.9247
 4457SOL     OW14811   0.554   6.424   1.025 -0.2385  0.4666  0.3632
 4457SOL    HW114812   0.528   6.348   1.077 -0.0836 -0.6358 -1.0784
 4457SOL    HW214813   0.649   6.414   1.015 -0.4350 -0.1344 -1.2396
 4458SOL     OW14814   7.597   5.900   2.925  0.2352 -0.8694 -0.1877
 4458SOL    HW114815   7.576   5.809   2.944 -0.3094 -0.7505 -0.2006
 4458SOL    HW214816   7.646   5.896   2.843 -1.0671 -1.0516 -1.0006
 4459SOL     OW14817   7.646   5.968   1.194  0.3530 -0.0509 -0.2163
 4459SOL    HW114818   7.580   5.979   1.125 -0.4494 -0.3969  0.4761
 4459SOL    HW214819   7.618   6.027   1.264  1.7806  1.1502 -0.5871
 4460SOL     OW14820   1.711   0.761   0.697 -0.4624  0.3959 -0.3373
 4460SOL    HW114821   1.694   0.842   0.649 -1.9726  0.6069  0.4928
 4460SOL    HW214822   1.670   0.775   0.782  3.8884  0.8638  1.9272
 4461SOL     OW14823   1.840   0.570  11.584 -0.1463 -0.6854 -0.7641
 4461SOL    HW114824   1.917   0.600  11.535  0.3903 -1.2051 -0.2614
 4461SOL    HW214825   1.873   0.498  11.638 -0.8895 -0.6106 -0.1972
 4462SOL     OW14826   0.314   0.774   1.130 -0.2430  0.1214 -0.2359
 4462SOL    HW114827   0.295   0.786   1.037  0.8284 -1.2385 -0.6635
 4462SOL    HW214828   0.401   0.813   1.142  0.3771 -1.2244 -0.2083
 4463SOL     OW14829   2.098   5.930   0.384 -0.9854 -0.3670 -0.7572
 4463SOL    HW114830   2.023   5.871   0.394 -1.3647  0.2788  0.5485
 4463SOL    HW214831   2.175   5.876   0.401 -1.3422 -0.4631  0.6707
 4464SOL     OW14832   7.540   6.401   1.764  0.1591 -0.3509 -0.1259
 4464SOL    HW114833   7.628   6.367   1.778  0.5916  0.2975 -1.1226
 4464SOL    HW214834   7.538   6.423   1.671 -0.5656  1.0080  0.1837
 4465SOL     OW14835   1.348   7.835  11.833 -0.6722 -0.0829 -0.1525
 4465SOL    HW114836   1.316   7.746  11.844  0.8251 -0.4736  1.5834
 4465SOL    HW214837   1.415   7.845  11.901  1.4004  1.3139 -2.2043
 4466SOL     OW14838   1.482   6.686   1.499 -0.5452  0.2879  0.1472
 4466SOL    HW114839   1.523   6.706   1.583 -2.1686  1.4367  0.7164
 4466SOL    HW214840   1.529   6.739   1.436 -0.1920  0.4580  0.5491
 4467SOL     OW14841   7.039   6.525   1.267 -0.3074  0.1264 -0.7112
 4467SOL    HW114842   7.016   6.519   1.175 -0.9374 -0.2703 -0.5325
 4467SOL    HW214843   7.057   6.435   1.294 -1.2487  0.0794 -0.1766
 4468SOL     OW14844   1.431   7.650   0.208 -0.5526 -0.3011  0.1446
 4468SOL    HW114845   1.383   7.702   0.144  0.4574  1.1207  0.4864
 4468SOL    HW214846   1.427   7.702   0.289 -0.7475 -1.4650  0.9078
 4469SOL     OW14847   1.872   0.697   1.675  0.1073 -0.7381 -0.1712
 4469SOL    HW114848   1.927   0.628   1.712  2.5910  0.6847 -0.9236
 4469SOL    HW214849   1.924   0.732   1.602 -2.5618 -0.3681 -2.0311
 4470SOL     OW14850   2.066   0.667  11.399 -0.0390 -0.6585 -0.7958
 4470SOL    HW114851   2.159   0.650  11.384  0.0254  0.2798 -1.5851
 4470SOL    HW214852   2.057   0.762  11.389 -0.7740 -0.4927  1.0922
 4471SOL     OW14853   0.376   5.106   0.306 -0.0952 -0.2909  0.0350
 4471SOL    HW114854   0.350   5.138   0.220 -0.6496 -0.3776  0.1660
 4471SOL    HW214855   0.377   5.184   0.362 -0.9073 -0.4065  0.2250
 4472SOL     OW14856   7.895   5.270   0.329  0.0132  0.1853  0.2497
 4472SOL    HW114857   7.836   5.206   0.367  1.4494 -1.6541 -0.4649
 4472SOL    HW214858   7.968   5.275   0.390  0.7198 -0.1818 -0.5417
 4473SOL     OW14859   0.781   6.825   0.410  0.1365 -0.3868  0.2951
 4473SOL    HW114860   0.805   6.753   0.352 -0.3769 -1.4129  1.3228
 4473SOL    HW214861   0.711   6.871   0.364 -0.8838 -1.7222  0.4596
 4474SOL     OW14862   2.286   5.340   2.995 -0.2368  0.1898  0.1862
 4474SOL    HW114863   2.214   5.348   3.058 -0.5897 -0.3381 -0.1397
 4474SOL    HW214864   2.295   5.246   2.981 -0.9118  0.3267 -1.3900
 4475SOL     OW14865   0.336   6.710   0.036 -0.0745  0.1375 -0.0537
 4475SOL    HW114866   0.410   6.688   0.093  0.1383  0.2444 -0.2846
 4475SOL    HW214867   0.265   6.734   0.097  0.2047  0.4277  0.1640
 4476SOL     OW14868   7.686   5.499   2.652 -0.3363 -0.2670  0.2435
 4476SOL    HW114869   7.634   5.536   2.580  2.1989  1.9278 -0.6203
 4476SOL    HW214870   7.703   5.409   2.625 -1.6709 -0.3008 -0.5939
 4477SOL     OW14871   0.665   6.119   2.174 -0.7866 -0.2145 -0.2000
 4477SOL    HW114872   0.635   6.079   2.255  2.4125 -1.2856  0.6114
 4477SOL    HW214873   0.704   6.047   2.125 -1.4851  0.6568 -2.1517
 4478SOL     OW14874   0.602   5.378  11.803 -0.1649 -0.7306  0.3224
 4478SOL    HW114875   0.571   5.429  11.878  0.5643  0.0638  0.0986
 4478SOL    HW214876   0.544   5.301  11.801 -0.9550 -0.1777  0.9788
 4479SOL     OW14877   1.330   6.308   0.893  0.2295  0.0612  0.0629
 4479SOL    HW114878   1.400   6.370   0.873 -0.1768  0.6977  0.5402
 4479SOL    HW214879   1.271   6.314   0.818  0.4102 -0.0721 -0.0907
 4480SOL     OW14880   7.280   5.447  11.090  0.1623 -0.7370 -0.5435
 4480SOL    HW114881   7.209   5.500  11.055  1.7663  0.4997 -2.1066
 4480SOL    HW214882   7.301   5.385  11.019  1.7916  0.1196 -0.8634
 4481SOL     OW14883   0.257   6.310  11.972 -0.1112 -0.2992 -0.0565
 4481SOL    HW114884   0.291   6.341  11.889  0.4647 -0.6947  0.0279
 4481SOL    HW214885   0.205   6.232  11.950  3.1195 -2.7542  0.2851
 4482SOL     OW14886   6.699   6.093   1.605 -0.1821 -0.0314  0.1318
 4482SOL    HW114887   6.650   6.080   1.686  0.0073  1.0535  0.4336
 4482SOL    HW214888   6.672   6.179   1.573  1.3925  0.5392  0.2301
 4483SOL     OW14889   1.987   6.478   1.053  0.0846  0.0549 -0.0433
 4483SOL    HW114890   2.063   6.439   1.095 -0.5086  0.2848  1.2665
 4483SOL    HW214891   1.932   6.404   1.027  0.1775 -0.0648  0.1073
 4484SOL     OW14892   0.048   6.275   2.948 -0.1970  0.0416 -0.5550
 4484SOL    HW114893   0.011   6.230   3.024 -0.5072  0.4788 -0.4446
 4484SOL    HW214894   0.069   6.363   2.980  1.7155 -0.4322 -0.3915
 4485SOL     OW14895   2.540   6.654   2.719  0.1252  0.5143  0.7867
 4485SOL    HW114896   2.591   6.575   2.741 -0.5924 -0.0973  0.2998
 4485SOL    HW214897   2.464   6.649   2.776 -1.3514 -0.6613 -1.1625
 4486SOL     OW14898   0.381   6.713   1.905  0.1526 -0.0811  0.4126
 4486SOL    HW114899   0.422   6.723   1.991 -2.8148 -0.3570  1.9833
 4486SOL    HW214900   0.356   6.802   1.880  1.3252  0.0472 -0.4034
 4487SOL     OW14901   3.499   6.935   1.392  0.3581 -0.1046  0.8487
 4487SOL    HW114902   3.582   6.957   1.433  0.7652 -0.4920  0.2440
 4487SOL    HW214903   3.455   6.878   1.455 -0.0355  1.1411  1.7478
 4488SOL     OW14904   7.353   6.116   2.404 -0.5960 -0.1107 -0.0417
 4488SOL    HW114905   7.411   6.073   2.467 -1.2332 -0.5130  0.2856
 4488SOL    HW214906   7.297   6.173   2.458 -0.3320  0.4821 -0.3812
 4489SOL     OW14907   0.018   7.733   1.417  0.3265 -0.4113  0.1874
 4489SOL    HW114908  -0.023   7.782   1.346 -0.7797 -1.3916  0.1174
 4489SOL    HW214909   0.112   7.737   1.399  0.1198  0.1370 -0.8032
 4490SOL     OW14910   1.414   5.721   2.310  0.6523  0.3787  0.8210
 4490SOL    HW114911   1.402   5.630   2.282 -1.5811  0.6984  0.5159
 4490SOL    HW214912   1.431   5.715   2.404 -1.6817 -0.3204  1.2654
 4491SOL     OW14913   3.472   6.366   1.623 -0.5997 -0.4611 -0.2468
 4491SOL    HW114914   3.475   6.298   1.556 -0.2592 -0.7748  0.0771
 4491SOL    HW214915   3.433   6.442   1.580 -2.2875 -1.2764 -0.2300
 4492SOL     OW14916   2.022   7.343  11.718  0.6542  0.0094  0.2656
 4492SOL    HW114917   2.058   7.423  11.757  0.7527  0.6825 -1.1735
 4492SOL    HW214918   1.947   7.322  11.774  0.2741  1.4266  0.3394
 4493SOL     OW14919   1.826   6.449   0.153  0.1930 -0.3215  0.3703
 4493SOL    HW114920   1.844   6.357   0.173  3.3398  0.0305 -0.2389
 4493SOL    HW214921   1.894   6.497   0.200 -0.0129  1.5063 -1.0876
 4494SOL     OW14922   7.222   7.230   1.308 -0.0343 -0.1333 -0.1504
 4494SOL    HW114923   7.223   7.188   1.222 -1.2952 -0.6805  0.0851
 4494SOL    HW214924   7.314   7.227   1.337  0.2723 -0.6693 -1.1168
 4495SOL     OW14925   0.890   7.467   0.391 -0.3489  0.1749  0.3490
 4495SOL    HW114926   0.958   7.400   0.382 -0.3325  0.3663 -1.2316
 4495SOL    HW214927   0.926   7.529   0.454  0.5504 -0.2118  0.2422
 4496SOL     OW14928   3.171   0.457   1.303  0.1593  0.2938 -0.3057
 4496SOL    HW114929   3.151   0.453   1.210 -0.0041 -0.9334 -0.2447
 4496SOL    HW214930   3.261   0.424   1.310  0.4404  1.0835 -0.0955
 4497SOL     OW14931   0.286   6.215   2.817 -0.1107  0.2892  0.6823
 4497SOL    HW114932   0.335   6.294   2.797  0.4469 -0.2430 -0.1454
 4497SOL    HW214933   0.202   6.246   2.851 -0.3045  1.2631 -0.5948
 4498SOL     OW14934   7.728   6.359   2.578  0.0805 -0.1990 -0.1410
 4498SOL    HW114935   7.671   6.424   2.537 -1.6523 -2.5627 -1.7210
 4498SOL    HW214936   7.770   6.315   2.505 -1.5836 -3.2360  0.5979
 4499SOL     OW14937   6.949   7.273   2.283 -0.0693  0.3257  0.2276
 4499SOL    HW114938   6.896   7.331   2.229 -1.9766  0.1616  1.7916
 4499SOL    HW214939   6.918   7.185   2.262 -0.3055  0.2131  0.9890
 4500SOL     OW14940   0.328   6.537   2.247  0.7007 -0.5678 -0.1641
 4500SOL    HW114941   0.413   6.524   2.205  0.0614 -1.3881 -1.2653
 4500SOL    HW214942   0.268   6.555   2.174 -0.0893 -0.1054  0.5878
 4501SOL     OW14943   7.312   6.462   0.329  0.0311 -0.1248 -0.5867
 4501SOL    HW114944   7.262   6.386   0.360 -2.0793  0.6945 -1.8440
 4501SOL    HW214945   7.255   6.537   0.345  1.1078  0.9303 -1.5095
 4502SOL     OW14946   1.344   7.548   2.568  0.2083  0.2977 -0.1437
 4502SOL    HW114947   1.351   7.453   2.557 -0.4392  0.2878 -0.5010
 4502SOL    HW214948   1.418   7.571   2.624 -0.0459 -0.5209  0.5493
 4503SOL     OW14949   6.473   6.640   2.986  0.0079  0.0973  0.3636
 4503SOL    HW114950   6.495   6.732   3.004  0.4119 -0.0614  0.7122
 4503SOL    HW214951   6.542   6.610   2.927  1.0591 -0.5439  1.8546
 4504SOL     OW14952   0.006   5.767   0.808  0.3412 -0.2071  0.4190
 4504SOL    HW114953   0.056   5.723   0.876 -0.3875 -1.3424  0.2574
 4504SOL    HW214954  -0.067   5.807   0.854  1.0423  0.9326  0.5753
 4505SOL     OW14955   1.011   5.023   0.103 -0.4748  0.1205  0.3579
 4505SOL    HW114956   1.016   5.024   0.007  0.0038  0.8336  0.3817
 4505SOL    HW214957   0.949   4.953   0.123 -0.7439  0.1062 -0.4818
 4506SOL     OW14958   1.766   6.057   2.188 -0.6080 -0.2226 -0.1184
 4506SOL    HW114959   1.772   6.101   2.103  0.9222 -1.3514 -0.6479
 4506SOL    HW214960   1.743   6.126   2.250  0.3111  1.0498 -1.1400
 4507SOL     OW14961   7.801   7.469   1.450 -1.2169 -0.4218  0.0244
 4507SOL    HW114962   7.775   7.550   1.405 -0.1867  1.1491  2.0883
 4507SOL    HW214963   7.870   7.433   1.394 -2.2600 -0.3766 -1.3620
 4508SOL     OW14964   0.980   4.420  12.384 -0.2956 -0.0325 -0.2730
 4508SOL    HW114965   0.896   4.428  12.338 -1.0289  1.0214  1.1446
 4508SOL    HW214966   1.045   4.410  12.315 -1.5531 -0.4889 -1.4282
 4509SOL     OW14967   1.236   6.640   0.905  0.0993  0.5124 -0.0594
 4509SOL    HW114968   1.306   6.695   0.871  1.5240 -0.8089  0.6400
 4509SOL    HW214969   1.270   6.551   0.901 -0.2772  0.0904  3.1092
 4510SOL     OW14970   0.038   6.047   1.896  0.4264  0.2020  0.4764
 4510SOL    HW114971   0.033   6.080   1.986  0.3818 -1.3651  1.0797
 4510SOL    HW214972   0.050   5.952   1.906  3.7014  0.3263 -1.1125
 4511SOL     OW14973   0.809   0.937  12.144 -0.2732 -0.0528 -0.0604
 4511SOL    HW114974   0.823   0.989  12.065  3.4781 -0.9473 -0.1692
 4511SOL    HW214975   0.770   0.998  12.206 -0.8540  1.4012 -1.7624
 4512SOL     OW14976   1.966   6.824  11.893 -0.3953  0.2355 -0.2733
 4512SOL    HW114977   1.890   6.811  11.950  0.2166  0.8995  0.7132
 4512SOL    HW214978   1.970   6.744  11.840 -1.3126 -0.1446  0.2012
 4513SOL     OW14979   7.928   6.579   2.470 -0.1231 -0.3381 -0.3159
 4513SOL    HW114980   7.962   6.490   2.468  1.1565  0.1425 -1.5531
 4513SOL    HW214981   7.971   6.623   2.396 -1.4356  1.0466 -0.3024
 4514SOL     OW14982   0.957   5.578   4.448  0.1481 -0.1929 -0.7365
 4514SOL    HW114983   0.879   5.588   4.503 -0.0200  0.9643 -1.1625
 4514SOL    HW214984   1.020   5.534   4.505 -0.2682  0.3321  0.1579
 4515SOL     OW14985   6.657   6.548   2.458 -0.7941 -0.2382 -0.3169
 4515SOL    HW114986   6.605   6.554   2.538 -0.6407 -1.7405 -0.0743
 4515SOL    HW214987   6.714   6.625   2.460 -0.4990 -0.4718  1.2281
 4516SOL     OW14988   7.455   4.421   2.297 -0.2600  0.3175 -0.8424
 4516SOL    HW114989   7.415   4.335   2.296  0.9781 -0.2901 -0.3042
 4516SOL    HW214990   7.507   4.425   2.216  2.2660 -0.7592  0.6291
 4517SOL     OW14991   0.786   0.097   3.698 -0.3473  0.6390 -0.0638
 4517SOL    HW114992   0.692   0.082   3.689 -0.2254  0.2167 -0.6168
 4517SOL    HW214993   0.792   0.173   3.757 -1.0683  1.6438 -1.2334
 4518SOL     OW14994   0.626   4.976   1.350 -0.2440 -0.6355  0.5435
 4518SOL    HW114995   0.599   4.919   1.278 -0.0168 -0.4208  0.2846
 4518SOL    HW214996   0.691   4.925   1.398  2.1173  0.4154 -1.3405
 4519SOL     OW14997   1.932   5.052   3.132 -0.4362  0.2581 -0.0564
 4519SOL    HW114998   2.017   5.097   3.136 -0.4024  0.1275  2.2872
 4519SOL    HW214999   1.949   4.973   3.080  0.7292  0.5272 -0.1125
 4520SOL     OW15000   6.914   5.947   3.504  0.2438  0.2941  0.4191
 4520SOL    HW115001   6.919   6.042   3.521  1.2987  0.5550 -1.1420
 4520SOL    HW215002   6.902   5.940   3.410 -1.5256 -1.1403  0.7007
 4521SOL     OW15003   0.997   5.723   2.320 -0.6428 -0.2636 -0.2711
 4521SOL    HW115004   1.024   5.809   2.353 -2.2137  0.2528 -0.2485
 4521SOL    HW215005   1.058   5.706   2.248 -0.2946  0.8766 -0.2767
 4522SOL     OW15006   7.997   7.186   3.664 -0.4469  0.1542  0.5122
 4522SOL    HW115007   7.967   7.256   3.605 -0.4872 -1.6226 -1.7076
 4522SOL    HW215008   8.073   7.224   3.709 -0.1710  1.4896 -0.9783
 4523SOL     OW15009   0.543   5.585   2.394  0.0152 -0.5381  0.0082
 4523SOL    HW115010   0.516   5.522   2.327 -2.2979  1.6006 -1.2212
 4523SOL    HW215011   0.505   5.551   2.475 -0.0196 -1.4028 -0.3510
 4524SOL     OW15012   0.085   7.885   3.120  0.3178  0.2885  0.0577
 4524SOL    HW115013   0.147   7.901   3.049 -0.2653  1.3359 -0.2416
 4524SOL    HW215014   0.023   7.958   3.115 -1.0173 -0.7809  0.2764
 4525SOL     OW15015   7.813   7.813   4.153  0.6303  0.6739 -0.1940
 4525SOL    HW115016   7.746   7.835   4.088  0.2892  0.6464  0.1477
 4525SOL    HW215017   7.889   7.786   4.100  0.6169  1.3995 -0.5955
 4526SOL     OW15018   1.657   2.972   3.439  0.5407  0.0753 -0.2532
 4526SOL    HW115019   1.692   2.887   3.413 -0.5260 -0.1291 -1.1348
 4526SOL    HW215020   1.608   3.002   3.362 -3.4538 -0.8855  1.6113
 4527SOL     OW15021   7.670   4.483   2.470 -0.6676  0.5124 -0.5207
 4527SOL    HW115022   7.626   4.481   2.555  0.8020  2.4114  0.3700
 4527SOL    HW215023   7.600   4.491   2.407 -1.8400 -1.4819  0.4174
 4528SOL     OW15024   7.988   7.384   1.259  0.0492 -0.1999 -0.5040
 4528SOL    HW115025   7.973   7.329   1.182  1.1600 -0.0578 -0.8391
 4528SOL    HW215026   8.083   7.393   1.264  0.0215 -0.5056  1.1023
 4529SOL     OW15027   7.067   0.483   4.875 -0.0873 -0.3021  0.0727
 4529SOL    HW115028   7.087   0.565   4.830 -0.3084 -1.3396 -2.0353
 4529SOL    HW215029   7.052   0.509   4.966 -1.1880  2.1295 -0.7098
 4530SOL     OW15030   0.205   7.143   1.037  0.0956  0.3316  0.2267
 4530SOL    HW115031   0.255   7.162   1.117 -2.5734  1.3302  1.7692
 4530SOL    HW215032   0.184   7.229   1.001 -1.1237 -0.0388  0.0207
 4531SOL     OW15033   0.209   5.962   3.077  0.5713 -0.6182  0.1189
 4531SOL    HW115034   0.209   6.057   3.078  1.6619 -0.5846 -0.9230
 4531SOL    HW215035   0.289   5.937   3.123  0.2536 -1.0429  0.4518
 4532SOL     OW15036   0.409   1.416   3.007 -0.0134 -0.0873 -0.0349
 4532SOL    HW115037   0.374   1.419   3.096 -0.8840  1.0966 -0.3923
 4532SOL    HW215038   0.352   1.355   2.961 -0.3033  0.2035 -0.0689
 4533SOL     OW15039   7.181   5.884   3.140 -0.1495 -0.1349 -0.4218
 4533SOL    HW115040   7.232   5.955   3.180 -0.1247  1.1079 -2.4863
 4533SOL    HW215041   7.222   5.872   3.054 -2.6041  0.1175 -1.6953
 4534SOL     OW15042   2.231   0.144   3.847  0.1269  0.1605  0.3608
 4534SOL    HW115043   2.197   0.082   3.783 -1.0824  0.3158  0.8338
 4534SOL    HW215044   2.154   0.189   3.881  0.7124 -0.0155  2.0347
 4535SOL     OW15045   2.213   7.634   2.126  0.2493 -0.5997 -0.3348
 4535SOL    HW115046   2.292   7.616   2.076  1.6169  0.6111  1.2809
 4535SOL    HW215047   2.155   7.680   2.065  1.8198  0.7370 -0.8823
 4536SOL     OW15048   0.003   7.543   3.516 -0.1742 -0.0728  0.0663
 4536SOL    HW115049  -0.001   7.583   3.429 -0.0100 -1.7739 -0.7685
 4536SOL    HW215050  -0.080   7.496   3.524  0.6718 -1.6834 -0.1034
 4537SOL     OW15051   0.649   6.461   3.377  0.6302  0.0631 -0.1084
 4537SOL    HW115052   0.605   6.454   3.462  0.6657 -0.2114 -0.1140
 4537SOL    HW215053   0.740   6.437   3.395  0.2527 -1.8843 -0.5791
 4538SOL     OW15054   1.751   7.386   2.333  0.1922  0.2343 -0.0736
 4538SOL    HW115055   1.727   7.341   2.252 -0.1589 -0.8737  0.6091
 4538SOL    HW215056   1.847   7.385   2.334  0.1911 -0.5257 -0.0741
 4539SOL     OW15057   7.505   5.788   3.680 -0.3549 -0.4667 -0.8417
 4539SOL    HW115058   7.456   5.707   3.662 -0.6953  0.0247 -2.3330
 4539SOL    HW215059   7.479   5.847   3.609  0.3624  0.7452 -0.1289
 4540SOL     OW15060   7.051   6.828   2.104 -0.3109  0.6973 -0.0717
 4540SOL    HW115061   7.008   6.859   2.024  0.1210  3.3545  0.6232
 4540SOL    HW215062   7.067   6.735   2.088 -0.8983  0.9709 -2.7570
 4541SOL     OW15063   0.681   0.324   2.925 -0.1156  0.0703 -0.6226
 4541SOL    HW115064   0.752   0.333   2.861 -0.1774 -1.8984 -1.0512
 4541SOL    HW215065   0.604   0.359   2.881 -0.0500 -0.7861 -1.4457
 4542SOL     OW15066   0.067   5.747   3.784 -0.2235 -0.0191  0.4437
 4542SOL    HW115067   0.135   5.797   3.829  2.1435 -0.8763 -1.9421
 4542SOL    HW215068   0.002   5.813   3.759  0.9674  1.2712  0.6179
 4543SOL     OW15069   0.683   7.956   2.331  0.6611  0.2419 -0.6482
 4543SOL    HW115070   0.606   7.976   2.278 -0.2197 -0.3988  0.3581
 4543SOL    HW215071   0.712   8.041   2.363  0.6201  0.5304 -1.3559
 4544SOL     OW15072   1.294   4.333   2.331 -0.7149  0.1008 -0.2690
 4544SOL    HW115073   1.365   4.306   2.390 -1.1597 -0.7018 -0.0850
 4544SOL    HW215074   1.312   4.425   2.312  1.1061 -0.4111 -1.2727
 4545SOL     OW15075   7.839   0.231   3.647  0.1735  0.2831 -0.6053
 4545SOL    HW115076   7.871   0.176   3.718 -1.0828  0.7951  0.4170
 4545SOL    HW215077   7.914   0.284   3.621  0.3444  1.0273  1.2710
 4546SOL     OW15078   0.892   7.613   3.955 -0.4870  0.5381 -0.0095
 4546SOL    HW115079   0.898   7.524   3.989  0.6096  0.6897  0.2585
 4546SOL    HW215080   0.858   7.665   4.028  0.6250  0.6406  0.4557
 4547SOL     OW15081   0.224   7.420   3.016  0.3270 -0.3792 -0.2781
 4547SOL    HW115082   0.274   7.339   3.004  1.8338  0.4762  0.0143
 4547SOL    HW215083   0.166   7.402   3.089 -0.3110 -1.6282 -1.0653
 4548SOL     OW15084   2.856   7.109   2.553  0.0044  0.2016 -0.3078
 4548SOL    HW115085   2.853   7.017   2.578  0.5477  0.3338  0.2721
 4548SOL    HW215086   2.941   7.140   2.585  0.7639  0.3742 -2.3376
 4549SOL     OW15087   7.261   6.343   2.800 -0.0841  0.3327 -0.1181
 4549SOL    HW115088   7.337   6.333   2.856  0.3784 -0.0087 -0.7870
 4549SOL    HW215089   7.239   6.436   2.804  0.7395  0.5448 -0.3810
 4550SOL     OW15090   7.380   5.744   2.342  0.1784  0.2398 -0.3814
 4550SOL    HW115091   7.440   5.811   2.375  0.6986  0.6082 -1.9720
 4550SOL    HW215092   7.297   5.791   2.329  0.0440  0.1525  0.1646
 4551SOL     OW15093   0.186   5.682   2.787  0.6739 -0.6603  0.0577
 4551SOL    HW115094   0.160   5.687   2.879  2.0229 -1.5008  0.5102
 4551SOL    HW215095   0.251   5.751   2.777  0.4935 -0.5394 -0.2757
 4552SOL     OW15096   0.168   5.167   4.125 -0.2224  0.0904 -0.1307
 4552SOL    HW115097   0.192   5.079   4.095 -0.7669  0.2789 -1.1632
 4552SOL    HW215098   0.189   5.224   4.051 -1.5789  0.5687 -0.1753
 4553SOL     OW15099   7.828   6.670   3.310 -0.1743 -0.7193 -0.4894
 4553SOL    HW115100   7.764   6.604   3.334 -0.9432 -0.3484 -1.4712
 4553SOL    HW215101   7.848   6.654   3.218  1.8000 -1.3488 -0.0084
 4554SOL     OW15102   0.969   7.194   3.487  0.2438 -0.1439 -0.3188
 4554SOL    HW115103   0.903   7.214   3.554  0.7105  1.3930 -0.2796
 4554SOL    HW215104   1.041   7.154   3.536 -0.7977 -2.2960 -0.4279
 4555SOL     OW15105   7.762   5.883   2.694  0.2193  0.2594 -0.2281
 4555SOL    HW115106   7.825   5.831   2.643  1.0564  0.0390  0.9714
 4555SOL    HW215107   7.799   5.972   2.693 -0.8038  0.6972 -1.6284
 4556SOL     OW15108   1.068   5.605   3.304 -0.5885  0.3960 -0.2283
 4556SOL    HW115109   1.057   5.696   3.279 -1.5703  0.9412  1.9098
 4556SOL    HW215110   1.158   5.583   3.280 -1.0506  1.1517 -2.9229
 4557SOL     OW15111   7.266   6.938   3.621  0.2570 -0.2305  0.6641
 4557SOL    HW115112   7.179   6.974   3.605 -0.3370 -1.3830  1.2077
 4557SOL    HW215113   7.317   6.964   3.544 -0.6057  0.3222  0.2680
 4558SOL     OW15114   7.356   7.650   1.844 -0.1374 -0.1750 -0.7979
 4558SOL    HW115115   7.342   7.574   1.901  0.4262  0.3311  0.0248
 4558SOL    HW215116   7.297   7.717   1.879 -0.5069 -0.1642 -1.4205
 4559SOL     OW15117   1.791   4.370   1.837 -0.2698 -0.6248  0.2287
 4559SOL    HW115118   1.845   4.354   1.914  1.7105  3.1234 -0.1601
 4559SOL    HW215119   1.853   4.379   1.765 -1.9508 -2.2850 -1.5892
 4560SOL     OW15120   1.296   5.387   3.742 -0.0889  0.3255 -0.1007
 4560SOL    HW115121   1.264   5.301   3.715 -0.1544 -0.0529  1.1358
 4560SOL    HW215122   1.217   5.436   3.765 -0.0246  0.6011 -0.4581
 4561SOL     OW15123   0.342   6.535   2.520 -0.0926 -0.2814  0.4288
 4561SOL    HW115124   0.314   6.538   2.428  0.3529  1.3637  0.3141
 4561SOL    HW215125   0.414   6.472   2.520  1.4596  1.3916 -0.8524
 4562SOL     OW15126   1.555   5.084   3.025  0.6917  0.6969 -0.0354
 4562SOL    HW115127   1.518   5.009   3.072 -0.4735  0.3133 -1.4986
 4562SOL    HW215128   1.604   5.131   3.092 -0.0822 -0.3567  1.3460
 4563SOL     OW15129   1.343   5.804   1.800  0.5700  0.1381  0.3694
 4563SOL    HW115130   1.408   5.855   1.850  2.0485 -0.4603 -0.8641
 4563SOL    HW215131   1.388   5.782   1.719 -1.5489  0.5371 -0.9820
 4564SOL     OW15132   0.768   5.850   2.137  0.0657 -0.3362  0.0654
 4564SOL    HW115133   0.846   5.865   2.191 -0.7033  1.0140  0.8415
 4564SOL    HW215134   0.703   5.816   2.199 -0.9040  1.4595  0.0788
 4565SOL     OW15135   1.461   6.527   3.504  0.5012  0.2472  0.2515
 4565SOL    HW115136   1.535   6.468   3.515 -1.9296 -3.0007  0.6333
 4565SOL    HW215137   1.408   6.487   3.435 -1.4071  1.8627  0.6842
 4566SOL     OW15138   0.295   6.491   1.661 -0.5152 -0.0309 -0.0775
 4566SOL    HW115139   0.385   6.503   1.630 -1.5173  0.9915 -2.9273
 4566SOL    HW215140   0.258   6.579   1.664 -1.2770 -0.3549  1.7828
 4567SOL     OW15141   2.157   0.575   1.238  0.2661 -0.1848  0.0105
 4567SOL    HW115142   2.157   0.665   1.270 -2.2803  0.1378 -0.6801
 4567SOL    HW215143   2.166   0.582   1.143 -3.4197 -0.2790 -0.5025
 4568SOL     OW15144   6.292   7.698   3.754 -0.7622 -0.3750 -0.4738
 4568SOL    HW115145   6.222   7.698   3.688  0.3427  0.0270 -1.6885
 4568SOL    HW215146   6.361   7.752   3.716  0.8655 -2.0179 -0.0343
 4569SOL     OW15147   0.891   6.553   2.028  0.3103 -0.1397  0.4303
 4569SOL    HW115148   0.931   6.514   1.951  0.0542  1.9803 -0.8662
 4569SOL    HW215149   0.955   6.617   2.058  0.0475 -0.3491  1.4936
 4570SOL     OW15150   6.470   6.545   4.932 -0.3250  0.3288 -0.2885
 4570SOL    HW115151   6.538   6.582   4.988 -0.3837  0.7346 -0.4836
 4570SOL    HW215152   6.508   6.463   4.900 -0.5908 -0.3181  0.9623
 4571SOL     OW15153   2.679   5.480  11.642 -0.3525  0.1436 -0.2798
 4571SOL    HW115154   2.748   5.524  11.592 -0.3152  0.2670 -0.1190
 4571SOL    HW215155   2.631   5.430  11.576 -0.4179  0.4542 -0.4687
 4572SOL     OW15156   1.531   7.042   2.374  0.2457 -0.4918 -0.2978
 4572SOL    HW115157   1.468   7.016   2.307 -0.4415  1.2120 -0.3653
 4572SOL    HW215158   1.596   7.094   2.326  0.6197 -0.5850  0.1007
 4573SOL     OW15159   1.642   4.461   4.349 -0.4224 -0.1438  0.1825
 4573SOL    HW115160   1.617   4.442   4.440  1.6198 -3.2768  0.2624
 4573SOL    HW215161   1.720   4.516   4.357 -0.2536 -0.4037  0.3446
 4574SOL     OW15162   6.890   6.250   0.936  0.0129  0.1051 -0.0318
 4574SOL    HW115163   6.935   6.176   0.896  1.5642  0.0725  1.6630
 4574SOL    HW215164   6.841   6.212   1.009 -0.4654  0.5416 -0.1216
 4575SOL     OW15165   7.978   6.560   1.227  0.2479  0.2848 -0.6218
 4575SOL    HW115166   8.060   6.552   1.276 -0.2627  1.9436  0.5921
 4575SOL    HW215167   7.988   6.501   1.152  2.3727  0.1527 -0.2729
 4576SOL     OW15168   7.485   5.175   1.591 -0.3298 -0.2703 -0.1491
 4576SOL    HW115169   7.441   5.090   1.589 -0.1039 -0.4341  0.8855
 4576SOL    HW215170   7.571   5.156   1.630 -0.3153  0.4444  0.1813
 4577SOL     OW15171   1.054   4.697   2.485 -0.6510  0.2938 -0.4365
 4577SOL    HW115172   1.057   4.775   2.541 -1.5712 -1.4266  2.1948
 4577SOL    HW215173   0.962   4.689   2.460 -0.4297  0.4395 -1.3216
 4578SOL     OW15174   3.065   5.638   2.820  0.2951  0.2323  0.5732
 4578SOL    HW115175   3.114   5.593   2.751  0.1740  1.0158 -0.0373
 4578SOL    HW215176   2.988   5.584   2.834 -1.2648  1.5540 -2.0820
 4579SOL     OW15177   7.983   7.424   3.977  0.3967  0.1426  0.3025
 4579SOL    HW115178   7.969   7.372   4.057 -0.1690  0.4157  0.3834
 4579SOL    HW215179   8.053   7.485   4.001  0.2168  0.2373  0.6035
 4580SOL     OW15180   1.224   0.203   2.449 -0.0547  0.0803 -0.2626
 4580SOL    HW115181   1.294   0.164   2.501 -0.2789  1.2592  0.9837
 4580SOL    HW215182   1.230   0.297   2.468 -1.2723  0.3276 -1.0159
 4581SOL     OW15183   1.252   5.145   2.258  0.1561 -0.3234 -0.3111
 4581SOL    HW115184   1.275   5.113   2.172  1.0838  0.5364 -0.4043
 4581SOL    HW215185   1.256   5.068   2.315  1.3674 -0.5582 -0.6985
 4582SOL     OW15186   7.140   5.874   1.019  0.0469 -0.6396  0.2394
 4582SOL    HW115187   7.222   5.848   1.060  0.6106 -0.5371 -0.7754
 4582SOL    HW215188   7.159   5.958   0.978 -0.3936 -0.8630 -0.4559
 4583SOL     OW15189   0.580   5.012   3.285  0.0617 -0.1354 -0.1976
 4583SOL    HW115190   0.542   5.025   3.371 -0.6404 -0.4447 -0.4522
 4583SOL    HW215191   0.627   5.093   3.266 -0.2014  0.1218  0.2628
 4584SOL     OW15192   1.632   6.227   1.463 -0.0943  0.3507  0.7708
 4584SOL    HW115193   1.546   6.236   1.503  0.0916 -0.5119  1.3876
 4584SOL    HW215194   1.627   6.147   1.411 -0.5984  1.8814 -1.7041
 4585SOL     OW15195   0.105   7.055   1.964  0.1518 -0.5903  0.0079
 4585SOL    HW115196   0.067   7.102   2.038  0.6588 -1.9709  1.2025
 4585SOL    HW215197   0.030   7.013   1.922 -0.0175 -0.7812  0.4876
 4586SOL     OW15198   1.893   5.271   1.754  0.4740 -0.1651 -0.1536
 4586SOL    HW115199   1.798   5.268   1.754  0.4604  0.2033  0.2389
 4586SOL    HW215200   1.920   5.199   1.810  0.4514 -0.7544 -0.8805
 4587SOL     OW15201   7.703   4.584   1.358  0.6172 -0.0523  0.1891
 4587SOL    HW115202   7.767   4.545   1.298 -0.4006  0.3978 -1.2485
 4587SOL    HW215203   7.621   4.541   1.336 -0.2577  1.8304 -0.4535
 4588SOL     OW15204   7.764   7.286   3.069  0.3231 -0.2089 -0.4314
 4588SOL    HW115205   7.676   7.305   3.100  0.3020  0.2147 -0.7492
 4588SOL    HW215206   7.784   7.356   3.007  1.2260  0.2176  0.3049
 4589SOL     OW15207   1.970   7.230   1.506 -0.1504 -0.5303 -0.4152
 4589SOL    HW115208   1.974   7.155   1.566 -1.6179 -0.8453 -0.6928
 4589SOL    HW215209   1.879   7.258   1.509  0.3722  1.2650 -0.3181
 4590SOL     OW15210   6.154   0.121   3.713  0.4118 -0.1217  0.3546
 4590SOL    HW115211   6.118   0.114   3.801  2.9182 -0.8962  1.3955
 4590SOL    HW215212   6.113   0.048   3.665  0.9366 -1.2870  1.6260
 4591SOL     OW15213   0.633   6.164   1.554 -0.0222 -0.1179  0.0090
 4591SOL    HW115214   0.576   6.184   1.480 -0.2622  0.7632  0.4210
 4591SOL    HW215215   0.719   6.197   1.527 -0.1579  0.4034  0.2088
 4592SOL     OW15216   7.983   6.011   0.055 -0.8282  0.0524 -0.5198
 4592SOL    HW115217   7.910   5.949   0.061 -2.4628  1.7906 -1.3389
 4592SOL    HW215218   7.944   6.095   0.080  1.3466  0.7565  0.7382
 4593SOL     OW15219   0.594   5.845   2.393  0.1039 -0.2562  0.4971
 4593SOL    HW115220   0.506   5.879   2.409 -0.4604 -0.8295 -1.1150
 4593SOL    HW215221   0.584   5.750   2.398  0.9970 -0.2992  1.8664
 4594SOL     OW15222   0.523   5.649   3.281  0.2431 -0.0219  0.0435
 4594SOL    HW115223   0.580   5.722   3.256  0.8956 -1.2931 -2.5439
 4594SOL    HW215224   0.574   5.599   3.345  1.4936 -0.3375 -1.1502
 4595SOL     OW15225   0.359   5.145   1.002 -0.7514  0.0540 -0.3422
 4595SOL    HW115226   0.372   5.142   1.096 -0.6067  1.5680 -0.2802
 4595SOL    HW215227   0.351   5.054   0.975  1.4386 -0.5338  0.8056
 4596SOL     OW15228   1.644   5.183   5.445 -0.0331 -0.1208  0.1999
 4596SOL    HW115229   1.556   5.156   5.419 -0.0803  0.4818 -0.3066
 4596SOL    HW215230   1.665   5.128   5.520 -1.3888  0.6588  1.2052
 4597SOL     OW15231   1.347   4.932   1.821 -0.1202  0.4543 -0.2294
 4597SOL    HW115232   1.282   4.925   1.751 -0.7307  0.6017  0.3115
 4597SOL    HW215233   1.316   4.872   1.888  0.3197  0.5107  0.0275
 4598SOL     OW15234   1.684   5.759   3.066  0.0110 -0.0334 -0.0130
 4598SOL    HW115235   1.757   5.737   3.008 -0.2840 -0.5688 -0.1915
 4598SOL    HW215236   1.672   5.853   3.055 -0.8879 -0.3309 -1.8308
 4599SOL     OW15237   6.973   6.237   1.256  0.0112  0.0571  0.2961
 4599SOL    HW115238   6.950   6.151   1.291  0.5032  0.5809  2.0276
 4599SOL    HW215239   7.056   6.223   1.210 -0.2107 -0.5044  0.0646
 4600SOL     OW15240   7.247   6.174   2.095 -0.2341  0.1223 -0.2029
 4600SOL    HW115241   7.319   6.212   2.145  0.2132 -0.5741 -0.3015
 4600SOL    HW215242   7.260   6.205   2.006  0.2574 -0.4340 -0.3272
 4601SOL     OW15243   1.635   5.958   1.344  0.0477 -0.1740  0.0960
 4601SOL    HW115244   1.542   5.953   1.365 -0.1431 -1.1418 -0.8763
 4601SOL    HW215245   1.670   5.872   1.368  0.6685  0.1426  0.3445
 4602SOL     OW15246   0.434   5.769   2.153  0.3126 -0.1873 -0.3755
 4602SOL    HW115247   0.360   5.771   2.093 -0.9820 -2.5870  0.9955
 4602SOL    HW215248   0.419   5.842   2.212 -2.2294 -1.8223  1.1754
 4603SOL     OW15249   0.304   6.015   2.118  0.0893 -0.1940 -0.3402
 4603SOL    HW115250   0.342   6.033   2.032  2.4380 -1.9880  0.2050
 4603SOL    HW215251   0.224   5.967   2.099 -1.0143  1.9383 -1.5105
 4604SOL     OW15252   1.622   6.888   4.625  0.4452 -0.0522  0.5300
 4604SOL    HW115253   1.544   6.943   4.627  0.6135  0.4977 -2.8053
 4604SOL    HW215254   1.604   6.824   4.556  1.3869 -2.5424  2.4333
 4605SOL     OW15255   2.336   1.232   3.130  0.2051 -0.3497  0.0690
 4605SOL    HW115256   2.336   1.295   3.202 -1.9794 -1.3007  0.9730
 4605SOL    HW215257   2.391   1.160   3.161  0.2611 -0.2159  0.2797
 4606SOL     OW15258   0.589   6.395   3.104  0.1599  0.1005 -0.5582
 4606SOL    HW115259   0.612   6.437   3.187 -0.2234  1.0542 -0.9100
 4606SOL    HW215260   0.662   6.336   3.086 -0.2197 -0.8555  0.9274
 4607SOL     OW15261   1.087   6.529   3.952  0.6385  0.1851  0.4211
 4607SOL    HW115262   1.162   6.473   3.973  0.6633  0.4167  0.9461
 4607SOL    HW215263   1.115   6.580   3.876  0.1227 -1.5199 -1.0174
 4608SOL     OW15264   0.031   6.068   2.539 -0.2832  0.4278  0.1279
 4608SOL    HW115265   0.099   6.005   2.564 -0.2867  0.1885 -0.4489
 4608SOL    HW215266  -0.002   6.102   2.622  0.3931  0.3851  0.4182
 4609SOL     OW15267   1.842   5.513   2.710  0.0510  0.7992  0.5625
 4609SOL    HW115268   1.898   5.470   2.646 -1.1332 -0.8513  0.5602
 4609SOL    HW215269   1.894   5.586   2.744  1.2602  0.7824 -1.1601
 4610SOL     OW15270   0.344   6.309   3.129 -0.0156 -0.3073  0.4709
 4610SOL    HW115271   0.437   6.326   3.115 -0.3801  0.9556 -0.6690
 4610SOL    HW215272   0.302   6.394   3.117 -1.4050 -1.0040  0.1615
 4611SOL     OW15273   2.803   5.495   1.357  0.5697  0.3576  0.7756
 4611SOL    HW115274   2.798   5.402   1.338 -0.8945  0.1724  1.8929
 4611SOL    HW215275   2.864   5.530   1.292  1.0410 -1.3395  0.2617
 4612SOL     OW15276   0.269   6.252   2.238  0.4044 -0.1422 -0.6050
 4612SOL    HW115277   0.316   6.176   2.203  0.9161  0.1442 -0.5462
 4612SOL    HW215278   0.325   6.327   2.218 -0.5979  0.3761 -1.6471
 4613SOL     OW15279   0.948   7.882   3.698 -0.2230 -0.1260  0.0695
 4613SOL    HW115280   0.897   7.960   3.675  1.0426  0.4100 -1.1111
 4613SOL    HW215281   0.979   7.899   3.787 -0.6500  0.3378  0.1358
 4614SOL     OW15282   0.808   6.876   1.350  0.1631  0.3552  0.1387
 4614SOL    HW115283   0.857   6.916   1.422 -0.3308  2.5037 -0.6437
 4614SOL    HW215284   0.867   6.884   1.274 -1.0050  2.3101 -0.6462
 4615SOL     OW15285   7.940   3.360   1.891  0.5090 -0.0554  0.5650
 4615SOL    HW115286   7.890   3.441   1.899 -0.7056 -0.7097 -0.0500
 4615SOL    HW215287   8.031   3.387   1.895  0.1258  1.1710  1.9125
 4616SOL     OW15288   7.336   7.105   3.359  0.2515 -0.0254  0.7775
 4616SOL    HW115289   7.405   7.047   3.327  1.9709  2.4684 -0.3767
 4616SOL    HW215290   7.378   7.191   3.366 -2.4192  1.3460  1.3424
 4617SOL     OW15291   7.315   7.076   2.785 -0.2124 -0.1626 -0.0103
 4617SOL    HW115292   7.244   7.022   2.751 -0.1080 -0.2146 -0.1455
 4617SOL    HW215293   7.355   7.116   2.708  1.4740 -2.0591 -0.2004
 4618SOL     OW15294   1.539   6.455   1.616  0.3686 -0.1178  0.0682
 4618SOL    HW115295   1.530   6.508   1.537  0.1915  0.2999  0.3650
 4618SOL    HW215296   1.478   6.495   1.679  0.5991 -0.3701  0.4571
 4619SOL     OW15297   7.915   7.389   1.888 -0.1807  0.0903  0.1552
 4619SOL    HW115298   7.981   7.429   1.945  1.7766 -2.3638 -0.2215
 4619SOL    HW215299   7.877   7.319   1.942 -0.2750 -0.4728 -0.6294
 4620SOL     OW15300   0.002   7.907   4.678  0.3802 -0.1309 -0.0680
 4620SOL    HW115301  -0.022   7.851   4.752  0.7126 -0.4439 -0.1944
 4620SOL    HW215302   0.044   7.848   4.615 -0.9840 -0.0912 -1.0486
 4621SOL     OW15303   2.154   5.877   3.007 -0.4302 -0.2860  0.0031
 4621SOL    HW115304   2.088   5.937   2.973 -0.9115  0.3162  1.8456
 4621SOL    HW215305   2.234   5.900   2.960 -0.8624  1.0356 -0.1409
 4622SOL     OW15306   0.380   5.966   3.769  0.2667  0.2826  0.0478
 4622SOL    HW115307   0.373   5.915   3.850 -0.3859 -1.0903 -0.8286
 4622SOL    HW215308   0.447   5.920   3.717  0.3014  0.8346 -0.4096
 4623SOL     OW15309   7.664   5.822   3.946 -0.2865 -0.1423 -0.3637
 4623SOL    HW115310   7.670   5.913   3.918 -0.6252  0.5318  1.6489
 4623SOL    HW215311   7.636   5.775   3.867  0.7931  1.3229 -1.6808
 4624SOL     OW15312   7.745   6.363   3.064  0.6278  0.3709 -0.1351
 4624SOL    HW115313   7.655   6.352   3.095  0.4111  1.5723 -0.2901
 4624SOL    HW215314   7.773   6.274   3.042 -0.1572 -0.1626  0.8849
 4625SOL     OW15315   1.266   6.376   1.854  0.0354  0.3780  0.1589
 4625SOL    HW115316   1.317   6.449   1.889 -0.8371  1.1377 -0.0958
 4625SOL    HW215317   1.301   6.361   1.766  0.1623  0.5506  0.1803
 4626SOL     OW15318   1.726   3.901   1.794 -0.7231 -0.0479  0.8157
 4626SOL    HW115319   1.662   3.972   1.788 -0.4966  0.0123 -1.4532
 4626SOL    HW215320   1.806   3.944   1.825 -0.5601  0.7295 -0.6187
 4627SOL     OW15321   7.644   7.101   3.534  0.3049 -0.2577  0.1572
 4627SOL    HW115322   7.693   7.062   3.462  2.1268  1.7064  0.2601
 4627SOL    HW215323   7.600   7.177   3.494 -0.5579 -0.4863  0.6473
 4628SOL     OW15324   0.247   7.053   2.450 -0.3752 -0.0449  0.2626
 4628SOL    HW115325   0.193   7.004   2.513  0.5072  0.7482  1.7060
 4628SOL    HW215326   0.255   7.141   2.489  1.4427  0.0312 -0.1883
 4629SOL     OW15327   0.351   7.115   1.250  0.1072 -0.1182  0.3051
 4629SOL    HW115328   0.413   7.155   1.190 -3.9178  2.7532 -2.4831
 4629SOL    HW215329   0.343   7.025   1.219  1.1642  0.1149 -0.7150
 4630SOL     OW15330   6.815   6.274   4.372  0.2249  0.5799  0.3148
 4630SOL    HW115331   6.821   6.226   4.455  1.4912 -0.2746 -0.2327
 4630SOL    HW215332   6.723   6.271   4.348 -0.1353  0.7176  1.6101
 4631SOL     OW15333   0.382   4.597   2.742  0.5773 -0.0011 -0.0222
 4631SOL    HW115334   0.337   4.639   2.669 -0.0107 -1.7716 -0.7440
 4631SOL    HW215335   0.312   4.556   2.793  1.1838 -0.9549  0.0707
 4632SOL     OW15336   0.742   6.779   2.881 -0.2038 -0.2144  0.7702
 4632SOL    HW115337   0.709   6.725   2.809  0.2522  0.7814 -0.1994
 4632SOL    HW215338   0.673   6.775   2.947 -0.3440 -1.6739  0.5734
 4633SOL     OW15339   1.335   6.883   3.223 -0.3780 -0.1053  0.9292
 4633SOL    HW115340   1.266   6.862   3.160  1.0370  0.1663 -0.7848
 4633SOL    HW215341   1.324   6.977   3.240  1.0384  0.5819 -1.3709
 4634SOL     OW15342   0.896   6.741   4.018 -0.3953 -0.0930  0.3163
 4634SOL    HW115343   0.810   6.700   4.010 -0.4843  0.3911 -2.2719
 4634SOL    HW215344   0.958   6.668   4.015 -0.6647 -0.3059 -1.0223
 4635SOL     OW15345   0.313   6.555   3.322  0.3357 -0.3083 -0.4435
 4635SOL    HW115346   0.390   6.601   3.355 -0.9270 -0.2846  2.8350
 4635SOL    HW215347   0.265   6.621   3.273  1.1123  0.3852 -0.3010
 4636SOL     OW15348   7.905   6.658   1.777  0.6566  0.0915  0.4130
 4636SOL    HW115349   7.856   6.692   1.852  0.8194  0.6254  0.2779
 4636SOL    HW215350   7.901   6.563   1.788 -0.9734  0.0927  0.0317
 4637SOL     OW15351   2.937   5.077   3.288  0.5516 -0.4106 -0.0813
 4637SOL    HW115352   2.954   5.031   3.371  1.2031 -1.3254 -0.7066
 4637SOL    HW215353   2.845   5.059   3.270  0.3276  0.0389  0.5909
 4638SOL     OW15354   2.438   7.501   2.732 -0.3511  0.1460  0.1297
 4638SOL    HW115355   2.502   7.509   2.660 -1.2115  1.2613 -0.5446
 4638SOL    HW215356   2.354   7.522   2.691 -1.4350 -2.7217  0.6518
 4639SOL     OW15357   7.778   6.531   1.461  0.2786  0.0150 -0.0976
 4639SOL    HW115358   7.861   6.542   1.414  0.0299  0.9668 -0.3317
 4639SOL    HW215359   7.761   6.437   1.457  1.4052 -0.2109  0.0530
 4640SOL     OW15360   0.098   6.697   3.213 -0.2273  0.1588 -0.2214
 4640SOL    HW115361   0.027   6.673   3.271  0.3132 -0.2021  0.3033
 4640SOL    HW215362   0.069   6.669   3.126 -0.2830 -0.9508  0.1433
 4641SOL     OW15363   6.953   5.201   3.352  0.1594 -0.5393 -0.3283
 4641SOL    HW115364   6.936   5.267   3.285  0.8471  0.0275  0.0372
 4641SOL    HW215365   6.990   5.250   3.425 -1.9124 -0.9054  1.0652
 4642SOL     OW15366   2.562   5.336   2.421 -0.0613  0.5292  0.0703
 4642SOL    HW115367   2.609   5.267   2.467 -1.8350 -0.6306  0.2304
 4642SOL    HW215368   2.472   5.329   2.453 -0.1006  3.7060  1.0029
 4643SOL     OW15369   1.850   7.384   3.893 -0.5904  0.2503 -0.4839
 4643SOL    HW115370   1.882   7.321   3.828  0.2247  0.7453 -0.5826
 4643SOL    HW215371   1.858   7.337   3.977  0.1168  0.2456 -0.5423
 4644SOL     OW15372   5.283   0.582   4.679 -0.4530 -0.0056 -0.7154
 4644SOL    HW115373   5.197   0.565   4.718 -1.7692  0.9590 -2.9900
 4644SOL    HW215374   5.318   0.495   4.660 -1.3890 -0.3930 -0.7102
 4645SOL     OW15375   7.168   6.479   3.544  0.5900 -0.0696 -0.4907
 4645SOL    HW115376   7.202   6.548   3.601  1.4528 -1.2199  0.4537
 4645SOL    HW215377   7.214   6.492   3.461  0.3128  0.8335 -0.5112
 4646SOL     OW15378   0.100   1.042   1.609 -0.5045  0.1341 -0.1323
 4646SOL    HW115379   0.144   1.119   1.644 -0.7517  0.0887  0.2950
 4646SOL    HW215380   0.120   0.973   1.672 -0.0847 -0.2129 -0.6371
 4647SOL     OW15381   1.392   5.448   2.227 -0.0082  0.3379 -0.3814
 4647SOL    HW115382   1.416   5.504   2.154  0.2242  1.3829  0.4755
 4647SOL    HW215383   1.454   5.376   2.223 -0.1506  0.2559 -1.3438
 4648SOL     OW15384   7.085   5.473   3.353  0.5456 -0.3615  0.0845
 4648SOL    HW115385   7.033   5.464   3.273 -1.1697  1.9085  0.8422
 4648SOL    HW215386   7.026   5.513   3.416  2.2695 -0.7903  2.0837
 4649SOL     OW15387   7.070   6.780   4.131  0.4672  0.1896  0.2094
 4649SOL    HW115388   6.998   6.717   4.127 -0.5365  1.3242 -0.0955
 4649SOL    HW215389   7.049   6.835   4.206  1.9741 -0.5632  1.2252
 4650SOL     OW15390   2.193   6.521   2.027  0.2949 -0.0094  0.0804
 4650SOL    HW115391   2.126   6.453   2.016 -0.7882  0.6861  1.8577
 4650SOL    HW215392   2.161   6.595   1.975 -0.1684  0.2003  0.6474
 4651SOL     OW15393   7.937   7.089   3.109 -0.4847 -0.0384  0.0016
 4651SOL    HW115394   7.892   7.173   3.100  0.8060  0.5978 -0.8725
 4651SOL    HW215395   8.024   7.105   3.074  0.4398 -1.2287  1.6178
 4652SOL     OW15396   2.082   6.077   0.996 -0.1071  0.1160  0.2811
 4652SOL    HW115397   2.049   6.035   0.917 -0.4867  1.5942 -0.3900
 4652SOL    HW215398   2.177   6.082   0.983 -0.0552 -0.5111  0.3784
 4653SOL     OW15399   2.237   7.366   3.000 -0.1067 -0.4682 -0.2820
 4653SOL    HW115400   2.300   7.298   2.974 -1.0279 -2.4891  2.2504
 4653SOL    HW215401   2.246   7.372   3.095 -0.8869  2.2154 -0.2892
 4654SOL     OW15402   1.447   7.640   4.056 -0.0715  0.4120  0.0719
 4654SOL    HW115403   1.503   7.676   4.125 -0.0415  1.3403 -0.4163
 4654SOL    HW215404   1.504   7.581   4.007  0.0180  0.0685  0.5750
 4655SOL     OW15405   7.121   7.693   3.376  0.5472 -0.3127 -0.5110
 4655SOL    HW115406   7.051   7.740   3.421  0.6312  0.1830 -0.8875
 4655SOL    HW215407   7.193   7.756   3.372  0.5931 -0.4031 -1.1963
 4656SOL     OW15408   0.351   5.427   0.866 -0.2893 -0.4452 -0.0104
 4656SOL    HW115409   0.329   5.458   0.779 -1.4682 -3.0187 -0.7266
 4656SOL    HW215410   0.269   5.432   0.916 -0.4534 -2.0037 -0.0732
 4657SOL     OW15411   7.726   7.708   2.187 -0.7472  0.1679  0.2757
 4657SOL    HW115412   7.732   7.618   2.218 -1.5033 -0.1430 -0.4275
 4657SOL    HW215413   7.683   7.701   2.101  1.2208  0.9826 -0.8477
 4658SOL     OW15414   0.529   6.775   3.072  0.1197 -0.0345  0.4628
 4658SOL    HW115415   0.454   6.771   3.013 -1.1930  0.0389  2.0448
 4658SOL    HW215416   0.497   6.734   3.153  1.4863  0.8295  1.4742
 4659SOL     OW15417   0.198   7.091   3.047 -0.0307 -0.1258 -0.4162
 4659SOL    HW115418   0.204   7.042   3.129 -1.8258  3.2474  1.9866
 4659SOL    HW215419   0.279   7.141   3.043 -0.1881  0.1372 -0.3659
 4660SOL     OW15420   1.473   4.914   1.443  0.2272  0.5328 -0.4407
 4660SOL    HW115421   1.391   4.937   1.398 -0.2020 -0.3594 -0.1456
 4660SOL    HW215422   1.503   4.835   1.398  0.2369  0.1105  0.2974
 4661SOL     OW15423   0.782   7.514   2.954 -0.3321 -0.5953  0.1365
 4661SOL    HW115424   0.863   7.516   2.903 -0.8331 -0.1922 -0.6637
 4661SOL    HW215425   0.794   7.441   3.014  0.7583 -0.3455  0.2571
 4662SOL     OW15426   0.009   7.664   3.241 -0.0517  0.1229  0.0393
 4662SOL    HW115427  -0.085   7.681   3.243  0.2466  1.8729  0.4159
 4662SOL    HW215428   0.045   7.737   3.190  1.2420  0.2527  1.1008
 4663SOL     OW15429   0.332   0.044   1.867  0.5341  0.4413 -0.2862
 4663SOL    HW115430   0.278   0.041   1.947 -1.0846  0.5598 -1.3222
 4663SOL    HW215431   0.277   0.091   1.804  2.0518  0.9175 -1.2845
 4664SOL     OW15432   2.912   4.351   2.022  0.5193 -0.0667 -0.5763
 4664SOL    HW115433   2.987   4.408   2.040  0.5037 -0.1868 -0.1401
 4664SOL    HW215434   2.866   4.344   2.105 -0.0766  0.1475 -0.8791
 4665SOL     OW15435   1.479   7.151   3.056  0.4070 -0.4913  0.4340
 4665SOL    HW115436   1.498   7.244   3.068 -1.4699  0.1763 -1.1382
 4665SOL    HW215437   1.384   7.145   3.059  0.3483 -1.9639 -1.6409
 4666SOL     OW15438   6.829   7.284   3.621  0.0374 -0.0309  0.6870
 4666SOL    HW115439   6.745   7.243   3.641  0.5693  0.0532  3.5180
 4666SOL    HW215440   6.815   7.377   3.636  0.2668  0.1635 -0.2641
 4667SOL     OW15441   0.674   0.157   2.021 -0.0549 -0.3769 -0.5933
 4667SOL    HW115442   0.587   0.181   2.055 -0.0888  0.8012 -1.4359
 4667SOL    HW215443   0.676   0.194   1.932  2.6962  3.1795  0.6805
 4668SOL     OW15444   7.461   5.062   3.599  0.0490 -0.6865 -0.6862
 4668SOL    HW115445   7.466   5.145   3.647 -1.7579 -0.7628 -0.2972
 4668SOL    HW215446   7.501   4.998   3.658  0.6583 -0.2504 -0.6183
 4669SOL     OW15447   0.603   7.942   1.381 -0.2284  0.3325  0.0628
 4669SOL    HW115448   0.600   7.864   1.436 -0.4812  0.7679  0.6847
 4669SOL    HW215449   0.621   7.909   1.293  1.4721 -0.2792  0.6009
 4670SOL     OW15450   3.312   6.138   3.679 -0.2819  0.2547 -0.0205
 4670SOL    HW115451   3.343   6.079   3.748  0.0359  1.1919  0.6599
 4670SOL    HW215452   3.249   6.086   3.630  3.2324 -2.2223 -2.3496
 4671SOL     OW15453   1.099   7.059   2.108 -0.5504 -0.1242 -0.0187
 4671SOL    HW115454   1.043   7.114   2.163 -1.1965 -0.8286  0.0540
 4671SOL    HW215455   1.157   7.015   2.170  0.0528  0.5520 -0.0875
 4672SOL     OW15456   0.702   0.002   4.256 -0.3305  0.3754  0.0254
 4672SOL    HW115457   0.616  -0.001   4.298  0.3582  1.5771  1.5852
 4672SOL    HW215458   0.697   0.076   4.196 -0.3534  0.4930  0.1734
 4673SOL     OW15459   0.920   7.293   2.758  0.4044  0.4014 -0.2024
 4673SOL    HW115460   0.959   7.251   2.682 -1.4871  2.1095 -2.2792
 4673SOL    HW215461   0.987   7.353   2.790  1.0617  0.0109 -0.8255
 4674SOL     OW15462   1.809   7.828   4.049 -0.7475 -0.2248 -0.1814
 4674SOL    HW115463   1.781   7.809   4.139 -0.4774 -1.2971 -0.3198
 4674SOL    HW215464   1.844   7.746   4.016  3.9177  1.2635  0.4002
 4675SOL     OW15465   6.299   6.310   0.429 -0.5931 -0.3647  0.4188
 4675SOL    HW115466   6.276   6.223   0.395  0.7702 -0.9028  0.8161
 4675SOL    HW215467   6.343   6.292   0.512 -0.1699  0.7102  0.4340
 4676SOL     OW15468   1.507   6.687   2.967 -0.2746  0.1669  0.1372
 4676SOL    HW115469   1.485   6.654   3.054  0.0305 -0.2041  0.0782
 4676SOL    HW215470   1.461   6.628   2.907 -2.4691  1.8349  0.0503
 4677SOL     OW15471   0.885   6.705   3.106  0.6339  0.2387 -0.6716
 4677SOL    HW115472   0.914   6.614   3.100  1.4019  0.3220  1.1259
 4677SOL    HW215473   0.834   6.720   3.027  1.3643 -1.4421 -1.4910
 4678SOL     OW15474   1.087   5.087   3.954 -0.2018  0.1289 -0.0182
 4678SOL    HW115475   1.053   5.006   3.915  0.9687 -0.4559  0.1200
 4678SOL    HW215476   1.081   5.152   3.885 -1.4274  0.0069 -0.0455
 4679SOL     OW15477   0.741   0.268   2.302  0.3023 -0.1979 -0.6012
 4679SOL    HW115478   0.739   0.327   2.377  2.6976 -0.9057  0.0877
 4679SOL    HW215479   0.822   0.219   2.311 -0.9003 -2.6505 -1.8987
 4680SOL     OW15480   1.168   3.609   1.869  0.0772 -0.2942  0.0657
 4680SOL    HW115481   1.190   3.528   1.916  1.5788 -1.3341 -2.2280
 4680SOL    HW215482   1.252   3.639   1.833 -0.6804  1.5572 -0.2335
 4681SOL     OW15483   7.922   5.974   3.686  0.2986  0.9527 -0.1338
 4681SOL    HW115484   7.959   5.973   3.598 -1.0941 -0.8725 -0.7675
 4681SOL    HW215485   7.859   6.046   3.684  0.9879  1.5748 -0.2701
 4682SOL     OW15486   2.519   6.986   3.376 -0.3859 -0.4535 -0.3412
 4682SOL    HW115487   2.573   7.005   3.299 -1.8596  0.7216 -1.1241
 4682SOL    HW215488   2.526   7.065   3.430 -0.9022 -0.5010 -0.1997
 4683SOL     OW15489   0.129   6.711   1.650  0.3534 -0.7357 -0.3017
 4683SOL    HW115490   0.048   6.682   1.694  0.2245 -2.2406 -1.4383
 4683SOL    HW215491   0.123   6.806   1.649  0.2631 -0.6224  2.6998
 4684SOL     OW15492   1.234   6.002   2.689  0.2139 -0.7401 -0.5987
 4684SOL    HW115493   1.327   6.002   2.664 -0.2001  1.2879 -2.4645
 4684SOL    HW215494   1.227   5.934   2.756  2.8538 -1.6092 -1.0856
 4685SOL     OW15495   0.265   5.410   5.061  0.6741  0.2797 -0.3043
 4685SOL    HW115496   0.194   5.375   5.007 -0.3917  1.6009  0.1795
 4685SOL    HW215497   0.236   5.499   5.084  1.7209  0.2482  1.3077
 4686SOL     OW15498   7.031   6.683   1.514 -0.5458 -0.0765 -0.0875
 4686SOL    HW115499   6.959   6.744   1.498 -0.6578 -0.1884 -0.0023
 4686SOL    HW215500   7.023   6.619   1.444  0.2347  0.6198 -0.8468
 4687SOL     OW15501   1.451   6.967   2.100  0.3396 -0.1465 -0.5454
 4687SOL    HW115502   1.513   7.032   2.132  2.3174 -1.0829 -2.2950
 4687SOL    HW215503   1.434   6.992   2.009 -2.0537  0.1834 -0.0828
 4688SOL     OW15504   6.803   4.982   3.422  0.5589  0.1754 -0.1125
 4688SOL    HW115505   6.830   4.978   3.514 -2.4139 -0.2404  0.8536
 4688SOL    HW215506   6.844   5.061   3.388  1.4453  0.5307  1.6743
 4689SOL     OW15507   7.769   6.867   0.847  0.4116  0.8161 -0.0111
 4689SOL    HW115508   7.769   6.954   0.885 -2.4174  0.2443  1.5778
 4689SOL    HW215509   7.683   6.858   0.807  1.1265 -0.7946 -1.2798
 4690SOL     OW15510   0.064   6.985   4.290  0.4419 -0.5678 -0.1705
 4690SOL    HW115511   0.154   6.957   4.275  0.4861 -0.1008 -0.8090
 4690SOL    HW215512   0.022   6.909   4.331  1.1970 -0.6795  0.4171
 4691SOL     OW15513   7.539   6.018   3.197  0.1279 -0.5349 -0.0310
 4691SOL    HW115514   7.520   5.998   3.106  0.9977 -0.1419 -0.3046
 4691SOL    HW215515   7.608   5.957   3.222 -0.4712 -0.9953  0.5280
 4692SOL     OW15516   3.240   7.880   3.418 -0.3786 -0.3774 -0.0804
 4692SOL    HW115517   3.256   7.883   3.512 -1.5518 -0.1769  0.1282
 4692SOL    HW215518   3.272   7.794   3.391  2.8190  0.6871 -0.0975
 4693SOL     OW15519   1.557   4.597   1.450  0.3226 -0.3562 -0.1046
 4693SOL    HW115520   1.643   4.624   1.481  0.0413  1.0383 -0.4588
 4693SOL    HW215521   1.557   4.620   1.357 -0.3966 -0.4260 -0.1255
 4694SOL     OW15522   7.912   0.104   3.420 -0.2684  0.0947  0.9023
 4694SOL    HW115523   7.857   0.153   3.481  0.4341 -0.5828  2.1175
 4694SOL    HW215524   7.967   0.049   3.476 -0.0759 -1.0657 -0.3709
 4695SOL     OW15525   1.700   7.291   1.323  0.2345 -0.1228 -0.1657
 4695SOL    HW115526   1.617   7.310   1.278  1.2361  2.6747 -1.0109
 4695SOL    HW215527   1.766   7.294   1.254  1.2039 -1.2214  0.6762
 4696SOL     OW15528   1.259   3.955   3.402 -0.1815  0.1843  0.3433
 4696SOL    HW115529   1.272   3.979   3.310  1.6161 -1.6789  0.0373
 4696SOL    HW215530   1.166   3.934   3.408 -0.3440  0.3855 -1.0458
 4697SOL     OW15531   1.470   6.030   2.544 -0.0010 -0.3767 -0.0602
 4697SOL    HW115532   1.513   5.949   2.519  2.9933  1.5468 -1.8017
 4697SOL    HW215533   1.438   6.067   2.462  1.0274  1.3413  0.2464
 4698SOL     OW15534   0.924   5.106   1.295 -0.8181 -0.0906  0.2507
 4698SOL    HW115535   0.893   5.070   1.212 -1.2534  0.4100  0.1904
 4698SOL    HW215536   1.005   5.059   1.313 -0.3409  0.2843 -0.8110
 4699SOL     OW15537   0.972   5.322   2.429 -0.3553 -0.3180 -0.2579
 4699SOL    HW115538   0.928   5.401   2.397  0.1240  0.3613  0.7230
 4699SOL    HW215539   0.940   5.311   2.518  1.1582 -0.0261  0.3408
 4700SOL     OW15540   7.936   7.642  12.257 -0.5162 -0.0303  0.2400
 4700SOL    HW115541   7.914   7.721  12.209 -0.7348 -0.9803 -1.2927
 4700SOL    HW215542   7.960   7.673  12.345 -3.2081  1.5047  0.5508
 4701SOL     OW15543   0.431   0.158   2.169  0.0768  0.2410 -0.4285
 4701SOL    HW115544   0.410   0.065   2.178 -0.0056  0.1824 -1.1954
 4701SOL    HW215545   0.444   0.188   2.259  1.7397 -0.8754 -0.2459
 4702SOL     OW15546   3.043   4.822   2.632  0.1206  0.1908  0.2800
 4702SOL    HW115547   3.127   4.808   2.676  0.8091  1.0190 -0.7030
 4702SOL    HW215548   2.991   4.872   2.694  0.0721 -0.9447  1.1894
 4703SOL     OW15549   0.815   0.350  12.128 -0.5210  0.0186 -0.0449
 4703SOL    HW115550   0.891   0.359  12.185 -0.1677  0.7517 -0.6307
 4703SOL    HW215551   0.768   0.274  12.164 -1.0497  1.2654  2.0688
 4704SOL     OW15552   1.183   5.259   3.087 -0.5889 -0.0675  0.5809
 4704SOL    HW115553   1.188   5.281   3.181  0.4889 -2.0816  1.0516
 4704SOL    HW215554   1.211   5.339   3.042  0.9130  0.3037  2.0713
 4705SOL     OW15555   7.195   7.604   3.137  0.1593 -0.0777  0.1652
 4705SOL    HW115556   7.130   7.544   3.101  0.3090 -0.7926  1.0475
 4705SOL    HW215557   7.172   7.612   3.229  1.7043 -0.8990  0.6656
 4706SOL     OW15558   8.000   3.872   2.193  0.0698 -0.1324 -0.0251
 4706SOL    HW115559   7.936   3.944   2.195  0.3947  0.1929  3.1476
 4706SOL    HW215560   8.079   3.913   2.158 -0.4615  0.3606 -0.6951
 4707SOL     OW15561   7.311   7.484   2.215  0.0898 -0.8278  0.2216
 4707SOL    HW115562   7.359   7.532   2.282 -0.2998  1.5031 -1.0451
 4707SOL    HW215563   7.378   7.458   2.151 -0.1160  1.9711 -1.2821
 4708SOL     OW15564   1.946   5.814   1.476 -0.2054 -0.2460 -0.5116
 4708SOL    HW115565   1.983   5.816   1.388 -1.9811 -0.5892 -1.3003
 4708SOL    HW215566   2.018   5.783   1.532  2.4910  4.1513 -0.9893
 4709SOL     OW15567   7.676   5.004   3.275  0.5868  0.1591 -0.1974
 4709SOL    HW115568   7.771   5.004   3.262  0.8545  1.1668  1.4469
 4709SOL    HW215569   7.657   5.089   3.313 -1.0298  0.0548 -0.6942
 4710SOL     OW15570   7.530   7.356   3.464 -0.5955  0.3676  0.1301
 4710SOL    HW115571   7.442   7.363   3.501 -0.2434  0.7075  0.9276
 4710SOL    HW215572   7.543   7.439   3.418 -0.0914  1.0188  1.3935
 4711SOL     OW15573   0.456   5.795   2.734 -0.4421  0.1335 -0.2609
 4711SOL    HW115574   0.536   5.744   2.718 -1.1269 -0.8363 -0.7038
 4711SOL    HW215575   0.487   5.882   2.757  0.7357 -0.1268 -0.8146
 4712SOL     OW15576   7.741   5.778   3.546 -0.4986 -0.8808 -0.3845
 4712SOL    HW115577   7.800   5.845   3.579 -2.3469  0.0554  1.2150
 4712SOL    HW215578   7.663   5.784   3.602 -2.4234 -1.5769 -2.7707
 4713SOL     OW15579   1.689   3.940   3.271  0.6617  0.3489 -0.3395
 4713SOL    HW115580   1.731   3.938   3.357  0.7309 -2.0433 -0.3381
 4713SOL    HW215581   1.618   3.875   3.278 -0.4108  1.3395 -1.5882
 4714SOL     OW15582   0.437   5.258   2.005  0.0435 -0.1816 -0.5971
 4714SOL    HW115583   0.362   5.308   1.971  0.0375 -0.3025 -0.7638
 4714SOL    HW215584   0.498   5.325   2.035 -0.2544 -0.0880 -0.1969
 4715SOL     OW15585   2.227   5.340   0.989  0.0950 -0.0303 -0.6098
 4715SOL    HW115586   2.274   5.257   0.996  1.2634  0.7409  1.7368
 4715SOL    HW215587   2.292   5.401   0.953  0.1906  0.4923  0.4092
 4716SOL     OW15588   0.994   7.501   4.340  0.4703  0.2568 -0.0275
 4716SOL    HW115589   1.065   7.520   4.279 -1.4290  0.5674 -2.2336
 4716SOL    HW215590   0.932   7.449   4.290 -1.0907  0.3726  1.6923
 4717SOL     OW15591   1.079   4.371   2.174  0.1378 -0.2056  0.4871
 4717SOL    HW115592   1.034   4.353   2.091  1.5874  0.6662 -0.5324
 4717SOL    HW215593   1.154   4.312   2.174  2.2149  2.2568 -0.6258
 4718SOL     OW15594   2.648   4.514   3.889  0.0029 -0.2469 -0.0365
 4718SOL    HW115595   2.654   4.447   3.821  0.3950  0.3303 -0.5829
 4718SOL    HW215596   2.696   4.477   3.963 -0.7428 -1.0398  0.0682
 4719SOL     OW15597   3.113   4.256   2.731 -0.1019  0.7311  0.6788
 4719SOL    HW115598   3.096   4.264   2.637 -0.8380 -0.3171  0.6989
 4719SOL    HW215599   3.041   4.201   2.763  0.9289 -0.1152  1.5940
 4720SOL     OW15600   0.619   5.906   1.438 -0.4941 -0.4792  0.4122
 4720SOL    HW115601   0.646   5.967   1.506  0.5124 -1.3260  0.8053
 4720SOL    HW215602   0.699   5.887   1.390 -1.4251  1.2065 -1.9876
 4721SOL     OW15603   2.049   6.127   2.080  0.0749  0.3645 -0.4574
 4721SOL    HW115604   2.035   6.044   2.035 -1.3363  0.9302 -1.0977
 4721SOL    HW215605   2.020   6.193   2.018 -0.3384  1.2521  0.6551
 4722SOL     OW15606   7.043   7.245   2.987  0.3338 -0.4164  0.7383
 4722SOL    HW115607   7.096   7.223   3.063  0.1664 -0.1773  0.9281
 4722SOL    HW215608   7.003   7.330   3.009  1.3815  0.3544 -0.1733
 4723SOL     OW15609   0.250   5.802   6.586 -0.0216  0.6252 -0.0476
 4723SOL    HW115610   0.185   5.748   6.540 -0.3891  0.0097  1.1659
 4723SOL    HW215611   0.309   5.832   6.516 -1.1578  0.5787 -1.0726
 4724SOL     OW15612   6.996   6.132   4.591 -0.5554  0.9861 -0.2880
 4724SOL    HW115613   6.954   6.119   4.676 -1.8047  1.0483 -0.8856
 4724SOL    HW215614   6.978   6.052   4.543  1.6759  0.1803  0.0861
 4725SOL     OW15615   6.966   6.130   3.902 -0.0163  0.3234 -0.2885
 4725SOL    HW115616   6.980   6.049   3.950 -0.2889  0.4399 -0.0060
 4725SOL    HW215617   6.936   6.192   3.968 -2.7698 -0.1539 -0.9767
 4726SOL     OW15618   1.786   7.026   3.967  0.0669 -0.5403 -0.5507
 4726SOL    HW115619   1.760   6.939   3.997  0.0744 -0.6524 -0.8598
 4726SOL    HW215620   1.830   7.066   4.042  0.4721 -0.9771 -0.5499
 4727SOL     OW15621   0.632   5.948   5.635  0.0439  0.3488  0.0856
 4727SOL    HW115622   0.604   5.868   5.679 -0.7635  1.4577  1.7104
 4727SOL    HW215623   0.582   5.950   5.553  1.9256 -1.9994 -1.2526
 4728SOL     OW15624   7.825   5.533   3.463 -0.4810  0.7042 -0.5163
 4728SOL    HW115625   7.804   5.626   3.466 -2.6719  0.2220  1.2626
 4728SOL    HW215626   7.851   5.510   3.552 -0.6903 -0.5329 -0.7459
 4729SOL     OW15627   0.567   7.821   6.091 -0.3107  0.0185  0.3066
 4729SOL    HW115628   0.497   7.771   6.048 -1.2898  0.3236  1.4914
 4729SOL    HW215629   0.580   7.897   6.034 -1.5586  0.3946  0.4911
 4730SOL     OW15630   1.056   6.568   6.998 -0.0905 -0.4909  0.2897
 4730SOL    HW115631   1.065   6.620   6.918 -1.5501 -0.3626  0.1914
 4730SOL    HW215632   1.142   6.527   7.010 -0.4832 -2.4165 -2.6567
 4731SOL     OW15633   0.755   6.053   4.093  0.0294  0.2061  0.1750
 4731SOL    HW115634   0.796   6.102   4.164  1.2028  1.1363 -1.0910
 4731SOL    HW215635   0.666   6.089   4.087  0.8847  2.3364 -0.7691
 4732SOL     OW15636   1.597   7.229   5.076  0.2515  0.1905  0.4893
 4732SOL    HW115637   1.673   7.188   5.036  1.5127 -0.1983  3.0610
 4732SOL    HW215638   1.632   7.302   5.127 -1.1826  0.4802  1.1316
 4733SOL     OW15639   7.661   7.859   4.887 -0.2877  0.3918  0.0175
 4733SOL    HW115640   7.648   7.850   4.981  0.1098 -2.3505 -0.1062
 4733SOL    HW215641   7.590   7.917   4.859 -0.8655  0.6638  1.8848
 4734SOL     OW15642   0.257   7.750   4.287  0.1564  0.1141 -0.1160
 4734SOL    HW115643   0.186   7.754   4.352  0.1457 -0.2488 -0.1010
 4734SOL    HW215644   0.227   7.805   4.215 -0.0487  0.1279 -0.0213
 4735SOL     OW15645   0.703   4.810   7.057 -0.2195  0.4533 -0.0127
 4735SOL    HW115646   0.760   4.839   7.129  1.3352  0.3447 -1.1510
 4735SOL    HW215647   0.636   4.878   7.052  0.4255  1.1740  0.6702
 4736SOL     OW15648   2.301   7.675   3.969 -0.4616  0.4937 -0.4677
 4736SOL    HW115649   2.337   7.734   4.035  0.5126 -0.6759  0.0869
 4736SOL    HW215650   2.215   7.651   4.004  1.3501 -2.8797  2.3671
 4737SOL     OW15651   6.650   6.878   3.016  0.0326 -0.1326  0.1906
 4737SOL    HW115652   6.717   6.862   3.083  0.2581 -0.1644 -0.0405
 4737SOL    HW215653   6.637   6.973   3.017 -0.6887 -0.2283  0.9710
 4738SOL     OW15654   2.960   6.788   5.747  0.1349  0.5588  0.0321
 4738SOL    HW115655   2.954   6.700   5.711  0.5095  0.3197  0.5473
 4738SOL    HW215656   3.020   6.780   5.821 -2.8930  0.3694  2.6869
 4739SOL     OW15657   6.820   7.917   4.647 -0.5424 -0.2213  0.5137
 4739SOL    HW115658   6.757   7.860   4.691 -0.9388  0.2390  0.5641
 4739SOL    HW215659   6.793   8.006   4.673 -0.0606 -0.0055  0.2829
 4740SOL     OW15660   0.922   7.393   3.284 -0.6685 -0.1421  0.2224
 4740SOL    HW115661   0.851   7.362   3.227  0.5559 -0.1055 -1.3898
 4740SOL    HW215662   0.920   7.333   3.359 -2.6273  0.1071  0.4266
 4741SOL     OW15663   0.441   5.544   3.665 -0.1907 -0.5879  0.0902
 4741SOL    HW115664   0.536   5.545   3.654 -0.3192 -1.3863 -1.3459
 4741SOL    HW215665   0.421   5.630   3.701  1.0324 -0.2075 -0.0797
 4742SOL     OW15666   2.088   5.828   4.557 -0.1305 -0.1228 -0.6611
 4742SOL    HW115667   2.076   5.822   4.652 -1.3763  0.9612 -0.7081
 4742SOL    HW215668   2.104   5.921   4.541 -0.1590 -0.2611 -1.5240
 4743SOL     OW15669   0.127   4.486   4.011  0.0230 -0.3957  0.3313
 4743SOL    HW115670   0.184   4.475   4.087 -1.7718 -2.4347  1.4870
 4743SOL    HW215671   0.062   4.549   4.039  0.4587  0.3138 -0.2296
 4744SOL     OW15672   0.501   6.155   5.091 -0.3290  0.4457  0.1194
 4744SOL    HW115673   0.592   6.134   5.114 -0.3907  0.7867  0.6976
 4744SOL    HW215674   0.496   6.138   4.997  0.2886  0.2634  0.1103
 4745SOL     OW15675   2.649   5.920   1.988 -0.1784 -0.1458  0.6219
 4745SOL    HW115676   2.568   5.870   1.992 -1.1960  1.2829 -0.8418
 4745SOL    HW215677   2.637   5.989   2.053 -0.6886  0.7732 -0.4117
 4746SOL     OW15678   7.366   7.880   2.730  0.3520 -0.0138 -0.3313
 4746SOL    HW115679   7.317   7.800   2.748  0.8146 -0.6839 -1.8729
 4746SOL    HW215680   7.308   7.931   2.673  1.2309 -0.6520 -1.8698
 4747SOL     OW15681   1.532   5.808   6.049  0.3532  0.0509  0.2892
 4747SOL    HW115682   1.565   5.874   5.988  0.1232  0.6740  0.8243
 4747SOL    HW215683   1.602   5.799   6.114  1.3983 -1.9197 -0.9824
 4748SOL     OW15684   0.817   5.448   3.178 -0.2638  0.4342 -0.4967
 4748SOL    HW115685   0.906   5.485   3.178 -0.7175  1.5616 -0.9812
 4748SOL    HW215686   0.778   5.482   3.259  0.0010 -0.7389  0.1431
 4749SOL     OW15687   0.816   7.391   3.762  0.0144  0.3119 -0.5345
 4749SOL    HW115688   0.746   7.326   3.774 -0.5139  1.0557  0.5238
 4749SOL    HW215689   0.897   7.341   3.777 -0.3921 -0.0801  0.4163
 4750SOL     OW15690   0.715   6.230   4.337 -0.1528 -0.1172 -0.2556
 4750SOL    HW115691   0.741   6.305   4.285 -1.7625 -0.2892 -1.3858
 4750SOL    HW215692   0.633   6.257   4.379  0.3673 -0.5000  1.0578
 4751SOL     OW15693   2.419   7.369   4.647 -0.1228  1.0596  0.0075
 4751SOL    HW115694   2.444   7.277   4.660 -2.1351  0.0794 -2.2273
 4751SOL    HW215695   2.491   7.405   4.594  0.5752  0.7534  0.7138
 4752SOL     OW15696   1.503   4.664   6.221  0.4371  0.4690  0.6228
 4752SOL    HW115697   1.579   4.631   6.269  1.1868  1.6925  0.3394
 4752SOL    HW215698   1.540   4.724   6.157 -0.8848  2.9147  1.9846
 4753SOL     OW15699   0.293   7.774   3.606  0.2043  0.0810 -0.4811
 4753SOL    HW115700   0.365   7.806   3.661  1.0887  0.2204 -1.6756
 4753SOL    HW215701   0.285   7.682   3.627 -0.1537  0.3476  0.6082
 4754SOL     OW15702   2.027   6.689   4.282  0.3230 -0.0040 -0.9267
 4754SOL    HW115703   1.978   6.618   4.241 -0.1843  1.0768 -2.2751
 4754SOL    HW215704   2.118   6.657   4.284 -0.1845 -1.4744  0.3667
 4755SOL     OW15705   1.520   7.310   7.635 -0.4601  0.4497  0.0173
 4755SOL    HW115706   1.456   7.295   7.566  1.1393 -2.3314 -1.0490
 4755SOL    HW215707   1.520   7.228   7.686  0.7331  1.1812  1.2804
 4756SOL     OW15708   7.973   5.767   6.492  0.4569 -0.3314 -0.2658
 4756SOL    HW115709   7.963   5.857   6.462  2.0414 -0.5835 -1.7057
 4756SOL    HW215710   7.931   5.714   6.424 -0.8962 -0.6957  0.8057
 4757SOL     OW15711   1.633   0.166   4.708 -0.3990  0.0067  0.1914
 4757SOL    HW115712   1.561   0.131   4.761  0.7294 -0.7192  1.3079
 4757SOL    HW215713   1.698   0.096   4.708 -0.4248 -0.1016 -2.3804
 4758SOL     OW15714   2.701   6.629   3.923 -0.0688 -0.0178  0.6234
 4758SOL    HW115715   2.659   6.547   3.898  1.1269 -0.5793  0.3889
 4758SOL    HW215716   2.731   6.615   4.013  2.0902 -0.6800 -0.1462
 4759SOL     OW15717   0.807   5.599   4.694  0.4183  0.2608  0.2651
 4759SOL    HW115718   0.824   5.614   4.787  0.8630  2.1580 -0.0940
 4759SOL    HW215719   0.819   5.505   4.682  1.5316  0.1696  1.8907
 4760SOL     OW15720   0.617   5.774   6.535  0.6547  0.1566  0.1305
 4760SOL    HW115721   0.555   5.829   6.485  1.5490 -0.6392 -1.9624
 4760SOL    HW215722   0.562   5.707   6.576 -0.1010  0.7874  0.1781
 4761SOL     OW15723   1.870   7.201   4.142 -0.0621 -0.3376 -0.1838
 4761SOL    HW115724   1.819   7.261   4.196  1.7359  2.0528 -0.9601
 4761SOL    HW215725   1.948   7.182   4.194  0.3362 -0.3529 -0.7742
 4762SOL     OW15726   7.215   6.881   4.512 -0.0795 -0.1036 -0.2967
 4762SOL    HW115727   7.150   6.946   4.485  0.3937  1.1049  1.3361
 4762SOL    HW215728   7.183   6.799   4.475 -1.7358  0.7257 -0.7917
 4763SOL     OW15729   1.092   6.558   6.254 -0.4046  0.6186 -0.1815
 4763SOL    HW115730   1.086   6.614   6.177 -0.0942  0.4202 -0.3487
 4763SOL    HW215731   1.006   6.516   6.259 -0.8679  1.5671  0.3047
 4764SOL     OW15732   0.559   6.910   6.604 -0.1826  0.1457 -0.0567
 4764SOL    HW115733   0.535   6.895   6.513  1.9637  0.1953 -0.6918
 4764SOL    HW215734   0.560   6.823   6.644 -0.7152  0.0788 -0.1879
 4765SOL     OW15735   7.856   7.369   4.425 -0.1355  0.3030  0.3057
 4765SOL    HW115736   7.929   7.348   4.484  1.0040 -0.7691 -1.4197
 4765SOL    HW215737   7.871   7.460   4.401  0.4013  0.2266  0.3234
 4766SOL     OW15738   1.066   5.848   5.027  0.0537 -0.0078 -0.0707
 4766SOL    HW115739   0.989   5.884   5.072  0.1785  1.6396 -1.0908
 4766SOL    HW215740   1.068   5.894   4.943  3.0202  1.2369  0.5505
 4767SOL     OW15741   1.593   7.803   4.234  0.3892 -0.1429  0.2550
 4767SOL    HW115742   1.536   7.880   4.240 -0.2412 -0.6795  1.9646
 4767SOL    HW215743   1.647   7.807   4.313  1.1476 -0.8516 -0.2128
 4768SOL     OW15744   0.721   7.670   4.629 -0.6489  0.0532 -0.0262
 4768SOL    HW115745   0.778   7.621   4.688 -0.3178 -1.5744 -1.5875
 4768SOL    HW215746   0.633   7.659   4.665 -0.3533 -0.1577  0.6426
 4769SOL     OW15747   0.751   4.788   2.971 -0.2509  0.3765 -0.0886
 4769SOL    HW115748   0.699   4.751   2.899  0.3018 -0.9340  0.1495
 4769SOL    HW215749   0.830   4.734   2.974  0.3624  1.2877  0.6212
 4770SOL     OW15750   7.318   7.046   3.941 -0.5203 -0.1452  0.5794
 4770SOL    HW115751   7.262   6.982   3.895 -1.7746  1.6868 -0.5800
 4770SOL    HW215752   7.407   7.025   3.912 -0.9433 -1.1484 -0.0552
 4771SOL     OW15753   2.383   5.623   3.021 -0.5056 -0.5938  0.1942
 4771SOL    HW115754   2.342   5.700   2.982 -0.0656 -0.6914 -0.4715
 4771SOL    HW215755   2.324   5.551   2.999 -0.3733 -0.6135 -0.0936
 4772SOL     OW15756   1.156   5.621   4.103  0.8564  0.3746  0.0591
 4772SOL    HW115757   1.110   5.668   4.033  0.4722  0.7336  0.5448
 4772SOL    HW215758   1.238   5.670   4.114  0.9671  0.2538 -0.2080
 4773SOL     OW15759   7.782   7.390   3.583  0.3825  0.1695  0.0821
 4773SOL    HW115760   7.696   7.367   3.550  0.7226 -2.3485  0.8050
 4773SOL    HW215761   7.771   7.401   3.677  1.0034 -1.0794  0.3141
 4774SOL     OW15762   7.537   1.673   6.511 -0.7949 -0.9202  0.0997
 4774SOL    HW115763   7.589   1.645   6.436  0.5820 -1.8231  1.3249
 4774SOL    HW215764   7.599   1.673   6.584 -2.1317 -0.2553  1.2791
 4775SOL     OW15765   0.901   6.740   3.606 -0.4292  1.3689  0.2920
 4775SOL    HW115766   0.869   6.664   3.654 -0.3915  1.0442 -0.1882
 4775SOL    HW215767   0.882   6.720   3.514  3.0228  0.1606 -0.3034
 4776SOL     OW15768   1.072   6.484   2.838 -0.3863 -0.0358  0.1043
 4776SOL    HW115769   0.999   6.451   2.785 -0.0714 -1.0848  0.2893
 4776SOL    HW215770   1.055   6.450   2.926 -0.2969  0.7181  0.4151
 4777SOL     OW15771   0.417   5.051   2.769 -0.3207  0.2060  0.1445
 4777SOL    HW115772   0.438   5.144   2.762  3.2290 -0.5822 -2.4806
 4777SOL    HW215773   0.434   5.030   2.861 -1.4075  2.1055  0.8400
 4778SOL     OW15774   1.269   6.030   4.358  0.4619  0.5399  0.7685
 4778SOL    HW115775   1.185   6.053   4.317 -0.8225 -4.2267  0.1140
 4778SOL    HW215776   1.249   6.025   4.452 -0.3657 -1.3936  0.5445
 4779SOL     OW15777   0.475   7.022   4.464 -0.2142 -0.2543  0.0256
 4779SOL    HW115778   0.454   7.111   4.494  1.3036 -0.5595  2.2427
 4779SOL    HW215779   0.473   6.969   4.544  0.9237 -1.8061 -0.9224
 4780SOL     OW15780   0.078   7.713   4.491  0.2525  0.3580  0.4823
 4780SOL    HW115781   0.000   7.691   4.439  1.7033 -1.8688 -0.9270
 4780SOL    HW215782   0.089   7.638   4.551  1.3740  0.5604  0.5556
 4781SOL     OW15783   1.229   4.933   6.961 -0.3835 -0.3153 -0.1237
 4781SOL    HW115784   1.238   5.025   6.937  0.3005 -0.4489 -0.3853
 4781SOL    HW215785   1.314   4.910   6.998 -0.6127 -0.7959  0.1092
 4782SOL     OW15786   2.077   6.971   2.544  0.1822  0.2125  0.1579
 4782SOL    HW115787   2.133   6.945   2.617  0.3902 -0.8394 -0.3494
 4782SOL    HW215788   1.988   6.968   2.580  0.3054 -0.0260  0.4498
 4783SOL     OW15789   7.926   0.689   3.139 -0.1440 -0.3719 -0.3186
 4783SOL    HW115790   7.890   0.778   3.138 -1.6558 -0.9526 -1.2214
 4783SOL    HW215791   7.852   0.633   3.163  0.4678 -1.5109 -0.9775
 4784SOL     OW15792   1.577   6.289   3.117 -0.4925 -0.4316  0.5198
 4784SOL    HW115793   1.493   6.303   3.161 -0.4083 -0.7152  0.7753
 4784SOL    HW215794   1.624   6.371   3.126 -1.0658  0.0105 -0.3366
 4785SOL     OW15795   0.907   6.900   2.705 -0.2249 -0.0213 -0.4127
 4785SOL    HW115796   0.863   6.866   2.783 -0.9437  0.2585 -0.6879
 4785SOL    HW215797   1.000   6.882   2.720 -0.4619 -0.9405  0.0231
 4786SOL     OW15798   2.084   5.693   4.068  0.0162  0.4012  0.2629
 4786SOL    HW115799   2.070   5.742   4.149  0.3917  1.1134 -0.1001
 4786SOL    HW215800   2.163   5.642   4.084 -1.2314 -1.3512  1.2277
 4787SOL     OW15801   7.891   7.729   4.836 -0.2651 -0.7965 -0.1724
 4787SOL    HW115802   7.803   7.766   4.834 -0.7136 -1.7545  0.7650
 4787SOL    HW215803   7.905   7.706   4.928  0.3211 -2.1427 -0.5770
 4788SOL     OW15804   0.150   6.015   5.525  0.4856  0.1050  0.4880
 4788SOL    HW115805   0.188   5.978   5.606 -0.4523 -1.8880  0.0851
 4788SOL    HW215806   0.058   6.031   5.547  0.8253  2.2099  0.5975
 4789SOL     OW15807   0.081   6.958   3.533 -0.1251  0.3779 -0.3935
 4789SOL    HW115808   0.007   6.902   3.557 -0.3206  0.7225 -0.1919
 4789SOL    HW215809   0.083   7.025   3.601  1.7531 -0.8994  0.8946
 4790SOL     OW15810   7.755   5.297   6.166 -0.2408 -0.1001 -0.2935
 4790SOL    HW115811   7.819   5.230   6.141  0.6087  0.6680 -0.2355
 4790SOL    HW215812   7.749   5.290   6.261 -2.1009 -1.7992 -0.4787
 4791SOL     OW15813   0.552   6.671   3.768 -0.1117 -0.8169  0.9502
 4791SOL    HW115814   0.605   6.678   3.688 -0.3187 -2.0687  0.6916
 4791SOL    HW215815   0.480   6.733   3.754  0.0665 -0.7382  0.3465
 4792SOL     OW15816   7.105   5.833   4.268 -0.2975 -0.0909  0.0213
 4792SOL    HW115817   7.069   5.843   4.180 -1.4026  0.9104  0.5553
 4792SOL    HW215818   7.159   5.911   4.281 -0.1366 -0.2355  0.2301
 4793SOL     OW15819   0.419   0.125   3.899 -0.0509 -0.3224 -0.0571
 4793SOL    HW115820   0.453   0.089   3.817  0.2531 -1.0934  0.3926
 4793SOL    HW215821   0.436   0.056   3.964 -1.6842 -0.3829  0.3588
 4794SOL     OW15822   7.675   6.285   4.657  0.0592 -0.1653  0.3254
 4794SOL    HW115823   7.684   6.380   4.650  0.2012 -0.1886  0.1944
 4794SOL    HW215824   7.618   6.260   4.584  3.4182 -0.6977 -2.3746
 4795SOL     OW15825   1.024   5.144   6.473 -0.0150  0.2051 -0.1361
 4795SOL    HW115826   1.049   5.189   6.554 -1.9820 -2.3177  2.0394
 4795SOL    HW215827   1.056   5.054   6.484 -0.8982 -0.3739 -1.8708
 4796SOL     OW15828   0.534   7.254   4.054 -0.0963  0.3588 -0.1833
 4796SOL    HW115829   0.442   7.268   4.077 -0.3372 -0.3597 -0.6875
 4796SOL    HW215830   0.549   7.161   4.069  0.8154  0.6289  0.7686
 4797SOL     OW15831   0.352   7.601   4.529 -0.1509  0.0686  0.0469
 4797SOL    HW115832   0.277   7.658   4.508 -1.1261 -1.2010 -0.0445
 4797SOL    HW215833   0.389   7.640   4.608  0.7929  2.2839 -1.3936
 4798SOL     OW15834   1.515   5.483   3.961 -0.3611  0.2252  0.1158
 4798SOL    HW115835   1.497   5.390   3.949  1.5766 -0.6368  2.8599
 4798SOL    HW215836   1.567   5.507   3.884  1.8314 -1.8850  0.8073
 4799SOL     OW15837   2.157   6.862   4.674  0.3133  0.0758  0.0844
 4799SOL    HW115838   2.115   6.947   4.661 -0.1112 -0.1854 -0.2685
 4799SOL    HW215839   2.225   6.879   4.739  1.3802  1.0671 -1.2174
 4800SOL     OW15840   1.992   6.236   4.132  0.7358  0.2875 -0.2658
 4800SOL    HW115841   1.938   6.159   4.111  0.2642  0.4139  0.4507
 4800SOL    HW215842   2.060   6.201   4.191 -0.2975  0.6592  1.1859
 4801SOL     OW15843   1.021   5.906   4.360  0.3901 -0.1789  0.0564
 4801SOL    HW115844   0.955   5.946   4.417 -0.7511 -0.5714 -0.9258
 4801SOL    HW215845   0.970   5.854   4.297  1.6966 -1.2095 -0.2076
 4802SOL     OW15846   0.689   2.021   5.153 -0.0435 -0.5224  0.1187
 4802SOL    HW115847   0.673   2.053   5.064 -1.9151  0.9256  0.9153
 4802SOL    HW215848   0.659   1.930   5.150 -2.0996  0.1036 -0.2662
 4803SOL     OW15849   6.040   6.313   4.129  0.3317 -0.0895  0.0361
 4803SOL    HW115850   5.970   6.277   4.183 -0.9685  0.5684 -1.1391
 4803SOL    HW215851   6.052   6.248   4.059 -1.0376  1.0009 -1.2880
 4804SOL     OW15852   0.472   7.205   3.363  0.4405 -0.3273 -0.3114
 4804SOL    HW115853   0.482   7.153   3.283  0.8530 -0.8833  0.0950
 4804SOL    HW215854   0.383   7.239   3.358 -0.0767 -1.6108 -0.2816
 4805SOL     OW15855   0.801   7.219   4.459 -0.1544 -0.0802  0.2427
 4805SOL    HW115856   0.787   7.276   4.384 -0.8504 -0.9692 -0.3344
 4805SOL    HW215857   0.781   7.273   4.535 -0.1121  0.6358 -0.2439
 4806SOL     OW15858   0.504   6.182   4.114 -0.1557 -0.0257 -0.3974
 4806SOL    HW115859   0.410   6.197   4.110 -0.1837 -0.3357 -0.9533
 4806SOL    HW215860   0.538   6.255   4.166 -0.5176  0.9154 -1.4383
 4807SOL     OW15861   3.429   6.002   4.455  0.2211 -0.0922  0.3890
 4807SOL    HW115862   3.378   6.039   4.527  0.6250 -1.3011  1.3336
 4807SOL    HW215863   3.411   5.908   4.459 -0.3888 -0.1119 -1.6214
 4808SOL     OW15864   0.221   0.613   4.634  0.5302  0.5430 -0.1647
 4808SOL    HW115865   0.154   0.567   4.584 -0.4708  2.9951 -1.2123
 4808SOL    HW215866   0.301   0.561   4.620 -0.3517 -0.4407 -1.9101
 4809SOL     OW15867   2.776   7.176   4.436  0.0082  0.1361  0.2329
 4809SOL    HW115868   2.757   7.269   4.444  1.0890  0.2615  1.7164
 4809SOL    HW215869   2.715   7.145   4.369 -2.2311  1.3832  1.5666
 4810SOL     OW15870   0.407   5.398   4.184 -0.1616  0.3224 -0.4970
 4810SOL    HW115871   0.446   5.333   4.125  1.0359  1.0706 -0.5476
 4810SOL    HW215872   0.481   5.445   4.221 -0.8133 -0.6857  2.3312
 4811SOL     OW15873   0.449   0.050   3.379  0.3489 -0.5311  0.1537
 4811SOL    HW115874   0.427  -0.042   3.365 -0.6874 -0.1680 -0.6891
 4811SOL    HW215875   0.524   0.066   3.321 -0.4191 -0.4731 -0.8517
 4812SOL     OW15876   2.509   5.979   4.901  0.2236  0.4361 -0.0117
 4812SOL    HW115877   2.508   6.037   4.976  0.0971 -0.3385  0.5962
 4812SOL    HW215878   2.455   5.904   4.927  1.9401 -0.8739  0.0035
 4813SOL     OW15879   0.253   5.047   2.480 -0.8431 -0.3963  0.1740
 4813SOL    HW115880   0.270   5.053   2.386  0.6524 -1.0630  0.3605
 4813SOL    HW215881   0.169   5.091   2.493 -0.1391  1.4822 -1.1971
 4814SOL     OW15882   1.773   6.402   3.779  0.2740  0.1513  0.0286
 4814SOL    HW115883   1.798   6.466   3.847  1.2933  0.4448 -0.6074
 4814SOL    HW215884   1.855   6.376   3.740 -0.4037  1.8325 -2.7792
 4815SOL     OW15885   1.740   7.296   4.799  0.3199 -0.2121  0.0444
 4815SOL    HW115886   1.653   7.283   4.760  0.6227  1.7679 -1.4578
 4815SOL    HW215887   1.795   7.229   4.758 -0.0079  0.0281 -0.8236
 4816SOL     OW15888   1.649   0.561   4.787  0.7923 -0.2826 -0.2405
 4816SOL    HW115889   1.715   0.519   4.841  0.7793  0.1713  0.1367
 4816SOL    HW215890   1.596   0.612   4.848 -0.2075 -1.0074 -0.4680
 4817SOL     OW15891   1.174   1.468   4.949 -0.4742 -0.5723  0.3735
 4817SOL    HW115892   1.261   1.436   4.924 -0.6658  0.5847 -2.0940
 4817SOL    HW215893   1.188   1.560   4.972 -0.9308 -0.6107  0.8269
 4818SOL     OW15894   7.589   7.013   3.789  0.2720  0.4800  0.2689
 4818SOL    HW115895   7.599   7.079   3.721  2.0087 -0.4050 -0.3757
 4818SOL    HW215896   7.663   7.027   3.848  0.8426 -1.0663 -0.0499
 4819SOL     OW15897   1.710   6.764   3.581 -0.0241  0.2682 -0.3909
 4819SOL    HW115898   1.657   6.796   3.508  0.1959  2.0383  0.1911
 4819SOL    HW215899   1.800   6.777   3.553  0.1016 -0.7895 -0.5282
 4820SOL     OW15900   0.457   6.386   4.316  0.3602 -0.0309  0.0001
 4820SOL    HW115901   0.399   6.435   4.258  1.4456  0.6692 -0.5302
 4820SOL    HW215902   0.463   6.439   4.395 -2.5395 -1.8245  1.6040
 4821SOL     OW15903   1.903   0.378   5.196  0.0252 -0.0268 -0.4722
 4821SOL    HW115904   1.948   0.391   5.113  0.2131  1.4721 -0.1685
 4821SOL    HW215905   1.944   0.301   5.235  0.2345 -0.4759 -1.5622
 4822SOL     OW15906   0.650   7.000   3.463  0.0231  0.8513 -0.4687
 4822SOL    HW115907   0.690   6.994   3.550 -0.0018  0.6372 -0.4708
 4822SOL    HW215908   0.643   7.094   3.446 -2.7399  1.0577  1.0702
 4823SOL     OW15909   1.981   6.837   4.874  0.4056  0.6861  0.2424
 4823SOL    HW115910   2.021   6.827   4.787 -2.1122  2.9830 -1.3484
 4823SOL    HW215911   1.917   6.765   4.879  1.0998  0.0829  0.5600
 4824SOL     OW15912   2.124   5.909   4.813 -0.0067  0.1226  0.2748
 4824SOL    HW115913   2.160   5.827   4.847  0.3494 -0.1943 -0.8125
 4824SOL    HW215914   2.201   5.957   4.782 -0.3050  0.4479  0.0370
 4825SOL     OW15915   0.123   0.126   6.157  0.0948 -0.3808 -0.5249
 4825SOL    HW115916   0.109   0.041   6.199 -0.0379 -0.0754  0.0648
 4825SOL    HW215917   0.128   0.106   6.064 -1.9955 -0.7945 -0.5931
 4826SOL     OW15918   7.753   0.475   4.369 -0.6104 -0.3804 -0.1434
 4826SOL    HW115919   7.754   0.496   4.462  0.2846  0.3323 -0.3049
 4826SOL    HW215920   7.717   0.386   4.364  0.2907 -0.8116  0.9493
 4827SOL     OW15921   7.630   6.903   4.116 -0.0680 -0.3425  0.2051
 4827SOL    HW115922   7.660   6.990   4.141  0.1882  0.3575 -2.2411
 4827SOL    HW215923   7.537   6.902   4.138 -0.6807  1.5309 -1.8908
 4828SOL     OW15924   0.602   6.052   3.433 -0.7430  0.1634  0.6539
 4828SOL    HW115925   0.560   6.133   3.402 -0.7044 -0.2298 -0.4720
 4828SOL    HW215926   0.686   6.082   3.469 -0.7098  0.6289  0.2097
 4829SOL     OW15927   2.196   6.370   4.677 -0.0603  0.2675 -0.1621
 4829SOL    HW115928   2.101   6.372   4.687  0.0493  0.0629  1.0862
 4829SOL    HW215929   2.220   6.459   4.651 -0.7274 -0.0678 -2.0436
 4830SOL     OW15930   0.773   6.892   5.912 -0.3370 -0.1086  0.7177
 4830SOL    HW115931   0.849   6.879   5.855 -1.3782 -0.4436 -0.6563
 4830SOL    HW215932   0.750   6.984   5.900  0.3704  0.2408  1.8512
 4831SOL     OW15933   7.113   1.136   4.662 -0.2685  0.4704  0.2381
 4831SOL    HW115934   7.025   1.139   4.623 -1.0229  1.2210  1.8730
 4831SOL    HW215935   7.138   1.228   4.671  0.5612  0.2675  0.0785
 4832SOL     OW15936   0.300   0.128   4.999 -0.2623 -0.2030 -0.3366
 4832SOL    HW115937   0.268   0.213   5.028  0.1915  0.0722 -0.6157
 4832SOL    HW215938   0.394   0.142   4.984  0.5612 -1.5682  2.7259
 4833SOL     OW15939   7.400   5.778   4.181 -0.4882 -0.1419 -0.7357
 4833SOL    HW115940   7.368   5.868   4.189  0.4793  0.1502 -0.0049
 4833SOL    HW215941   7.349   5.729   4.246 -0.2717  0.0882 -0.3917
 4834SOL     OW15942   7.039   5.674   5.079 -0.4150 -0.3718 -0.1106
 4834SOL    HW115943   7.115   5.644   5.028 -0.3995  1.1899 -1.0720
 4834SOL    HW215944   7.045   5.626   5.161  2.4530  0.7496  0.4443
 4835SOL     OW15945   0.698   5.619   7.250  0.3622 -0.0215  0.5039
 4835SOL    HW115946   0.733   5.672   7.179 -0.9556  1.8519  1.1900
 4835SOL    HW215947   0.747   5.647   7.327  0.1480 -0.3432  0.7610
 4836SOL     OW15948   7.305   6.703   5.735 -0.0284 -0.3725 -0.2465
 4836SOL    HW115949   7.319   6.624   5.787  1.1152 -0.7420 -1.0641
 4836SOL    HW215950   7.377   6.761   5.759 -0.7685  0.3670  0.2248
 4837SOL     OW15951   1.528   7.229   4.125  0.3197 -0.3547 -0.2220
 4837SOL    HW115952   1.566   7.303   4.172  0.3929 -0.3154 -0.3436
 4837SOL    HW215953   1.583   7.155   4.150  0.1106 -0.4121  0.0775
 4838SOL     OW15954   7.770   6.964   3.323 -0.8133 -0.0460 -0.6725
 4838SOL    HW115955   7.836   7.016   3.277  1.3123 -2.3695 -0.4695
 4838SOL    HW215956   7.798   6.874   3.311 -3.2911 -1.0749  0.5433
 4839SOL     OW15957   7.979   7.195   5.005  0.2457 -0.0113 -0.3133
 4839SOL    HW115958   7.907   7.193   5.069  0.8245  1.3603  0.4190
 4839SOL    HW215959   8.039   7.126   5.033 -0.4747 -0.7705 -0.5869
 4840SOL     OW15960   6.624   6.704   4.378  0.0937  0.2487 -0.2356
 4840SOL    HW115961   6.601   6.664   4.462 -1.2694  1.4688  0.0190
 4840SOL    HW215962   6.675   6.781   4.401  1.6793 -0.6199 -0.6702
 4841SOL     OW15963   0.391   6.042   2.416  0.2495 -0.1680 -0.3391
 4841SOL    HW115964   0.331   6.110   2.385  0.7513  1.0825  1.2278
 4841SOL    HW215965   0.355   6.016   2.501  1.7176  0.4186  0.5056
 4842SOL     OW15966   2.378   5.885   5.472 -0.2172 -0.1410  0.3986
 4842SOL    HW115967   2.288   5.909   5.494 -0.3037  1.4689 -1.4726
 4842SOL    HW215968   2.421   5.872   5.557 -1.3288  2.4544  1.4680
 4843SOL     OW15969   7.891   6.769   3.564  0.0363 -0.6667 -0.4293
 4843SOL    HW115970   7.807   6.750   3.605 -0.3529  0.8212 -0.5114
 4843SOL    HW215971   7.880   6.741   3.473  0.0272 -1.5208 -0.1771
 4844SOL     OW15972   1.444   5.514   4.288 -0.2424  0.2398  0.1154
 4844SOL    HW115973   1.388   5.459   4.232 -0.0629  1.0622 -0.8831
 4844SOL    HW215974   1.533   5.496   4.259  0.0993 -1.2147  1.8349
 4845SOL     OW15975   0.892   5.694   4.219 -0.1280  0.5518  0.2146
 4845SOL    HW115976   0.895   5.656   4.306 -1.9897  0.3765  0.2579
 4845SOL    HW215977   0.966   5.656   4.173  1.1303  0.9614  1.8217
 4846SOL     OW15978   7.775   0.852   6.056 -0.1325  0.2508  0.7396
 4846SOL    HW115979   7.712   0.819   5.992 -1.0441  1.0098  1.2279
 4846SOL    HW215980   7.769   0.791   6.130  2.0593 -1.5719 -0.4383
 4847SOL     OW15981   0.946   7.378   5.283  0.3903  0.5273 -0.3424
 4847SOL    HW115982   0.895   7.299   5.262  1.8779 -0.4766 -0.3262
 4847SOL    HW215983   1.032   7.345   5.308  0.4399  2.0474  1.7224
 4848SOL     OW15984   1.262   6.594   5.474 -0.3882 -0.3084 -0.3567
 4848SOL    HW115985   1.172   6.561   5.467 -0.2016 -1.0001  0.4238
 4848SOL    HW215986   1.300   6.546   5.548  0.5059  0.2552 -0.4356
 4849SOL     OW15987   2.116   4.003   3.085 -0.1860  0.1128  0.1443
 4849SOL    HW115988   2.131   3.961   3.170 -2.1599 -0.8959  0.0571
 4849SOL    HW215989   2.039   3.959   3.050  0.1977  0.9446 -1.9107
 4850SOL     OW15990   7.910   4.308   2.038 -0.0167 -0.2943  0.0691
 4850SOL    HW115991   7.972   4.356   2.094  0.8415  0.0091 -1.1077
 4850SOL    HW215992   7.947   4.315   1.950 -1.4293 -0.6288 -0.5706
 4851SOL     OW15993   2.045   5.817   4.303  0.2049 -0.3736  0.3216
 4851SOL    HW115994   2.075   5.807   4.393  0.9175 -1.3975 -0.0113
 4851SOL    HW215995   2.066   5.908   4.280  0.9274 -0.4042  0.8541
 4852SOL     OW15996   2.069   5.629   3.276  0.1478  0.7764  0.4316
 4852SOL    HW115997   2.035   5.644   3.364 -1.0585 -1.4901  0.4092
 4852SOL    HW215998   2.136   5.697   3.265 -0.3618  1.7465  2.6830
 4853SOL     OW15999   7.522   7.175   2.358  0.0285  0.6867 -0.2301
 4853SOL    HW116000   7.455   7.180   2.426  2.0542 -0.3803  2.0055
 4853SOL    HW216001   7.491   7.233   2.289 -1.8299  2.3852  1.8841
 4854SOL     OW16002   2.482   6.933   5.989 -0.5318 -0.2588  0.1560
 4854SOL    HW116003   2.449   6.846   5.968  1.2692 -1.0790  0.5404
 4854SOL    HW216004   2.576   6.929   5.969 -0.1867  1.2357  1.2696
 4855SOL     OW16005   0.609   5.505   6.156  0.0482 -0.1299  0.1404
 4855SOL    HW116006   0.637   5.525   6.067  1.4072 -0.0875  0.5679
 4855SOL    HW216007   0.565   5.420   6.150 -1.6081  0.7501 -0.8828
 4856SOL     OW16008   1.370   6.375   3.883 -0.1709  0.0220 -0.0379
 4856SOL    HW116009   1.362   6.338   3.795 -1.3142 -1.0836  0.5114
 4856SOL    HW216010   1.385   6.300   3.940 -0.5252  0.6092  0.8519
 4857SOL     OW16011   6.781   0.937   3.654  0.0301 -0.3945  0.1683
 4857SOL    HW116012   6.779   0.923   3.559 -0.0631 -0.1050  0.1264
 4857SOL    HW216013   6.871   0.964   3.673 -0.4044  1.3089 -0.0976
 4858SOL     OW16014   0.109   7.199   4.527 -0.1198 -0.0778 -0.2652
 4858SOL    HW116015   0.041   7.164   4.584  0.1066  1.6972  1.1541
 4858SOL    HW216016   0.106   7.143   4.449 -0.7933 -2.2456  1.2332
 4859SOL     OW16017   7.632   6.780   4.675 -0.5981  0.5373 -0.3194
 4859SOL    HW116018   7.661   6.785   4.584 -0.9859 -1.9640 -0.6417
 4859SOL    HW216019   7.712   6.767   4.725 -0.5798 -0.3068 -0.5564
 4860SOL     OW16020   7.686   6.395   6.005  0.0595 -0.0755  0.3351
 4860SOL    HW116021   7.638   6.313   6.010  0.6196 -0.4367 -0.0201
 4860SOL    HW216022   7.761   6.383   6.064  0.2174  0.1263  0.1789
 4861SOL     OW16023   1.295   5.531   5.909 -0.2855 -1.4665  0.2613
 4861SOL    HW116024   1.206   5.503   5.889 -0.4000  0.0075 -1.6051
 4861SOL    HW216025   1.293   5.626   5.899  1.5461 -1.4176 -0.0547
 4862SOL     OW16026   2.945   6.874   4.956  0.3509 -0.5501  0.0688
 4862SOL    HW116027   3.016   6.937   4.964 -0.7998  0.6579  1.3249
 4862SOL    HW216028   2.949   6.822   5.036 -0.6844  0.1340  0.5979
 4863SOL     OW16029   0.495   5.982   3.152  0.3647  0.3150  0.1287
 4863SOL    HW116030   0.509   6.026   3.069 -1.5099  0.4866 -0.1453
 4863SOL    HW216031   0.485   6.054   3.215 -1.2018  0.2887 -0.0560
 4864SOL     OW16032   7.984   6.639   4.094 -0.0850 -0.0869  0.0047
 4864SOL    HW116033   8.017   6.724   4.123  0.3977 -0.2528 -0.0647
 4864SOL    HW216034   7.919   6.661   4.026  2.5029  0.1474 -2.5689
 4865SOL     OW16035   0.664   7.619   4.369 -0.2689 -0.0830 -0.0567
 4865SOL    HW116036   0.624   7.698   4.334  1.1121  0.5097 -0.3528
 4865SOL    HW216037   0.668   7.633   4.463  0.0074  0.2242 -0.1122
 4866SOL     OW16038   0.151   1.507   3.711  0.1025 -0.2039 -1.0219
 4866SOL    HW116039   0.237   1.465   3.718  0.3784  0.4815 -0.1234
 4866SOL    HW216040   0.089   1.435   3.716  0.5407 -0.4733  1.4440
 4867SOL     OW16041   0.598   6.115   4.818  0.3073 -0.3740  0.2384
 4867SOL    HW116042   0.694   6.121   4.815  0.2139  1.7184 -1.3501
 4867SOL    HW216043   0.569   6.206   4.822 -1.6461 -0.9723  0.7371
 4868SOL     OW16044   7.685   6.131   3.644 -0.8108  0.3762 -0.4755
 4868SOL    HW116045   7.668   6.139   3.738 -0.2455  0.9684 -0.4167
 4868SOL    HW216046   7.609   6.083   3.610 -0.2383 -1.3755  0.5469
 4869SOL     OW16047   6.273   7.395   4.502 -0.1053  0.6593  0.2608
 4869SOL    HW116048   6.326   7.473   4.485 -1.9533  2.3411  1.7014
 4869SOL    HW216049   6.226   7.380   4.420  2.4958 -0.9066 -1.0609
 4870SOL     OW16050   2.246   5.032   6.571 -0.3760  0.3234  0.3462
 4870SOL    HW116051   2.287   4.949   6.594 -1.0053  0.2161  1.1546
 4870SOL    HW216052   2.293   5.062   6.493 -0.8572 -1.3242 -0.6284
 4871SOL     OW16053   0.276   5.964   2.663  0.0216 -0.1747  0.6189
 4871SOL    HW116054   0.300   6.018   2.738 -0.7869 -2.2697  2.5119
 4871SOL    HW216055   0.317   5.879   2.681  0.0315 -0.6804 -1.4898
 4872SOL     OW16056   1.788   6.785   5.137  0.2243 -0.4444 -0.2610
 4872SOL    HW116057   1.701   6.815   5.109 -0.4142 -2.1975 -0.2580
 4872SOL    HW216058   1.835   6.866   5.159 -1.8355  0.5052  0.9661
 4873SOL     OW16059   1.255   7.046   2.690  0.3190  0.1622 -0.6011
 4873SOL    HW116060   1.239   7.082   2.777  0.1296  0.7762 -0.8828
 4873SOL    HW216061   1.269   6.952   2.705 -0.7586  0.0743 -0.0177
 4874SOL     OW16062   7.078   7.238   4.140 -0.2392  0.5133  0.8604
 4874SOL    HW116063   7.008   7.234   4.076 -0.1379 -1.6444  0.8052
 4874SOL    HW216064   7.113   7.327   4.133 -0.8768  0.6387 -1.3516
 4875SOL     OW16065   2.244   7.732   5.475 -0.3594  0.3205  0.6628
 4875SOL    HW116066   2.223   7.773   5.391 -2.5531 -0.4766  0.7770
 4875SOL    HW216067   2.272   7.805   5.531  0.5586  0.9336 -0.5542
 4876SOL     OW16068   2.142   5.992   2.552 -0.4839  0.4685  0.3185
 4876SOL    HW116069   2.120   6.066   2.609  0.2939  0.5556  0.5188
 4876SOL    HW216070   2.235   5.974   2.571 -0.1087  0.7284 -1.1788
 4877SOL     OW16071   1.233   6.316   4.284 -0.8056 -0.4589  0.3706
 4877SOL    HW116072   1.242   6.409   4.306  1.5617 -0.8991  1.6227
 4877SOL    HW216073   1.233   6.271   4.368  0.0648 -1.7057 -0.2666
 4878SOL     OW16074   0.299   0.344   6.132  0.7365  0.2298 -0.1879
 4878SOL    HW116075   0.309   0.339   6.227 -2.1434 -0.9187  0.1459
 4878SOL    HW216076   0.267   0.258   6.106  1.3806  0.5390 -2.2221
 4879SOL     OW16077   1.210   6.829   5.143  0.2531 -0.1942  0.2011
 4879SOL    HW116078   1.268   6.756   5.163  1.6999  1.1860  1.2754
 4879SOL    HW216079   1.259   6.882   5.080 -0.5791  0.0959 -0.2134
 4880SOL     OW16080   5.825   6.532   5.044 -0.0711  0.0131 -0.0800
 4880SOL    HW116081   5.892   6.482   5.089 -0.4610 -0.3764  0.0762
 4880SOL    HW216082   5.793   6.594   5.110  0.5602  0.6200 -0.3362
 4881SOL     OW16083   1.370   6.247   2.322 -0.2101  0.7464  0.1779
 4881SOL    HW116084   1.376   6.162   2.279  1.0206  0.2103  1.3316
 4881SOL    HW216085   1.277   6.257   2.343 -0.8147  0.9478 -2.3363
 4882SOL     OW16086   0.694   6.669   6.162 -0.2159 -0.0703 -0.7750
 4882SOL    HW116087   0.720   6.705   6.246 -1.1023  0.3319 -0.6613
 4882SOL    HW216088   0.775   6.637   6.123  0.6590  2.2874 -0.9958
 4883SOL     OW16089   7.915   5.466   4.148  0.3280  0.2927 -0.1525
 4883SOL    HW116090   7.919   5.541   4.088  0.1079  0.3917 -0.0463
 4883SOL    HW216091   8.006   5.444   4.165  0.4190 -0.6012 -1.6028
 4884SOL     OW16092   6.846   3.146   5.971 -0.1646 -0.1283 -0.1535
 4884SOL    HW116093   6.759   3.160   5.935  0.8623  0.6356 -2.4883
 4884SOL    HW216094   6.853   3.209   6.043 -1.4879 -0.1991  0.0613
 4885SOL     OW16095   0.230   7.633   3.976 -0.2210  0.7923 -0.2851
 4885SOL    HW116096   0.280   7.609   3.898  1.1575 -1.1679  1.0886
 4885SOL    HW216097   0.292   7.620   4.048 -1.8895  1.1141  1.2710
 4886SOL     OW16098   1.801   5.708   4.261  0.5712  0.7681  0.1280
 4886SOL    HW116099   1.887   5.748   4.260  1.1835 -0.4956 -0.6197
 4886SOL    HW216100   1.808   5.637   4.326  0.3144  0.2267 -0.4269
 4887SOL     OW16101   1.397   6.317   2.619 -0.0878 -0.0197  0.5627
 4887SOL    HW116102   1.380   6.382   2.551 -1.7705 -1.0786 -0.1005
 4887SOL    HW216103   1.436   6.243   2.572 -0.6478 -0.5019  0.8478
 4888SOL     OW16104   1.374   7.535   4.319 -0.0794  0.5581  0.5083
 4888SOL    HW116105   1.362   7.502   4.229  1.5748 -0.6620  0.6781
 4888SOL    HW216106   1.390   7.628   4.308  0.0609  0.4342 -0.4770
 4889SOL     OW16107   0.467   0.556   4.489  0.0906  0.1939  0.0897
 4889SOL    HW116108   0.504   0.602   4.414 -0.1849  0.7586  0.2992
 4889SOL    HW216109   0.528   0.484   4.505 -0.0793 -0.1854 -0.9362
 4890SOL     OW16110   0.292   1.741   3.825  0.2999 -0.2574 -0.1902
 4890SOL    HW116111   0.238   1.666   3.800 -0.3499  0.0626  0.2332
 4890SOL    HW216112   0.254   1.815   3.777 -0.5192  0.2291  1.1461
 4891SOL     OW16113   7.738   5.798   4.223 -0.4130  0.3292  0.2193
 4891SOL    HW116114   7.763   5.720   4.274  0.3920  0.6878  0.3954
 4891SOL    HW216115   7.679   5.765   4.156  0.5061 -0.5666 -0.1759
 4892SOL     OW16116   0.530   5.687   5.741 -0.0595 -0.0741  0.3254
 4892SOL    HW116117   0.463   5.713   5.804 -0.2222 -1.4995  0.7920
 4892SOL    HW216118   0.485   5.628   5.681  0.6233 -0.5425  0.2623
 4893SOL     OW16119   6.567   7.996   3.885 -0.3421 -0.6587 -0.6524
 4893SOL    HW116120   6.493   7.993   3.947  0.8790 -2.0342  0.8300
 4893SOL    HW216121   6.618   8.072   3.913 -0.1900 -0.8363 -0.4447
 4894SOL     OW16122   1.545   6.591   4.050 -0.4623  0.3360 -0.1658
 4894SOL    HW116123   1.490   6.527   4.004 -0.8665 -0.9091  1.9128
 4894SOL    HW216124   1.585   6.643   3.980 -0.3527 -1.9971 -1.9668
 4895SOL     OW16125   2.520   2.054   4.119  0.0830  0.0011  0.7875
 4895SOL    HW116126   2.484   2.033   4.033 -2.1797  2.1572  1.0800
 4895SOL    HW216127   2.610   2.082   4.102 -0.3930  0.6037 -0.9290
 4896SOL     OW16128   7.108   7.893   4.894  0.2620  0.5210 -0.5082
 4896SOL    HW116129   7.114   7.802   4.866 -0.3063  0.5340 -0.6886
 4896SOL    HW216130   7.168   7.940   4.837  0.6982  0.2382 -0.2947
 4897SOL     OW16131   7.792   6.339   4.971  0.0101 -0.6455 -0.1589
 4897SOL    HW116132   7.738   6.321   4.894  0.9589 -2.6629 -0.4369
 4897SOL    HW216133   7.732   6.336   5.045 -0.7678  0.4324 -0.7271
 4898SOL     OW16134   1.027   5.835   3.154 -0.5216 -0.1100 -0.5833
 4898SOL    HW116135   1.046   5.928   3.137 -1.9167  0.2511 -0.3024
 4898SOL    HW216136   0.933   5.833   3.171 -0.1882 -1.3101  1.3427
 4899SOL     OW16137   1.119   6.845   3.637 -0.1106  0.1619  0.1193
 4899SOL    HW116138   1.165   6.766   3.666 -0.7143 -1.1322 -2.1755
 4899SOL    HW216139   1.031   6.814   3.615 -0.6868  1.6986  0.1498
 4900SOL     OW16140   6.233   7.717   4.026  0.7168  0.2538  0.2396
 4900SOL    HW116141   6.255   7.730   3.933  0.7183  0.6179  0.2870
 4900SOL    HW216142   6.305   7.760   4.073 -0.0389  1.3772  0.4020
 4901SOL     OW16143   1.630   5.352   5.205  0.1600  0.2564 -0.5612
 4901SOL    HW116144   1.614   5.311   5.291 -2.3940 -1.6230 -1.8079
 4901SOL    HW216145   1.617   5.445   5.221 -0.6349 -0.0759  1.0474
 4902SOL     OW16146   0.647   6.565   3.998 -0.0254  0.3472 -0.1493
 4902SOL    HW116147   0.584   6.599   4.062 -0.8103  0.0213 -0.7347
 4902SOL    HW216148   0.616   6.598   3.914  0.8586  0.5643 -0.4020
 4903SOL     OW16149   1.110   5.943   5.464  0.0360  0.5982  0.5779
 4903SOL    HW116150   1.097   5.932   5.558 -0.1480 -2.5350  0.2926
 4903SOL    HW216151   1.205   5.940   5.453  0.0064 -1.5153  0.5174
 4904SOL     OW16152   0.787   7.905   4.812 -0.2197  0.0998  0.3445
 4904SOL    HW116153   0.766   7.933   4.723 -0.2577  1.5009  0.7732
 4904SOL    HW216154   0.876   7.871   4.806 -1.3844 -3.1309 -0.8954
 4905SOL     OW16155   1.300   7.483   4.978  0.0012  0.2397  0.7954
 4905SOL    HW116156   1.238   7.431   4.925 -0.3408 -1.1022  2.4187
 4905SOL    HW216157   1.245   7.547   5.023 -0.0450 -0.1613  1.3142
 4906SOL     OW16158   1.120   6.409   5.198 -0.5331  0.5111  0.2672
 4906SOL    HW116159   1.129   6.350   5.124  2.2810  0.9930  0.1183
 4906SOL    HW216160   1.069   6.483   5.164 -0.0544  0.3059 -0.9503
 4907SOL     OW16161   1.313   6.384   6.311  0.1322  0.5797  0.2442
 4907SOL    HW116162   1.238   6.443   6.314  1.0738  1.7966  0.7621
 4907SOL    HW216163   1.314   6.342   6.396 -1.6628 -1.7173 -0.7607
 4908SOL     OW16164   0.631   4.571   6.541 -0.3430 -0.0227 -0.1142
 4908SOL    HW116165   0.649   4.535   6.454  1.3251 -1.4166  0.7635
 4908SOL    HW216166   0.714   4.609   6.569 -0.3573 -1.1251  1.5663
 4909SOL     OW16167   0.107   0.183   2.832  0.3298  0.3428 -0.2982
 4909SOL    HW116168   0.054   0.240   2.887 -0.6056 -0.5355 -0.2621
 4909SOL    HW216169   0.122   0.234   2.752 -1.4720  0.2339 -0.7471
 4910SOL     OW16170   2.345   5.139   4.605 -0.2706 -0.1480 -0.6980
 4910SOL    HW116171   2.414   5.167   4.544 -0.0813  1.8058  0.3443
 4910SOL    HW216172   2.378   5.163   4.691 -1.9311  0.1387 -0.1060
 4911SOL     OW16173   1.712   7.256   4.468 -0.2257  0.4056 -0.5211
 4911SOL    HW116174   1.761   7.204   4.532  0.1978 -0.7810 -1.7603
 4911SOL    HW216175   1.620   7.234   4.485 -0.1983  0.9276  0.3600
 4912SOL     OW16176   1.045   6.763   4.660  0.4962 -0.2050 -0.0520
 4912SOL    HW116177   1.040   6.796   4.570 -1.1861  0.5850  0.2929
 4912SOL    HW216178   1.109   6.818   4.703 -0.3892  0.9664 -0.1783
 4913SOL     OW16179   1.127   7.486   4.590  0.0199 -0.4456 -0.3071
 4913SOL    HW116180   1.221   7.481   4.571  0.1673 -0.3061  0.3763
 4913SOL    HW216181   1.086   7.499   4.504  0.5114 -1.8524 -0.7941
 4914SOL     OW16182   0.838   3.969   3.943  0.0335  0.5672 -0.0763
 4914SOL    HW116183   0.770   4.036   3.935  1.0039  1.7520  1.1060
 4914SOL    HW216184   0.873   3.960   3.855 -1.1576  0.4583 -0.5569
 4915SOL     OW16185   1.443   4.764   2.258  0.4339 -0.5057  0.5276
 4915SOL    HW116186   1.358   4.730   2.287 -0.4684  1.3957  0.2682
 4915SOL    HW216187   1.497   4.767   2.337  0.4747 -2.2210  0.6047
 4916SOL     OW16188   2.787   6.787   6.016  0.1376 -0.1558 -0.2134
 4916SOL    HW116189   2.839   6.763   5.939  0.6961 -0.6147  0.2997
 4916SOL    HW216190   2.714   6.726   6.016 -0.8384  0.9386 -1.3402
 4917SOL     OW16191   7.835   7.087   3.925 -0.4240 -0.4201  0.2834
 4917SOL    HW116192   7.873   7.149   3.987 -0.2958 -1.2990  1.0985
 4917SOL    HW216193   7.883   7.104   3.843 -1.1730  1.3135  0.1629
 4918SOL     OW16194   7.950   7.191   4.145 -0.0462 -0.0782  0.0948
 4918SOL    HW116195   7.999   7.115   4.175  1.7201  0.9468 -0.0567
 4918SOL    HW216196   7.900   7.219   4.221  0.8642 -0.1865  0.7451
 4919SOL     OW16197   1.363   1.187   5.552  0.2825 -0.4589  0.3543
 4919SOL    HW116198   1.436   1.190   5.491  1.1810 -2.5822  1.2462
 4919SOL    HW216199   1.380   1.258   5.614  0.2421  0.6290 -0.8376
 4920SOL     OW16200   2.399   4.939   5.129 -0.0003 -0.7266  0.0191
 4920SOL    HW116201   2.405   4.968   5.221  0.1884 -1.5770  0.2863
 4920SOL    HW216202   2.314   4.971   5.100  0.3265  0.3460  0.2048
 4921SOL     OW16203   1.002   7.008   3.968  0.8410 -0.5970 -0.3742
 4921SOL    HW116204   0.988   6.914   3.959  0.8506 -0.4256 -3.0934
 4921SOL    HW216205   0.958   7.031   4.050  0.7903 -2.9359  0.3237
 4922SOL     OW16206   7.448   6.370   3.674  0.3647 -0.2734  0.0105
 4922SOL    HW116207   7.427   6.460   3.651 -2.0193 -0.6321  0.4418
 4922SOL    HW216208   7.488   6.375   3.760  0.7522  0.3906 -0.2009
 4923SOL     OW16209   0.350   6.914   4.232 -0.2291 -0.2054 -0.5355
 4923SOL    HW116210   0.388   6.966   4.303 -0.9447 -0.7277  0.2565
 4923SOL    HW216211   0.414   6.845   4.215  0.0429  0.0487 -0.5501
 4924SOL     OW16212   1.305   0.662   5.240 -0.2682 -0.4028 -0.1920
 4924SOL    HW116213   1.218   0.686   5.207 -0.7550  2.2946  2.5868
 4924SOL    HW216214   1.288   0.628   5.328  1.4822  1.2019  0.8437
 4925SOL     OW16215   1.689   5.630   4.582  0.3213 -0.2060 -0.0862
 4925SOL    HW116216   1.757   5.581   4.535  1.1411  0.5748  0.2654
 4925SOL    HW216217   1.706   5.613   4.674  0.0215 -0.0271  0.0035
 4926SOL     OW16218   0.539   6.652   6.687  0.2072 -0.1986  1.0840
 4926SOL    HW116219   0.487   6.585   6.731 -0.6608 -0.3839 -0.1678
 4926SOL    HW216220   0.620   6.607   6.663 -0.4955 -0.9339 -0.0312
 4927SOL     OW16221   0.295   6.772   3.584  0.0050  0.2280 -0.2179
 4927SOL    HW116222   0.224   6.834   3.563  0.3433  0.7998  0.3007
 4927SOL    HW216223   0.250   6.690   3.604 -0.5928  0.8396  1.0637
 4928SOL     OW16224   1.322   0.360   4.905  0.2495 -0.0516  0.2810
 4928SOL    HW116225   1.248   0.376   4.964  0.3044 -0.3413  0.4247
 4928SOL    HW216226   1.398   0.351   4.962  0.3042 -0.3232  0.1653
 4929SOL     OW16227   1.514   4.183   3.105  0.2076  0.6582  0.5007
 4929SOL    HW116228   1.423   4.208   3.120  0.0758  0.4811 -0.0011
 4929SOL    HW216229   1.516   4.089   3.123  0.0654  0.4577 -0.4831
 4930SOL     OW16230   1.076   5.976   7.067  0.4154 -0.3495  0.4462
 4930SOL    HW116231   1.042   6.065   7.061  1.8011  0.3086  1.8375
 4930SOL    HW216232   1.043   5.943   7.150  0.2673 -0.9981  0.1408
 4931SOL     OW16233   2.984   4.953   4.956  0.0840  0.0820 -0.2498
 4931SOL    HW116234   2.974   4.955   4.861  0.3630 -0.5636 -0.2964
 4931SOL    HW216235   2.901   4.917   4.988 -0.0322  0.3540 -0.2441
 4932SOL     OW16236   7.132   7.228   3.244 -0.5510 -0.3879  0.1278
 4932SOL    HW116237   7.076   7.271   3.309 -1.4029  0.0323 -0.8432
 4932SOL    HW216238   7.197   7.181   3.295  1.1346  2.8756  1.2786
 4933SOL     OW16239   0.334   7.619   2.855 -0.2134  0.2605  0.4628
 4933SOL    HW116240   0.278   7.570   2.916 -1.4744  2.9153  1.5994
 4933SOL    HW216241   0.419   7.575   2.860 -0.7704 -0.7048  2.8042
 4934SOL     OW16242   2.257   6.579   6.481  0.3941 -0.5258  0.1548
 4934SOL    HW116243   2.168   6.547   6.491 -0.1360  0.8475  0.1443
 4934SOL    HW216244   2.275   6.625   6.563  0.7447 -0.0203 -0.1981
 4935SOL     OW16245   7.841   5.670   8.046  0.0402 -0.6009  0.2354
 4935SOL    HW116246   7.923   5.693   8.002  1.0594 -1.9079  1.3610
 4935SOL    HW216247   7.779   5.737   8.018  0.6994 -1.1471 -2.8796
 4936SOL     OW16248   7.124   0.690   5.601 -0.1346 -0.1867 -0.2902
 4936SOL    HW116249   7.107   0.774   5.559  1.0345 -0.5182 -1.5157
 4936SOL    HW216250   7.155   0.713   5.689 -0.5269  0.6268 -0.3590
 4937SOL     OW16251   6.913   6.547   6.081  0.0474 -0.0539  0.2776
 4937SOL    HW116252   6.881   6.628   6.042  2.9428  0.3485 -1.5810
 4937SOL    HW216253   6.857   6.479   6.044 -1.1819  0.8902  0.3365
 4938SOL     OW16254   0.885   5.917   6.043 -0.3698  0.6072 -0.1686
 4938SOL    HW116255   0.859   5.938   5.954 -1.0277  2.1368  0.3428
 4938SOL    HW216256   0.811   5.867   6.079  0.6676 -1.6420 -1.0019
 4939SOL     OW16257   0.477   6.335   6.065  0.0762  0.3566  0.0631
 4939SOL    HW116258   0.551   6.323   6.124 -0.6439 -0.5135  0.8143
 4939SOL    HW216259   0.509   6.302   5.981  0.9866  1.2802  0.0170
 4940SOL     OW16260   0.087   6.852   5.611 -0.0283  0.3538  0.0307
 4940SOL    HW116261   0.038   6.829   5.690  2.3956 -2.2830  0.9427
 4940SOL    HW216262   0.089   6.948   5.611 -1.0367  0.4501  2.5889
 4941SOL     OW16263   7.843   6.488   8.260  0.2161  0.0680  0.4737
 4941SOL    HW116264   7.919   6.439   8.227  0.1790  1.2124 -1.4801
 4941SOL    HW216265   7.770   6.455   8.208 -0.3267  0.2198  1.1284
 4942SOL     OW16266   7.677   0.183   7.566  0.2590 -0.1557  0.4425
 4942SOL    HW116267   7.631   0.248   7.618  0.1940  0.7732 -0.7291
 4942SOL    HW216268   7.768   0.212   7.564  0.5827 -1.0467  1.3179
 4943SOL     OW16269   7.959   7.631   7.341  0.3873  0.1604  0.3898
 4943SOL    HW116270   7.994   7.552   7.383 -1.9848 -0.6587  0.9556
 4943SOL    HW216271   8.006   7.636   7.258  1.1757 -1.3771  0.6991
 4944SOL     OW16272   0.092   0.621   5.657  0.6082  0.5799 -0.1030
 4944SOL    HW116273   0.133   0.706   5.669  0.6585  0.4745  0.4865
 4944SOL    HW216274   0.131   0.565   5.724  0.0141  0.2958  0.0162
 4945SOL     OW16275   7.836   7.083   5.489 -0.1058 -0.0727 -0.2065
 4945SOL    HW116276   7.924   7.119   5.470  0.2385 -1.0420 -0.4991
 4945SOL    HW216277   7.784   7.160   5.512  0.8747  0.5016  0.1858
 4946SOL     OW16278   1.640   5.767   8.263  0.0127  0.9312  0.0522
 4946SOL    HW116279   1.672   5.822   8.192 -1.2075  0.7076 -0.7181
 4946SOL    HW216280   1.548   5.750   8.240 -0.3777  0.7405  1.6168
 4947SOL     OW16281   0.787   7.771   7.850 -0.0491 -0.2392 -0.6220
 4947SOL    HW116282   0.833   7.702   7.802 -1.7748 -2.3564  0.5841
 4947SOL    HW216283   0.829   7.772   7.936  1.6281  2.0561 -1.3907
 4948SOL     OW16284   7.059   7.914   4.027  0.2371 -0.0193  0.1175
 4948SOL    HW116285   7.057   8.004   3.995 -2.2474 -0.0427 -0.0042
 4948SOL    HW216286   7.086   7.922   4.119  0.9858  0.7221 -0.1548
 4949SOL     OW16287   1.177   7.244   5.438  0.1914  0.1732 -0.0600
 4949SOL    HW116288   1.201   7.316   5.496 -1.6872  0.4828  0.3917
 4949SOL    HW216289   1.231   7.257   5.360  0.0138  1.9774  0.0864
 4950SOL     OW16290   7.710   7.747   5.383  0.1674 -0.5011  0.1359
 4950SOL    HW116291   7.682   7.746   5.474 -0.7071 -0.4252 -0.1209
 4950SOL    HW216292   7.744   7.660   5.367  1.2033 -0.2275  0.7915
 4951SOL     OW16293   1.338   6.783   6.329 -0.8838  0.1670 -0.0368
 4951SOL    HW116294   1.328   6.846   6.400  1.7670 -1.2620  1.7623
 4951SOL    HW216295   1.414   6.731   6.354 -2.0932 -2.8381 -2.1290
 4952SOL     OW16296   7.845   6.896   6.224  0.4666  0.2878 -0.6963
 4952SOL    HW116297   7.911   6.855   6.168  1.5629  1.5401 -0.3544
 4952SOL    HW216298   7.884   6.895   6.312  0.7473  2.4462 -0.7537
 4953SOL     OW16299   7.266   6.884   4.865 -0.1896 -0.5244  0.0229
 4953SOL    HW116300   7.173   6.864   4.877 -0.0974 -0.8531  0.2012
 4953SOL    HW216301   7.308   6.799   4.859 -0.1408 -0.3969 -2.0211
 4954SOL     OW16302   1.828   6.285   6.379  0.5658  0.8137  0.5604
 4954SOL    HW116303   1.751   6.240   6.413  1.9551 -1.0075  1.4754
 4954SOL    HW216304   1.793   6.352   6.319 -1.6503 -1.3722 -0.7753
 4955SOL     OW16305   0.277   7.881   5.123  0.4193  0.1234  0.7865
 4955SOL    HW116306   0.259   7.958   5.069 -1.2651 -1.3698 -0.8888
 4955SOL    HW216307   0.280   7.808   5.062  1.6440 -1.2314  2.3727
 4956SOL     OW16308   2.377   7.334   6.498  0.2014  0.5221  0.2861
 4956SOL    HW116309   2.358   7.267   6.434  2.1592  0.4941 -0.3266
 4956SOL    HW216310   2.313   7.404   6.480 -0.7857 -0.4567 -0.1168
 4957SOL     OW16311   7.304   0.284   4.641 -0.3751  0.1279  0.1559
 4957SOL    HW116312   7.325   0.357   4.699  0.3408 -0.1457  0.2459
 4957SOL    HW216313   7.357   0.299   4.563 -0.3165 -0.2360  0.1259
 4958SOL     OW16314   0.800   6.210   5.576 -0.8293 -0.0995 -0.0924
 4958SOL    HW116315   0.895   6.203   5.577 -0.7337  0.3548 -1.9289
 4958SOL    HW216316   0.769   6.121   5.589 -0.1076 -0.4452 -0.6538
 4959SOL     OW16317   7.814   6.780   3.937  0.2548  0.3076  0.3176
 4959SOL    HW116318   7.756   6.830   3.995 -1.3952 -0.4326 -0.6150
 4959SOL    HW216319   7.762   6.765   3.858  1.4952 -0.9940 -0.2979
 4960SOL     OW16320   6.849   6.590   7.183  0.0762 -0.0143  0.0267
 4960SOL    HW116321   6.769   6.641   7.189  0.2363  1.0676 -3.8852
 4960SOL    HW216322   6.822   6.508   7.142  0.6179 -0.7176  1.0594
 4961SOL     OW16323   1.027   6.875   4.424  0.9929  0.0977 -0.0524
 4961SOL    HW116324   1.057   6.948   4.477  0.2852 -2.0381  3.6224
 4961SOL    HW216325   0.943   6.904   4.388  1.3180  1.4829  0.2485
 4962SOL     OW16326   0.595   6.940   8.426 -0.0066  0.1886  0.1094
 4962SOL    HW116327   0.594   6.980   8.339 -0.6177  0.3409  0.1840
 4962SOL    HW216328   0.635   7.006   8.482 -1.2616  0.8228  0.2860
 4963SOL     OW16329   7.396   0.498   4.792  0.2760 -0.0531 -0.3171
 4963SOL    HW116330   7.449   0.505   4.871 -0.8945  0.8622  0.4242
 4963SOL    HW216331   7.415   0.579   4.744 -0.5960  0.3965  0.0701
 4964SOL     OW16332   7.409   7.425   5.600 -0.7259  0.0166 -0.2147
 4964SOL    HW116333   7.389   7.444   5.509 -0.2165  0.5598 -0.2206
 4964SOL    HW216334   7.391   7.331   5.610 -1.9396  0.2000 -0.5510
 4965SOL     OW16335   0.575   6.931   6.120  0.0642  0.3007 -0.1355
 4965SOL    HW116336   0.639   6.880   6.071  0.2374  0.6770 -0.3021
 4965SOL    HW216337   0.554   6.876   6.196 -0.3796 -0.3900 -0.7421
 4966SOL     OW16338   1.448   6.933   7.435  0.1325 -0.6847 -0.6716
 4966SOL    HW116339   1.529   6.916   7.484  0.2022  2.5265  0.5879
 4966SOL    HW216340   1.478   6.963   7.349  0.2695 -0.1514 -0.4409
 4967SOL     OW16341   0.180   4.558   7.782 -0.5426 -0.0629 -0.8494
 4967SOL    HW116342   0.089   4.535   7.761 -0.4355 -1.7063  0.2347
 4967SOL    HW216343   0.203   4.626   7.720 -2.1921 -0.3526 -1.8372
 4968SOL     OW16344   0.655   7.232   5.191 -0.0042 -0.6992  0.8228
 4968SOL    HW116345   0.707   7.216   5.270 -2.7545  0.4623  3.0544
 4968SOL    HW216346   0.632   7.325   5.197 -1.2082 -0.8592 -0.7902
 4969SOL     OW16347   1.186   7.268   6.507  0.5603  0.0384 -0.4564
 4969SOL    HW116348   1.253   7.223   6.457  0.7982  0.1549 -0.2460
 4969SOL    HW216349   1.211   7.255   6.599  0.3973  0.2322 -0.3814
 4970SOL     OW16350   0.761   7.325   4.702 -0.4471  0.0352  0.2588
 4970SOL    HW116351   0.822   7.312   4.774  2.0769 -0.6584 -1.8659
 4970SOL    HW216352   0.675   7.309   4.740  0.8564 -1.3182  2.8557
 4971SOL     OW16353   1.790   6.638   6.732 -0.2991  0.3191  0.1461
 4971SOL    HW116354   1.861   6.700   6.745  0.5828 -0.9460  1.7649
 4971SOL    HW216355   1.829   6.552   6.748 -1.2915 -0.8096 -2.7724
 4972SOL     OW16356   1.257   6.984   5.801 -0.1425  0.3053  0.1242
 4972SOL    HW116357   1.320   6.971   5.872  1.2562  0.4635 -1.0285
 4972SOL    HW216358   1.310   7.016   5.728 -1.6880  1.1328 -0.6952
 4973SOL     OW16359   1.625   6.504   7.193 -0.6967 -0.0685 -0.3973
 4973SOL    HW116360   1.608   6.420   7.152 -0.2900 -1.6828  2.4914
 4973SOL    HW216361   1.710   6.531   7.157 -0.5642 -1.1750 -0.9540
 4974SOL     OW16362   0.387   5.401   9.224  0.6787  0.1903 -0.3859
 4974SOL    HW116363   0.387   5.399   9.128  1.5556  1.1387 -0.4255
 4974SOL    HW216364   0.370   5.493   9.245  1.1749  0.1114  0.3595
 4975SOL     OW16365   0.555   7.416   6.638 -0.1140 -0.2246 -0.2569
 4975SOL    HW116366   0.650   7.404   6.639 -0.3705 -3.1480 -0.2555
 4975SOL    HW216367   0.539   7.491   6.695  2.1782  0.3893 -0.3351
 4976SOL     OW16368   1.713   6.559   5.597 -0.0661 -0.1421 -0.4597
 4976SOL    HW116369   1.696   6.510   5.516 -0.7642  1.1032 -1.0894
 4976SOL    HW216370   1.649   6.630   5.596  0.1064  0.0731  1.0583
 4977SOL     OW16371   6.949   6.599   8.170 -0.3178  0.4176 -0.0514
 4977SOL    HW116372   6.883   6.625   8.234  1.7527  2.6681  1.3269
 4977SOL    HW216373   7.028   6.581   8.222  0.6584 -0.4909 -1.7492
 4978SOL     OW16374   7.508   6.464   5.794  0.1285 -0.3096  0.3553
 4978SOL    HW116375   7.421   6.427   5.809 -0.4111  1.4888  2.1577
 4978SOL    HW216376   7.557   6.443   5.873  0.9977 -0.3870 -0.1962
 4979SOL     OW16377   0.544   1.013   7.441  0.6314 -0.2905  0.6776
 4979SOL    HW116378   0.607   1.005   7.513  0.4803 -0.5711  0.7830
 4979SOL    HW216379   0.504   0.926   7.435  0.7082 -0.2952  0.1922
 4980SOL     OW16380   7.944   5.076   6.228  0.0039 -0.1528 -0.1736
 4980SOL    HW116381   7.960   5.028   6.310 -3.2355 -0.8265  0.1944
 4980SOL    HW216382   7.974   5.017   6.160  0.4791 -0.6253  0.4280
 4981SOL     OW16383   1.518   6.253   7.371  0.0080  0.2777 -0.2371
 4981SOL    HW116384   1.511   6.158   7.372  1.7984  0.1068 -0.7079
 4981SOL    HW216385   1.518   6.278   7.464 -0.9173 -0.1274 -0.1206
 4982SOL     OW16386   7.945   6.752   8.285 -0.0227 -0.2792 -0.5112
 4982SOL    HW116387   7.986   6.673   8.320  2.2823  0.9593 -0.2125
 4982SOL    HW216388   7.864   6.761   8.335  0.3857 -1.6742  0.4578
 4983SOL     OW16389   1.284   5.398   7.023 -0.1103 -0.2329 -0.0224
 4983SOL    HW116390   1.229   5.465   7.064 -0.6594 -0.5170 -0.2830
 4983SOL    HW216391   1.352   5.447   6.977 -1.0756  0.1981 -1.0260
 4984SOL     OW16392   1.148   5.707   7.164  0.0186  0.0218 -0.4663
 4984SOL    HW116393   1.091   5.738   7.093  1.4744 -0.6596 -2.0170
 4984SOL    HW216394   1.110   5.743   7.243 -1.3637  1.3161 -1.6559
 4985SOL     OW16395   1.428   1.435   6.223 -0.3051  0.5042 -0.2198
 4985SOL    HW116396   1.424   1.531   6.222 -0.6039  0.5096  0.4719
 4985SOL    HW216397   1.475   1.412   6.143  0.5347  1.2687  0.0309
 4986SOL     OW16398   1.489   6.979   7.721  0.3738 -0.4554 -0.7485
 4986SOL    HW116399   1.541   6.937   7.653  1.4922 -0.3069 -0.0267
 4986SOL    HW216400   1.399   6.951   7.704  0.9763 -2.6011 -0.6823
 4987SOL     OW16401   1.039   7.328   7.167  0.5301 -1.1097 -0.2446
 4987SOL    HW116402   1.088   7.375   7.100 -0.1530 -1.9940 -1.3990
 4987SOL    HW216403   1.060   7.374   7.248  1.1056  0.2050 -1.0967
 4988SOL     OW16404   6.855   7.071   7.985 -0.0776  0.0731 -0.1631
 4988SOL    HW116405   6.802   6.993   8.000  3.5408 -2.4338  1.0165
 4988SOL    HW216406   6.873   7.070   7.891  2.1716 -2.3278  0.1694
 4989SOL     OW16407   3.753   6.476   6.324 -0.4243  0.2766 -0.2295
 4989SOL    HW116408   3.780   6.564   6.297 -0.9240  0.4997 -0.0058
 4989SOL    HW216409   3.740   6.429   6.241  2.3225 -0.3896 -0.3855
 4990SOL     OW16410   6.186   5.411   7.751  0.8479  0.2564  0.0532
 4990SOL    HW116411   6.213   5.361   7.674  0.3756 -0.3769  0.2883
 4990SOL    HW216412   6.119   5.357   7.793 -0.5440  1.6035 -0.3164
 4991SOL     OW16413   7.619   5.729   6.354 -0.0068 -0.5198 -0.0841
 4991SOL    HW116414   7.677   5.654   6.339  1.4000  0.6646 -0.9220
 4991SOL    HW216415   7.551   5.721   6.287 -0.0847 -1.2322  0.0753
 4992SOL     OW16416   0.307   5.586   7.213 -0.3075 -0.2419  0.1056
 4992SOL    HW116417   0.297   5.536   7.132  2.1598  0.4797 -0.7034
 4992SOL    HW216418   0.326   5.519   7.279  1.3294 -0.5746 -0.6520
 4993SOL     OW16419   2.323   6.064   6.048 -0.1175 -0.3885  0.0024
 4993SOL    HW116420   2.364   5.988   6.088 -0.6484  0.0090  1.3653
 4993SOL    HW216421   2.296   6.119   6.122  0.0934  1.0419 -0.9369
 4994SOL     OW16422   1.904   5.899   7.165 -0.6183  0.8476  0.5819
 4994SOL    HW116423   1.939   5.842   7.233 -0.1673 -1.1619 -1.2359
 4994SOL    HW216424   1.981   5.934   7.121 -0.8799  0.0885 -0.5029
 4995SOL     OW16425   3.068   4.801   6.718  0.0661 -0.1023  0.1043
 4995SOL    HW116426   3.068   4.773   6.626 -2.0953 -0.4304  0.1377
 4995SOL    HW216427   3.073   4.720   6.768 -0.3302 -0.0397  0.2506
 4996SOL     OW16428   0.051   6.838   4.634  0.6589  0.1261  0.1925
 4996SOL    HW116429   0.026   6.786   4.710 -0.0840  0.7380  0.3771
 4996SOL    HW216430   0.136   6.876   4.658 -0.2443  1.5194  1.3600
 4997SOL     OW16431   7.124   0.897   5.901 -0.5903  0.4073 -0.3946
 4997SOL    HW116432   7.054   0.948   5.861 -2.2952 -0.7526  0.9494
 4997SOL    HW216433   7.186   0.962   5.934  0.3529  1.4345 -3.7611
 4998SOL     OW16434   7.925   6.029   6.400 -0.4778 -0.1292 -0.3776
 4998SOL    HW116435   7.830   6.016   6.404 -0.4825  0.2257  1.0508
 4998SOL    HW216436   7.941   6.054   6.309 -1.4946 -2.0271 -1.1395
 4999SOL     OW16437   0.854   5.077   7.377  0.0548  0.5134  0.6559
 4999SOL    HW116438   0.940   5.119   7.388  0.2981  0.1952 -0.0058
 4999SOL    HW216439   0.875   4.985   7.361 -0.3315  0.6960 -1.0764
 5000SOL     OW16440   1.570   4.867   6.072  0.0727 -0.3000  0.5165
 5000SOL    HW116441   1.546   4.943   6.125 -2.0153  0.2065 -1.0139
 5000SOL    HW216442   1.660   4.883   6.046  0.3262  0.6327  1.8570
 5001SOL     OW16443   0.320   7.622   7.517  0.1377  0.6237  0.1472
 5001SOL    HW116444   0.291   7.692   7.575  1.2924  0.9538  0.3497
 5001SOL    HW216445   0.247   7.560   7.515  0.2208  0.3897  2.2944
 5002SOL     OW16446   1.694   0.152   7.418 -0.9029 -0.5038 -0.2197
 5002SOL    HW116447   1.767   0.167   7.478 -0.0008 -0.9909 -1.1555
 5002SOL    HW216448   1.661   0.065   7.443 -1.2142 -0.2644  0.2325
 5003SOL     OW16449   2.048   4.069   6.332  0.6712  0.2591  0.0343
 5003SOL    HW116450   1.992   4.131   6.285 -1.1765 -0.7433  0.8165
 5003SOL    HW216451   2.063   4.111   6.417  0.2232  0.0613  0.2114
 5004SOL     OW16452   1.277   5.819   6.768  0.4701 -0.2294 -0.4385
 5004SOL    HW116453   1.239   5.890   6.715  0.6814 -0.0402 -0.3413
 5004SOL    HW216454   1.304   5.753   6.704  0.7552  0.0127 -0.5739
 5005SOL     OW16455   3.452   6.661   6.725 -0.6041 -0.7771 -0.8401
 5005SOL    HW116456   3.523   6.609   6.764 -1.2859 -0.6521  0.6571
 5005SOL    HW216457   3.397   6.597   6.680 -1.0772 -1.3083  0.4302
 5006SOL     OW16458   0.067   6.270   7.155  0.3171  0.1961  0.3885
 5006SOL    HW116459   0.038   6.191   7.202  0.4202 -0.2606 -0.2961
 5006SOL    HW216460   0.162   6.266   7.159  0.3357 -0.0631 -0.1974
 5007SOL     OW16461   2.485   7.026   5.335  0.2816  0.4354 -0.0092
 5007SOL    HW116462   2.459   7.023   5.427  0.5149 -2.9340  0.0464
 5007SOL    HW216463   2.550   6.957   5.325  1.3613  1.6824 -2.4290
 5008SOL     OW16464   7.460   3.828   4.740  0.1438  0.2597 -0.0630
 5008SOL    HW116465   7.472   3.881   4.661 -1.0848 -2.4729 -2.2937
 5008SOL    HW216466   7.374   3.853   4.773  0.5328  1.2015  0.2547
 5009SOL     OW16467   1.795   4.049   5.766 -0.3834  0.2337  0.0064
 5009SOL    HW116468   1.778   4.018   5.677  0.1811  0.0790 -0.0451
 5009SOL    HW216469   1.882   4.088   5.763 -0.4732  0.4810  0.4264
 5010SOL     OW16470   2.568   6.948   6.414 -0.1372 -0.2881 -0.1620
 5010SOL    HW116471   2.491   6.900   6.383 -0.4668  1.0614 -1.5751
 5010SOL    HW216472   2.632   6.880   6.434 -1.5374 -1.4322  0.6813
 5011SOL     OW16473   1.055   1.502   5.638  0.0422  0.5813  0.3702
 5011SOL    HW116474   1.042   1.425   5.694  0.3428  0.5905  0.4546
 5011SOL    HW216475   0.971   1.512   5.592  0.1484 -0.0668  0.0192
 5012SOL     OW16476   0.936   0.213   5.824 -0.5566  0.0645  0.0819
 5012SOL    HW116477   0.910   0.137   5.772  3.9071 -0.6877 -1.5334
 5012SOL    HW216478   0.945   0.180   5.913  0.4072 -1.1575 -0.4341
 5013SOL     OW16479   7.695   7.026   5.264  0.0935  0.1348 -0.3771
 5013SOL    HW116480   7.733   7.056   5.347  1.5981 -0.2348 -0.8936
 5013SOL    HW216481   7.763   6.970   5.226 -0.7096  0.0226 -1.7040
 5014SOL     OW16482   7.195   5.178   6.431  0.3606  0.2546  0.0254
 5014SOL    HW116483   7.194   5.273   6.443  2.1260  0.2119  0.8082
 5014SOL    HW216484   7.124   5.147   6.487  1.3490  0.9588  1.7629
 5015SOL     OW16485   2.054   5.752   6.848 -0.0429  0.6403 -0.3811
 5015SOL    HW116486   2.100   5.749   6.764 -2.6883 -0.1598 -1.9077
 5015SOL    HW216487   1.992   5.824   6.840 -0.2104  0.6816  0.9892
 5016SOL     OW16488   0.238   2.901   5.970 -0.0398  0.1462  0.1301
 5016SOL    HW116489   0.181   2.927   6.042  1.3399  1.2640  0.8766
 5016SOL    HW216490   0.278   2.819   5.999  1.0894  0.9760  1.0281
 5017SOL     OW16491   1.241   4.534   6.691  0.2897  0.4032 -0.7665
 5017SOL    HW116492   1.271   4.550   6.781 -1.3010  0.4957 -0.2081
 5017SOL    HW216493   1.145   4.531   6.699 -0.0649  3.0708 -2.8710
 5018SOL     OW16494   1.702   5.857   6.961 -0.3714 -0.7804  0.0504
 5018SOL    HW116495   1.763   5.840   7.033  0.3761 -4.7217 -1.2551
 5018SOL    HW216496   1.627   5.801   6.980 -1.3158  0.1051 -0.9513
 5019SOL     OW16497   0.967   6.444   7.578 -0.4179 -0.8690  0.1862
 5019SOL    HW116498   1.048   6.471   7.535  0.8578  0.3492  3.0766
 5019SOL    HW216499   0.927   6.381   7.517  1.4893  0.2322 -2.3822
 5020SOL     OW16500   7.941   5.735   7.048 -0.8173  0.3129  0.6522
 5020SOL    HW116501   8.018   5.770   7.092 -2.0645  1.5801  1.9357
 5020SOL    HW216502   7.947   5.768   6.959  1.3008 -1.5755  0.0027
 5021SOL     OW16503   2.480   6.383   6.475 -0.0435 -0.3192  0.5340
 5021SOL    HW116504   2.423   6.433   6.534  0.0891 -1.6014  1.8037
 5021SOL    HW216505   2.420   6.336   6.418 -0.2369 -0.4874  0.8699
 5022SOL     OW16506   7.439   0.005   3.831 -0.4095  0.2620 -0.2105
 5022SOL    HW116507   7.451   0.098   3.813  0.4239  0.5804  1.6771
 5022SOL    HW216508   7.345  -0.006   3.840 -0.4183  1.5028  1.9660
 5023SOL     OW16509   1.467   7.342   6.683 -0.1833  0.7554  0.1763
 5023SOL    HW116510   1.535   7.345   6.749 -0.1037 -1.3295  0.2713
 5023SOL    HW216511   1.512   7.313   6.603 -0.9147 -0.6761  0.2484
 5024SOL     OW16512   1.093   7.458   7.388 -0.4807 -0.2165  0.2293
 5024SOL    HW116513   1.090   7.538   7.336 -0.2032 -0.0881  0.4123
 5024SOL    HW216514   1.014   7.462   7.442 -1.0071 -0.5690 -0.4982
 5025SOL     OW16515   0.445   5.912   6.387 -0.0919  0.1011 -0.2284
 5025SOL    HW116516   0.459   5.998   6.349 -0.2653 -0.1670 -0.9124
 5025SOL    HW216517   0.401   5.862   6.318 -1.5642 -0.0219  0.7685
 5026SOL     OW16518   3.292   0.036   6.989  0.0187 -0.0229  0.4965
 5026SOL    HW116519   3.363   0.088   7.025  0.1514  0.0087  0.1951
 5026SOL    HW216520   3.315  -0.055   7.009 -0.2288  0.0300  1.0500
 5027SOL     OW16521   0.998   5.861   7.600  0.0797  0.6546 -0.6224
 5027SOL    HW116522   1.047   5.935   7.636 -1.2320  1.7182 -0.9749
 5027SOL    HW216523   1.020   5.788   7.658  2.3798  0.9651 -0.9831
 5028SOL     OW16524   1.234   7.499   6.077 -0.4644  0.0627 -0.3077
 5028SOL    HW116525   1.272   7.587   6.071 -2.0441  0.8993  0.9052
 5028SOL    HW216526   1.252   7.459   5.992  0.4419  1.5050 -0.8356
 5029SOL     OW16527   1.245   6.588   4.919 -0.1863  0.0620 -0.0269
 5029SOL    HW116528   1.307   6.644   4.871  0.4143 -1.5085 -1.1937
 5029SOL    HW216529   1.289   6.503   4.924 -1.6430 -0.7000  0.4312
 5030SOL     OW16530   0.166   6.055   8.566 -0.2860  0.0314 -0.1221
 5030SOL    HW116531   0.195   6.028   8.653 -0.0702 -2.7711 -0.9536
 5030SOL    HW216532   0.081   6.096   8.581 -0.4706 -0.7995  1.3869
 5031SOL     OW16533   1.994   6.641   8.355  0.2240  0.3689  0.1726
 5031SOL    HW116534   1.932   6.678   8.293  0.1611 -0.2730 -0.1538
 5031SOL    HW216535   2.014   6.555   8.320  0.6903  0.2599  0.7010
 5032SOL     OW16536   1.342   7.271   7.431 -0.4896  0.1935 -0.3063
 5032SOL    HW116537   1.277   7.340   7.422 -1.0577 -0.2298  0.4237
 5032SOL    HW216538   1.296   7.190   7.408  0.1101  0.0187 -0.9466
 5033SOL     OW16539   0.956   7.200   7.727  0.4323  0.2581 -0.3158
 5033SOL    HW116540   0.869   7.162   7.723  0.3461  0.5089 -0.9298
 5033SOL    HW216541   1.003   7.163   7.653  0.4781  1.0055 -0.6749
 5034SOL     OW16542   0.736   6.402   5.389  0.4973  0.3051 -0.4390
 5034SOL    HW116543   0.744   6.346   5.467  1.3879  0.3462 -0.4951
 5034SOL    HW216544   0.796   6.364   5.326 -1.1468 -0.4929 -1.5946
 5035SOL     OW16545   1.359   5.938   7.163  0.1761  0.6632 -0.2445
 5035SOL    HW116546   1.286   5.968   7.108  1.6966  0.9808 -2.1781
 5035SOL    HW216547   1.382   5.852   7.128  1.7119  1.2277 -0.6689
 5036SOL     OW16548   0.403   7.966   6.374 -0.0051 -0.2589 -0.3934
 5036SOL    HW116549   0.379   7.977   6.282 -2.0953  0.2120  0.1570
 5036SOL    HW216550   0.339   7.904   6.408  1.1715 -0.9555  0.6074
 5037SOL     OW16551   0.819   5.886   6.671 -0.1082  0.1206  0.1598
 5037SOL    HW116552   0.819   5.976   6.636 -0.2904 -0.4257 -1.3363
 5037SOL    HW216553   0.738   5.848   6.638  0.1152 -0.6912  0.5352
 5038SOL     OW16554   7.476   5.640   5.888  0.0523  0.0919 -0.2769
 5038SOL    HW116555   7.526   5.710   5.930 -0.5719  0.9988 -1.0113
 5038SOL    HW216556   7.493   5.563   5.942 -0.3228  1.1054  1.3676
 5039SOL     OW16557   0.597   7.787   5.331  0.2221  0.2217 -0.1289
 5039SOL    HW116558   0.562   7.748   5.411  1.5860  0.6514  0.6990
 5039SOL    HW216559   0.539   7.861   5.314 -1.4301 -1.1530 -0.8329
 5040SOL     OW16560   7.835   5.396   5.843 -0.0200 -0.5775 -0.4338
 5040SOL    HW116561   7.872   5.384   5.756  1.4374 -1.1734  0.2392
 5040SOL    HW216562   7.841   5.309   5.883  0.6151 -0.0185  0.7371
 5041SOL     OW16563   0.920   7.745   4.464  0.1175 -0.0553 -0.1086
 5041SOL    HW116564   0.910   7.653   4.436 -0.6399 -0.2827  0.8587
 5041SOL    HW216565   0.864   7.752   4.541  0.3691  1.1674 -0.0308
 5042SOL     OW16566   0.134   6.145   9.288  0.0307  0.2644 -0.2139
 5042SOL    HW116567   0.159   6.064   9.332  1.1148  1.0262  0.6361
 5042SOL    HW216568   0.051   6.125   9.244 -0.2586 -0.9859  0.8595
 5043SOL     OW16569   0.091   5.119   7.919 -0.1250 -0.0561  0.6557
 5043SOL    HW116570   0.133   5.193   7.962  1.2253  0.8703 -1.9903
 5043SOL    HW216571   0.025   5.158   7.861 -0.2609 -1.0069  0.1293
 5044SOL     OW16572   1.148   6.263   8.322 -0.1928  0.4149 -0.3011
 5044SOL    HW116573   1.143   6.169   8.339  0.3789  0.2651 -0.9090
 5044SOL    HW216574   1.240   6.278   8.300 -0.3186  1.0849 -0.3812
 5045SOL     OW16575   0.525   0.492   7.465  0.6711 -0.8043 -0.0145
 5045SOL    HW116576   0.564   0.556   7.524 -1.1263 -0.0415  0.3856
 5045SOL    HW216577   0.545   0.527   7.377  1.6429 -0.9125  0.1468
 5046SOL     OW16578   0.137   6.537   7.140 -0.3831 -0.3084 -0.0218
 5046SOL    HW116579   0.227   6.526   7.110 -0.1494 -0.1022  0.5806
 5046SOL    HW216580   0.105   6.448   7.154 -0.6642 -0.4298 -1.3308
 5047SOL     OW16581   2.817   7.664   7.127  0.6652 -0.0290 -0.0616
 5047SOL    HW116582   2.748   7.608   7.162  0.3674  0.9617  1.0191
 5047SOL    HW216583   2.771   7.724   7.067  0.6567  0.3081  0.2769
 5048SOL     OW16584   0.203   6.211   6.405  0.1116 -0.4469  0.7497
 5048SOL    HW116585   0.166   6.293   6.372  0.8127 -0.3311  0.2346
 5048SOL    HW216586   0.138   6.178   6.467 -0.8466 -0.2579 -0.1494
 5049SOL     OW16587   7.640   6.348   6.791 -0.7154 -0.1445 -0.3958
 5049SOL    HW116588   7.664   6.276   6.849  2.1133  0.4069 -0.7392
 5049SOL    HW216589   7.658   6.427   6.841  0.4119  0.3301 -1.5004
 5050SOL     OW16590   0.304   5.773   6.187 -0.4744  0.3460  0.1094
 5050SOL    HW116591   0.251   5.736   6.117 -0.0482 -0.2513  0.0966
 5050SOL    HW216592   0.327   5.698   6.242 -0.9246  0.8240  0.9739
 5051SOL     OW16593   0.054   7.427   6.411 -0.1064 -0.3848 -0.0942
 5051SOL    HW116594   0.058   7.416   6.316 -2.2801 -2.1672 -0.0424
 5051SOL    HW216595   0.050   7.522   6.424  2.0157 -0.0087 -1.6229
 5052SOL     OW16596   1.121   6.054   6.682  0.0494 -0.3546 -0.5448
 5052SOL    HW116597   1.043   5.999   6.680  0.2800 -0.6856 -0.5064
 5052SOL    HW216598   1.101   6.119   6.750 -0.7249  0.3773 -1.4529
 5053SOL     OW16599   0.082   6.713   8.828  0.1033 -0.5794  0.0080
 5053SOL    HW116600   0.008   6.749   8.779  0.5529  1.2047  0.5570
 5053SOL    HW216601   0.060   6.727   8.920  0.5606 -1.2290  0.2271
 5054SOL     OW16602   0.607   5.984   7.078 -0.2661  0.0535 -0.1803
 5054SOL    HW116603   0.549   6.052   7.044  0.3200  0.0320 -1.2536
 5054SOL    HW216604   0.551   5.907   7.088 -0.6809  0.3695 -0.0378
 5055SOL     OW16605   0.886   5.693   5.648 -0.0982 -0.1638 -0.4060
 5055SOL    HW116606   0.939   5.697   5.568 -0.6093 -0.5388 -0.7693
 5055SOL    HW216607   0.796   5.699   5.618 -0.3816 -1.9121 -0.0177
 5056SOL     OW16608   0.328   6.239   7.186 -0.0873  0.3286  0.0021
 5056SOL    HW116609   0.376   6.195   7.116 -0.0042  0.9734 -0.3629
 5056SOL    HW216610   0.390   6.305   7.219  0.0709 -0.3320  1.0603
 5057SOL     OW16611   7.345   6.804   6.842  0.1939 -0.1547  0.0236
 5057SOL    HW116612   7.303   6.742   6.782  1.9272 -0.6191 -0.7671
 5057SOL    HW216613   7.439   6.791   6.829  0.7604 -1.3120  3.8310
 5058SOL     OW16614   2.005   6.108   6.686 -0.0844 -0.5743  0.0003
 5058SOL    HW116615   1.967   6.182   6.734  0.6015 -0.7807  0.8886
 5058SOL    HW216616   1.950   6.033   6.710 -0.3646 -0.4838 -0.3564
 5059SOL     OW16617   0.481   7.193   5.484 -0.4469  0.1415 -0.0953
 5059SOL    HW116618   0.434   7.202   5.567  0.0917  1.6222  0.0873
 5059SOL    HW216619   0.413   7.188   5.418 -0.8923 -1.4581  0.4367
 5060SOL     OW16620   1.722   5.832   6.217 -0.4931  0.0092 -0.6665
 5060SOL    HW116621   1.786   5.894   6.184  0.7738 -0.5489  0.6499
 5060SOL    HW216622   1.765   5.747   6.211 -2.4017 -0.9094 -2.9779
 5061SOL     OW16623   7.268   6.203   7.575  0.2233  0.1542  0.4233
 5061SOL    HW116624   7.269   6.286   7.622 -0.1950  1.9244 -2.4407
 5061SOL    HW216625   7.352   6.199   7.530 -0.2733 -0.3273 -0.4963
 5062SOL     OW16626   2.311   0.323   6.173  0.3210  0.6778  0.1183
 5062SOL    HW116627   2.361   0.241   6.176 -0.4116  0.2383  1.7478
 5062SOL    HW216628   2.271   0.323   6.086  0.0446 -0.8833  0.2122
 5063SOL     OW16629   0.473   7.650   4.756 -0.3523  0.2720  0.0480
 5063SOL    HW116630   0.547   7.642   4.816  0.2968 -2.4523 -0.9829
 5063SOL    HW216631   0.396   7.645   4.813  0.2393  0.5300  0.8942
 5064SOL     OW16632   1.295   3.692   6.044 -0.0996 -0.4356 -0.5020
 5064SOL    HW116633   1.390   3.699   6.031 -0.1746 -0.2888 -0.9831
 5064SOL    HW216634   1.265   3.633   5.975 -0.0320 -2.5118  1.1421
 5065SOL     OW16635   1.306   6.563   8.389 -0.4015  0.2747  1.0781
 5065SOL    HW116636   1.247   6.508   8.439 -1.2824  1.5709  1.5097
 5065SOL    HW216637   1.252   6.600   8.320  0.6508 -0.9690 -0.4798
 5066SOL     OW16638   0.488   6.530   8.149  0.0333  0.0730 -0.3034
 5066SOL    HW116639   0.553   6.597   8.125 -0.2913 -0.0189 -1.4893
 5066SOL    HW216640   0.429   6.526   8.074 -1.6044  0.4407  0.9056
 5067SOL     OW16641   0.142   7.800   5.984 -0.3129 -0.1383 -0.2963
 5067SOL    HW116642   0.142   7.817   6.079 -0.5688  2.0504 -0.6343
 5067SOL    HW216643   0.105   7.712   5.975  1.0462 -0.9931  1.7048
 5068SOL     OW16644   0.549   0.215   4.948 -0.4871 -0.5182 -0.5813
 5068SOL    HW116645   0.643   0.206   4.963 -0.6636 -0.3698  0.6877
 5068SOL    HW216646   0.539   0.302   4.910 -0.3732  0.7369  2.0610
 5069SOL     OW16647   0.426   6.951   7.498  0.9860 -0.2017  0.6413
 5069SOL    HW116648   0.503   6.940   7.441  0.8478 -1.9805  0.7591
 5069SOL    HW216649   0.351   6.939   7.440  0.8457 -2.3282  1.2071
 5070SOL     OW16650   7.777   5.189   8.721  0.4511  0.9908  0.0499
 5070SOL    HW116651   7.839   5.263   8.721  2.3581 -0.4827 -1.7459
 5070SOL    HW216652   7.712   5.212   8.655  1.2659  0.9104 -0.7951
 5071SOL     OW16653   1.338   4.146   5.426  0.3077  0.1079  0.4330
 5071SOL    HW116654   1.244   4.135   5.440  0.6940 -0.8571  2.7531
 5071SOL    HW216655   1.360   4.084   5.357 -0.3530 -1.6590  1.7338
 5072SOL     OW16656   0.251   4.886   7.017 -0.7435  0.2496 -0.0983
 5072SOL    HW116657   0.275   4.795   6.998 -0.6982  0.0567  0.8461
 5072SOL    HW216658   0.264   4.931   6.933 -1.3419 -0.7164 -0.7430
 5073SOL     OW16659   2.091   4.329   7.232 -0.7826 -0.3884  0.1051
 5073SOL    HW116660   2.021   4.321   7.167 -1.8492 -1.1842  1.3014
 5073SOL    HW216661   2.166   4.286   7.192 -1.1955 -0.1836 -0.9065
 5074SOL     OW16662   6.955   6.475   6.904  0.2611 -0.2785 -0.3376
 5074SOL    HW116663   6.982   6.545   6.964  0.0114  0.7947 -1.4119
 5074SOL    HW216664   6.959   6.395   6.955  2.1736  0.2994  0.4969
 5075SOL     OW16665   1.546   0.860   5.683 -0.0754 -0.5454  0.0578
 5075SOL    HW116666   1.453   0.856   5.709  0.1522 -0.2346  0.9670
 5075SOL    HW216667   1.556   0.788   5.620 -1.3632  0.6055 -1.5510
 5076SOL     OW16668   2.158   7.003   5.708 -0.2520  0.2329 -0.4573
 5076SOL    HW116669   2.062   7.003   5.713 -0.2453 -0.5494 -0.3272
 5076SOL    HW216670   2.186   7.054   5.785 -0.4921 -2.0482  1.2237
 5077SOL     OW16671   2.028   4.939   8.737 -0.0584 -0.0763 -0.8873
 5077SOL    HW116672   2.076   5.022   8.747 -0.6344  0.2791 -1.0318
 5077SOL    HW216673   1.938   4.961   8.759 -0.1208 -0.7883 -0.4304
 5078SOL     OW16674   1.143   6.265   6.876 -0.0812  0.5744  0.2681
 5078SOL    HW116675   1.051   6.289   6.870 -0.3155 -0.1820  0.7068
 5078SOL    HW216676   1.180   6.326   6.940 -0.8782 -0.7510  2.0895
 5079SOL     OW16677   7.696   7.874   6.049  0.0441  0.4555  0.9642
 5079SOL    HW116678   7.601   7.862   6.045  0.4227 -3.7095 -1.3853
 5079SOL    HW216679   7.717   7.928   5.972 -0.2898 -0.5920  0.1176
 5080SOL     OW16680   1.249   0.077   4.463 -0.0987 -0.5297  0.0764
 5080SOL    HW116681   1.229   0.090   4.556  1.2190 -0.0928  0.3247
 5080SOL    HW216682   1.217  -0.012   4.444 -0.5721 -0.5428  0.8852
 5081SOL     OW16683   0.146   6.573   9.319  0.5449  0.1195 -0.5293
 5081SOL    HW116684   0.202   6.651   9.325  0.4068  0.2904 -1.3618
 5081SOL    HW216685   0.192   6.516   9.259  1.1994 -0.9327  0.9155
 5082SOL     OW16686   0.510   7.893   4.901 -0.6023 -0.0097  0.7161
 5082SOL    HW116687   0.471   7.954   4.963 -1.2257 -2.2481  2.6767
 5082SOL    HW216688   0.602   7.917   4.898 -0.6851  0.5387  2.0456
 5083SOL     OW16689   0.395   7.890   7.230 -0.2340 -0.2674 -0.4329
 5083SOL    HW116690   0.381   7.927   7.142 -0.4700 -0.2476 -0.3863
 5083SOL    HW216691   0.374   7.797   7.221  0.4745 -0.4174 -0.5783
 5084SOL     OW16692   0.987   1.105   5.015  1.1914  0.2885 -0.2619
 5084SOL    HW116693   1.071   1.102   4.969  1.1364  3.0200 -0.6958
 5084SOL    HW216694   0.999   1.174   5.081  0.3205 -1.5520  1.9423
 5085SOL     OW16695   7.985   7.194   6.914  0.6669  0.1346  0.5363
 5085SOL    HW116696   8.036   7.263   6.957 -1.2401  2.0744 -0.1569
 5085SOL    HW216697   7.902   7.236   6.891  0.1257 -1.8876 -1.5715
 5086SOL     OW16698   0.364   7.622   7.252 -0.3344 -0.2579  0.0089
 5086SOL    HW116699   0.376   7.650   7.343 -0.7514 -2.0466  0.6531
 5086SOL    HW216700   0.443   7.571   7.232 -1.1038 -1.5013  0.0427
 5087SOL     OW16701   1.524   4.591   3.860 -0.0385 -0.1015 -0.7052
 5087SOL    HW116702   1.618   4.601   3.846  0.2412 -0.4924  0.7807
 5087SOL    HW216703   1.496   4.673   3.900  0.1185 -0.7898  0.9030
 5088SOL     OW16704   0.200   7.985   4.129  0.1943 -0.0147 -0.0031
 5088SOL    HW116705   0.185   8.078   4.148 -2.5608 -0.6359  1.3291
 5088SOL    HW216706   0.140   7.966   4.056 -1.4501 -1.3074  1.5883
 5089SOL     OW16707   0.236   5.968   5.136 -0.3237  0.1417 -0.1415
 5089SOL    HW116708   0.297   6.032   5.098 -0.2627  0.2864  0.1951
 5089SOL    HW216709   0.160   6.020   5.161  0.0138  0.2063  0.7904
 5090SOL     OW16710   7.442   6.883   6.426 -0.1408  0.3761  0.3390
 5090SOL    HW116711   7.503   6.955   6.407  0.3025  0.5721  2.2719
 5090SOL    HW216712   7.498   6.813   6.459 -0.6601 -0.5975 -0.7736
 5091SOL     OW16713   2.297   6.147   6.301 -0.1547 -1.0201 -0.1299
 5091SOL    HW116714   2.355   6.096   6.357 -0.5559 -0.8555  0.4355
 5091SOL    HW216715   2.210   6.137   6.339 -0.2664 -0.0294 -0.0840
 5092SOL     OW16716   0.306   1.771   5.270  0.3042  0.0732  0.1879
 5092SOL    HW116717   0.313   1.790   5.364  0.4579  2.8319 -0.2866
 5092SOL    HW216718   0.244   1.698   5.264 -0.8065  0.7529  2.3689
 5093SOL     OW16719   2.105   6.703   7.002 -0.6196 -0.3077 -0.2368
 5093SOL    HW116720   2.150   6.773   6.954 -0.7330 -0.3774 -0.4471
 5093SOL    HW216721   2.014   6.733   7.008 -0.6332 -0.3604 -0.1827
 5094SOL     OW16722   6.832   5.523   5.271  0.4448 -0.3948  0.1031
 5094SOL    HW116723   6.768   5.487   5.333 -0.3103 -1.9624 -1.5032
 5094SOL    HW216724   6.916   5.494   5.305  0.0729 -0.9397  0.5935
 5095SOL     OW16725   7.360   5.758   6.505 -0.5960  0.5570  0.2405
 5095SOL    HW116726   7.373   5.767   6.411 -0.5450  0.0981  0.2023
 5095SOL    HW216727   7.447   5.737   6.540 -0.5509  1.0470  0.4320
 5096SOL     OW16728   7.467   0.474   6.050  0.3022 -0.1858 -0.0448
 5096SOL    HW116729   7.460   0.476   5.954 -1.0048 -0.4551  0.0255
 5096SOL    HW216730   7.408   0.543   6.080 -0.7103 -1.3004  0.6088
 5097SOL     OW16731   1.023   6.900   6.078  0.0371 -0.7524 -0.1630
 5097SOL    HW116732   0.965   6.837   6.035 -1.0744 -0.1999  0.4695
 5097SOL    HW216733   1.111   6.865   6.065 -0.4428 -1.6602 -1.0791
 5098SOL     OW16734   0.560   6.541   6.415 -0.2985  0.6939  0.2397
 5098SOL    HW116735   0.479   6.503   6.449 -0.1657 -0.3146 -0.5419
 5098SOL    HW216736   0.588   6.481   6.345 -0.2585  2.3698 -1.2683
 5099SOL     OW16737   1.616   6.547   8.283  0.0494 -0.3522 -0.7288
 5099SOL    HW116738   1.551   6.566   8.351  0.2649 -1.3321 -0.2306
 5099SOL    HW216739   1.645   6.458   8.302  0.8152 -0.2898 -1.5462
 5100SOL     OW16740   0.906   7.035   8.075 -0.2572 -0.2189 -0.4740
 5100SOL    HW116741   0.933   6.959   8.024 -1.8432 -0.8497 -0.4462
 5100SOL    HW216742   0.944   7.021   8.162  1.6963  0.4096 -1.1821
 5101SOL     OW16743   1.727   6.986   6.667 -0.1343  0.4068 -0.0335
 5101SOL    HW116744   1.817   6.993   6.698 -0.1779 -0.7180  0.3928
 5101SOL    HW216745   1.674   7.006   6.743 -0.2419 -0.0022  0.0008
 5102SOL     OW16746   0.975   5.633   8.157 -0.0246 -0.1044 -0.4354
 5102SOL    HW116747   1.014   5.716   8.128 -1.0402  0.8104  0.6583
 5102SOL    HW216748   1.050   5.576   8.175  0.9040  1.6043  1.6424
 5103SOL     OW16749   1.470   5.248   6.498  0.6207  0.0834 -0.4389
 5103SOL    HW116750   1.544   5.309   6.504  0.4878  0.2098 -0.0718
 5103SOL    HW216751   1.398   5.301   6.464  0.3757  0.2501  0.3236
 5104SOL     OW16752   2.126   6.827   5.393 -0.1715  0.3781  0.0565
 5104SOL    HW116753   2.139   6.911   5.349  0.3266 -0.1566 -0.8516
 5104SOL    HW216754   2.050   6.840   5.449 -0.5292  1.2269 -0.6083
 5105SOL     OW16755   1.760   5.722   7.814  0.2553 -0.7030  0.4881
 5105SOL    HW116756   1.770   5.679   7.729  0.4460  0.1415  0.0733
 5105SOL    HW216757   1.827   5.790   7.815 -0.0392 -0.4095  1.1307
 5106SOL     OW16758   7.911   6.893   5.139  0.2869  0.0499 -0.1851
 5106SOL    HW116759   7.943   6.869   5.226  0.5064  0.4475 -0.1523
 5106SOL    HW216760   7.906   6.810   5.091 -0.6322 -0.2891  0.4594
 5107SOL     OW16761   5.698   7.351   6.251 -0.3419  0.2034  0.4738
 5107SOL    HW116762   5.619   7.316   6.294  0.6053 -1.3206  1.0346
 5107SOL    HW216763   5.729   7.419   6.311 -0.2643 -0.4081  1.1528
 5108SOL     OW16764   2.293   6.678   8.257 -0.0175 -0.4873 -0.2468
 5108SOL    HW116765   2.340   6.758   8.282  1.3199 -1.3738  0.1548
 5108SOL    HW216766   2.209   6.685   8.302  0.3332  0.4115  0.2994
 5109SOL     OW16767   0.973   6.193   6.119 -0.5884 -1.1256  0.3171
 5109SOL    HW116768   1.015   6.212   6.035 -1.0943 -2.7665 -0.3472
 5109SOL    HW216769   0.951   6.100   6.114  0.9555 -1.7532  2.9731
 5110SOL     OW16770   2.248   5.130   8.125  0.0001  0.6483 -0.5198
 5110SOL    HW116771   2.177   5.123   8.062 -2.1355  2.8480  1.4368
 5110SOL    HW216772   2.312   5.187   8.081 -1.1427  1.6240 -0.9952
 5111SOL     OW16773   0.354   5.736   8.072  0.2739  0.0663 -0.5492
 5111SOL    HW116774   0.417   5.784   8.125  0.9993 -0.8197 -0.5941
 5111SOL    HW216775   0.294   5.804   8.039  0.7037  0.8062  0.1667
 5112SOL     OW16776   2.197   6.085   4.594  0.1224  0.3495 -0.4484
 5112SOL    HW116777   2.290   6.069   4.584  0.0882 -0.5410  0.4653
 5112SOL    HW216778   2.191   6.172   4.634  0.6109  0.0202  0.3574
 5113SOL     OW16779   0.304   4.773   7.373 -0.1274 -0.0250 -0.5794
 5113SOL    HW116780   0.229   4.808   7.325 -0.1382  1.1515  0.2516
 5113SOL    HW216781   0.375   4.835   7.355  0.4841 -0.7749 -0.8369
 5114SOL     OW16782   1.723   7.775   6.352  0.5082  0.1087 -0.0953
 5114SOL    HW116783   1.740   7.691   6.396  2.1402  0.6811  0.4543
 5114SOL    HW216784   1.793   7.832   6.383  1.4887  0.7015 -3.0639
 5115SOL     OW16785   0.842   3.100   5.972  0.1664 -0.0713 -0.0979
 5115SOL    HW116786   0.893   3.067   6.046  0.1236  0.7128  0.2855
 5115SOL    HW216787   0.853   3.195   5.975 -0.0779 -0.0066 -0.9215
 5116SOL     OW16788   0.618   7.234   7.075 -0.1928 -0.3001  0.0738
 5116SOL    HW116789   0.606   7.188   6.992  1.1025 -0.3113 -0.1279
 5116SOL    HW216790   0.643   7.165   7.137 -0.0433 -0.1315  0.2021
 5117SOL     OW16791   0.115   7.384   7.055  0.2788 -0.2912 -0.4254
 5117SOL    HW116792   0.198   7.365   7.098  0.2310 -0.4236 -0.3908
 5117SOL    HW216793   0.098   7.476   7.075 -0.0397 -0.5145  0.3437
 5118SOL     OW16794   1.932   5.849   8.150  0.0181  0.6435 -0.1018
 5118SOL    HW116795   1.901   5.837   8.061  0.6247 -0.2219 -0.2090
 5118SOL    HW216796   1.947   5.943   8.158 -0.3745  0.7700 -0.7896
 5119SOL     OW16797   2.441   5.857   6.165  0.1915  0.4907  0.0717
 5119SOL    HW116798   2.491   5.883   6.242 -1.0627 -0.2906  1.1904
 5119SOL    HW216799   2.374   5.798   6.198 -1.7893  1.8281 -1.2763
 5120SOL     OW16800   0.360   6.952   5.861 -0.1695  0.5423  0.1763
 5120SOL    HW116801   0.392   6.938   5.950 -0.5811 -1.5344  0.0498
 5120SOL    HW216802   0.401   6.883   5.809 -0.9988  0.8626 -0.9644
 5121SOL     OW16803   1.950   6.834   7.681 -0.2895  0.5326  0.1139
 5121SOL    HW116804   2.028   6.811   7.630 -0.3121  2.0863 -0.6785
 5121SOL    HW216805   1.948   6.770   7.752  0.3117 -1.0721 -1.2634
 5122SOL     OW16806   2.009   7.142   8.474 -0.4287 -0.3849 -0.4982
 5122SOL    HW116807   2.066   7.145   8.551 -0.6601  1.7406 -0.3442
 5122SOL    HW216808   2.058   7.188   8.406  0.1854 -3.0519 -1.9910
 5123SOL     OW16809   1.712   6.943   5.410 -0.3391  0.1507  0.2277
 5123SOL    HW116810   1.783   6.953   5.346 -0.5007 -1.3035 -0.2256
 5123SOL    HW216811   1.633   6.937   5.356 -0.9729  2.6037  0.7539
 5124SOL     OW16812   0.176   7.369   5.026 -0.2866 -0.0625  0.1782
 5124SOL    HW116813   0.090   7.327   5.028  0.6825 -2.1371  1.7502
 5124SOL    HW216814   0.219   7.334   4.948  0.3449 -1.7339  1.2326
 5125SOL     OW16815   6.621   6.211   6.373 -0.1599  0.3040 -0.0513
 5125SOL    HW116816   6.639   6.173   6.459 -0.6350  0.3664  0.0794
 5125SOL    HW216817   6.526   6.203   6.363 -0.0236 -0.3817 -0.8947
 5126SOL     OW16818   7.968   7.667   6.513 -0.1639  0.4383  0.2140
 5126SOL    HW116819   7.989   7.646   6.605  0.6213  2.1307  0.4590
 5126SOL    HW216820   7.999   7.757   6.502 -0.2126  0.2405 -1.7422
 5127SOL     OW16821   2.453   5.620   7.077  0.8501  0.2708  0.0743
 5127SOL    HW116822   2.528   5.666   7.115  1.8445 -0.6559 -0.6945
 5127SOL    HW216823   2.470   5.527   7.097  0.2441 -0.0049 -0.6603
 5128SOL     OW16824   1.542   6.422   5.144  0.1291  0.0484 -0.0359
 5128SOL    HW116825   1.487   6.409   5.067 -0.2717  1.1350  0.0505
 5128SOL    HW216826   1.500   6.372   5.213  1.3815 -2.3247 -0.8611
 5129SOL     OW16827   7.952   0.469   6.316  0.3774  0.3716  0.1718
 5129SOL    HW116828   7.941   0.374   6.322  1.2391  0.2941  0.6078
 5129SOL    HW216829   8.017   0.490   6.383  2.1430  0.9218 -1.6137
 5130SOL     OW16830   0.178   5.626   7.562  0.3522 -0.4278  0.0377
 5130SOL    HW116831   0.100   5.672   7.593  0.5620 -1.3260  2.0164
 5130SOL    HW216832   0.245   5.693   7.557 -0.5477  0.4319 -2.0236
 5131SOL     OW16833   1.729   4.864   7.071 -0.2662  0.3392  0.1737
 5131SOL    HW116834   1.782   4.785   7.057 -0.3370  0.4093 -0.5335
 5131SOL    HW216835   1.791   4.936   7.063 -0.2834  0.3769  0.3746
 5132SOL     OW16836   0.822   5.672   8.404  0.1564 -0.1603  0.2212
 5132SOL    HW116837   0.751   5.613   8.378  0.8003 -1.6585  1.6823
 5132SOL    HW216838   0.894   5.649   8.345 -0.0140  0.1583 -0.1197
 5133SOL     OW16839   1.790   7.991   8.408 -0.0761  0.0687  0.5305
 5133SOL    HW116840   1.850   7.935   8.457  1.3722  1.9156  0.9601
 5133SOL    HW216841   1.706   7.981   8.453  0.7340  0.1118  2.1291
 5134SOL     OW16842   0.791   5.773   7.453 -0.3410  0.1695  0.6947
 5134SOL    HW116843   0.706   5.788   7.494 -0.3387 -0.4131  0.9236
 5134SOL    HW216844   0.853   5.821   7.508 -0.5681  0.9506  0.2811
 5135SOL     OW16845   0.266   7.658   6.631 -0.4733  0.2411 -0.2512
 5135SOL    HW116846   0.298   7.615   6.552  0.1102  0.3323 -0.0708
 5135SOL    HW216847   0.191   7.606   6.659  1.1919 -1.6933  0.9163
 5136SOL     OW16848   1.657   7.023   6.403 -0.4615  0.1133  0.1722
 5136SOL    HW116849   1.664   7.011   6.498  1.5086  0.3348  0.0996
 5136SOL    HW216850   1.673   6.936   6.367 -2.5866 -0.2734  0.0248
 5137SOL     OW16851   0.829   5.502   5.430 -0.1721 -0.0903  0.8464
 5137SOL    HW116852   0.871   5.491   5.515  1.7054  2.7308  0.4140
 5137SOL    HW216853   0.878   5.445   5.371 -1.0576 -1.5489  1.4646
 5138SOL     OW16854   6.538   7.648   5.086  0.0639 -0.4465 -0.0081
 5138SOL    HW116855   6.471   7.603   5.034 -0.0681 -0.5516  0.2514
 5138SOL    HW216856   6.568   7.582   5.149  0.3036 -0.3540 -0.0238
 5139SOL     OW16857   7.859   6.140   5.568 -0.5221  0.4735  0.2816
 5139SOL    HW116858   7.860   6.069   5.503 -1.0014  0.8539 -0.1527
 5139SOL    HW216859   7.807   6.105   5.640  2.2720 -1.0141  1.7343
 5140SOL     OW16860   1.228   5.184   5.740  0.6174 -0.4260 -0.1337
 5140SOL    HW116861   1.235   5.096   5.705  2.2649 -0.0361 -0.8513
 5140SOL    HW216862   1.251   5.241   5.667 -1.2219  0.6713  0.0800
 5141SOL     OW16863   0.271   6.540   6.098  0.0636 -0.1826 -0.2821
 5141SOL    HW116864   0.341   6.475   6.097 -0.3026 -0.5956 -1.7469
 5141SOL    HW216865   0.273   6.579   6.011  0.3273  1.8823  0.5834
 5142SOL     OW16866   0.170   5.693   5.321 -0.0032  1.1704  0.1090
 5142SOL    HW116867   0.250   5.656   5.359  0.0168  0.6181 -0.4476
 5142SOL    HW216868   0.198   5.776   5.283  0.1497  1.3325  0.5735
 5143SOL     OW16869   4.818   7.797   5.113 -0.5753 -0.1577 -0.0533
 5143SOL    HW116870   4.830   7.878   5.162 -1.0413 -0.6975  0.9858
 5143SOL    HW216871   4.869   7.732   5.161 -0.5277 -0.5661 -0.6517
 5144SOL     OW16872   7.622   6.352   5.554  0.5020 -0.5449  0.7310
 5144SOL    HW116873   7.676   6.411   5.501 -0.7319  1.0487  1.1773
 5144SOL    HW216874   7.612   6.397   5.637  1.4128 -2.4681  1.9677
 5145SOL     OW16875   0.359   6.399   5.665  0.1745 -0.2508  0.1233
 5145SOL    HW116876   0.383   6.474   5.610  1.3393 -0.1343  0.7611
 5145SOL    HW216877   0.419   6.330   5.640 -1.3230 -1.2209 -0.9194
 5146SOL     OW16878   1.679   6.197   8.423 -0.9893 -0.4735  0.2306
 5146SOL    HW116879   1.593   6.184   8.383 -0.6055 -0.2063 -0.7015
 5146SOL    HW216880   1.735   6.224   8.351 -0.6020  1.4278  1.1691
 5147SOL     OW16881   7.943   6.508   8.548  0.9001 -0.0978  0.3585
 5147SOL    HW116882   8.030   6.549   8.540  0.5643  0.3334 -1.7456
 5147SOL    HW216883   7.921   6.483   8.458 -0.7167 -1.1607  1.0182
 5148SOL     OW16884   1.256   5.549  11.252  0.2826 -0.2343  0.4082
 5148SOL    HW116885   1.247   5.467  11.301 -2.8828 -1.7102 -2.2282
 5148SOL    HW216886   1.216   5.615  11.308  0.9272 -0.8900  1.6836
 5149SOL     OW16887   0.748   7.991   7.685  0.4111  0.5420  0.0069
 5149SOL    HW116888   0.790   7.911   7.718 -0.3326 -0.4358 -1.3040
 5149SOL    HW216889   0.661   7.990   7.724  0.5165  0.9042  0.2568
 5150SOL     OW16890   6.780   5.069   7.771 -0.0248  0.0018 -0.4356
 5150SOL    HW116891   6.794   5.164   7.775 -0.7693  0.1043 -0.0575
 5150SOL    HW216892   6.819   5.043   7.687  2.9929  0.1282  0.8262
 5151SOL     OW16893   1.745   6.125   7.717  0.0310 -0.1039  0.3956
 5151SOL    HW116894   1.778   6.102   7.630  0.4053  0.6994  0.3126
 5151SOL    HW216895   1.802   6.077   7.777  1.4228  1.2914  0.2508
 5152SOL     OW16896   1.151   5.761   9.430 -0.1715  0.1386 -0.4532
 5152SOL    HW116897   1.151   5.708   9.350 -0.1800 -0.4430 -0.0691
 5152SOL    HW216898   1.061   5.757   9.461  0.0074 -0.3130  0.0268
 5153SOL     OW16899   7.737   6.492  10.219  0.2904  0.4450 -0.1933
 5153SOL    HW116900   7.730   6.396  10.226 -0.8517  0.5645  0.5820
 5153SOL    HW216901   7.701   6.512  10.132  1.1917  0.1202 -0.6500
 5154SOL     OW16902   7.449   4.202   5.714  0.3411 -0.0257  0.5345
 5154SOL    HW116903   7.516   4.271   5.719  1.2437 -0.8100 -0.2437
 5154SOL    HW216904   7.382   4.229   5.777  1.1723  1.0206  1.0104
 5155SOL     OW16905   7.243   6.500   9.561  0.4706  0.1577 -0.1567
 5155SOL    HW116906   7.151   6.480   9.548  0.5799  0.4621 -1.4712
 5155SOL    HW216907   7.257   6.582   9.515  1.5308 -0.1809 -0.4650
 5156SOL     OW16908   1.254   6.651   8.123 -0.2007  0.2175  0.0518
 5156SOL    HW116909   1.191   6.704   8.074 -1.0554 -0.4252  0.4264
 5156SOL    HW216910   1.337   6.665   8.078 -0.5680  1.2472 -0.3266
 5157SOL     OW16911   0.943   6.970   8.679  0.5028  0.1576 -0.9281
 5157SOL    HW116912   0.941   6.885   8.635  0.6872 -0.9657  1.0683
 5157SOL    HW216913   0.874   6.964   8.745  2.2078  0.4969  0.9950
 5158SOL     OW16914   7.258   5.031   8.039  0.8600 -0.3400 -0.1640
 5158SOL    HW116915   7.201   4.956   8.020  0.6942 -0.2925  0.1328
 5158SOL    HW216916   7.235   5.096   7.973 -0.3294  0.1584  0.7058
 5159SOL     OW16917   2.982   6.276   7.356 -0.6531  0.0943  0.6651
 5159SOL    HW116918   3.050   6.325   7.309  0.3181 -2.0685 -0.3184
 5159SOL    HW216919   3.004   6.184   7.342 -1.4815 -0.7019  3.7691
 5160SOL     OW16920   1.254   7.255   8.610 -0.4396 -0.6999 -0.5431
 5160SOL    HW116921   1.344   7.249   8.576  0.0030  0.0666  0.4419
 5160SOL    HW216922   1.262   7.312   8.687 -1.7414 -0.8018 -0.3249
 5161SOL     OW16923   0.686   6.701   8.063  0.1501 -0.5744 -0.1862
 5161SOL    HW116924   0.641   6.720   7.980 -0.6974  0.9497  0.5886
 5161SOL    HW216925   0.774   6.677   8.036 -0.0642  0.0151 -1.5398
 5162SOL     OW16926   1.349   7.045   5.542  0.4467 -0.1480 -0.1070
 5162SOL    HW116927   1.297   7.109   5.493 -0.7141 -1.2795 -0.4297
 5162SOL    HW216928   1.408   7.008   5.477  0.9317  0.3951  0.0193
 5163SOL     OW16929   0.096   0.113   8.466  0.0845 -0.3001 -0.0061
 5163SOL    HW116930   0.090   0.207   8.446 -0.9311 -0.3212  0.1536
 5163SOL    HW216931   0.049   0.070   8.394  0.0943 -0.6530  0.1968
 5164SOL     OW16932   6.749   6.997   7.139 -0.1397  0.1947 -0.0209
 5164SOL    HW116933   6.735   7.084   7.101 -1.3137  0.9270  1.9829
 5164SOL    HW216934   6.678   6.943   7.103  1.2576 -0.3295 -2.1911
 5165SOL     OW16935   7.482   4.391   7.583  0.3334 -0.1667 -0.0805
 5165SOL    HW116936   7.533   4.452   7.636 -0.2806  0.1812  0.1250
 5165SOL    HW216937   7.437   4.335   7.647  0.6848 -0.6688 -0.2630
 5166SOL     OW16938   7.365   0.572  10.677 -0.0078  0.3266  0.2676
 5166SOL    HW116939   7.309   0.627  10.623  1.0798  0.3056 -0.9141
 5166SOL    HW216940   7.343   0.482  10.651  1.3742  0.3463 -1.0606
 5167SOL     OW16941   0.940   6.374   8.506 -0.8391  0.5379  0.3976
 5167SOL    HW116942   1.002   6.352   8.436 -1.4872 -0.0202 -0.0182
 5167SOL    HW216943   0.953   6.305   8.571 -1.1964  0.2719  0.1911
 5168SOL     OW16944   7.839   0.506   8.186  0.4216 -0.2027  0.2648
 5168SOL    HW116945   7.831   0.413   8.206  1.0906 -0.5798 -1.1143
 5168SOL    HW216946   7.932   0.525   8.192  0.1453  0.8776  2.4199
 5169SOL     OW16947   2.618   7.448   7.136 -0.2482 -0.2602  0.2321
 5169SOL    HW116948   2.676   7.373   7.121 -0.8622 -0.9381  1.1276
 5169SOL    HW216949   2.534   7.422   7.097 -0.7881 -0.5215  1.5209
 5170SOL     OW16950   1.961   7.051   7.937 -0.3193  0.0161 -1.0076
 5170SOL    HW116951   1.909   6.999   7.875 -0.7819 -0.2491 -0.4042
 5170SOL    HW216952   1.929   7.025   8.023 -2.0015  2.7216 -0.6879
 5171SOL     OW16953   1.577   7.083   8.948 -0.1841 -0.0509  0.1738
 5171SOL    HW116954   1.521   7.024   8.999  0.2759 -0.9367 -0.3385
 5171SOL    HW216955   1.639   7.118   9.012  0.7316 -1.5674  0.1577
 5172SOL     OW16956   7.171   6.416   8.521 -0.1326 -0.1487 -0.1557
 5172SOL    HW116957   7.100   6.411   8.585  0.6664 -0.0029  0.7615
 5172SOL    HW216958   7.169   6.331   8.477  0.5959 -1.0781  1.4960
 5173SOL     OW16959   1.954   6.952   8.198  0.0714 -0.0468  0.2251
 5173SOL    HW116960   2.037   6.936   8.244 -0.1076 -0.0752  0.5354
 5173SOL    HW216961   1.914   6.866   8.191  0.3027 -0.1100 -0.3796
 5174SOL     OW16962   0.375   4.413   8.872  0.2708 -0.7746 -1.1469
 5174SOL    HW116963   0.392   4.319   8.868  0.8733 -0.7090 -0.2980
 5174SOL    HW216964   0.367   4.439   8.781  1.4977 -1.4061 -1.4613
 5175SOL     OW16965   0.270   5.050   8.296 -0.2271 -0.3357 -0.2478
 5175SOL    HW116966   0.205   5.074   8.230  1.4886  1.9099 -1.2546
 5175SOL    HW216967   0.278   5.127   8.351 -1.6312 -2.1534  2.7731
 5176SOL     OW16968   1.266   7.019   8.013  0.3572 -1.1762  0.0072
 5176SOL    HW116969   1.237   7.102   8.052  0.8292  0.2040 -2.3472
 5176SOL    HW216970   1.362   7.022   8.019  0.3776 -1.5546 -0.1064
 5177SOL     OW16971   3.422   7.669   8.666 -1.0859  0.0918  0.1701
 5177SOL    HW116972   3.427   7.602   8.598  0.5834  0.6121 -0.2558
 5177SOL    HW216973   3.332   7.702   8.661 -1.2523 -0.5266 -1.1433
 5178SOL     OW16974   7.427   0.226   9.196  0.0332  0.1328 -0.2178
 5178SOL    HW116975   7.435   0.198   9.287  0.9979  2.1486  0.3939
 5178SOL    HW216976   7.479   0.163   9.146  0.6105 -0.2256  0.8146
 5179SOL     OW16977   2.210   0.124   7.161 -0.1076 -0.5183 -0.1819
 5179SOL    HW116978   2.122   0.119   7.126  0.1024 -0.6946 -0.6906
 5179SOL    HW216979   2.240   0.033   7.167  1.0498 -0.3793 -2.6372
 5180SOL     OW16980   3.164   0.474   7.238  0.0831  0.1718 -0.4285
 5180SOL    HW116981   3.156   0.480   7.143  1.0666 -1.3702 -0.6430
 5180SOL    HW216982   3.194   0.561   7.265 -0.1339  0.6039 -1.5303
 5181SOL     OW16983   7.730   6.614   5.497  0.1624  0.0466 -0.2776
 5181SOL    HW116984   7.648   6.665   5.498 -0.4545 -0.9000 -0.8716
 5181SOL    HW216985   7.789   6.666   5.442 -0.7250 -0.2336 -1.5426
 5182SOL     OW16986   0.281   5.457   6.662 -0.7245  0.1210 -0.3185
 5182SOL    HW116987   0.344   5.503   6.718 -0.0469  0.4483 -1.3133
 5182SOL    HW216988   0.330   5.381   6.628  0.2112  1.9081 -3.4075
 5183SOL     OW16989   1.729   7.682   7.503 -0.3126 -0.1562  0.3253
 5183SOL    HW116990   1.724   7.590   7.478 -2.4697  0.2092 -0.7691
 5183SOL    HW216991   1.721   7.681   7.599  1.9779 -1.1753  0.5838
 5184SOL     OW16992   6.436   5.791  10.295 -0.7038  0.3208 -0.3113
 5184SOL    HW116993   6.507   5.774  10.357  0.9513  1.1533 -1.8710
 5184SOL    HW216994   6.379   5.853  10.341 -1.0719 -1.1691  1.3793
 5185SOL     OW16995   1.464   6.597  10.190 -0.3932  0.5144  0.3578
 5185SOL    HW116996   1.398   6.545  10.144 -0.3775  1.5652 -0.8792
 5185SOL    HW216997   1.414   6.649  10.253 -0.6928  0.9270 -0.2199
 5186SOL     OW16998   0.433   7.047   8.809  0.2289 -0.0074  0.2197
 5186SOL    HW116999   0.351   7.093   8.791 -0.1812 -0.8002 -0.0341
 5186SOL    HW217000   0.417   6.958   8.775  1.1706 -0.1835  0.2318
 5187SOL     OW17001   1.382   6.881   7.099 -0.1914 -0.2613  0.6505
 5187SOL    HW117002   1.439   6.834   7.039 -1.6421  0.3016 -1.2911
 5187SOL    HW217003   1.430   6.961   7.120  0.5799 -0.7327  0.6922
 5188SOL     OW17004   7.995   6.755   7.993 -0.4317  0.7752 -0.1584
 5188SOL    HW117005   8.052   6.832   7.993  2.1609 -1.0108 -1.4065
 5188SOL    HW217006   7.966   6.748   8.084  1.9706  1.3675  0.7277
 5189SOL     OW17007   7.563   7.127   9.024  0.3263  0.3267 -0.1981
 5189SOL    HW117008   7.595   7.211   8.991 -0.4129  0.1967 -1.3013
 5189SOL    HW217009   7.468   7.134   9.021  0.2455 -0.7006 -0.7494
 5190SOL     OW17010   0.807   7.556   8.104  0.6263  0.1415 -0.2633
 5190SOL    HW117011   0.821   7.474   8.056  1.1156  0.5484 -0.8315
 5190SOL    HW217012   0.720   7.585   8.076  0.2058 -0.4608  0.3731
 5191SOL     OW17013   0.045   5.484  10.558  0.5766  0.3054  0.2551
 5191SOL    HW117014   0.139   5.469  10.546  0.3402  0.6665 -2.5697
 5191SOL    HW217015   0.011   5.398  10.584  1.5358 -0.0511  0.3971
 5192SOL     OW17016   1.523   4.923  11.053  0.4636 -0.5002 -0.2191
 5192SOL    HW117017   1.568   4.920  11.138 -1.3286 -0.0111  0.7878
 5192SOL    HW217018   1.593   4.943  10.991  1.7150 -0.1292  1.2280
 5193SOL     OW17019   7.746   6.546   8.759 -0.1426  0.1076  0.2427
 5193SOL    HW117020   7.791   6.515   8.681 -0.5705 -1.0328  0.4336
 5193SOL    HW217021   7.653   6.536   8.738 -0.3020  1.3834  0.2712
 5194SOL     OW17022   0.852   7.347   8.826 -0.3213  0.4382 -0.0720
 5194SOL    HW117023   0.801   7.292   8.887  1.3621 -0.0848  0.9250
 5194SOL    HW217024   0.912   7.285   8.783  1.2383  1.3853  0.6680
 5195SOL     OW17025   2.362   7.013  10.397  0.1431 -0.2982  0.6112
 5195SOL    HW117026   2.400   6.940  10.447  2.1548  0.0360 -0.3155
 5195SOL    HW217027   2.346   6.975  10.310  0.8754  0.2605  0.2263
 5196SOL     OW17028   7.652   7.095   8.658 -0.0340 -0.0319 -0.0207
 5196SOL    HW117029   7.731   7.051   8.630 -0.8140 -1.9010  0.5950
 5196SOL    HW217030   7.584   7.028   8.655 -0.7708  0.4114  3.3545
 5197SOL     OW17031   2.254   7.181   7.527 -0.6160 -0.1683 -0.8479
 5197SOL    HW117032   2.203   7.157   7.450 -0.7347  0.5798 -1.0032
 5197SOL    HW217033   2.207   7.139   7.600 -0.1965 -1.3329 -1.2178
 5198SOL     OW17034   0.620   5.850   9.578 -0.2046  0.4153 -0.0108
 5198SOL    HW117035   0.629   5.771   9.526  0.0288  0.0977  0.5036
 5198SOL    HW217036   0.655   5.920   9.522 -0.3846  0.1546 -0.4523
 5199SOL     OW17037   0.322   6.825   7.716  0.0165  0.0508  0.0127
 5199SOL    HW117038   0.373   6.884   7.660  0.9018 -0.0336  0.7039
 5199SOL    HW217039   0.269   6.883   7.770  0.2694  0.1888  0.1147
 5200SOL     OW17040   2.106   7.228   8.239  0.0668 -0.1127 -0.2360
 5200SOL    HW117041   2.024   7.222   8.190  1.0592  1.6411 -2.2536
 5200SOL    HW217042   2.170   7.185   8.182  0.7724 -0.5282  0.8459
 5201SOL     OW17043   0.243   7.375   9.682 -0.4747  0.2516  0.3025
 5201SOL    HW117044   0.326   7.413   9.711 -0.7658 -0.6454  2.5258
 5201SOL    HW217045   0.266   7.288   9.650 -0.5505  0.0257  0.8625
 5202SOL     OW17046   1.679   6.853   7.569 -0.5777 -0.4092 -0.0867
 5202SOL    HW117047   1.713   6.834   7.481 -1.1677  0.2444 -0.4606
 5202SOL    HW217048   1.758   6.860   7.623 -0.1485  0.2554 -0.7732
 5203SOL     OW17049   7.453   6.483   8.483  0.1507  0.0717  0.1117
 5203SOL    HW117050   7.468   6.537   8.561 -2.6269  1.8818 -0.4696
 5203SOL    HW217051   7.376   6.430   8.504  1.3435 -1.9265 -0.2757
 5204SOL     OW17052   1.099   0.671   6.704 -1.1123 -0.3455  0.0877
 5204SOL    HW117053   1.163   0.642   6.768 -1.8613  0.8225  1.4272
 5204SOL    HW217054   1.067   0.590   6.663  1.3251 -0.9327 -0.8071
 5205SOL     OW17055   0.671   7.178   8.576 -0.4584 -0.9452 -0.2286
 5205SOL    HW117056   0.597   7.237   8.564 -0.1421 -0.6914 -1.0347
 5205SOL    HW217057   0.742   7.234   8.608 -0.4534 -1.0844  0.0073
 5206SOL     OW17058   1.004   4.935   8.194  0.2403  0.3139 -0.4945
 5206SOL    HW117059   0.937   4.866   8.200  0.3283  0.3262  1.1904
 5206SOL    HW217060   1.010   4.969   8.283 -1.1118  3.7822 -1.5678
 5207SOL     OW17061   6.586   7.691   9.508  0.3447  0.5200  0.1755
 5207SOL    HW117062   6.506   7.722   9.549  1.0277  2.1716  0.3631
 5207SOL    HW217063   6.656   7.739   9.553  1.2954  0.4648 -1.1838
 5208SOL     OW17064   0.663   7.421   5.529 -0.0894 -0.0037  0.2001
 5208SOL    HW117065   0.656   7.397   5.622  0.5727  0.4032  0.3640
 5208SOL    HW217066   0.610   7.355   5.484 -0.5993 -0.0753  0.8833
 5209SOL     OW17067   1.457   7.024  11.766 -0.4249 -0.2728 -0.2962
 5209SOL    HW117068   1.368   7.057  11.778 -0.4661 -1.0224  1.6910
 5209SOL    HW217069   1.511   7.103  11.759 -1.0735  0.1890 -0.1279
 5210SOL     OW17070   6.026   5.360   8.891  0.6904 -0.1586 -0.1238
 5210SOL    HW117071   6.102   5.385   8.944  0.7169 -2.5022  1.0810
 5210SOL    HW217072   6.064   5.323   8.811  0.6944  1.3688 -0.8681
 5211SOL     OW17073   7.837   4.648   8.529  0.2260 -0.1673  0.5227
 5211SOL    HW117074   7.747   4.677   8.517  0.5102  0.1619 -1.0140
 5211SOL    HW217075   7.886   4.728   8.550  0.6844  0.2551 -1.8682
 5212SOL     OW17076   0.802   6.781   8.291 -0.1879  0.1088  0.1519
 5212SOL    HW117077   0.860   6.836   8.238 -0.2877  0.5071  0.4485
 5212SOL    HW217078   0.732   6.756   8.232  1.2904 -2.0466 -0.8128
 5213SOL     OW17079   1.893   4.713  10.678  0.3046 -0.4297  0.2288
 5213SOL    HW117080   1.969   4.665  10.709  3.0159  1.6709 -2.5494
 5213SOL    HW217081   1.904   4.801  10.712 -1.0277 -0.1463 -0.0216
 5214SOL     OW17082   1.576   7.754   9.295 -0.1764  0.0187  0.0821
 5214SOL    HW117083   1.590   7.846   9.271  0.9150  0.3840  1.8895
 5214SOL    HW217084   1.659   7.726   9.333 -0.9598 -1.2575  0.9321
 5215SOL     OW17085   0.445   6.533   8.781  0.1755  0.0429 -0.7200
 5215SOL    HW117086   0.404   6.475   8.717  0.1800 -0.2733 -0.4401
 5215SOL    HW217087   0.499   6.592   8.728  1.2222 -1.0498 -0.9380
 5216SOL     OW17088   0.638   4.619   6.909  0.4968  0.6813  0.3163
 5216SOL    HW117089   0.670   4.693   6.961  2.4811 -0.2931  0.5725
 5216SOL    HW217090   0.659   4.542   6.962 -1.2376 -0.1234 -0.0892
 5217SOL     OW17091   2.754   7.785   6.647  0.4308 -0.4733 -0.6346
 5217SOL    HW117092   2.814   7.740   6.588 -0.0626 -2.2664  0.1635
 5217SOL    HW217093   2.743   7.872   6.609  1.2303 -1.1005 -2.3856
 5218SOL     OW17094   4.962   6.193   7.628 -0.0561  0.7904 -0.4711
 5218SOL    HW117095   4.940   6.108   7.666  2.1846  1.1412  1.8864
 5218SOL    HW217096   4.907   6.255   7.676 -1.5663  0.7578 -2.0735
 5219SOL     OW17097   7.862   4.153   9.508  0.2429  0.0733  0.1576
 5219SOL    HW117098   7.841   4.233   9.461  0.6358 -0.6847 -1.3827
 5219SOL    HW217099   7.803   4.153   9.584  0.6008  2.0405  0.4808
 5220SOL     OW17100   1.876   6.387  10.000  0.3982 -0.1758  0.0981
 5220SOL    HW117101   1.821   6.344   9.935 -1.1799  0.5084  0.9352
 5220SOL    HW217102   1.901   6.470   9.960 -3.5996  1.9935  1.5547
 5221SOL     OW17103   1.627   6.153   8.023 -0.0512  0.0757 -0.0994
 5221SOL    HW117104   1.603   6.167   7.931  1.4552  0.7996 -0.4307
 5221SOL    HW217105   1.635   6.059   8.032 -0.2042 -0.0033 -0.7299
 5222SOL     OW17106   0.723   6.677   7.636 -0.1916  0.0897  0.2746
 5222SOL    HW117107   0.771   6.603   7.674 -0.0649  0.9275  1.7930
 5222SOL    HW217108   0.746   6.674   7.543 -0.4456 -1.9683  0.2322
 5223SOL     OW17109   1.307   7.772   7.451  0.1134  0.1103 -0.4120
 5223SOL    HW117110   1.233   7.828   7.426  0.5055  1.4163  1.1862
 5223SOL    HW217111   1.268   7.703   7.503 -0.3960 -1.3000 -2.5210
 5224SOL     OW17112   0.726   5.060   8.321  0.0884  0.3478  0.0736
 5224SOL    HW117113   0.734   5.065   8.226 -1.3619 -1.4240 -0.1979
 5224SOL    HW217114   0.649   5.113   8.342  0.7056  1.1570  0.3428
 5225SOL     OW17115   1.295   7.874   9.007 -0.0576 -0.3164 -0.2814
 5225SOL    HW117116   1.319   7.957   9.050 -0.3594 -0.4944  0.2453
 5225SOL    HW217117   1.289   7.811   9.079  3.3223 -1.6072 -0.9370
 5226SOL     OW17118   0.381   5.532  10.032 -0.2272 -0.8911 -0.4285
 5226SOL    HW117119   0.313   5.516   9.966 -0.2550 -0.1425 -0.5949
 5226SOL    HW217120   0.417   5.618  10.008 -0.5071 -0.4340  0.7542
 5227SOL     OW17121   0.230   6.885   9.507  0.6599  0.3609 -0.1074
 5227SOL    HW117122   0.137   6.871   9.488  0.4455  0.1468  1.0376
 5227SOL    HW217123   0.267   6.916   9.424 -0.0759 -1.1905 -1.0654
 5228SOL     OW17124   5.770   4.558   7.886 -0.3423 -0.1393 -0.1523
 5228SOL    HW117125   5.846   4.501   7.898  0.2088  0.5115 -0.5072
 5228SOL    HW217126   5.732   4.529   7.803 -1.4877 -1.5878  0.8262
 5229SOL     OW17127   1.782   7.145   7.039 -0.1258 -0.3985  0.3588
 5229SOL    HW117128   1.798   7.196   7.118 -0.7376  1.7381 -0.7988
 5229SOL    HW217129   1.815   7.200   6.968 -2.2891 -0.8399 -1.1022
 5230SOL     OW17130   0.366   4.627   9.122 -0.1884 -0.2292  0.5461
 5230SOL    HW117131   0.362   4.654   9.213 -1.3467 -0.2097  0.5013
 5230SOL    HW217132   0.388   4.707   9.073 -0.2289 -0.1009  0.7386
 5231SOL     OW17133   1.507   5.708   7.088  0.0712  0.1517  0.1680
 5231SOL    HW117134   1.476   5.665   7.008  1.5938  1.0676 -0.9566
 5231SOL    HW217135   1.581   5.655   7.117 -0.4709 -0.1736  0.9963
 5232SOL     OW17136   1.068   6.234   7.742 -0.1485 -0.4944  0.2120
 5232SOL    HW117137   1.016   6.313   7.727 -0.6227 -0.7588  0.4328
 5232SOL    HW217138   1.146   6.245   7.687 -1.7049 -1.3252 -2.3237
 5233SOL     OW17139   0.223   7.199   7.357 -0.2979 -0.1519 -0.0561
 5233SOL    HW117140   0.281   7.221   7.284  0.1937  0.1410  0.4084
 5233SOL    HW217141   0.182   7.282   7.381 -0.0293 -0.1285  0.3521
 5234SOL     OW17142   7.412   5.285   9.354  0.0693 -0.1563  0.3379
 5234SOL    HW117143   7.369   5.209   9.315 -0.1395 -0.2470  0.7354
 5234SOL    HW217144   7.386   5.359   9.299  0.0143 -0.3252  0.1370
 5235SOL     OW17145   7.456   5.704   7.456 -0.0734 -0.1055 -0.0720
 5235SOL    HW117146   7.415   5.654   7.527  0.7434  0.0626  0.5274
 5235SOL    HW217147   7.534   5.742   7.495 -0.4867  1.3654 -0.6052
 5236SOL     OW17148   7.536   5.911   9.956 -0.2778 -0.5515  0.5099
 5236SOL    HW117149   7.530   6.006   9.944  1.5250 -0.5722 -1.0830
 5236SOL    HW217150   7.506   5.875   9.872  1.1522 -1.2676  0.2766
 5237SOL     OW17151   0.029   6.917  10.246  1.0072 -0.2168 -0.0252
 5237SOL    HW117152  -0.027   6.840  10.257 -0.6299  0.9633  0.2413
 5237SOL    HW217153   0.016   6.967  10.326  3.5270 -0.5139  0.6642
 5238SOL     OW17154   0.858   7.543   9.687  0.4547  0.1511 -0.3328
 5238SOL    HW117155   0.813   7.468   9.724 -0.0725  0.6303  0.0200
 5238SOL    HW217156   0.789   7.591   9.640  1.1262 -0.5395 -2.1161
 5239SOL     OW17157   1.320   0.408   7.249 -0.4326 -0.1938  0.0302
 5239SOL    HW117158   1.321   0.379   7.340 -2.0259 -1.4895 -0.3225
 5239SOL    HW217159   1.297   0.501   7.253 -0.7312 -0.3055  0.9359
 5240SOL     OW17160   1.750   5.149   9.495 -0.3721  0.3153  0.3712
 5240SOL    HW117161   1.825   5.190   9.452 -0.9888  0.0563 -1.0087
 5240SOL    HW217162   1.747   5.190   9.581  0.5833  1.2626 -0.0116
 5241SOL     OW17163   0.665   5.844   8.868  0.1284 -0.1337  0.2081
 5241SOL    HW117164   0.749   5.828   8.826  0.5935  1.9927  0.2212
 5241SOL    HW217165   0.622   5.909   8.813  0.0651  1.5077  2.0698
 5242SOL     OW17166   1.284   5.940  10.390 -1.0170  0.0696 -0.3505
 5242SOL    HW117167   1.252   5.902  10.473 -0.4806 -1.7963 -0.9456
 5242SOL    HW217168   1.376   5.916  10.387 -0.6158  1.5850 -0.7278
 5243SOL     OW17169   2.395   6.440   5.527  0.4366  0.4225 -0.0580
 5243SOL    HW117170   2.403   6.379   5.600  0.5554  2.3461  1.6224
 5243SOL    HW217171   2.357   6.520   5.566 -0.1310  1.2910 -2.2305
 5244SOL     OW17172   7.905   4.136   8.600  0.0114  0.3492 -0.5400
 5244SOL    HW117173   7.818   4.104   8.579 -0.0090 -1.6396  2.0402
 5244SOL    HW217174   7.896   4.231   8.603 -1.8709  0.2138 -1.0382
 5245SOL     OW17175   0.637   7.025   8.155 -0.1210  0.0117 -0.1713
 5245SOL    HW117176   0.585   7.105   8.162  0.4330  0.4223 -0.6157
 5245SOL    HW217177   0.721   7.054   8.118 -0.5045 -1.0209 -1.9587
 5246SOL     OW17178   7.749   6.891   7.798  0.2571 -0.3567 -0.0352
 5246SOL    HW117179   7.827   6.863   7.845  1.2096  1.0986 -0.6668
 5246SOL    HW217180   7.676   6.864   7.855  1.1478 -2.3128  0.2535
 5247SOL     OW17181   1.109   6.809   7.953  0.2096  0.3633  0.2259
 5247SOL    HW117182   1.092   6.796   7.860  0.6036 -1.3012  0.3665
 5247SOL    HW217183   1.158   6.891   7.958 -1.2009  1.3295 -0.8569
 5248SOL     OW17184   7.867   4.946   8.305  0.1947  0.0686  0.2326
 5248SOL    HW117185   7.917   4.944   8.223  0.8574  1.1252  0.5854
 5248SOL    HW217186   7.784   4.986   8.282 -0.5596 -1.7381 -0.3713
 5249SOL     OW17187   0.491   7.240   8.156  0.5012  0.3642 -0.1045
 5249SOL    HW117188   0.437   7.300   8.104  3.1936  1.1147 -2.2729
 5249SOL    HW217189   0.527   7.295   8.226  1.6796  0.9718 -1.1368
 5250SOL     OW17190   2.544   7.831   8.323 -0.1687  0.0105 -0.3192
 5250SOL    HW117191   2.532   7.912   8.374  0.9652 -1.8079  3.1402
 5250SOL    HW217192   2.618   7.850   8.265  0.7199  1.1699  1.1226
 5251SOL     OW17193   2.049   6.674   7.898 -0.1551 -0.7812  0.0744
 5251SOL    HW117194   2.091   6.597   7.937  0.1516 -0.6963 -0.0844
 5251SOL    HW217195   2.101   6.748   7.929 -2.3153 -0.2909  2.8513
 5252SOL     OW17196   0.503   0.537   8.033  0.0632  0.2499  0.2576
 5252SOL    HW117197   0.530   0.460   7.982  1.4472  0.6891  0.2904
 5252SOL    HW217198   0.527   0.612   7.979 -0.9951  0.6873  0.3633
 5253SOL     OW17199   0.530   6.394   9.326 -1.0483  0.4767 -0.3096
 5253SOL    HW117200   0.506   6.462   9.389 -1.4069  1.0398 -1.0345
 5253SOL    HW217201   0.447   6.372   9.283 -1.0792 -0.9727  0.4369
 5254SOL     OW17202   3.180   6.283  10.420  0.4621 -0.1101  0.0044
 5254SOL    HW117203   3.259   6.236  10.395 -0.0080  0.5086 -3.0046
 5254SOL    HW217204   3.108   6.230  10.386 -0.2265  1.0343 -0.4056
 5255SOL     OW17205   1.888   4.334  10.562  0.1324 -0.0277 -0.0796
 5255SOL    HW117206   1.937   4.348  10.643  0.6487  0.1939 -0.4222
 5255SOL    HW217207   1.802   4.304  10.590  0.2681  0.1698  0.5547
 5256SOL     OW17208   7.906   6.678  10.349 -0.2334 -0.2416 -0.3035
 5256SOL    HW117209   7.834   6.643  10.298 -1.1133 -0.9361  1.3257
 5256SOL    HW217210   7.977   6.615  10.336 -0.9616 -1.2728  0.5387
 5257SOL     OW17211   1.525   6.165   9.565  0.1862 -0.6046 -0.4360
 5257SOL    HW117212   1.480   6.088   9.530  0.0736 -0.6511 -0.1893
 5257SOL    HW217213   1.617   6.153   9.541  0.2285 -0.9963 -0.0806
 5258SOL     OW17214   1.946   7.136   9.604  0.0304 -0.2556  0.1883
 5258SOL    HW117215   1.995   7.118   9.523  0.3251 -3.1358  0.8685
 5258SOL    HW217216   1.866   7.179   9.575  1.2228  1.0479 -1.3436
 5259SOL     OW17217   1.326   5.666   6.555 -0.0581  1.0315 -0.2569
 5259SOL    HW117218   1.249   5.613   6.534  1.7273 -0.7266 -3.0324
 5259SOL    HW217219   1.379   5.665   6.475  3.9534  0.2147  2.0914
 5260SOL     OW17220   0.366   5.485   8.175 -1.0557 -0.1270 -0.3425
 5260SOL    HW117221   0.455   5.482   8.140 -1.0091 -1.9592 -0.1409
 5260SOL    HW217222   0.328   5.565   8.138 -0.5080 -1.1680 -3.3562
 5261SOL     OW17223   0.891   0.004   9.743 -0.2559 -0.0647 -0.1665
 5261SOL    HW117224   0.965   0.060   9.767 -0.1954 -0.3950  0.4302
 5261SOL    HW217225   0.920  -0.084   9.767  0.3562 -0.6253 -2.6936
 5262SOL     OW17226   7.173   4.373   6.313  0.3149  0.1661  0.1897
 5262SOL    HW117227   7.103   4.432   6.286 -1.2535 -2.0918 -1.0357
 5262SOL    HW217228   7.204   4.408   6.396 -0.8336  2.4178 -0.2708
 5263SOL     OW17229   2.909   1.169   9.989 -0.1236  0.4390 -0.2464
 5263SOL    HW117230   2.957   1.247  10.018 -0.6073  0.5799  0.1843
 5263SOL    HW217231   2.962   1.096  10.019 -0.8620  0.5632  1.5095
 5264SOL     OW17232   0.990   4.263   9.092 -0.2222  0.0110  0.0151
 5264SOL    HW117233   0.991   4.225   9.004 -0.2301 -2.6005  1.0573
 5264SOL    HW217234   0.911   4.226   9.133  0.6058 -0.0771  1.5943
 5265SOL     OW17235   0.588   5.796   8.514 -0.2707 -0.1097 -0.3098
 5265SOL    HW117236   0.682   5.778   8.510 -0.0805  0.9219 -0.8896
 5265SOL    HW217237   0.569   5.843   8.432 -1.1889  0.1301  0.0279
 5266SOL     OW17238   1.275   6.774   6.067 -0.5005 -0.1747 -0.4228
 5266SOL    HW117239   1.342   6.833   6.033 -1.1524  0.8653  0.0286
 5266SOL    HW217240   1.292   6.770   6.161 -1.2069  0.3124 -0.2629
 5267SOL     OW17241   1.815   7.651   8.808 -0.0191 -0.0643  0.1978
 5267SOL    HW117242   1.901   7.678   8.840  0.0929  0.2274 -0.3422
 5267SOL    HW217243   1.776   7.731   8.774 -0.1576 -0.3613 -0.3425
 5268SOL     OW17244   1.582   5.600   9.276 -0.2020 -0.4181 -0.1770
 5268SOL    HW117245   1.564   5.570   9.365 -1.5614 -0.3043 -0.3891
 5268SOL    HW217246   1.661   5.653   9.283 -0.8430  0.4006  1.1306
 5269SOL     OW17247   6.628   0.398  10.778 -0.5666  0.1638  0.6570
 5269SOL    HW117248   6.646   0.490  10.762  0.5613 -0.2885 -0.9863
 5269SOL    HW217249   6.536   0.387  10.753 -0.0873  0.4287 -1.4631
 5270SOL     OW17250   0.699   5.823   8.041  1.0760 -0.0287  0.3658
 5270SOL    HW117251   0.711   5.870   8.124  0.5349 -1.3415  1.2288
 5270SOL    HW217252   0.690   5.731   8.067  0.6026 -0.4311 -1.1354
 5271SOL     OW17253   1.957   6.508   7.512  0.1955  0.1874 -0.4490
 5271SOL    HW117254   1.983   6.460   7.434  3.0902  0.3891  0.2510
 5271SOL    HW217255   2.001   6.593   7.503 -0.1292  0.5377  0.9674
 5272SOL     OW17256   0.546   7.611   7.807 -0.5374 -0.3320  0.1348
 5272SOL    HW117257   0.534   7.562   7.726  0.4374 -1.1841  0.4795
 5272SOL    HW217258   0.604   7.683   7.784  0.0338 -0.7813  0.1331
 5273SOL     OW17259   7.812   4.425   8.964 -0.2894 -0.0741 -0.1743
 5273SOL    HW117260   7.850   4.339   8.980 -0.0728  0.2447  1.1022
 5273SOL    HW217261   7.871   4.466   8.901  0.5155 -0.2498  0.4529
 5274SOL     OW17262   7.556   7.447   9.017 -0.2764 -0.1445  0.0384
 5274SOL    HW117263   7.583   7.482   9.102  1.8488 -0.8516 -0.2870
 5274SOL    HW217264   7.542   7.525   8.963 -0.1964  0.2855  0.6285
 5275SOL     OW17265   0.667   5.262   9.633 -0.0491 -0.5802  0.0500
 5275SOL    HW117266   0.680   5.279   9.539 -2.1848 -0.9452 -0.3536
 5275SOL    HW217267   0.614   5.335   9.663 -1.2826 -1.6004  0.4425
 5276SOL     OW17268   0.687   4.740   8.938  0.0068 -0.5135 -0.4554
 5276SOL    HW117269   0.650   4.751   8.850  0.5414 -1.3091 -0.7854
 5276SOL    HW217270   0.689   4.645   8.952  0.7660 -0.4332  0.0518
 5277SOL     OW17271   0.225   6.020   8.053 -0.0364  0.8298  0.2775
 5277SOL    HW117272   0.247   6.107   8.020  0.7507  1.2504  1.8393
 5277SOL    HW217273   0.223   6.030   8.148  2.5140 -1.3634  0.6710
 5278SOL     OW17274   0.463   6.663   9.469  0.5091 -0.7877 -0.3237
 5278SOL    HW117275   0.413   6.684   9.390  2.7087  1.1223 -1.3326
 5278SOL    HW217276   0.424   6.718   9.537  1.3761  0.9628 -1.1770
 5279SOL     OW17277   1.776   7.137   8.279 -0.2178  0.0386 -0.2177
 5279SOL    HW117278   1.828   7.147   8.359 -0.3226 -1.1479  0.0124
 5279SOL    HW217279   1.823   7.070   8.229 -0.7911 -0.0633 -0.6224
 5280SOL     OW17280   1.447   7.734   7.223 -0.3708  0.0670  0.1135
 5280SOL    HW117281   1.448   7.821   7.183 -0.0599 -0.2469 -0.5746
 5280SOL    HW217282   1.399   7.747   7.306  1.4236  1.3137  1.0329
 5281SOL     OW17283   0.176   6.787   6.616  0.4469  0.6686  0.3305
 5281SOL    HW117284   0.270   6.782   6.634  0.5791  1.6329 -0.0567
 5281SOL    HW217285   0.149   6.695   6.608  1.3969  0.3833  0.2106
 5282SOL     OW17286   0.372   6.110   9.054 -0.1751 -0.2551  0.1399
 5282SOL    HW117287   0.316   6.095   8.978  0.4187 -3.0890  0.1370
 5282SOL    HW217288   0.415   6.194   9.036 -0.3473 -0.6509 -2.4657
 5283SOL     OW17289   1.459   6.609   7.429  0.2815  0.2181  0.0325
 5283SOL    HW117290   1.442   6.661   7.350  0.8908  1.5407  0.7549
 5283SOL    HW217291   1.509   6.533   7.397 -0.1265  0.3461 -0.9527
 5284SOL     OW17292   0.127   5.678   9.558  0.3464 -0.0548  0.2130
 5284SOL    HW117293   0.080   5.596   9.540  1.6888 -1.0435  1.0330
 5284SOL    HW217294   0.113   5.694   9.651  0.0419  0.7070  0.0465
 5285SOL     OW17295   3.059   1.403   9.710  0.4591  0.1191 -0.1587
 5285SOL    HW117296   2.997   1.391   9.638  0.4800  1.7771 -0.4854
 5285SOL    HW217297   3.127   1.338   9.693  0.9814  1.1138 -2.2571
 5286SOL     OW17298   7.847   0.237   8.146  0.9143 -0.7312 -0.3923
 5286SOL    HW117299   7.758   0.217   8.178  0.3055 -0.9977 -2.1327
 5286SOL    HW217300   7.892   0.152   8.147  0.2311 -1.1591 -2.1141
 5287SOL     OW17301   2.698   4.447   8.342  0.3480 -0.0676 -0.3311
 5287SOL    HW117302   2.768   4.489   8.391 -0.6079  0.7225  0.4021
 5287SOL    HW217303   2.628   4.513   8.338  0.0277 -0.4623 -1.9350
 5288SOL     OW17304   0.520   7.744   8.918  0.9463 -0.1294 -0.4763
 5288SOL    HW117305   0.584   7.705   8.858  0.7157 -1.7798  0.2962
 5288SOL    HW217306   0.528   7.693   8.999  1.0063  1.8152  0.8263
 5289SOL     OW17307   7.020   5.717   8.530  0.0887 -0.0955  0.3782
 5289SOL    HW117308   7.081   5.647   8.507  0.4856 -0.0129  1.1447
 5289SOL    HW217309   6.937   5.673   8.546  0.2881 -0.3708  0.6666
 5290SOL     OW17310   2.368   7.298   7.844 -0.2196  0.5970  0.0783
 5290SOL    HW117311   2.273   7.293   7.837 -0.3409 -0.1664  1.8650
 5290SOL    HW217312   2.391   7.379   7.799 -1.5492  0.1209 -1.5805
 5291SOL     OW17313   3.227   6.441   7.338 -0.3616 -0.1306 -0.0359
 5291SOL    HW117314   3.271   6.360   7.309 -1.9844 -1.0066 -0.1789
 5291SOL    HW217315   3.296   6.491   7.381  1.0557 -0.8865 -1.3007
 5292SOL     OW17316   3.630   6.787   7.294  0.0208  0.2360  0.1130
 5292SOL    HW117317   3.616   6.732   7.217 -0.5059  0.1748  0.2522
 5292SOL    HW217318   3.726   6.796   7.299  0.0315  0.9226 -1.0131
 5293SOL     OW17319   3.111   7.480   8.854 -0.2737 -0.3032  0.0073
 5293SOL    HW117320   3.138   7.546   8.918 -0.0619 -0.8493  0.4913
 5293SOL    HW217321   3.190   7.430   8.835 -0.1282  0.3765 -1.3417
 5294SOL     OW17322   1.210   7.726   8.763  0.8479 -0.1875  0.0088
 5294SOL    HW117323   1.239   7.642   8.799 -1.3296  0.0548  2.6162
 5294SOL    HW217324   1.230   7.789   8.832 -0.8177  0.8333 -0.4043
 5295SOL     OW17325   0.980   0.967   7.798  0.1807 -0.3917  0.3444
 5295SOL    HW117326   1.069   0.938   7.776  0.1807  0.3959 -0.8012
 5295SOL    HW217327   0.991   1.023   7.874  0.4178 -1.8039  1.3838
 5296SOL     OW17328   7.484   7.169   9.940 -0.7357  0.6793  0.7188
 5296SOL    HW117329   7.491   7.258   9.907 -0.8607 -0.2726 -2.1358
 5296SOL    HW217330   7.562   7.125   9.907 -1.1105 -0.4957  1.3330
 5297SOL     OW17331   1.165   7.508   9.139 -0.0024 -0.3196  0.2903
 5297SOL    HW117332   1.069   7.504   9.137 -0.2581  2.6565 -2.5417
 5297SOL    HW217333   1.184   7.587   9.189  1.0635 -1.2398  1.3812
 5298SOL     OW17334   1.269   6.669   7.605  0.1116 -0.2777  0.1064
 5298SOL    HW117335   1.285   6.761   7.623  0.6975 -0.3931  0.2016
 5298SOL    HW217336   1.334   6.645   7.538  0.8005 -0.9220  0.9769
 5299SOL     OW17337   1.817   7.835   9.056  0.7065 -0.2872 -0.0946
 5299SOL    HW117338   1.737   7.872   9.093 -0.1133 -0.7520 -1.3242
 5299SOL    HW217339   1.823   7.874   8.969  1.3989 -0.8615 -0.3116
 5300SOL     OW17340   7.866   5.282   9.717  0.0715 -0.2940  0.0310
 5300SOL    HW117341   7.878   5.335   9.796 -0.1916 -1.8786  1.1960
 5300SOL    HW217342   7.802   5.215   9.743 -0.7776 -0.2802 -1.8335
 5301SOL     OW17343   7.825   5.610   9.642  0.3772 -0.3157 -0.1217
 5301SOL    HW117344   7.877   5.530   9.647  0.0388 -0.4596  1.5090
 5301SOL    HW217345   7.878   5.676   9.685 -0.3625 -0.2491  0.7267
 5302SOL     OW17346   2.107   6.132   7.879  0.0807  0.2352  0.2162
 5302SOL    HW117347   2.108   6.158   7.787  0.6393 -0.6333 -0.0365
 5302SOL    HW217348   2.197   6.105   7.897 -0.3459 -0.9731  0.6029
 5303SOL     OW17349   0.572   7.431   8.907  0.2452  0.1511  0.5575
 5303SOL    HW117350   0.584   7.360   8.969  0.7812 -0.6198 -0.4009
 5303SOL    HW217351   0.614   7.401   8.827 -1.0653  0.8051 -0.4180
 5304SOL     OW17352   1.971   6.658  10.172  0.6384 -0.3671 -0.7472
 5304SOL    HW117353   1.881   6.637  10.148  0.4566 -1.2349  0.6033
 5304SOL    HW217354   1.993   6.595  10.240  1.5627  1.1380  0.4080
 5305SOL     OW17355   2.627   5.723   8.011  0.0975  0.2330  0.3553
 5305SOL    HW117356   2.594   5.739   8.099 -1.4710  1.2649 -0.3736
 5305SOL    HW217357   2.614   5.806   7.965 -0.3997 -0.6752 -1.2253
 5306SOL     OW17358   0.466   0.602   7.170 -0.8567  0.2374  0.0634
 5306SOL    HW117359   0.438   0.511   7.162 -1.1806  0.2636  0.8224
 5306SOL    HW217360   0.404   0.652   7.117 -0.3777 -0.0295 -0.7642
 5307SOL     OW17361   0.615   7.427   9.304  0.5159 -0.1606  0.3219
 5307SOL    HW117362   0.614   7.366   9.230  0.8351 -2.2640  1.9467
 5307SOL    HW217363   0.633   7.372   9.380 -0.2427  1.8398  2.0544
 5308SOL     OW17364   0.122   5.806   9.061  0.2169  0.3278 -0.0472
 5308SOL    HW117365   0.091   5.733   9.115 -0.4790  0.3118 -0.4537
 5308SOL    HW217366   0.188   5.849   9.114 -0.5243  0.3699  0.8637
 5309SOL     OW17367   0.674   7.741   6.957  0.5091 -0.1243  0.2669
 5309SOL    HW117368   0.619   7.709   6.885 -0.5723 -0.5184  1.2465
 5309SOL    HW217369   0.658   7.835   6.959 -0.1486 -0.2382  0.5531
 5310SOL     OW17370   0.650   6.934   9.234 -0.0594 -0.1682 -0.7124
 5310SOL    HW117371   0.679   7.020   9.202  0.4139 -0.1551 -0.2736
 5310SOL    HW217372   0.628   6.885   9.155 -1.1737  0.6387 -0.9296
 5311SOL     OW17373   1.423   1.158   9.652  0.6653  0.2183  0.2448
 5311SOL    HW117374   1.450   1.247   9.631  0.5664  0.0223 -0.7355
 5311SOL    HW217375   1.435   1.109   9.571  0.7654 -0.6788  0.7863
 5312SOL     OW17376   0.463   5.471   8.947 -0.7780  0.7163 -0.1333
 5312SOL    HW117377   0.490   5.382   8.926 -2.4027 -0.0095  0.6538
 5312SOL    HW217378   0.479   5.520   8.867 -0.6060 -0.4665 -0.8496
 5313SOL     OW17379   2.190   7.452   8.386 -0.1081 -0.2144  0.2843
 5313SOL    HW117380   2.207   7.380   8.325 -1.9057 -0.2308 -0.2454
 5313SOL    HW217381   2.275   7.494   8.397  1.1801 -2.7583  1.0938
 5314SOL     OW17382   0.894   1.210   9.424 -0.1070  0.4634 -0.1149
 5314SOL    HW117383   0.913   1.256   9.341 -0.2154 -0.5130 -0.6956
 5314SOL    HW217384   0.840   1.135   9.398  0.9820 -0.6269  0.6628
 5315SOL     OW17385   0.951   5.674   9.134 -0.1595  0.0514  0.5779
 5315SOL    HW117386   1.026   5.646   9.187 -1.1789 -1.4594  1.2907
 5315SOL    HW217387   0.964   5.632   9.050 -0.5720 -0.8339  0.9461
 5316SOL     OW17388   1.566   0.247   6.404 -0.1647  0.2157 -0.0659
 5316SOL    HW117389   1.488   0.294   6.435 -0.0881 -0.4072  1.1401
 5316SOL    HW217390   1.535   0.158   6.387  0.2624 -0.0280  0.3927
 5317SOL     OW17391   0.965   6.840  11.458  0.4984  0.1267  0.1728
 5317SOL    HW117392   0.925   6.758  11.488  0.3977  0.2117  0.2727
 5317SOL    HW217393   0.940   6.905  11.524 -0.7067  0.5838 -0.6954
 5318SOL     OW17394   0.652   6.364   7.744  0.0557 -0.5478 -0.5701
 5318SOL    HW117395   0.653   6.456   7.771  1.0651  0.4282 -3.5327
 5318SOL    HW217396   0.698   6.318   7.815 -1.5031  0.9659  1.5493
 5319SOL     OW17397   6.850   6.298   7.856  0.2573  0.0189 -0.7485
 5319SOL    HW117398   6.941   6.271   7.840  0.0165 -3.1437  2.0470
 5319SOL    HW217399   6.797   6.233   7.811 -0.5004 -0.6886  1.0686
 5320SOL     OW17400   0.595   6.722   8.601  0.9228  0.1576  0.5129
 5320SOL    HW117401   0.558   6.810   8.588 -0.5524 -0.4695  0.2780
 5320SOL    HW217402   0.636   6.702   8.517  1.0894  0.5460  0.4981
 5321SOL     OW17403   5.574   5.709   7.632  0.0616  0.3429  0.8210
 5321SOL    HW117404   5.528   5.772   7.576 -0.7210 -1.6916 -1.0079
 5321SOL    HW217405   5.630   5.660   7.572  2.2370  0.6040  2.5100
 5322SOL     OW17406   1.214   5.608   8.881 -0.1647  0.1482  0.2267
 5322SOL    HW117407   1.238   5.636   8.792 -1.7786 -0.6699 -0.5103
 5322SOL    HW217408   1.297   5.581   8.921  0.4906 -0.2786 -1.3343
 5323SOL     OW17409   6.279   5.933   8.622 -0.0157 -0.4282  0.4213
 5323SOL    HW117410   6.228   5.852   8.621  0.7082 -1.0014  2.5963
 5323SOL    HW217411   6.365   5.909   8.587 -0.2630 -0.2117 -0.3516
 5324SOL     OW17412   0.841   0.170   9.306 -0.0910  0.0817 -0.4062
 5324SOL    HW117413   0.748   0.148   9.316 -0.1220  0.4818  0.2369
 5324SOL    HW217414   0.846   0.263   9.326  0.7124 -0.2968  1.3441
 5325SOL     OW17415   0.578   7.063   7.830  0.2185 -0.0334  0.2425
 5325SOL    HW117416   0.607   7.104   7.911  0.9564 -0.7521  0.3602
 5325SOL    HW217417   0.483   7.058   7.837  0.3437 -1.1842  1.6186
 5326SOL     OW17418   0.388   4.783   9.342 -0.0255  0.1800 -0.0995
 5326SOL    HW117419   0.361   4.874   9.331 -0.2359  0.4291  2.0424
 5326SOL    HW217420   0.394   4.771   9.437  1.9105 -1.4896 -0.3599
 5327SOL     OW17421   7.204   7.696   6.725 -0.0412 -0.3380  0.4194
 5327SOL    HW117422   7.228   7.627   6.788 -0.1296 -1.3379 -0.6218
 5327SOL    HW217423   7.116   7.723   6.752 -0.4189 -1.3514  0.2233
 5328SOL     OW17424   2.235   0.043   7.926  0.2681 -0.2710  0.0106
 5328SOL    HW117425   2.275  -0.011   7.994  0.6051  0.4540  0.4037
 5328SOL    HW217426   2.248  -0.007   7.845  0.8204 -0.6491  0.3213
 5329SOL     OW17427   2.308   7.179   6.289 -0.0607 -0.1026  0.0243
 5329SOL    HW117428   2.221   7.203   6.256  0.2309 -1.5834 -2.0209
 5329SOL    HW217429   2.297   7.090   6.322  0.4792  0.0810  0.7355
 5330SOL     OW17430   7.999   5.854   7.892 -0.0041  0.5261 -0.1208
 5330SOL    HW117431   8.063   5.891   7.953 -0.7715 -1.0533  1.7609
 5330SOL    HW217432   7.921   5.907   7.903 -0.1046  0.3161  0.1779
 5331SOL     OW17433   7.091   5.480   9.329  0.2480  0.2751  0.0694
 5331SOL    HW117434   7.100   5.394   9.288 -0.5584  0.0926  0.2681
 5331SOL    HW217435   7.097   5.463   9.423 -2.3729  0.0555  0.2813
 5332SOL     OW17436   2.347   6.264   8.091  0.6964  0.5529  0.0107
 5332SOL    HW117437   2.344   6.175   8.057 -1.6148  0.2108  0.9026
 5332SOL    HW217438   2.341   6.254   8.186 -3.0956  1.5933  0.0587
 5333SOL     OW17439   1.527   0.385   5.426  0.5796 -0.1936  0.1738
 5333SOL    HW117440   1.556   0.294   5.426  1.2634  0.0077  0.8943
 5333SOL    HW217441   1.434   0.381   5.407  0.6959 -1.0114 -0.2410
 5334SOL     OW17442   1.428   7.561   8.480  0.3453 -0.0322 -0.0409
 5334SOL    HW117443   1.436   7.498   8.409 -1.1734  1.2695 -1.4476
 5334SOL    HW217444   1.483   7.634   8.455  0.5644  0.0390  0.6164
 5335SOL     OW17445   7.937   5.314   7.780 -0.5118  0.1630  0.3220
 5335SOL    HW117446   7.874   5.364   7.727 -0.3369  2.6976  2.2820
 5335SOL    HW217447   8.019   5.320   7.732 -0.5983  1.4478  0.3062
 5336SOL     OW17448   7.971   5.810   7.586 -0.7797  0.4774 -0.0841
 5336SOL    HW117449   7.882   5.785   7.609  0.0833 -0.1227  3.1138
 5336SOL    HW217450   7.982   5.898   7.623  0.2468  0.1176  0.5186
 5337SOL     OW17451   2.737   7.256   8.637  0.1040 -0.2996  0.2761
 5337SOL    HW117452   2.756   7.249   8.543 -1.2630  1.5451 -0.2083
 5337SOL    HW217453   2.773   7.341   8.662 -3.5240  1.4606  0.2246
 5338SOL     OW17454   1.630   6.075  10.471  0.0858  0.0166  0.4127
 5338SOL    HW117455   1.712   6.052  10.428 -0.1516 -2.3553  1.0906
 5338SOL    HW217456   1.627   6.170  10.467  1.6093  0.0562 -1.9278
 5339SOL     OW17457   0.649   6.531   8.374  0.2869 -0.2429 -0.2884
 5339SOL    HW117458   0.576   6.535   8.311 -1.2665  1.7645  1.4908
 5339SOL    HW217459   0.717   6.586   8.335 -0.3022  0.2644 -0.6227
 5340SOL     OW17460   1.565   7.099   9.938 -0.8377 -0.1244  0.5623
 5340SOL    HW117461   1.583   7.033  10.005  0.7109 -0.4234 -0.0836
 5340SOL    HW217462   1.573   7.051   9.855  0.5817  0.8907  0.0664
 5341SOL     OW17463   2.540   7.039   7.067 -0.0908 -0.5787 -0.3551
 5341SOL    HW117464   2.630   7.012   7.084  0.0182  0.9206  1.8966
 5341SOL    HW217465   2.547   7.104   6.997  0.4372 -1.1762 -0.8688
 5342SOL     OW17466   1.036   6.851   8.944 -0.2893  0.1164  0.1483
 5342SOL    HW117467   0.997   6.779   8.895 -1.8646  0.5514  0.7112
 5342SOL    HW217468   1.060   6.916   8.878 -1.3683  0.2201 -0.1640
 5343SOL     OW17469   1.941   7.395   7.050 -0.0965  0.5618 -0.5225
 5343SOL    HW117470   1.972   7.429   6.967  1.3014  0.1758 -0.1851
 5343SOL    HW217471   2.017   7.402   7.109 -0.3058 -1.4190  0.0409
 5344SOL     OW17472   0.261   5.262   9.465  0.2279 -0.0923  0.4700
 5344SOL    HW117473   0.272   5.238   9.373  3.8648 -0.1452  0.7695
 5344SOL    HW217474   0.311   5.196   9.513  1.0828  1.7141  2.2090
 5345SOL     OW17475   0.989   7.356   8.261 -0.6624  0.4940 -0.1746
 5345SOL    HW117476   1.067   7.300   8.256 -1.1654 -0.4674  1.9472
 5345SOL    HW217477   0.941   7.337   8.180  0.1800 -0.6250 -0.4366
 5346SOL     OW17478   0.822   6.293   8.013 -0.0029  0.4802  0.1653
 5346SOL    HW117479   0.893   6.241   7.976 -0.1824  0.2834  0.0993
 5346SOL    HW217480   0.861   6.380   8.026  0.9536 -0.2060  2.3164
 5347SOL     OW17481   1.135   5.920   8.795 -0.8458 -0.1385 -0.3083
 5347SOL    HW117482   1.220   5.876   8.788  0.0152  1.6578 -2.0331
 5347SOL    HW217483   1.124   5.936   8.888  0.7533 -0.3055 -0.0573
 5348SOL     OW17484   1.009   7.861   7.500 -0.2477  0.4318 -0.1648
 5348SOL    HW117485   1.016   7.919   7.424 -1.7390  1.2807  0.2803
 5348SOL    HW217486   0.956   7.788   7.470 -0.1561  0.3661 -0.1648
 5349SOL     OW17487   2.516   6.928   9.626 -0.0755  0.7662 -0.4015
 5349SOL    HW117488   2.554   6.992   9.566  1.7178 -1.0840 -1.3625
 5349SOL    HW217489   2.431   6.907   9.588 -0.3248  1.9371 -0.5243
 5350SOL     OW17490   0.861   3.262   8.141 -0.3278  0.1475 -0.8810
 5350SOL    HW117491   0.772   3.296   8.136 -0.8124 -0.5958  1.3808
 5350SOL    HW217492   0.916   3.332   8.105 -1.7662  0.7955 -1.8832
 5351SOL     OW17493   0.397   6.722   8.983  0.6965  0.1746 -0.2093
 5351SOL    HW117494   0.434   6.643   8.944  0.8026  0.8228 -1.4997
 5351SOL    HW217495   0.356   6.768   8.909 -0.4650  0.7152  0.7327
 5352SOL     OW17496   0.758   7.179   7.425  0.3904 -0.1381 -0.2009
 5352SOL    HW117497   0.723   7.142   7.506 -0.0104  1.6243  0.4713
 5352SOL    HW217498   0.710   7.134   7.356 -0.4256 -0.5328  0.5925
 5353SOL     OW17499   0.502   6.210   6.494  0.3907  0.5658 -0.1418
 5353SOL    HW117500   0.414   6.196   6.459  0.7021  1.9005 -1.5575
 5353SOL    HW217501   0.489   6.222   6.588 -1.0119  1.2642 -0.3940
 5354SOL     OW17502   0.355   5.876   9.211 -0.1671  0.1908  0.5420
 5354SOL    HW117503   0.368   5.958   9.163 -1.5628  1.1795  1.7579
 5354SOL    HW217504   0.437   5.828   9.198  1.0512  2.1495  0.4700
 5355SOL     OW17505   6.833   5.548   9.791  0.2248  0.0784  0.1834
 5355SOL    HW117506   6.806   5.457   9.781  0.9497 -0.3110  1.5838
 5355SOL    HW217507   6.824   5.585   9.703  1.7997 -1.8515 -0.8647
 5356SOL     OW17508   6.054   4.924  10.583  0.0015  0.0261  0.0128
 5356SOL    HW117509   6.036   4.872  10.504 -1.1917  0.2717  0.0991
 5356SOL    HW217510   6.080   5.010  10.550  0.8609 -0.2714 -0.1160
 5357SOL     OW17511   0.746   7.350  10.045  0.4272  0.3990  1.0081
 5357SOL    HW117512   0.796   7.372  10.124  0.3964  0.6673  0.9524
 5357SOL    HW217513   0.671   7.301  10.078  0.6472  0.1168  1.1050
 5358SOL     OW17514   1.380   0.206  11.708 -0.2023 -0.4045  0.3140
 5358SOL    HW117515   1.342   0.137  11.653  1.3816 -1.5473  0.5912
 5358SOL    HW217516   1.390   0.281  11.649 -0.0861 -1.0629 -0.5221
 5359SOL     OW17517   2.072   0.595   9.415  0.0983  0.0902  0.1532
 5359SOL    HW117518   1.983   0.599   9.450 -0.7046  0.2512 -1.7918
 5359SOL    HW217519   2.084   0.679   9.370  2.4039  1.3847  2.8856
 5360SOL     OW17520   1.918   5.818  10.599  0.2547 -0.2080 -0.0199
 5360SOL    HW117521   1.839   5.774  10.632 -0.4553  0.8362 -0.2434
 5360SOL    HW217522   1.919   5.798  10.506  0.8973 -1.1522  0.1818
 5361SOL     OW17523   6.681   6.000  10.256  0.3232  0.7589 -0.5753
 5361SOL    HW117524   6.663   5.945  10.180  1.8698 -0.4201 -0.1296
 5361SOL    HW217525   6.614   5.974  10.320  0.5141 -0.0054 -0.6742
 5362SOL     OW17526   7.448   6.629  10.320  0.0223 -0.3858  0.4100
 5362SOL    HW117527   7.364   6.586  10.301 -0.4362  0.5747  0.2115
 5362SOL    HW217528   7.514   6.561  10.305 -0.7048 -1.1002  0.3834
 5363SOL     OW17529   1.683   6.381  10.204  0.2442  0.1428 -0.4250
 5363SOL    HW117530   1.643   6.460  10.242  2.5175  0.7730  0.8927
 5363SOL    HW217531   1.731   6.413  10.127 -0.8246 -0.4090 -1.3436
 5364SOL     OW17532   7.169   5.759  10.983  0.3961  0.3562  0.4397
 5364SOL    HW117533   7.112   5.682  10.990 -1.5986  1.6718 -0.5660
 5364SOL    HW217534   7.161   5.803  11.067 -0.8101  0.9925  0.0119
 5365SOL     OW17535   1.268   6.435  10.841  0.4432 -0.7910  0.0607
 5365SOL    HW117536   1.336   6.411  10.903 -1.0270 -1.6766  1.4253
 5365SOL    HW217537   1.197   6.470  10.896  0.9797  3.2995 -1.5279
 5366SOL     OW17538   6.603   6.676  11.350  0.0712 -0.4942 -0.6653
 5366SOL    HW117539   6.563   6.610  11.293  0.5870 -0.0864 -1.5273
 5366SOL    HW217540   6.588   6.759  11.304 -0.4025 -0.0178  0.3080
 5367SOL     OW17541   3.885   0.736  10.120 -0.6216  0.0454  0.4575
 5367SOL    HW117542   3.880   0.820  10.165  0.2521  0.0440  0.5744
 5367SOL    HW217543   3.979   0.720  10.108 -0.8118  0.3866 -2.0113
 5368SOL     OW17544   6.067   4.799   9.478 -0.9422  0.0213 -0.1817
 5368SOL    HW117545   6.071   4.761   9.390 -0.1835 -0.1513 -0.0851
 5368SOL    HW217546   5.987   4.851   9.478 -0.9307  0.0608 -0.9897
 5369SOL     OW17547   7.887   5.883   9.545 -0.3991  0.4596  0.5255
 5369SOL    HW117548   7.961   5.924   9.500 -0.3892  0.9461  0.9701
 5369SOL    HW217549   7.820   5.874   9.477  0.5514 -1.3129 -0.2330
 5370SOL     OW17550   1.470   7.211   8.433  0.3409 -0.1416 -0.2767
 5370SOL    HW117551   1.517   7.185   8.354  0.4079 -0.8359 -0.0203
 5370SOL    HW217552   1.538   7.245   8.491  0.7009 -1.9642  0.4361
 5371SOL     OW17553   1.565   5.781  12.334 -0.7317  0.2234  0.1715
 5371SOL    HW117554   1.641   5.737  12.374 -0.8380  0.5829  0.7848
 5371SOL    HW217555   1.597   5.813  12.250 -0.3136  0.0149  0.2502
 5372SOL     OW17556   2.737   7.559   9.027 -0.2220  0.4859  0.1957
 5372SOL    HW117557   2.707   7.587   8.940  0.1932  0.3089 -0.0094
 5372SOL    HW217558   2.797   7.487   9.009 -1.6943 -0.9428  0.7429
 5373SOL     OW17559   0.756   7.032   9.848  0.2742  0.2419  0.0288
 5373SOL    HW117560   0.757   6.942   9.880  1.4060 -0.0637 -0.8174
 5373SOL    HW217561   0.664   7.049   9.827 -0.0663 -0.4415  0.9105
 5374SOL     OW17562   0.763   6.976  10.151  0.0352 -0.0186 -0.3459
 5374SOL    HW117563   0.806   7.015  10.075  1.6575 -0.1514  0.4628
 5374SOL    HW217564   0.724   6.895  10.119  0.3360  0.1449 -1.1234
 5375SOL     OW17565   7.982   7.762   8.840  0.2910  0.1219 -0.3437
 5375SOL    HW117566   7.939   7.835   8.886  0.9416 -0.1874  0.7908
 5375SOL    HW217567   7.928   7.748   8.762  0.4495  2.1667 -0.8814
 5376SOL     OW17568   2.565   4.666  11.693  0.4614  0.5150  0.8774
 5376SOL    HW117569   2.575   4.692  11.785  2.8001  2.3148  0.2248
 5376SOL    HW217570   2.650   4.629  11.669  0.0734  0.5762 -0.6992
 5377SOL     OW17571   6.523   5.035   9.741 -0.2895 -0.3368  0.0763
 5377SOL    HW117572   6.541   4.982   9.663  0.8801  1.5289 -1.0090
 5377SOL    HW217573   6.428   5.046   9.741 -0.1828  1.4757 -2.4601
 5378SOL     OW17574   1.165   7.654  10.804  0.5117  0.0705 -0.6306
 5378SOL    HW117575   1.074   7.660  10.835  0.6873  1.1974 -0.2737
 5378SOL    HW217576   1.199   7.743  10.815  2.0823 -0.6408  0.5018
 5379SOL     OW17577   6.565   7.553   7.810  0.0235  0.3296  0.3464
 5379SOL    HW117578   6.507   7.535   7.736  0.3975  0.9749 -0.1038
 5379SOL    HW217579   6.589   7.466   7.842  0.3161  0.0371 -0.6425
 5380SOL     OW17580   0.074   5.184  11.003  0.8338  0.4798  0.3521
 5380SOL    HW117581   0.020   5.260  10.983 -0.3846 -0.4548 -0.0582
 5380SOL    HW217582   0.033   5.145  11.080  1.7130  0.4790  0.8367
 5381SOL     OW17583   2.003   4.982  10.486 -0.1405  0.8590  0.0167
 5381SOL    HW117584   1.978   5.066  10.446  0.3286  1.0822  0.1973
 5381SOL    HW217585   1.978   4.991  10.578 -1.1450  0.3743 -0.1872
 5382SOL     OW17586   0.116   6.636  10.884  0.5283  0.0118  0.1609
 5382SOL    HW117587   0.089   6.710  10.829  0.9119 -0.3305 -0.4987
 5382SOL    HW217588   0.034   6.604  10.923 -0.0629 -0.9121 -1.6871
 5383SOL     OW17589   2.435   7.583   8.394  0.0805  0.1049  0.3248
 5383SOL    HW117590   2.509   7.550   8.444 -0.5102  0.3699  1.3883
 5383SOL    HW217591   2.456   7.675   8.378 -0.7661  0.6551  2.1166
 5384SOL     OW17592   6.902   6.590  10.881 -0.7608 -0.0716  0.0409
 5384SOL    HW117593   6.981   6.559  10.838 -0.7003 -1.1165  0.8754
 5384SOL    HW217594   6.907   6.554  10.970 -1.4745  1.0328  0.5463
 5385SOL     OW17595   0.358   5.700   9.807  0.1652 -0.6525  0.3159
 5385SOL    HW117596   0.280   5.741   9.846 -0.2613 -0.3657 -0.8174
 5385SOL    HW217597   0.335   5.686   9.715  0.8632 -2.0615  0.3224
 5386SOL     OW17598   1.729   7.264   9.524 -0.0786  0.0106 -0.3431
 5386SOL    HW117599   1.675   7.202   9.475 -1.1338 -0.1165  0.9041
 5386SOL    HW217600   1.676   7.344   9.527 -1.2292 -0.7330  2.6479
 5387SOL     OW17601   1.056   6.033   9.968  0.5261 -0.5484  0.4146
 5387SOL    HW117602   1.097   5.974  10.031  0.8010 -1.9651 -1.0466
 5387SOL    HW217603   1.017   5.975   9.902 -3.8390  0.6339  1.5977
 5388SOL     OW17604   0.993   5.688  11.811  0.1628  0.2718  0.4558
 5388SOL    HW117605   0.983   5.679  11.906  0.6184  2.5504  0.7935
 5388SOL    HW217606   0.906   5.671  11.775 -0.2721  0.4638  1.4008
 5389SOL     OW17607   1.008   6.086   8.584 -0.1458 -0.6939 -0.0395
 5389SOL    HW117608   1.054   6.040   8.655  2.1826  0.1817 -0.8945
 5389SOL    HW217609   1.050   6.054   8.504 -0.1422  1.0662 -0.7793
 5390SOL     OW17610   1.089   6.656  12.030  0.4723 -0.2091  0.1551
 5390SOL    HW117611   1.137   6.617  11.957 -0.1821  0.6485 -0.7606
 5390SOL    HW217612   1.144   6.729  12.058  1.2136 -1.1371  1.2158
 5391SOL     OW17613   2.121   0.168   9.068  0.2496 -0.7465 -0.4424
 5391SOL    HW117614   2.131   0.203   8.980  0.2523  0.2865 -0.0505
 5391SOL    HW217615   2.090   0.243   9.120 -1.6171 -1.7756  0.0455
 5392SOL     OW17616   1.678   5.477  10.413  0.5600 -0.4833 -0.2584
 5392SOL    HW117617   1.677   5.497  10.320  1.5312  0.2646 -0.1250
 5392SOL    HW217618   1.622   5.400  10.422 -2.8878  1.7245 -0.8954
 5393SOL     OW17619   3.186   6.467   9.162 -0.2428 -0.0238 -0.9636
 5393SOL    HW117620   3.248   6.438   9.229 -1.1872 -2.4130 -1.0011
 5393SOL    HW217621   3.240   6.513   9.098  1.1633 -0.3119 -0.0417
 5394SOL     OW17622   4.157   0.033  10.614  0.4187  0.2330  0.0115
 5394SOL    HW117623   4.212  -0.042  10.593  2.4310  1.9160 -1.1138
 5394SOL    HW217624   4.188   0.062  10.700 -0.4906 -0.2876  0.5354
 5395SOL     OW17625   0.708   7.072  11.162  0.0062 -0.4469 -0.0401
 5395SOL    HW117626   0.613   7.068  11.160 -0.0086 -0.1582 -2.1712
 5395SOL    HW217627   0.736   6.982  11.177 -0.5829 -0.5098  0.7459
 5396SOL     OW17628   3.269   5.034   0.486  0.3861 -0.4024  0.3210
 5396SOL    HW117629   3.227   5.012   0.570 -0.0993 -1.0282 -0.0775
 5396SOL    HW217630   3.248   5.127   0.473 -0.1007 -0.4725  0.5734
 5397SOL     OW17631   7.489   5.610  10.932  0.1003  0.1513  0.1152
 5397SOL    HW117632   7.462   5.533  10.981 -2.5045  1.5618  1.0555
 5397SOL    HW217633   7.434   5.610  10.854  2.0609 -0.3836 -1.3629
 5398SOL     OW17634   2.155   5.664   9.618 -0.1052 -0.4984  0.0504
 5398SOL    HW117635   2.140   5.699   9.530 -0.1373 -0.2813  0.1413
 5398SOL    HW217636   2.108   5.581   9.619  2.2271 -1.9049 -1.0857
 5399SOL     OW17637   1.369   5.752   8.157  0.1916  0.3338  0.1797
 5399SOL    HW117638   1.316   5.772   8.235  0.3414  1.2594  0.0504
 5399SOL    HW217639   1.329   5.672   8.122  0.0170 -0.0086  1.1085
 5400SOL     OW17640   6.757   7.284  11.007 -0.0901 -0.5354 -0.4124
 5400SOL    HW117641   6.784   7.233  10.931 -0.3364 -0.8974 -0.2577
 5400SOL    HW217642   6.775   7.227  11.082 -0.9720 -0.6572 -0.2845
 5401SOL     OW17643   7.604   7.387   9.805  0.4941 -0.4572  0.0733
 5401SOL    HW117644   7.681   7.332   9.795  0.5034 -1.1300  3.0372
 5401SOL    HW217645   7.639   7.476   9.813  0.8869 -0.6254  0.2415
 5402SOL     OW17646   1.086   6.847   9.303  0.6105  0.2363  0.0021
 5402SOL    HW117647   1.014   6.904   9.274  0.0046 -1.0748 -1.2700
 5402SOL    HW217648   1.063   6.823   9.393  0.0643  0.7652  0.0117
 5403SOL     OW17649   0.202   6.310  12.268  0.1437  0.2954  0.0622
 5403SOL    HW117650   0.249   6.315  12.185  0.0210  0.5168  0.0037
 5403SOL    HW217651   0.212   6.397  12.307  1.1991 -0.1610  0.8343
 5404SOL     OW17652   2.464   6.698  10.276 -0.0592 -0.2425  0.0106
 5404SOL    HW117653   2.470   6.731  10.366  2.1759 -0.4170 -0.0373
 5404SOL    HW217654   2.437   6.774  10.225 -2.7494 -0.4514  0.9448
 5405SOL     OW17655   0.010   5.612  11.302  0.1390  0.5053  1.2607
 5405SOL    HW117656   0.002   5.704  11.277 -0.7503  0.2937  0.7167
 5405SOL    HW217657   0.095   5.584  11.267 -0.1078  0.8126  0.4027
 5406SOL     OW17658   1.312   6.405   7.582  0.5307  0.3813  0.2433
 5406SOL    HW117659   1.402   6.392   7.613  0.7933  2.5755  0.5657
 5406SOL    HW217660   1.295   6.498   7.595 -2.1236 -0.1224  0.9924
 5407SOL     OW17661   0.301   7.842   8.759 -0.1815  0.0412  0.0826
 5407SOL    HW117662   0.266   7.799   8.838 -0.3487  0.7779  0.4219
 5407SOL    HW217663   0.393   7.818   8.758 -0.6744 -2.0493 -0.9022
 5408SOL     OW17664   2.133   5.282  11.220  0.0612 -0.5706 -0.0112
 5408SOL    HW117665   2.179   5.347  11.167 -0.0919  1.5727  2.2961
 5408SOL    HW217666   2.043   5.284  11.187 -0.3937  1.8382  1.1504
 5409SOL     OW17667   0.554   6.152  11.304  0.5119  0.2478  0.2427
 5409SOL    HW117668   0.646   6.134  11.285  0.6370  1.4352 -0.3827
 5409SOL    HW217669   0.511   6.152  11.218  0.0781  0.4868  0.4540
 5410SOL     OW17670   0.048   7.140   9.066  0.3970 -0.1199  0.3274
 5410SOL    HW117671  -0.027   7.196   9.052  0.0454 -0.8803 -0.9647
 5410SOL    HW217672   0.112   7.168   9.001  0.2829 -1.0645 -0.2208
 5411SOL     OW17673   2.451   6.002  11.013 -0.3124 -0.2640 -0.5037
 5411SOL    HW117674   2.415   6.016  11.100 -0.6711 -0.0128 -0.6894
 5411SOL    HW217675   2.527   6.060  11.009  0.0916 -0.7548 -0.1301
 5412SOL     OW17676   0.475   7.884  10.480  0.1577  0.3463  0.1941
 5412SOL    HW117677   0.498   7.977  10.488 -0.7274  0.4556  2.2880
 5412SOL    HW217678   0.541   7.838  10.531  1.5635 -0.4088 -2.1833
 5413SOL     OW17679   2.418   0.340   8.773  0.6509 -0.0650 -0.8068
 5413SOL    HW117680   2.425   0.376   8.861  0.7341 -1.9102 -0.0044
 5413SOL    HW217681   2.508   0.322   8.746  0.5969  0.0574 -1.0763
 5414SOL     OW17682   0.104   7.582  10.297  0.3603  0.3368 -0.2630
 5414SOL    HW117683   0.077   7.671  10.273 -0.6531  0.2811  0.5995
 5414SOL    HW217684   0.198   7.590  10.316  0.4985  1.0117 -1.1381
 5415SOL     OW17685   2.094   6.227   9.723  1.1263  0.2091 -0.3181
 5415SOL    HW117686   2.126   6.317   9.711  1.8354 -0.1875 -1.5723
 5415SOL    HW217687   2.066   6.200   9.636  1.6608 -1.0542 -0.1137
 5416SOL     OW17688   0.800   5.727  12.369 -0.3823  0.2686 -0.1882
 5416SOL    HW117689   0.791   5.808  12.319 -2.1521 -0.3318 -0.9115
 5416SOL    HW217690   0.756   5.661  12.316  0.0156 -0.9491  0.9401
 5417SOL     OW17691   2.350   6.052  11.281  0.3662 -0.2514  0.0810
 5417SOL    HW117692   2.312   6.029  11.366 -1.3519  1.1422 -0.2529
 5417SOL    HW217693   2.435   6.090  11.302  0.5224 -1.0963  1.0617
 5418SOL     OW17694   7.303   4.921  11.251  0.3716  0.1467  0.4768
 5418SOL    HW117695   7.275   4.970  11.328 -1.7949 -0.3587  0.0858
 5418SOL    HW217696   7.350   4.845  11.286  1.6471  1.2032  1.1626
 5419SOL     OW17697   1.021   5.065  11.449  0.4985 -0.0698 -0.2411
 5419SOL    HW117698   0.976   5.141  11.413  0.8091  0.2837  0.0979
 5419SOL    HW217699   0.958   5.027  11.511  0.7404  0.5575  0.4058
 5420SOL     OW17700   6.256   7.691   9.540 -0.5109 -0.1604  0.1918
 5420SOL    HW117701   6.283   7.605   9.571 -1.5726 -0.2495  0.9357
 5420SOL    HW217702   6.284   7.751   9.609  1.4737  0.3111 -0.9505
 5421SOL     OW17703   1.805   5.699  11.920  0.0631  0.5830 -0.0347
 5421SOL    HW117704   1.881   5.687  11.863  0.7671  1.0618  0.7753
 5421SOL    HW217705   1.779   5.610  11.944  0.0091  0.3948 -0.7819
 5422SOL     OW17706   1.720   7.369   8.034  0.4286  0.0062  0.6109
 5422SOL    HW117707   1.747   7.329   7.952  1.2535 -0.7705  1.2424
 5422SOL    HW217708   1.653   7.433   8.009  0.1086 -0.7674 -0.5647
 5423SOL     OW17709   0.320   4.703  10.874  0.0636 -0.2261 -0.2376
 5423SOL    HW117710   0.316   4.651  10.793  0.4579  1.0679 -1.1288
 5423SOL    HW217711   0.381   4.656  10.930 -0.3901 -1.2711 -0.5957
 5424SOL     OW17712   7.015   7.582  10.642 -0.7022 -0.1077  0.1798
 5424SOL    HW117713   6.964   7.661  10.659 -0.3691  0.0480  0.4561
 5424SOL    HW217714   6.994   7.524  10.715 -1.0103 -0.3090 -0.0651
 5425SOL     OW17715   0.480   7.184  11.646  0.3823  0.0867  0.0516
 5425SOL    HW117716   0.434   7.239  11.710 -0.0211 -0.3597  0.1484
 5425SOL    HW217717   0.536   7.127  11.698  0.1302 -0.2072  0.0032
 5426SOL     OW17718   0.712   1.117  10.804 -0.4845 -0.0169  0.3177
 5426SOL    HW117719   0.805   1.100  10.791 -0.8007 -1.1275 -0.7161
 5426SOL    HW217720   0.701   1.209  10.779  0.1479 -0.1954 -0.6839
 5427SOL     OW17721   1.609   6.053   0.551 -0.8492  0.6354 -0.1249
 5427SOL    HW117722   1.657   6.135   0.539 -0.7827  0.8559  1.5046
 5427SOL    HW217723   1.670   5.985   0.523 -0.2835  1.0318  0.1473
 5428SOL     OW17724   2.695   7.153  10.512 -0.1407 -0.3987  0.3997
 5428SOL    HW117725   2.718   7.105  10.432  0.5971  0.2783  0.1873
 5428SOL    HW217726   2.727   7.097  10.583 -1.4630 -1.3564  0.2706
 5429SOL     OW17727   2.024   0.042   9.465 -0.5459  0.1311  0.1315
 5429SOL    HW117728   1.993  -0.011   9.392  1.0382 -1.0417  0.2402
 5429SOL    HW217729   2.046   0.126   9.425  1.1434 -0.7711 -0.9927
 5430SOL     OW17730   7.496   5.788   9.672 -0.1436 -0.3518 -0.4387
 5430SOL    HW117731   7.455   5.740   9.600  2.6649 -0.5791 -2.0317
 5430SOL    HW217732   7.515   5.720   9.737 -0.8924 -0.4706 -0.3273
 5431SOL     OW17733   2.448   6.421  11.121 -0.0667 -0.2141  0.1145
 5431SOL    HW117734   2.487   6.370  11.050  1.0110 -1.3374  1.4633
 5431SOL    HW217735   2.430   6.356  11.189 -3.4174  0.4091 -0.0276
 5432SOL     OW17736   1.822   6.127   9.522  0.5059 -0.1458 -0.5044
 5432SOL    HW117737   1.890   6.063   9.543  0.8672 -0.1154 -1.5390
 5432SOL    HW217738   1.821   6.132   9.426  1.3846  2.3436 -0.4622
 5433SOL     OW17739   1.832   6.105   9.252  1.2324  0.1787  0.3593
 5433SOL    HW117740   1.924   6.105   9.227  1.1262  2.7136 -0.2679
 5433SOL    HW217741   1.785   6.089   9.170  1.0882  0.6507  0.3446
 5434SOL     OW17742   0.915   7.706   9.283 -0.0066  0.3499  0.4124
 5434SOL    HW117743   0.939   7.790   9.322  1.1636 -0.4121  1.4196
 5434SOL    HW217744   0.914   7.645   9.356 -1.1803 -0.4692 -0.2483
 5435SOL     OW17745   2.112   7.281   7.880  0.0877 -0.5192 -0.1494
 5435SOL    HW117746   2.093   7.368   7.916  2.3114  0.8338 -1.9953
 5435SOL    HW217747   2.046   7.224   7.921 -1.0188  1.8555  1.6746
 5436SOL     OW17748   0.131   5.151   8.723  0.3186  0.2868  0.8985
 5436SOL    HW117749   0.158   5.210   8.793 -0.1754 -0.0825  1.4182
 5436SOL    HW217750   0.038   5.171   8.709  0.7562  1.3790 -0.6930
 5437SOL     OW17751   7.748   5.395  10.791 -0.0278 -0.2991 -0.6809
 5437SOL    HW117752   7.768   5.488  10.792  0.8498 -0.4881 -0.1830
 5437SOL    HW217753   7.818   5.356  10.738  0.0763 -0.7703 -0.2082
 5438SOL     OW17754   0.781   5.072   9.204  0.1196  0.2042 -0.5269
 5438SOL    HW117755   0.717   5.003   9.222  0.9940 -0.6695 -0.6634
 5438SOL    HW217756   0.760   5.102   9.116 -0.8648  0.7979 -0.1059
 5439SOL     OW17757   0.249   5.998   9.941  0.4016 -0.1011 -0.6070
 5439SOL    HW117758   0.207   6.024   9.859 -1.7993  0.8441  0.7386
 5439SOL    HW217759   0.283   6.079   9.979  1.1043 -0.4796 -0.3895
 5440SOL     OW17760   1.617   6.156  10.816  0.1648 -0.3620  0.0448
 5440SOL    HW117761   1.561   6.133  10.742 -0.1755  0.7281 -0.0521
 5440SOL    HW217762   1.704   6.168  10.779  0.4458 -1.8675  0.1637
 5441SOL     OW17763   0.111   4.518   9.208  0.7381  0.0624  0.2260
 5441SOL    HW117764   0.049   4.585   9.237  1.4532  0.8652 -0.0571
 5441SOL    HW217765   0.091   4.442   9.262 -1.6802 -0.3063 -1.0302
 5442SOL     OW17766   7.610   6.998   9.606 -0.2611  0.2972 -0.3014
 5442SOL    HW117767   7.538   7.018   9.547 -1.1335 -3.0256 -0.6108
 5442SOL    HW217768   7.668   6.941   9.555  0.5218 -0.2417  1.1232
 5443SOL     OW17769   1.984   6.055   9.909  0.0661  0.6609 -1.6297
 5443SOL    HW117770   2.020   6.119   9.848 -0.8949 -0.1469 -3.0867
 5443SOL    HW217771   1.981   5.973   9.860 -2.1508  0.3198 -1.0276
 5444SOL     OW17772   0.127   5.097   9.871 -0.1487 -0.8216  0.0938
 5444SOL    HW117773   0.039   5.092   9.833  0.2930 -2.1772 -0.8378
 5444SOL    HW217774   0.133   5.022   9.931  0.8276 -1.6327 -0.9554
 5445SOL     OW17775   1.519   0.857  10.110 -0.5154  0.4266 -0.2407
 5445SOL    HW117776   1.542   0.903  10.030  2.1803 -1.6890 -0.8693
 5445SOL    HW217777   1.432   0.821  10.094 -0.9982  1.9959 -1.2400
 5446SOL     OW17778   1.836   5.446  11.335 -0.3118  0.8002 -0.3677
 5446SOL    HW117779   1.778   5.401  11.396  1.9772 -0.9039  0.7418
 5446SOL    HW217780   1.860   5.527  11.380  0.7119 -0.0581  0.7017
 5447SOL     OW17781   7.429   4.672  10.643 -0.0502  0.1491  0.6589
 5447SOL    HW117782   7.390   4.754  10.615  0.8948  0.9019  1.4568
 5447SOL    HW217783   7.504   4.698  10.696  0.9789 -1.2268 -0.0402
 5448SOL     OW17784   0.847   6.207  10.715 -0.0752 -0.6436 -0.1374
 5448SOL    HW117785   0.856   6.299  10.738 -0.2717 -0.9025  1.0556
 5448SOL    HW217786   0.937   6.174  10.710 -0.0335 -0.7836  1.2094
 5449SOL     OW17787   0.454   5.196  10.839 -0.2489  0.8194  0.3802
 5449SOL    HW117788   0.465   5.160  10.927 -2.2502  1.8948  1.1449
 5449SOL    HW217789   0.449   5.120  10.782 -0.8144  0.0135  1.4744
 5450SOL     OW17790   3.220   6.826  10.836  0.0773  0.0039  0.1933
 5450SOL    HW117791   3.228   6.780  10.753  0.4610  0.5843 -0.0963
 5450SOL    HW217792   3.214   6.918  10.811 -0.1058  0.1563  0.7952
 5451SOL     OW17793   2.003   7.653  11.787 -0.0697 -0.2974 -0.1167
 5451SOL    HW117794   1.999   7.695  11.701 -0.1444  1.4537  0.7157
 5451SOL    HW217795   2.089   7.677  11.822 -0.4230 -0.1871  0.6916
 5452SOL     OW17796   3.720   5.479  11.879 -0.3759 -0.0755  0.0838
 5452SOL    HW117797   3.625   5.493  11.870 -0.1157  0.6986 -2.1267
 5452SOL    HW217798   3.752   5.557  11.924 -0.5473  0.6847 -1.0708
 5453SOL     OW17799   7.311   6.311  11.545  0.2619  0.4853 -0.2515
 5453SOL    HW117800   7.279   6.238  11.492  0.9766 -0.7625  0.9543
 5453SOL    HW217801   7.234   6.344  11.590  0.3441 -1.5302  1.5054
 5454SOL     OW17802   0.038   4.992  12.367  0.2677 -0.0675 -0.3177
 5454SOL    HW117803  -0.049   5.009  12.402  0.4468  0.7995 -0.2655
 5454SOL    HW217804   0.043   5.043  12.287  0.9955  0.5143  0.0832
 5455SOL     OW17805   1.671   7.258  10.824 -0.6412 -0.3328  0.1628
 5455SOL    HW117806   1.628   7.312  10.890 -0.6340  0.4127 -0.4212
 5455SOL    HW217807   1.756   7.237  10.861 -0.2073  0.9761 -0.0212
 5456SOL     OW17808   7.719   6.652  10.575 -0.2711  0.2052  0.0423
 5456SOL    HW117809   7.641   6.708  10.575 -0.7783 -0.4672 -0.6625
 5456SOL    HW217810   7.744   6.647  10.482 -0.5975 -1.2053  0.0137
 5457SOL     OW17811   1.148   6.302  11.724  0.3876 -0.0740 -0.0123
 5457SOL    HW117812   1.177   6.343  11.805  0.5221 -0.7667  0.2975
 5457SOL    HW217813   1.217   6.240  11.702  0.1654 -0.1756 -0.4433
 5458SOL     OW17814   6.894   6.743   9.665  0.5527 -0.3025  0.0091
 5458SOL    HW117815   6.959   6.693   9.616  0.7366  1.4309 -1.6183
 5458SOL    HW217816   6.810   6.703   9.641  0.8283 -1.2125  0.4874
 5459SOL     OW17817   7.968   7.885  11.560 -0.3187  0.2570  0.3529
 5459SOL    HW117818   8.019   7.805  11.544 -0.3376 -0.1602  2.1707
 5459SOL    HW217819   8.031   7.956  11.547 -0.3192 -0.0153 -1.3532
 5460SOL     OW17820   7.471   6.782  10.585  0.2981  0.5065  0.8042
 5460SOL    HW117821   7.449   6.786  10.492  2.6144 -0.2756  0.1507
 5460SOL    HW217822   7.485   6.873  10.610  0.6064  0.6541  0.1229
 5461SOL     OW17823   0.925   5.137   9.763 -0.2129 -0.2662 -0.1750
 5461SOL    HW117824   0.845   5.188   9.750  0.0053 -0.0172 -0.5655
 5461SOL    HW217825   0.930   5.079   9.687  0.0317 -0.2087 -0.2039
 5462SOL     OW17826   1.496   7.623  11.008  0.0963 -0.6776 -0.1897
 5462SOL    HW117827   1.440   7.696  11.035  0.3865 -0.0194 -1.3145
 5462SOL    HW217828   1.453   7.546  11.044 -2.1393 -0.3099 -1.8843
 5463SOL     OW17829   1.374   5.821   8.702 -0.3076  0.1599 -0.7843
 5463SOL    HW117830   1.405   5.901   8.660 -0.7218  0.3159 -0.7975
 5463SOL    HW217831   1.451   5.765   8.706  0.6557  1.4861  1.4971
 5464SOL     OW17832   2.153   5.981  11.819 -0.0439 -0.2876 -0.0524
 5464SOL    HW117833   2.243   5.950  11.811 -0.8852 -2.6113 -1.7278
 5464SOL    HW217834   2.130   5.966  11.911  0.6802 -1.5290 -0.0590
 5465SOL     OW17835   1.368   5.598  10.513  0.5021  0.7808 -0.2359
 5465SOL    HW117836   1.456   5.633  10.526  1.4619 -1.1464 -1.1018
 5465SOL    HW217837   1.310   5.665  10.549  2.3975  0.9434  2.9237
 5466SOL     OW17838   2.692   5.982  11.165  0.6765 -0.1271 -0.8056
 5466SOL    HW117839   2.645   5.898  11.160  1.0727 -0.3901 -0.2094
 5466SOL    HW217840   2.746   5.974  11.243 -1.5989  1.9023  1.1443
 5467SOL     OW17841   1.671   4.628  10.853 -0.0625 -0.1037 -0.6707
 5467SOL    HW117842   1.617   4.623  10.932  0.1390  1.2299 -0.4308
 5467SOL    HW217843   1.760   4.642  10.886  0.3864 -1.7885 -1.0805
 5468SOL     OW17844   7.502   5.056  10.601 -0.0407 -0.2106  0.2184
 5468SOL    HW117845   7.503   5.151  10.591 -1.2703 -0.3114 -1.3067
 5468SOL    HW217846   7.522   5.040  10.693  0.4161  1.5116  0.4334
 5469SOL     OW17847   2.418   7.748   7.838 -0.6265  0.0860  0.0807
 5469SOL    HW117848   2.428   7.696   7.918  1.2887  0.8768  0.4187
 5469SOL    HW217849   2.381   7.687   7.774 -0.3136 -1.1230  1.0185
 5470SOL     OW17850   1.099   6.833   9.878  0.3371  0.2391  0.5819
 5470SOL    HW117851   1.192   6.810   9.873 -0.1192 -1.4709 -2.0756
 5470SOL    HW217852   1.057   6.756   9.915 -0.3216 -0.2320 -1.0646
 5471SOL     OW17853   7.707   5.280  10.090 -0.2845  0.1723 -0.0107
 5471SOL    HW117854   7.638   5.287  10.024  2.2589 -1.0861 -3.0567
 5471SOL    HW217855   7.770   5.348  10.065  1.6289 -1.5521 -0.0540
 5472SOL     OW17856   1.290   6.466  10.040  0.7982  0.0265  0.6262
 5472SOL    HW117857   1.333   6.417   9.971  0.0126 -0.6489  0.5965
 5472SOL    HW217858   1.223   6.407  10.074  0.4869  0.7182  1.2708
 5473SOL     OW17859   5.012   7.651   9.191 -0.0262 -1.0931  0.1300
 5473SOL    HW117860   5.039   7.683   9.105 -0.2947  0.1225  0.4756
 5473SOL    HW217861   4.920   7.628   9.181  0.3407 -2.4743 -0.2988
 5474SOL     OW17862   7.920   5.714  10.024 -0.3136 -0.1473  0.1792
 5474SOL    HW117863   7.847   5.764  10.060  0.0581  0.4640  0.0860
 5474SOL    HW217864   7.982   5.705  10.097 -0.3382 -0.4008  0.1719
 5475SOL     OW17865   1.445   5.820  11.401 -0.5497  0.2034  0.6731
 5475SOL    HW117866   1.443   5.742  11.456  0.4218  0.3157  0.8842
 5475SOL    HW217867   1.514   5.875  11.438 -2.1579  1.8473  1.3980
 5476SOL     OW17868   7.419   6.895  10.309  0.5007 -0.3429  0.1134
 5476SOL    HW117869   7.505   6.932  10.328  0.6479 -0.4994 -0.2559
 5476SOL    HW217870   7.437   6.815  10.259  0.1843 -0.8688  0.8119
 5477SOL     OW17871   0.226   4.809  10.588  0.5041  0.4652  0.0576
 5477SOL    HW117872   0.142   4.845  10.618 -1.5361 -1.6557 -2.5815
 5477SOL    HW217873   0.206   4.718  10.566  3.6891 -0.2909 -0.1868
 5478SOL     OW17874   0.373   5.422  10.574 -0.2219  0.5304  0.4700
 5478SOL    HW117875   0.351   5.456  10.487  0.5290 -0.7425 -0.2360
 5478SOL    HW217876   0.465   5.397  10.568 -0.5067 -0.7829  1.2350
 5479SOL     OW17877   1.423   7.414  10.478  0.4220  0.1691 -0.1667
 5479SOL    HW117878   1.511   7.448  10.459  0.5340 -0.1645 -0.2713
 5479SOL    HW217879   1.395   7.376  10.395  1.0676 -1.6464  0.3888
 5480SOL     OW17880   3.236   1.421   9.473 -0.5786  0.3168 -0.1588
 5480SOL    HW117881   3.142   1.402   9.475 -0.6652  0.7408 -0.0213
 5480SOL    HW217882   3.243   1.509   9.511 -0.2930  0.9959 -1.7122
 5481SOL     OW17883   1.511   6.930  11.529 -0.0330 -0.4188  0.4179
 5481SOL    HW117884   1.427   6.901  11.495 -0.6017  0.3857  1.1112
 5481SOL    HW217885   1.495   6.948  11.621  0.9187 -0.3250  0.5749
 5482SOL     OW17886   0.484   4.837  10.409 -0.6384  0.0269  0.5302
 5482SOL    HW117887   0.468   4.931  10.407  0.0069  0.1327 -1.0063
 5482SOL    HW217888   0.415   4.799  10.353 -0.1618 -0.2843  0.1474
 5483SOL     OW17889   0.927   3.763   8.666  0.1803  0.2515 -0.5048
 5483SOL    HW117890   0.968   3.788   8.583  1.3985  0.6019  0.1706
 5483SOL    HW217891   0.975   3.684   8.693  0.3154  0.5870  0.2405
 5484SOL     OW17892   1.142   5.838  10.602 -0.1343  0.1044  0.1463
 5484SOL    HW117893   1.088   5.778  10.653 -1.0756 -0.2957 -1.2414
 5484SOL    HW217894   1.079   5.894  10.556  0.6111 -0.1455 -1.2564
 5485SOL     OW17895   2.088   6.916   8.967  0.1966  0.2058 -0.2180
 5485SOL    HW117896   2.005   6.871   8.979  1.3626 -1.9436  0.3970
 5485SOL    HW217897   2.065   7.000   8.929 -2.1504 -0.7994 -1.1916
 5486SOL     OW17898   7.129   6.051  10.127  0.0895 -0.1657  0.6131
 5486SOL    HW117899   7.138   6.040  10.032 -1.4425  1.3026  0.2347
 5486SOL    HW217900   7.204   6.106  10.151  0.3526 -0.3351  0.2014
 5487SOL     OW17901   3.885   6.157  10.288  0.5696 -0.0052  0.8572
 5487SOL    HW117902   3.934   6.075  10.278 -0.5843 -0.4653 -1.8530
 5487SOL    HW217903   3.951   6.226  10.280  1.2545 -0.6425  0.9384
 5488SOL     OW17904   0.721   6.665  11.776  0.3663  0.1534  0.2536
 5488SOL    HW117905   0.737   6.589  11.832  1.4045 -0.6334 -1.0370
 5488SOL    HW217906   0.757   6.640  11.691 -0.8691  1.4209 -0.6988
 5489SOL     OW17907   1.403   6.370   9.733  0.0896 -0.1231 -0.1046
 5489SOL    HW117908   1.452   6.297   9.693 -0.4620 -0.1305 -0.7813
 5489SOL    HW217909   1.311   6.350   9.715 -0.1911 -0.1823  1.2828
 5490SOL     OW17910   7.687   5.802  10.528 -0.4970 -0.3832  0.5532
 5490SOL    HW117911   7.672   5.881  10.476 -2.3968 -0.0982  1.4110
 5490SOL    HW217912   7.615   5.743  10.504  0.8499 -1.8785 -0.0266
 5491SOL     OW17913   7.708   7.275   8.447  0.4598  0.0746 -0.1675
 5491SOL    HW117914   7.706   7.230   8.531  0.1366 -0.1946 -0.3191
 5491SOL    HW217915   7.771   7.226   8.395 -2.1969 -2.2496 -1.4682
 5492SOL     OW17916   0.103   6.502  10.260 -0.3032  0.6767 -0.2593
 5492SOL    HW117917   0.195   6.521  10.277 -0.0156 -1.4855  1.0412
 5492SOL    HW217918   0.100   6.478  10.167  0.4475  0.7506 -0.3044
 5493SOL     OW17919   6.495   6.316  11.348 -0.1297 -0.0324  0.0951
 5493SOL    HW117920   6.400   6.328  11.356 -0.2964 -1.3801  0.5242
 5493SOL    HW217921   6.510   6.297  11.256 -0.1975  0.6982 -0.0727
 5494SOL     OW17922   1.463   6.222  10.104 -0.2434 -0.1045 -0.3677
 5494SOL    HW117923   1.393   6.202  10.165 -0.3905  0.3041 -0.3993
 5494SOL    HW217924   1.521   6.281  10.152  0.2606 -0.6974 -0.2266
 5495SOL     OW17925   1.943   6.458  10.361  0.3079 -0.5907  0.3168
 5495SOL    HW117926   1.872   6.400  10.331  0.0182 -0.6437  1.0680
 5495SOL    HW217927   1.914   6.487  10.448 -0.3005  1.9232 -0.6326
 5496SOL     OW17928   0.875   6.845   7.148  0.1892  0.0260 -0.2603
 5496SOL    HW117929   0.830   6.829   7.064  0.2401  0.8817 -0.4624
 5496SOL    HW217930   0.935   6.917   7.129  0.1757  0.2483  0.5308
 5497SOL     OW17931   0.283   7.228  11.391 -0.1126 -0.4091  0.1715
 5497SOL    HW117932   0.263   7.300  11.331  2.8731 -0.4047 -0.9888
 5497SOL    HW217933   0.359   7.259  11.440  0.7329 -2.4564  0.2244
 5498SOL     OW17934   0.757   7.373  10.996  0.2868  0.2210 -0.3233
 5498SOL    HW117935   0.845   7.358  10.961  0.0982  2.2713 -1.8359
 5498SOL    HW217936   0.771   7.413  11.081  0.8240  0.7408 -0.6505
 5499SOL     OW17937   6.749   5.379  11.127  0.1131 -0.5607  0.1086
 5499SOL    HW117938   6.825   5.322  11.121  0.6543  0.2764 -2.0016
 5499SOL    HW217939   6.785   5.467  11.134 -0.7047 -0.3548  3.1395
 5500SOL     OW17940   1.515   7.596   8.738 -0.3278 -0.4618 -0.6447
 5500SOL    HW117941   1.598   7.554   8.717  0.1328  0.2979 -0.3743
 5500SOL    HW217942   1.454   7.564   8.671  0.5480  0.1791 -1.7679
 5501SOL     OW17943   0.075   6.299  10.748 -0.0959  0.8972 -0.5748
 5501SOL    HW117944   0.144   6.319  10.685  0.4385 -1.3389 -0.7489
 5501SOL    HW217945   0.006   6.258  10.695 -0.7667  1.3862 -0.0966
 5502SOL     OW17946   1.345   4.456   9.922 -0.0748 -0.3158 -0.4556
 5502SOL    HW117947   1.396   4.399   9.979 -1.1565 -2.7539 -1.7658
 5502SOL    HW217948   1.401   4.469   9.845  0.2669  0.6474 -0.0587
 5503SOL     OW17949   1.599   6.245   7.101  0.4677 -0.1076 -0.0888
 5503SOL    HW117950   1.568   6.157   7.081  0.2039 -0.3272  1.2012
 5503SOL    HW217951   1.591   6.252   7.196 -2.0200  2.2260 -0.3444
 5504SOL     OW17952   2.019   7.166   8.903 -0.0825 -0.4199 -0.1217
 5504SOL    HW117953   2.082   7.182   8.833 -0.3327 -2.6330 -0.9463
 5504SOL    HW217954   1.949   7.228   8.887  1.0140  0.8058 -0.3024
 5505SOL     OW17955   2.343   0.234   8.508  0.4424  0.2710 -0.1491
 5505SOL    HW117956   2.307   0.287   8.436 -0.9772 -0.2353  0.1434
 5505SOL    HW217957   2.353   0.296   8.580 -2.2185  0.0550  0.5335
 5506SOL     OW17958   7.400   6.372  10.349  0.5696 -0.2991 -0.3750
 5506SOL    HW117959   7.402   6.428  10.427  1.2228  0.6658 -1.0691
 5506SOL    HW217960   7.398   6.283  10.384  0.3028  0.1252  0.7435
 5507SOL     OW17961   1.101   0.068   9.928  0.0415 -0.0933  0.4411
 5507SOL    HW117962   1.137   0.156   9.918 -0.0715  0.0443  1.1521
 5507SOL    HW217963   1.177   0.010   9.931  0.0874 -0.1102 -0.7956
 5508SOL     OW17964   2.249   6.577  10.796  0.0602  0.2141  0.4517
 5508SOL    HW117965   2.266   6.667  10.767  0.7447  0.1367  0.5905
 5508SOL    HW217966   2.241   6.584  10.891 -0.0797  0.1526  0.4455
 5509SOL     OW17967   2.033   6.900  10.116  0.4244  0.4376 -0.1361
 5509SOL    HW117968   1.987   6.915  10.033  1.8298 -0.3751 -1.1125
 5509SOL    HW217969   2.010   6.810  10.139 -0.2627  0.7860  0.5776
 5510SOL     OW17970   0.349   6.785   9.250 -0.1266 -0.0386  0.2214
 5510SOL    HW117971   0.311   6.873   9.252 -2.0889 -0.8165  0.0561
 5510SOL    HW217972   0.366   6.768   9.157  0.7460  0.3484  0.3048
 5511SOL     OW17973   1.120   7.566   8.428  0.9374  0.3117 -0.3052
 5511SOL    HW117974   1.126   7.654   8.466 -1.1737 -0.0704  1.0723
 5511SOL    HW217975   1.180   7.513   8.481  0.3454  0.4315  0.5028
 5512SOL     OW17976   2.350   6.085   9.867  0.4267  0.0726 -0.4110
 5512SOL    HW117977   2.275   6.117   9.818  1.0684  0.0690 -1.4230
 5512SOL    HW217978   2.356   5.992   9.845  1.0807  0.2038 -0.8324
 5513SOL     OW17979   1.453   0.246   8.510 -0.5567 -0.1218 -0.0144
 5513SOL    HW117980   1.372   0.241   8.459 -0.7997  0.3025  0.3297
 5513SOL    HW217981   1.501   0.166   8.487 -0.3108  0.4193 -1.4872
 5514SOL     OW17982   1.847   7.374  10.046  0.4170  0.3813 -0.1552
 5514SOL    HW117983   1.905   7.348  10.118 -0.5611 -0.4183  0.3722
 5514SOL    HW217984   1.858   7.306   9.980  0.3769  0.4481 -0.2316
 5515SOL     OW17985   3.015   5.733   8.117 -0.4737  0.1285  0.5588
 5515SOL    HW117986   2.988   5.646   8.146 -0.2696  0.3366  1.3722
 5515SOL    HW217987   2.953   5.793   8.158 -0.4327  0.4006  0.2341
 5516SOL     OW17988   6.935   5.170  11.140 -0.4126 -0.0323 -0.1772
 5516SOL    HW117989   6.915   5.111  11.212  0.8086 -0.4397 -0.1496
 5516SOL    HW217990   6.960   5.113  11.067  0.6996  0.4220 -0.1753
 5517SOL     OW17991   0.903   7.417   9.129 -0.3214  0.4569 -0.8365
 5517SOL    HW117992   0.850   7.342   9.102 -1.2525  0.6897  0.2855
 5517SOL    HW217993   0.897   7.418   9.224  1.5236  0.6397 -0.6893
 5518SOL     OW17994   1.213   5.442  10.064  0.0051  0.4261  0.6284
 5518SOL    HW117995   1.138   5.411  10.115 -0.0852 -0.8478 -0.2356
 5518SOL    HW217996   1.250   5.513  10.117 -2.8557  2.3811  0.2728
 5519SOL     OW17997   1.290   7.521   9.774 -0.1659  0.0554 -0.0362
 5519SOL    HW117998   1.337   7.604   9.786  2.8012 -1.4787  0.0173
 5519SOL    HW217999   1.317   7.468   9.849 -0.4145 -1.5930 -1.0660
 5520SOL     OW18000   2.713   6.873   8.917 -0.6275 -0.1076  0.1686
 5520SOL    HW118001   2.702   6.779   8.901  0.5393 -0.3337  0.6026
 5520SOL    HW218002   2.639   6.897   8.972 -2.1951 -0.2723 -1.7530
 5521SOL     OW18003   1.411   6.840  10.756 -0.0762 -0.3162  0.4263
 5521SOL    HW118004   1.332   6.822  10.808 -0.9958  1.5472 -0.2411
 5521SOL    HW218005   1.475   6.869  10.821 -0.1808 -1.0227  0.8687
 5522SOL     OW18006   1.676   6.006  11.296 -0.1977  0.3700 -0.2349
 5522SOL    HW118007   1.632   6.049  11.223 -1.9754 -0.8811  0.0155
 5522SOL    HW218008   1.689   5.916  11.267 -1.6751 -0.3764  1.2035
 5523SOL     OW18009   7.115   6.813  10.914 -0.3182 -0.2455  0.0436
 5523SOL    HW118010   7.168   6.807  10.994 -0.8022  0.5210  0.4353
 5523SOL    HW218011   7.090   6.722  10.895 -0.8636 -0.3627  1.2291
 5524SOL     OW18012   7.623   6.234   9.552 -0.8273 -0.6417  0.1547
 5524SOL    HW118013   7.664   6.210   9.469 -1.5433 -1.3325 -0.0170
 5524SOL    HW218014   7.652   6.324   9.568  0.8378 -1.1437  0.1284
 5525SOL     OW18015   1.346   7.413  11.097 -0.2822 -0.2938  0.6233
 5525SOL    HW118016   1.375   7.339  11.043 -1.0999 -0.5973  0.5778
 5525SOL    HW218017   1.371   7.389  11.186  2.0416  0.6917  0.3059
 5526SOL     OW18018   1.236   6.280   0.294 -0.5037 -0.1879  0.4583
 5526SOL    HW118019   1.220   6.249   0.205  0.8333 -2.8043  1.0282
 5526SOL    HW218020   1.331   6.288   0.301 -0.5806 -0.0390  1.6657
 5527SOL     OW18021   7.878   6.157  10.006 -0.0462 -0.2634  0.1323
 5527SOL    HW118022   7.874   6.112   9.922 -0.0397  1.6072 -0.9216
 5527SOL    HW218023   7.920   6.242   9.986  0.2415  0.1015  2.0701
 5528SOL     OW18024   6.246   4.740  10.783  0.4125 -0.2638  0.1917
 5528SOL    HW118025   6.285   4.672  10.728 -0.0221 -0.2343 -0.1631
 5528SOL    HW218026   6.167   4.765  10.736  0.0505 -0.2147  0.8237
 5529SOL     OW18027   5.085   6.400   9.767  0.2780 -0.5803 -0.4396
 5529SOL    HW118028   5.161   6.342   9.776  0.2053 -1.0397 -2.4493
 5529SOL    HW218029   5.010   6.342   9.781  0.2412 -0.5253 -0.4111
 5530SOL     OW18030   7.847   7.325   9.052 -0.1968  0.6460 -0.4008
 5530SOL    HW118031   7.859   7.415   9.083  2.1949  0.6695 -1.1625
 5530SOL    HW218032   7.803   7.334   8.968 -1.6455  0.9355  0.3497
 5531SOL     OW18033   1.752   6.824  11.427  0.5725  0.2080 -0.2533
 5531SOL    HW118034   1.675   6.872  11.456  1.1321  0.4938  0.7900
 5531SOL    HW218035   1.826   6.877  11.456  1.1827 -0.6971 -0.1101
 5532SOL     OW18036   1.234   7.005   8.775  0.1253 -0.2738  0.1636
 5532SOL    HW118037   1.308   6.953   8.744 -1.8985 -2.2922 -1.6142
 5532SOL    HW218038   1.212   7.061   8.701  0.2407  0.8032  0.9234
 5533SOL     OW18039   1.943   6.490   9.431 -0.1392 -0.1859 -0.6613
 5533SOL    HW118040   1.888   6.476   9.354 -2.3474  0.1292  0.7428
 5533SOL    HW218041   2.019   6.435   9.417 -1.1511 -1.2329 -2.4119
 5534SOL     OW18042   1.728   0.017   9.262 -0.2961 -0.1815 -0.1355
 5534SOL    HW118043   1.679   0.075   9.320 -2.0725 -1.6235 -0.0829
 5534SOL    HW218044   1.760   0.073   9.192 -0.7779  1.0679  0.6221
 5535SOL     OW18045   2.315   2.763  10.288  0.2332 -0.6544  0.3356
 5535SOL    HW118046   2.224   2.740  10.304  0.2561 -0.5956  0.5473
 5535SOL    HW218047   2.341   2.708  10.214 -0.0134 -0.5748  0.1884
 5536SOL     OW18048   6.740   0.495  11.563  0.2143 -0.5268 -0.3014
 5536SOL    HW118049   6.751   0.501  11.468 -0.1539 -0.3697 -0.3340
 5536SOL    HW218050   6.761   0.404  11.583 -1.0195 -0.9150 -0.7102
 5537SOL     OW18051   1.675   7.522  10.498 -0.1631 -0.5537  0.1215
 5537SOL    HW118052   1.759   7.487  10.526 -0.1534 -1.2820 -0.8020
 5537SOL    HW218053   1.677   7.614  10.526  1.0708 -0.4683 -0.2119
 5538SOL     OW18054   2.664   7.979   9.097 -0.0193 -0.2257  0.2896
 5538SOL    HW118055   2.593   7.970   9.034 -0.2325 -2.2464  0.7440
 5538SOL    HW218056   2.734   7.922   9.063  1.2077  1.2915  0.1356
 5539SOL     OW18057   0.837   6.164  10.297 -0.0068  0.1060  0.3961
 5539SOL    HW118058   0.786   6.122  10.227 -0.3707  0.6293  0.3411
 5539SOL    HW218059   0.825   6.108  10.373  0.6797 -0.6630 -0.0451
 5540SOL     OW18060   0.217   6.245   9.547 -0.8042 -0.5553  0.3745
 5540SOL    HW118061   0.305   6.273   9.522  0.7018 -3.8306  1.3816
 5540SOL    HW218062   0.180   6.207   9.468 -1.1475  0.3102  0.0993
 5541SOL     OW18063   7.319   5.670   9.875  0.0526  0.4140 -0.2437
 5541SOL    HW118064   7.318   5.750   9.823  2.2548 -0.3618 -1.6180
 5541SOL    HW218065   7.265   5.690   9.951 -0.0730  2.9221 -0.9173
 5542SOL     OW18066   0.370   6.465  10.310 -0.7638 -0.1441 -0.3156
 5542SOL    HW118067   0.389   6.491  10.400 -0.0330 -1.8613  0.0620
 5542SOL    HW218068   0.456   6.460  10.268 -1.0762  0.3551 -1.0464
 5543SOL     OW18069   1.807   5.964  11.852 -0.0334 -0.5910  0.0323
 5543SOL    HW118070   1.902   5.961  11.862  0.1854 -0.7797 -1.7234
 5543SOL    HW218071   1.779   5.874  11.864  0.1466 -0.7173 -0.4615
 5544SOL     OW18072   1.867   7.565   9.145  0.3947  0.7233 -0.3646
 5544SOL    HW118073   1.843   7.647   9.100  1.8224  1.2289 -0.2349
 5544SOL    HW218074   1.952   7.583   9.185 -0.5799  0.1075  2.1405
 5545SOL     OW18075   1.802   6.083  10.230 -0.1917 -0.1765 -0.0725
 5545SOL    HW118076   1.816   6.038  10.146 -0.4982 -1.7668  0.6885
 5545SOL    HW218077   1.789   6.175  10.206 -1.5381 -0.7800 -1.8806
 5546SOL     OW18078   0.606   5.704  10.269 -0.0074  0.1413  0.0533
 5546SOL    HW118079   0.694   5.690  10.234 -0.5302  0.0047 -1.2828
 5546SOL    HW218080   0.590   5.798  10.256 -0.1191  0.1300  0.1122
 5547SOL     OW18081   0.148   5.941   9.462  0.7584 -0.3199 -0.2768
 5547SOL    HW118082   0.166   5.847   9.470  1.1298 -0.1646  0.9774
 5547SOL    HW218083   0.167   5.976   9.550 -0.9919  0.6631 -0.2592
 5548SOL     OW18084   2.147   0.319   9.467  0.3987  0.1769  0.4532
 5548SOL    HW118085   2.236   0.355   9.471  0.6607 -0.0897 -1.6763
 5548SOL    HW218086   2.091   0.395   9.450  0.8380 -0.0792 -2.9905
 5549SOL     OW18087   5.402   6.262   9.358 -0.0930 -0.7204 -0.6674
 5549SOL    HW118088   5.484   6.238   9.315  0.0247  1.4512 -1.8256
 5549SOL    HW218089   5.337   6.261   9.288 -0.3869  0.6145 -0.4381
 5550SOL     OW18090   6.250   6.502  11.141  0.1609 -0.2898  0.1185
 5550SOL    HW118091   6.218   6.588  11.169 -0.7821 -0.2280 -1.0526
 5550SOL    HW218092   6.221   6.442  11.210  1.1707  0.3695  1.1423
 5551SOL     OW18093   2.360   0.816  12.019 -0.1100  0.2116  0.0234
 5551SOL    HW118094   2.333   0.781  11.934 -0.0140 -2.4301  0.9893
 5551SOL    HW218095   2.453   0.837  12.008 -0.3040  0.6891 -0.7399
 5552SOL     OW18096   2.730   6.897   8.621 -0.4169  0.0640 -0.4628
 5552SOL    HW118097   2.703   6.921   8.709  1.3069 -1.5127  0.5727
 5552SOL    HW218098   2.672   6.946   8.563 -2.3810  0.2226  1.5365
 5553SOL     OW18099   1.605   6.541  12.176  0.4032  0.0507 -0.2595
 5553SOL    HW118100   1.640   6.551  12.264  1.6523  0.7301 -0.8040
 5553SOL    HW218101   1.554   6.620  12.161 -0.5885 -0.4817  0.1622
 5554SOL     OW18102   0.468   6.596  11.309 -0.2187  0.4302 -1.0391
 5554SOL    HW118103   0.375   6.610  11.328 -0.0329 -0.1517  0.4384
 5554SOL    HW218104   0.480   6.631  11.220 -1.4174  2.2825 -0.5323
 5555SOL     OW18105   7.944   5.731  11.903  0.1680 -0.0514 -0.0467
 5555SOL    HW118106   7.975   5.767  11.820 -1.5378  0.8216 -0.3487
 5555SOL    HW218107   7.851   5.717  11.890  0.3724 -2.8292  0.7189
 5556SOL     OW18108   1.564   1.765  11.051 -0.2291  0.3181  0.1283
 5556SOL    HW118109   1.564   1.708  11.128  1.7386 -0.9032 -0.6989
 5556SOL    HW218110   1.519   1.714  10.984 -1.5116  1.1825  0.3075
 5557SOL     OW18111   7.477   5.216  11.438  0.3813 -0.0717 -0.2189
 5557SOL    HW118112   7.570   5.239  11.447  0.2590  0.8970 -1.1781
 5557SOL    HW218113   7.455   5.173  11.521  1.9524 -1.3389 -0.4073
 5558SOL     OW18114   0.607   6.092  10.787 -0.1483 -0.4361  0.2469
 5558SOL    HW118115   0.694   6.130  10.774  0.0867 -1.5485 -1.8362
 5558SOL    HW218116   0.622   6.019  10.847  0.8607 -2.0629 -1.8490
 5559SOL     OW18117   1.980   6.440  10.811 -0.1880 -0.4816 -0.3782
 5559SOL    HW118118   1.996   6.388  10.890 -1.1683  2.9432  2.2891
 5559SOL    HW218119   2.048   6.508  10.813 -0.6224  0.0511 -2.1725
 5560SOL     OW18120   2.869   6.528  11.116 -0.0995  0.9877  0.0825
 5560SOL    HW118121   2.911   6.579  11.046 -0.7005  1.7889  0.2848
 5560SOL    HW218122   2.785   6.572  11.130 -1.0705 -0.6688 -0.4013
 5561SOL     OW18123   3.578   5.392  10.606  0.6695 -0.2315 -0.0195
 5561SOL    HW118124   3.483   5.402  10.614  0.8805  3.4741 -0.3212
 5561SOL    HW218125   3.591   5.344  10.525 -0.9597  0.5603 -0.7882
 5562SOL     OW18126   1.334   6.586  10.622  0.0744 -0.0873 -0.4270
 5562SOL    HW118127   1.322   6.523  10.693  1.7085 -0.1888 -0.2004
 5562SOL    HW218128   1.389   6.654  10.660 -0.3462  0.6693 -1.1448
 5563SOL     OW18129   7.787   7.790   8.656 -0.0361 -0.1852  0.2197
 5563SOL    HW118130   7.797   7.877   8.618 -0.7602 -0.0501  0.3268
 5563SOL    HW218131   7.790   7.731   8.580 -1.4781  0.0841 -0.0622
 5564SOL     OW18132   1.722   6.732   9.588  0.0580 -0.2721 -0.2285
 5564SOL    HW118133   1.741   6.760   9.498  1.9542  0.6340  0.4049
 5564SOL    HW218134   1.676   6.805   9.627  2.7667  1.0769  0.6657
 5565SOL     OW18135   0.326   7.280  10.690 -0.1145 -0.5469  0.1548
 5565SOL    HW118136   0.326   7.206  10.629  0.4591 -1.0363  0.7317
 5565SOL    HW218137   0.302   7.355  10.636  2.0141 -0.6685 -1.0723
 5566SOL     OW18138   7.465   6.526  11.433  0.6367  0.5275 -0.5864
 5566SOL    HW118139   7.438   6.526  11.341  0.0813  1.0399 -0.4300
 5566SOL    HW218140   7.426   6.447  11.469  1.2457  0.0744 -0.8946
 5567SOL     OW18141   7.499   5.528  11.363 -0.2925  0.8048  0.3561
 5567SOL    HW118142   7.504   5.556  11.271  0.6480  1.2529  0.5307
 5567SOL    HW218143   7.488   5.433  11.358 -1.5540  0.9602 -0.2206
 5568SOL     OW18144   0.199   5.196  11.776  0.1304  0.0615  0.2411
 5568SOL    HW118145   0.245   5.252  11.838 -0.0048  0.8587 -0.3603
 5568SOL    HW218146   0.150   5.135  11.831 -0.8748  1.4667  0.9584
 5569SOL     OW18147   1.172   7.922   1.784  0.2539 -0.0924 -0.5871
 5569SOL    HW118148   1.122   7.898   1.862  0.2125  1.3150 -0.1591
 5569SOL    HW218149   1.240   7.980   1.816  0.4067  0.2824 -1.5584
 5570SOL     OW18150   2.135   6.695  12.238 -0.2323  0.1676 -0.0333
 5570SOL    HW118151   2.222   6.730  12.254 -0.5651  2.0950 -2.0292
 5570SOL    HW218152   2.150   6.612  12.192  0.5232 -0.2948  1.0084
 5571SOL     OW18153   0.862   6.066  11.323 -0.2059 -0.0772  0.1662
 5571SOL    HW118154   0.863   5.970  11.331 -1.5733 -0.0602  0.9127
 5571SOL    HW218155   0.911   6.084  11.243 -1.2196 -1.5010 -0.8376
 5572SOL     OW18156   2.508   5.019  11.137 -0.3675 -0.5029 -0.5647
 5572SOL    HW118157   2.546   4.947  11.187 -0.6064  0.3555  0.8923
 5572SOL    HW218158   2.429   5.044  11.185  0.7732  2.0420  0.1450
 5573SOL     OW18159   0.051   5.463   0.992  0.2986 -0.1768 -0.4816
 5573SOL    HW118160   0.087   5.427   1.073  1.9914 -0.0924 -1.1574
 5573SOL    HW218161  -0.011   5.530   1.020  2.8929  1.8630  0.7911
 5574SOL     OW18162   7.583   5.852   0.545 -0.3974 -0.3870  0.1500
 5574SOL    HW118163   7.679   5.851   0.543 -0.3684 -2.2372 -2.0454
 5574SOL    HW218164   7.560   5.944   0.530  1.0077  0.1064  0.7834
 5575SOL     OW18165   1.511   6.892  10.117 -0.6847 -0.3083  0.0094
 5575SOL    HW118166   1.517   6.952  10.191  0.3807  0.9494 -1.0505
 5575SOL    HW218167   1.510   6.805  10.156  2.3185  0.2025  1.4492
 5576SOL     OW18168   0.812   5.999  11.866 -0.3343  0.4402 -0.1897
 5576SOL    HW118169   0.873   5.998  11.940  0.2917  0.6741 -0.6950
 5576SOL    HW218170   0.868   6.002  11.789 -0.9878  0.4292 -0.6701
 5577SOL     OW18171   7.068   6.402  11.652 -0.1217 -0.3324  0.5595
 5577SOL    HW118172   7.104   6.484  11.685 -1.2403  2.4520 -4.1219
 5577SOL    HW218173   6.989   6.387  11.703  0.3448  1.2359  1.7942
 5578SOL     OW18174   7.004   5.816  11.401  0.2982 -0.4865 -0.2344
 5578SOL    HW118175   7.003   5.865  11.482  2.7320 -1.3060  0.3674
 5578SOL    HW218176   6.958   5.872  11.338  0.3269  1.1499  1.1473
 5579SOL     OW18177   2.577   6.739  12.114 -0.2734 -0.1789 -0.1958
 5579SOL    HW118178   2.536   6.732  12.200  1.0841 -0.0898  0.4841
 5579SOL    HW218179   2.504   6.740  12.052 -1.2377 -1.9345  0.8385
 5580SOL     OW18180   2.431   7.268   8.354 -0.5524  0.1565  0.7679
 5580SOL    HW118181   2.482   7.339   8.315 -0.8965  0.8245  1.4992
 5580SOL    HW218182   2.392   7.307   8.432 -1.8440 -0.4609  0.4470
 5581SOL     OW18183   1.691   6.334  10.522 -0.7060 -0.3428  0.6405
 5581SOL    HW118184   1.751   6.408  10.511 -1.7425  0.5051  0.3951
 5581SOL    HW218185   1.716   6.295  10.605  0.6742 -0.4963  0.1714
 5582SOL     OW18186   0.669   6.735  10.073  0.5042  0.4824 -0.1397
 5582SOL    HW118187   0.701   6.688  10.150  0.2670  1.1892  0.4050
 5582SOL    HW218188   0.688   6.677   9.999 -1.4314 -1.3101  0.6593
 5583SOL     OW18189   6.052   7.069   9.933  0.3452  0.1177  0.1626
 5583SOL    HW118190   6.136   7.023   9.942 -0.7967 -1.7858  1.8302
 5583SOL    HW218191   6.047   7.125  10.010  0.6208  1.2725 -0.6203
 5584SOL     OW18192   1.652   5.292  11.576  1.2892  0.3142  0.0464
 5584SOL    HW118193   1.723   5.253  11.628  0.5467  0.1219  0.9343
 5584SOL    HW218194   1.592   5.328  11.641 -0.7026 -1.6872 -0.5653
 5585SOL     OW18195   1.638   6.367  11.188 -0.0722  0.5022 -0.5366
 5585SOL    HW118196   1.696   6.328  11.253  0.6980  0.4826 -1.2224
 5585SOL    HW218197   1.587   6.432  11.237  1.0086  1.0041 -0.0441
 5586SOL     OW18198   0.329   7.660  11.196  0.2780  0.4170  0.1701
 5586SOL    HW118199   0.300   7.751  11.197  0.5637  0.5286 -0.7940
 5586SOL    HW218200   0.388   7.653  11.272 -1.8485  0.2891  1.8998
 5587SOL     OW18201   7.113   6.240  11.245  0.1390  0.1507  0.3131
 5587SOL    HW118202   7.044   6.267  11.306  1.8698  0.7842  2.1174
 5587SOL    HW218203   7.168   6.180  11.296  2.6870  2.0982  0.0975
 5588SOL     OW18204   1.261   4.825  11.047  0.2715  0.2377  0.6031
 5588SOL    HW118205   1.350   4.859  11.045  0.1365  0.8772  2.6096
 5588SOL    HW218206   1.213   4.879  10.985  0.8992  1.1029  0.8526
 5589SOL     OW18207   1.667   5.370   0.900  0.3017 -0.5139 -0.4689
 5589SOL    HW118208   1.701   5.281   0.913  0.2715 -0.4043  0.4543
 5589SOL    HW218209   1.588   5.358   0.848  0.0492 -1.0834  0.0327
 5590SOL     OW18210   2.557   6.477  12.368 -0.1047  0.5466  0.1514
 5590SOL    HW118211   2.579   6.394  12.411  0.0795  0.7895  0.5284
 5590SOL    HW218212   2.473   6.501  12.406 -0.2446  0.4423 -0.0920
 5591SOL     OW18213   7.831   6.748  10.793  0.5380 -0.2535 -0.2215
 5591SOL    HW118214   7.788   6.699  10.723 -0.4615  0.6687 -0.2809
 5591SOL    HW218215   7.831   6.688  10.867 -0.8888 -0.2964 -0.2233
 5592SOL     OW18216   1.779   6.670  10.964 -0.6482  0.0193 -0.3995
 5592SOL    HW118217   1.840   6.608  10.925  0.0643  1.4709 -1.7106
 5592SOL    HW218218   1.704   6.671  10.905 -0.4744  0.6851 -0.6249
 5593SOL     OW18219   0.856   6.597  11.517  0.1169  0.2371  0.2988
 5593SOL    HW118220   0.859   6.524  11.455 -1.1915 -0.8630  1.4763
 5593SOL    HW218221   0.771   6.639  11.502  0.5251  1.0531  0.1806
 5594SOL     OW18222   2.654   7.025  11.401  0.6376  0.2137  0.1306
 5594SOL    HW118223   2.686   6.978  11.324  0.7000  1.2030 -0.4687
 5594SOL    HW218224   2.606   6.959  11.452  1.5096 -0.7076 -0.2046
 5595SOL     OW18225   3.219   6.130  10.015  0.1721 -0.6156 -0.2125
 5595SOL    HW118226   3.258   6.048  10.046 -0.2188 -1.1289 -1.0535
 5595SOL    HW218227   3.273   6.155   9.940 -0.3082 -0.6272 -0.5651
 5596SOL     OW18228   7.463   5.286   0.405  0.5932  0.2914 -0.5007
 5596SOL    HW118229   7.409   5.355   0.443  0.3767  1.0023 -2.0175
 5596SOL    HW218230   7.449   5.294   0.311 -1.2924 -3.3325 -0.6783
 5597SOL     OW18231   7.548   4.783  11.386 -0.0316 -0.4736  0.1557
 5597SOL    HW118232   7.553   4.787  11.291 -0.6297  1.4386  0.1630
 5597SOL    HW218233   7.628   4.737  11.412  0.1286 -1.0423 -1.2506
 5598SOL     OW18234   0.474   7.604  11.707  0.5424  0.5917  0.0899
 5598SOL    HW118235   0.456   7.565  11.792 -0.5662 -1.2818 -0.9446
 5598SOL    HW218236   0.534   7.542  11.665 -0.4595  0.4511 -1.2074
 5599SOL     OW18237   7.372   5.060   2.874 -0.3061  0.6624 -0.4109
 5599SOL    HW118238   7.375   5.051   2.969  0.0095 -1.3356 -0.5663
 5599SOL    HW218239   7.460   5.090   2.850 -0.0061  0.0023 -0.1562
 5600SOL     OW18240   0.934   6.430  10.860  0.9013  0.1567  0.0299
 5600SOL    HW118241   0.985   6.468  10.931  3.1189 -1.5266 -0.5579
 5600SOL    HW218242   0.977   6.347  10.841 -1.3323 -0.7650 -1.4092
 5601SOL     OW18243   2.119   6.158  11.534  0.4058 -0.8258 -0.4765
 5601SOL    HW118244   2.189   6.097  11.556  0.3993 -0.5621  0.2848
 5601SOL    HW218245   2.163   6.242  11.523  0.0437 -0.3216  1.5576
 5602SOL     OW18246   1.411   5.205  10.847  0.4122 -0.0280 -0.2758
 5602SOL    HW118247   1.485   5.169  10.798  1.9924  1.8712  0.5639
 5602SOL    HW218248   1.424   5.300  10.843  0.4507  0.2755  3.3862
 5603SOL     OW18249   1.320   6.977  10.562 -0.3110 -0.5584  0.2338
 5603SOL    HW118250   1.395   7.037  10.560 -1.2944  0.6796 -1.1252
 5603SOL    HW218251   1.334   6.924  10.641  1.5460  0.2017  0.4685
 5604SOL     OW18252   2.966   7.336  12.119 -0.2770  0.2319  0.3645
 5604SOL    HW118253   2.914   7.377  12.189 -2.7749 -1.1709 -0.5263
 5604SOL    HW218254   2.938   7.244  12.120  1.1834 -0.2762 -1.1414
 5605SOL     OW18255   1.037   7.396  12.146  0.3432  0.2168 -0.3872
 5605SOL    HW118256   0.997   7.455  12.210  2.3221  0.6331  0.5431
 5605SOL    HW218257   1.009   7.309  12.173  1.7043  0.3133  1.5721
 5606SOL     OW18258   1.543   5.775  10.237  0.2688 -0.3411 -0.0807
 5606SOL    HW118259   1.626   5.791  10.192 -0.2531  0.4959 -0.7966
 5606SOL    HW218260   1.568   5.752  10.326  1.2780 -0.3905 -0.3595
 5607SOL     OW18261   1.135   6.945  11.869 -0.0981  0.2476 -0.1859
 5607SOL    HW118262   1.109   7.025  11.823 -1.2150 -0.3666 -0.6554
 5607SOL    HW218263   1.089   6.949  11.953  0.1274  0.2687 -0.0630
 5608SOL     OW18264   1.767   6.973  10.698 -0.3159 -0.2549 -0.4583
 5608SOL    HW118265   1.723   6.991  10.781 -1.2733 -1.1374 -0.7548
 5608SOL    HW218266   1.838   6.912  10.722  0.8545  1.2229  0.0286
 5609SOL     OW18267   1.344   5.934  12.217 -0.0385  0.2661 -0.1830
 5609SOL    HW118268   1.358   6.024  12.244 -0.8194  0.4783 -0.4695
 5609SOL    HW218269   1.422   5.888  12.247 -0.2908  0.7405  1.3213
 5610SOL     OW18270   1.229   5.527  11.788  0.3059 -0.0288  0.0293
 5610SOL    HW118271   1.146   5.574  11.781  0.7229  0.9623  1.2223
 5610SOL    HW218272   1.289   5.591  11.827  1.5663 -0.7969 -0.5942
 5611SOL     OW18273   2.283   7.076   9.114  0.2567 -0.5533  0.1598
 5611SOL    HW118274   2.244   7.119   9.190 -0.9463 -2.4507  0.6973
 5611SOL    HW218275   2.209   7.032   9.071  1.5017 -3.1033  0.4140
 5612SOL     OW18276   0.021   0.756  11.950 -0.3126  0.4636 -0.3491
 5612SOL    HW118277  -0.042   0.760  12.022  1.1702  1.6922  0.9559
 5612SOL    HW218278   0.017   0.666  11.919 -0.9744 -0.1186  1.3258
 5613SOL     OW18279   3.204   7.103   0.264  0.7347 -0.0390 -0.5401
 5613SOL    HW118280   3.247   7.068   0.342 -1.3703 -0.9281  0.3028
 5613SOL    HW218281   3.262   7.174   0.235  1.5474  0.4176  1.9093
 5614SOL     OW18282   7.748   6.121   0.301  0.1341  0.1218 -0.2206
 5614SOL    HW118283   7.808   6.148   0.232  0.7165  1.3521  0.7583
 5614SOL    HW218284   7.797   6.129   0.382 -0.7539 -0.6818  0.4313
 5615SOL     OW18285   6.759   5.592   9.526  0.2182 -0.6282 -0.3417
 5615SOL    HW118286   6.775   5.671   9.473  0.4808 -0.5445 -0.1413
 5615SOL    HW218287   6.667   5.572   9.512  0.5741 -1.3719 -1.8736
 5616SOL     OW18288   2.153   6.256  10.450 -0.1586 -0.4816  0.1890
 5616SOL    HW118289   2.104   6.199  10.509  0.6014 -1.8541 -0.4370
 5616SOL    HW218290   2.205   6.195  10.397 -0.6783  0.6955 -1.7631
 5617SOL     OW18291   2.212   4.521  10.185  0.1460 -1.1113 -0.4383
 5617SOL    HW118292   2.156   4.533  10.262 -1.3346 -0.8677 -1.5302
 5617SOL    HW218293   2.275   4.593  10.191 -0.5330 -0.5450  0.0603
 5618SOL     OW18294   0.279   7.219  10.250 -0.0662 -0.4457  0.0003
 5618SOL    HW118295   0.337   7.155  10.208 -1.2989 -1.8170  0.3084
 5618SOL    HW218296   0.230   7.258  10.178  0.6469  0.1263 -0.1839
 5619SOL     OW18297   2.148   5.898  11.179 -0.4446 -0.0629 -0.7110
 5619SOL    HW118298   2.191   5.972  11.222 -0.2617 -0.2427 -0.5808
 5619SOL    HW218299   2.118   5.933  11.096  0.3741 -0.0504 -1.0125
 5620SOL     OW18300   0.920   4.828  11.291  0.1201  0.0473 -0.2116
 5620SOL    HW118301   0.954   4.893  11.353  0.3786  0.8228 -1.1509
 5620SOL    HW218302   0.884   4.879  11.219  1.6952 -0.8415 -1.7127
 5621SOL     OW18303   1.675   7.086  12.318  0.5467  0.6085  0.4712
 5621SOL    HW118304   1.678   7.098  12.413  1.6360 -0.5877  0.6170
 5621SOL    HW218305   1.765   7.064  12.294  0.0512 -0.2567 -0.6683
 5622SOL     OW18306   2.164   7.132  11.853  0.0944 -0.2724  0.4171
 5622SOL    HW118307   2.091   7.137  11.914 -1.3595  0.0350 -1.2707
 5622SOL    HW218308   2.159   7.213  11.803  2.1420  0.1540  0.7983
 5623SOL     OW18309   5.931   6.371  11.162  0.1797  0.1134  0.3196
 5623SOL    HW118310   5.869   6.426  11.115 -1.0744 -0.4458  1.2628
 5623SOL    HW218311   5.953   6.421  11.241  0.2527 -0.0699  0.4166
 5624SOL     OW18312   1.940   7.396   0.698  0.5726  0.3821 -0.1651
 5624SOL    HW118313   1.892   7.321   0.734  1.2858  0.3942  0.8614
 5624SOL    HW218314   1.967   7.367   0.611 -0.6546  0.1062 -0.4756
 5625SOL     OW18315   1.017   6.197  11.123 -0.2428 -0.5324 -0.0857
 5625SOL    HW118316   1.066   6.277  11.144 -0.9099  0.0263 -0.6248
 5625SOL    HW218317   1.079   6.143  11.075  0.0202 -0.0658 -0.2779
 5626SOL     OW18318   0.474   6.320  12.133  0.2770 -0.0963 -0.6166
 5626SOL    HW118319   0.525   6.245  12.163 -0.0434 -0.1764 -0.2731
 5626SOL    HW218320   0.412   6.283  12.070  0.5718 -0.0131 -0.9615
 5627SOL     OW18321   0.743   5.597  11.739  0.3835  0.1393  0.3736
 5627SOL    HW118322   0.661   5.647  11.740  0.3773  0.2104 -1.2136
 5627SOL    HW218323   0.719   5.512  11.776  0.2878  1.0820  2.6539
 5628SOL     OW18324   0.614   5.342   0.284 -0.2283  0.3923 -0.3079
 5628SOL    HW118325   0.674   5.285   0.236  0.6326 -0.0187  1.1721
 5628SOL    HW218326   0.578   5.401   0.218  2.2954  1.0636 -1.1897
 5629SOL     OW18327   2.398   6.982  11.836  0.0364 -0.5829 -0.2775
 5629SOL    HW118328   2.328   7.037  11.800  0.2837 -0.4788 -0.6079
 5629SOL    HW218329   2.360   6.894  11.840  0.6285 -1.0568 -2.7772
 5630SOL     OW18330   0.003   6.176  11.349 -0.4376 -0.7365  0.2979
 5630SOL    HW118331  -0.058   6.196  11.277  0.0525  0.9042  0.3088
 5630SOL    HW218332   0.007   6.256  11.400  0.1139 -1.5192  1.5278
 5631SOL     OW18333   1.416   5.763  11.140  0.1361  0.0153 -0.5346
 5631SOL    HW118334   1.390   5.671  11.131  2.6589 -0.8487  0.1729
 5631SOL    HW218335   1.435   5.774  11.233  0.0955  1.2012 -0.6480
 5632SOL     OW18336   1.536   5.532  11.244 -0.6312 -0.5193 -0.3284
 5632SOL    HW118337   1.558   5.468  11.311  1.2181 -1.5285 -1.7955
 5632SOL    HW218338   1.441   5.524  11.233 -0.5486 -2.4927  0.0609
 5633SOL     OW18339   2.117   6.835  11.505 -0.9528 -0.1186 -0.1635
 5633SOL    HW118340   2.091   6.743  11.498  0.1537 -0.4068 -0.7151
 5633SOL    HW218341   2.063   6.870  11.576 -1.5509 -1.1329 -0.1018
 5634SOL     OW18342   3.513   5.977  11.772  0.7983  0.5320 -0.2719
 5634SOL    HW118343   3.570   5.985  11.695  0.8298  0.7903 -0.2231
 5634SOL    HW218344   3.438   5.926  11.741  0.9955  0.2949 -0.3695
 5635SOL     OW18345   0.841   5.982  10.543 -0.5746 -0.4494 -0.3183
 5635SOL    HW118346   0.833   6.071  10.578  2.1274 -0.8480  1.6941
 5635SOL    HW218347   0.751   5.956  10.520 -1.6521  2.1572  0.6207
 5636SOL     OW18348   1.867   6.013   1.690 -0.0277 -0.3711  0.2372
 5636SOL    HW118349   1.873   5.940   1.628  0.5927  0.5393 -0.8160
 5636SOL    HW218350   1.941   6.000   1.749  1.0379  0.2302 -0.9111
 5637SOL     OW18351   2.431   7.729   1.923  0.0782 -0.4291  0.0511
 5637SOL    HW118352   2.381   7.789   1.868 -0.0121 -0.4746  0.0822
 5637SOL    HW218353   2.463   7.783   1.995 -0.9851 -0.6449  0.7071
 5638SOL     OW18354   7.975   6.847  11.066  0.3455  0.3583 -0.2911
 5638SOL    HW118355   8.024   6.765  11.071  1.1494  0.8865  1.1411
 5638SOL    HW218356   8.021   6.899  10.999  0.3366 -0.0294 -0.6007
 5639SOL     OW18357   1.023   7.690   0.021  0.7325  0.1313 -0.5664
 5639SOL    HW118358   1.017   7.603  -0.019  0.9967 -0.4565  0.6188
 5639SOL    HW218359   1.051   7.673   0.111 -1.8943  1.2281  0.5537
 5640SOL     OW18360   7.730   5.517  12.181 -0.4727 -0.0243 -0.3939
 5640SOL    HW118361   7.734   5.432  12.225  0.8782  0.0057 -0.4163
 5640SOL    HW218362   7.795   5.511  12.111 -1.6464  0.4092 -1.5480
 5641SOL     OW18363   7.306   6.363   9.777  0.2894 -0.3076 -0.2573
 5641SOL    HW118364   7.333   6.436   9.832 -0.2191  0.4787 -1.0407
 5641SOL    HW218365   7.281   6.402   9.694 -2.8668 -0.9797  0.2398
 5642SOL     OW18366   1.330   5.332  10.585  0.3396  0.7820 -0.2490
 5642SOL    HW118367   1.244   5.357  10.550  1.0444  3.2996 -0.3593
 5642SOL    HW218368   1.384   5.410  10.573  2.2628 -0.2724  1.1282
 5643SOL     OW18369   0.530   4.916  11.985  0.0781  0.0890 -0.5039
 5643SOL    HW118370   0.499   4.972  11.914 -0.6366 -0.8387 -0.9647
 5643SOL    HW218371   0.459   4.852  11.997  0.6120 -0.3611  0.3827
 5644SOL     OW18372   7.801   6.225  10.253 -0.0422  0.0774 -0.0109
 5644SOL    HW118373   7.845   6.196  10.173 -1.7250 -0.0479 -0.9380
 5644SOL    HW218374   7.785   6.144  10.302 -0.6287 -0.0620 -0.4216
 5645SOL     OW18375   7.190   5.967   8.806  0.0849 -0.4438 -0.3037
 5645SOL    HW118376   7.246   5.899   8.768  0.3936  0.5388 -1.6571
 5645SOL    HW218377   7.225   5.980   8.894  1.2764 -0.6397 -0.7328
 5646SOL     OW18378   7.578   6.355  10.839 -0.2203  0.8549  0.3335
 5646SOL    HW118379   7.597   6.276  10.889 -1.0834  1.6187  1.9496
 5646SOL    HW218380   7.499   6.391  10.879 -1.7170  0.9022 -2.3783
 5647SOL     OW18381   0.405   5.294  11.627 -0.0279 -0.3033 -0.4415
 5647SOL    HW118382   0.451   5.228  11.576  2.4087  0.1145  1.0755
 5647SOL    HW218383   0.332   5.247  11.667 -0.7353 -1.1011 -2.5115
 5648SOL     OW18384   2.576   5.702  11.347  0.1980 -0.1552 -0.9899
 5648SOL    HW118385   2.648   5.645  11.319  1.6598  0.8078  0.5839
 5648SOL    HW218386   2.617   5.787  11.364 -1.2512  0.3555  0.2400
 5649SOL     OW18387   0.633   7.230  12.090 -0.5527 -0.2644 -0.2543
 5649SOL    HW118388   0.592   7.212  12.006 -2.1325 -0.7656  0.5756
 5649SOL    HW218389   0.644   7.325  12.092 -2.3519 -0.0210 -0.2495
 5650SOL     OW18390   0.551   7.370  10.394 -0.2762 -0.1588  0.2568
 5650SOL    HW118391   0.586   7.332  10.475  0.4068  0.7747  0.4102
 5650SOL    HW218392   0.545   7.296  10.334  0.1634 -0.6822  0.8452
 5651SOL     OW18393   1.960   6.267  12.098 -0.1072  0.1742 -0.1281
 5651SOL    HW118394   1.913   6.295  12.020  0.1699  1.1360  0.0339
 5651SOL    HW218395   1.945   6.336  12.162 -0.3688 -0.6236  0.6962
 5652SOL     OW18396   0.934   7.085  11.680  0.8388  0.0975 -1.0130
 5652SOL    HW118397   0.997   7.146  11.718 -0.0003  1.7801 -2.2260
 5652SOL    HW218398   0.893   7.043  11.755  1.9010  0.5213 -0.1648
 5653SOL     OW18399   7.092   7.521  12.490 -0.1743  0.0920  0.0768
 5653SOL    HW118400   7.164   7.459  12.497  0.3561  0.8382  1.8561
 5653SOL    HW218401   7.042   7.492  12.414  2.6139  0.2439 -1.9589
 5654SOL     OW18402   2.398   4.709  10.196  0.0689  0.2061 -0.6182
 5654SOL    HW118403   2.354   4.794  10.191  0.5554  0.4652 -0.6433
 5654SOL    HW218404   2.478   4.727  10.245 -0.5788 -0.5633  0.7899
 5655SOL     OW18405   0.097   6.311  11.030  0.4474 -0.5408 -0.3347
 5655SOL    HW118406   0.091   6.317  10.935 -1.4704  1.4192 -0.1547
 5655SOL    HW218407   0.027   6.252  11.056 -0.3995  0.5562 -0.0402
 5656SOL     OW18408   1.866   5.149  11.637 -0.0402  0.9571 -0.4602
 5656SOL    HW118409   1.952   5.133  11.598 -0.4441 -0.5404 -0.7957
 5656SOL    HW218410   1.830   5.062  11.654 -1.7085  1.5398 -0.7920
 5657SOL     OW18411   2.328   5.903  10.692 -0.5889 -0.0342 -0.6354
 5657SOL    HW118412   2.310   5.819  10.735 -2.3675  0.3885 -0.4884
 5657SOL    HW218413   2.420   5.896  10.665  0.0303 -1.0755  1.4937
 5658SOL     OW18414   2.158   0.243   0.663 -0.2031  0.6563  0.4846
 5658SOL    HW118415   2.121   0.165   0.703  2.3033 -0.5655  0.6292
 5658SOL    HW218416   2.212   0.210   0.591 -0.8352  2.4598 -0.9084
 5659SOL     OW18417   7.118   6.022   0.580  0.1432  0.2098 -0.1875
 5659SOL    HW118418   7.173   6.011   0.658 -0.0656  0.8580  0.0538
 5659SOL    HW218419   7.048   5.958   0.592  0.5830 -0.2935 -0.2677
 5660SOL     OW18420   7.478   6.103  11.277 -0.1954 -0.2120  0.2289
 5660SOL    HW118421   7.519   6.018  11.292  0.8546  0.1990 -0.2311
 5660SOL    HW218422   7.520   6.161  11.340 -0.0088  0.2382 -0.3037
 5661SOL     OW18423   1.580   5.010   2.400 -0.1173 -0.1474  0.4664
 5661SOL    HW118424   1.490   5.011   2.433 -0.1685  0.7754  0.3286
 5661SOL    HW218425   1.634   5.021   2.477 -0.2730  3.2164  0.2263
 5662SOL     OW18426   7.620   6.672  11.091  0.3464  0.0712 -0.6375
 5662SOL    HW118427   7.578   6.724  11.160 -1.6213 -0.8060 -1.1165
 5662SOL    HW218428   7.584   6.707  11.010  1.8434  0.3836 -1.1999
 5663SOL     OW18429   1.127   6.608  10.409 -0.1636  0.0191 -0.4496
 5663SOL    HW118430   1.035   6.608  10.437 -0.2919  1.7684 -0.7541
 5663SOL    HW218431   1.171   6.552  10.474 -1.0594  1.0586  1.1289
 5664SOL     OW18432   0.208   0.488  11.680 -0.1512  0.2687  1.0000
 5664SOL    HW118433   0.122   0.479  11.721 -0.4508 -0.8568  0.1796
 5664SOL    HW218434   0.269   0.495  11.753 -0.6033 -2.2143  1.7153
 5665SOL     OW18435   7.093   5.138   1.127  0.6273  0.3538 -0.0297
 5665SOL    HW118436   7.055   5.226   1.132 -1.3053 -0.3875 -0.5840
 5665SOL    HW218437   7.172   5.142   1.181 -1.1425  1.5755  2.6720
 5666SOL     OW18438   7.547   6.767   9.749 -0.0306 -0.2745 -0.3988
 5666SOL    HW118439   7.470   6.822   9.736  0.1811 -0.2320 -1.6751
 5666SOL    HW218440   7.616   6.810   9.697  1.0047 -0.0445  1.0864
 5667SOL     OW18441   7.827   3.702  11.973  0.2191 -0.4928 -1.0774
 5667SOL    HW118442   7.804   3.612  11.998  0.6459  0.4559  3.7852
 5667SOL    HW218443   7.757   3.756  12.011  1.6743  1.3848 -0.9318
 5668SOL     OW18444   7.880   5.449   9.961 -0.2082 -0.2715 -0.0455
 5668SOL    HW118445   7.881   5.544   9.973  3.0924 -0.1980 -0.1089
 5668SOL    HW218446   7.961   5.419  10.001  0.5596 -2.6201 -3.0140
 5669SOL     OW18447   0.417   4.955  11.740  0.3949  0.0473 -0.2785
 5669SOL    HW118448   0.339   4.935  11.688 -0.5673 -1.1778  1.5269
 5669SOL    HW218449   0.490   4.937  11.681 -0.6156  2.3802 -2.4216
 5670SOL     OW18450   1.045   5.721  12.484 -0.2225 -0.1258  0.4617
 5670SOL    HW118451   0.956   5.728  12.447 -0.4790  1.1267  1.2440
 5670SOL    HW218452   1.102   5.735  12.409 -0.7362  1.8094  0.3666
 5671SOL     OW18453   7.752   5.336  11.055  0.4821  0.1536  0.1736
 5671SOL    HW118454   7.764   5.342  10.961  0.3267 -0.0106  0.1450
 5671SOL    HW218455   7.682   5.273  11.067  2.3418 -1.9798  0.5061
 5672SOL     OW18456   7.838   6.202  11.133  0.1877 -0.2023  0.2681
 5672SOL    HW118457   7.783   6.268  11.176  1.7537  1.3249  0.0250
 5672SOL    HW218458   7.783   6.169  11.062  0.2916  3.0260 -1.5127
 5673SOL     OW18459   1.131   6.525  11.593 -0.1043 -0.2273  0.3924
 5673SOL    HW118460   1.038   6.521  11.572  0.1363 -1.8693 -0.4959
 5673SOL    HW218461   1.151   6.440  11.633  0.4413  1.1351  3.2757
 5674SOL     OW18462   0.996   5.900   0.928 -0.5192  0.4459 -0.2611
 5674SOL    HW118463   1.090   5.884   0.934 -0.3864  1.5201  0.8771
 5674SOL    HW218464   0.985   5.951   0.848 -0.1430  0.3596 -0.3680
 5675SOL     OW18465   3.318   6.299  12.365 -0.6868  0.3723 -0.0630
 5675SOL    HW118466   3.284   6.259  12.446 -1.2303 -2.0699 -1.3962
 5675SOL    HW218467   3.239   6.322  12.316 -0.3877 -0.0843 -0.7680
 5676SOL     OW18468   1.986   7.144  12.092  0.1239 -0.7634  0.2757
 5676SOL    HW118469   2.020   7.193  12.167 -0.4774 -0.2130  0.2005
 5676SOL    HW218470   1.942   7.068  12.131 -1.5487  0.3126  0.6332
 5677SOL     OW18471   2.812   5.442   0.771  0.5147  0.5839  0.4620
 5677SOL    HW118472   2.840   5.379   0.704  0.5687  1.9783 -0.8893
 5677SOL    HW218473   2.861   5.521   0.751 -0.5413  1.4747  1.2716
 5678SOL     OW18474   2.753   6.695   0.267 -0.0600 -0.1511  0.3951
 5678SOL    HW118475   2.802   6.673   0.188 -0.6047 -1.1810  0.3202
 5678SOL    HW218476   2.675   6.640   0.263 -0.7896  0.7985  0.9611
 5679SOL     OW18477   3.832   6.083   9.937 -0.1219 -0.2131 -0.0007
 5679SOL    HW118478   3.927   6.079   9.944 -0.1532 -1.4041  0.0332
 5679SOL    HW218479   3.801   6.063  10.025 -0.4071  1.0129  0.1902
 5680SOL     OW18480   7.880   5.648  10.696 -0.3219 -0.1675 -0.3703
 5680SOL    HW118481   7.938   5.578  10.665  1.3080  0.7533  0.4740
 5680SOL    HW218482   7.850   5.692  10.616  0.3390 -0.5120 -0.8185
 5681SOL     OW18483   1.757   0.187   0.289  0.0267  0.2404  0.0045
 5681SOL    HW118484   1.729   0.220   0.374 -0.9779 -2.2258  0.7052
 5681SOL    HW218485   1.822   0.250   0.259  2.9476 -0.4463  4.1031
 5682SOL     OW18486   2.628   6.107  12.133 -0.1366 -0.3591 -0.0440
 5682SOL    HW118487   2.614   6.017  12.161 -0.5290 -0.4584 -0.5652
 5682SOL    HW218488   2.541   6.147  12.137 -0.0115 -0.0829 -0.0951
 5683SOL     OW18489   7.472   6.119   1.018 -0.1844  0.0824  0.0308
 5683SOL    HW118490   7.497   6.205   1.052  0.6674 -0.0240 -0.2949
 5683SOL    HW218491   7.389   6.135   0.972 -0.0624  0.7195  0.0140
 5684SOL     OW18492   1.172   7.916   9.602  0.2082 -0.1886 -0.4334
 5684SOL    HW118493   1.117   7.933   9.526 -1.0053 -1.1882  0.1964
 5684SOL    HW218494   1.113   7.879   9.668  1.3736 -0.0681  0.7363
 5685SOL     OW18495   7.211   7.903  11.746  0.7363  0.4147  0.6340
 5685SOL    HW118496   7.163   7.912  11.663 -0.6038 -0.2968  1.2933
 5685SOL    HW218497   7.290   7.854  11.722  0.2636  0.0230 -0.1972
 5686SOL     OW18498   1.589   5.391   9.617  0.3803 -0.0972 -0.1603
 5686SOL    HW118499   1.584   5.487   9.618 -0.5802 -0.1397 -0.8132
 5686SOL    HW218500   1.531   5.363   9.688 -1.0494 -0.2562 -1.3644
 5687SOL     OW18501   3.809   5.779  12.456  0.2383 -0.3042 -0.0412
 5687SOL    HW118502   3.854   5.756  12.537  1.1030 -1.0514 -0.7015
 5687SOL    HW218503   3.717   5.761  12.473 -0.1210  2.6952  1.8683
 5688SOL     OW18504   2.544   7.143   0.239 -0.7245 -0.2877 -0.1437
 5688SOL    HW118505   2.454   7.160   0.266 -0.5137 -1.3819  1.3606
 5688SOL    HW218506   2.569   7.062   0.285  1.2941  0.4286  0.1501
 5689SOL     OW18507   1.800   4.904  12.289  0.0581  0.2975  0.3123
 5689SOL    HW118508   1.823   4.913  12.196 -1.1389 -2.7979 -0.3947
 5689SOL    HW218509   1.705   4.910  12.291 -0.2473 -2.9064  0.7395
 5690SOL     OW18510   0.673   5.386  11.523  0.2479  0.1215  0.4447
 5690SOL    HW118511   0.655   5.476  11.494  0.3309 -0.4599 -1.5676
 5690SOL    HW218512   0.612   5.371  11.595 -0.6582  1.3835 -0.0224
 5691SOL     OW18513   1.550   7.015   0.553 -0.4808  0.4339 -0.2205
 5691SOL    HW118514   1.637   6.991   0.522 -0.0422  0.7886  0.7080
 5691SOL    HW218515   1.537   7.104   0.521 -0.9155  0.0322 -1.1930
 5692SOL     OW18516   1.714   7.689  11.695 -0.3571 -0.7781 -0.7297
 5692SOL    HW118517   1.725   7.776  11.732 -2.6011 -0.7480  0.0393
 5692SOL    HW218518   1.760   7.631  11.756 -0.6366 -0.3287 -0.0774
 5693SOL     OW18519   6.988   3.904  11.724 -0.3086 -0.0825 -0.4810
 5693SOL    HW118520   7.013   3.816  11.694 -0.3677 -0.1084 -0.4542
 5693SOL    HW218521   6.951   3.947  11.647 -0.7184 -0.2450 -0.3727
 5694SOL     OW18522   2.994   5.419  11.333  0.7792 -0.0205  0.2416
 5694SOL    HW118523   2.991   5.323  11.330 -0.7621 -0.0449  1.4359
 5694SOL    HW218524   3.075   5.442  11.286  1.0035 -1.8753 -0.3557
 5695SOL     OW18525   0.290   7.214  10.993  0.1397  0.7191  0.1096
 5695SOL    HW118526   0.327   7.294  11.030  1.6760  0.0198  0.1849
 5695SOL    HW218527   0.289   7.228  10.899  1.7058  0.3312  0.0165
 5696SOL     OW18528   2.749   6.674  11.630  0.4701  0.8676 -0.4569
 5696SOL    HW118529   2.697   6.735  11.682 -0.2508  0.2906 -0.4815
 5696SOL    HW218530   2.803   6.729  11.574 -0.0283  1.4823 -0.3380
 5697SOL     OW18531   1.862   6.128  11.594  0.0133  0.4162 -0.0680
 5697SOL    HW118532   1.956   6.128  11.572 -0.2661 -0.4155 -1.4289
 5697SOL    HW218533   1.859   6.098  11.684  1.1648  2.4529  0.7256
 5698SOL     OW18534   0.684   5.999  11.558  0.0282 -0.0256 -0.2693
 5698SOL    HW118535   0.663   6.041  11.474  0.0271 -0.2297 -0.3701
 5698SOL    HW218536   0.752   6.055  11.596 -0.1164  0.1808 -0.3132
 5699SOL     OW18537   0.326   5.765  11.319 -0.0828 -0.9493  0.1969
 5699SOL    HW118538   0.354   5.758  11.228  0.8410 -1.2507  0.4986
 5699SOL    HW218539   0.324   5.859  11.336 -0.1991 -0.8938 -0.1139
 5700SOL     OW18540   2.980   7.046  10.988 -0.4794 -0.0584  0.1243
 5700SOL    HW118541   3.059   7.057  10.936 -0.8180  1.0506 -0.1801
 5700SOL    HW218542   2.908   7.053  10.925 -0.9662  2.7873  0.8599
 5701SOL     OW18543   1.836   5.156  10.258 -0.0660  0.6204 -0.2505
 5701SOL    HW118544   1.775   5.083  10.264  0.8158 -0.4057 -2.5310
 5701SOL    HW218545   1.784   5.229  10.225 -0.2563 -0.0320 -1.4466
 5702SOL     OW18546   2.988   7.047   0.117 -0.1822  0.3102 -0.0232
 5702SOL    HW118547   3.047   7.076   0.187  0.0469 -0.5324  0.1511
 5702SOL    HW218548   3.046   7.004   0.053 -0.5536 -0.1639 -0.0461
 5703SOL     OW18549   0.240   7.129  12.390  0.0523 -0.0877 -0.1645
 5703SOL    HW118550   0.279   7.102  12.307  1.4811 -1.0946  0.7841
 5703SOL    HW218551   0.204   7.049  12.427 -1.9779  0.6281 -0.4822
 5704SOL     OW18552   2.614   5.723  10.429 -0.1019 -0.1800  0.0873
 5704SOL    HW118553   2.709   5.725  10.431 -0.0498 -1.0994  2.9379
 5704SOL    HW218554   2.587   5.748  10.517 -2.4584 -1.3023 -0.2128
 5705SOL     OW18555   3.327   7.421  11.465  0.3879  0.6470 -0.3014
 5705SOL    HW118556   3.253   7.372  11.429 -0.5313  2.0499 -0.3837
 5705SOL    HW218557   3.368   7.461  11.389 -0.9530  2.7887  0.0189
 5706SOL     OW18558   0.023   6.821  11.869  0.2029 -0.1651 -0.4383
 5706SOL    HW118559   0.097   6.762  11.882  0.8162  0.7363  0.2976
 5706SOL    HW218560   0.055   6.907  11.897 -0.3191  0.7520 -2.4537
 5707SOL     OW18561   1.050   5.037  11.900  0.0890  0.0986  0.4756
 5707SOL    HW118562   1.025   5.114  11.850  1.8841  0.1315 -0.4556
 5707SOL    HW218563   1.129   5.064  11.948  0.4084 -0.9741  0.5940
 5708SOL     OW18564   0.819   6.282   0.346  0.1043 -0.4773  0.4530
 5708SOL    HW118565   0.823   6.337   0.424 -0.2983  1.0516 -0.5671
 5708SOL    HW218566   0.735   6.237   0.352 -0.1728  0.0675  0.6040
 5709SOL     OW18567   2.017   7.882  11.603 -0.0611 -0.3315  0.3460
 5709SOL    HW118568   1.978   7.827  11.536 -1.5374  1.1810 -0.1221
 5709SOL    HW218569   1.991   7.971  11.579  2.1941  0.5979  1.0707
 5710SOL     OW18570   0.775   5.911  12.193  0.1207 -0.0909 -0.5503
 5710SOL    HW118571   0.806   6.002  12.196  0.4892 -0.2339  2.1549
 5710SOL    HW218572   0.694   5.915  12.142 -0.0456  1.8214 -0.2061
 5711SOL     OW18573   0.504   3.401   0.727  0.0525 -0.1284 -0.4685
 5711SOL    HW118574   0.412   3.423   0.742  0.2582  0.9306 -0.7380
 5711SOL    HW218575   0.553   3.453   0.790  0.4710 -0.6985 -0.3149
 5712SOL     OW18576   0.125   5.351   0.508 -0.4563 -1.1660 -0.3619
 5712SOL    HW118577   0.096   5.349   0.599 -0.0316  1.3429 -0.0902
 5712SOL    HW218578   0.211   5.394   0.511 -1.0754  0.3187 -2.0353
 5713SOL     OW18579   0.480   6.105  10.238 -0.0708 -0.4949 -0.3482
 5713SOL    HW118580   0.469   6.200  10.241 -0.1416 -0.5267  0.6568
 5713SOL    HW218581   0.414   6.071  10.299  0.0297 -1.1811 -0.6089
 5714SOL     OW18582   2.276   5.209  10.498  0.9203  0.4773 -0.2727
 5714SOL    HW118583   2.255   5.171  10.413 -0.2869 -0.2848  0.3474
 5714SOL    HW218584   2.196   5.255  10.525  0.8833 -0.2694  0.9599
 5715SOL     OW18585   4.121   5.069   0.443  0.0961 -0.2528 -0.4262
 5715SOL    HW118586   4.120   5.112   0.528  1.1485 -0.5354 -0.2558
 5715SOL    HW218587   4.077   4.985   0.458 -0.2687 -0.0417 -0.3116
 5716SOL     OW18588   0.843   3.703  10.533 -0.3275 -0.1196 -0.3170
 5716SOL    HW118589   0.879   3.760  10.602 -0.2745  0.1846 -0.5900
 5716SOL    HW218590   0.867   3.615  10.560  0.3613  0.0575 -0.3379
 5717SOL     OW18591   1.622   6.215  11.473 -0.0475  0.2375 -0.5294
 5717SOL    HW118592   1.695   6.236  11.530  0.3115 -2.0606 -0.0602
 5717SOL    HW218593   1.646   6.132  11.432 -1.2324  0.7712 -2.4271
 5718SOL     OW18594   4.005   0.011  11.582 -0.5971  0.2896 -0.0114
 5718SOL    HW118595   3.971  -0.040  11.508  1.3743 -1.2902  0.0713
 5718SOL    HW218596   4.098  -0.011  11.585 -0.2365  1.8073  1.7868
 5719SOL     OW18597   0.191   5.670  12.017 -0.7745 -0.3561  0.4114
 5719SOL    HW118598   0.250   5.739  11.986  0.8659 -1.1719  1.5468
 5719SOL    HW218599   0.109   5.686  11.971 -0.2598  1.9655  0.1734
 5720SOL     OW18600   7.515   7.424   0.513 -0.3372  0.1120 -0.3017
 5720SOL    HW118601   7.516   7.505   0.461  0.2502 -0.1716 -0.7359
 5720SOL    HW218602   7.605   7.392   0.511 -0.5950 -0.6389 -0.2560
 5721SOL     OW18603   3.077   6.187  11.938  0.1143 -0.2849  0.0914
 5721SOL    HW118604   3.096   6.094  11.951 -1.7064 -0.8944 -1.3373
 5721SOL    HW218605   3.017   6.209  12.009 -0.6830 -0.6098 -0.4789
 5722SOL     OW18606   0.421   2.026   1.895  0.1615  0.1565 -0.0286
 5722SOL    HW118607   0.458   2.112   1.875 -0.3241 -0.1094 -2.4418
 5722SOL    HW218608   0.326   2.037   1.884  0.1192 -0.7491 -0.7613
 5723SOL     OW18609   1.917   7.226   0.005  0.3069  0.2393 -0.2184
 5723SOL    HW118610   1.966   7.181   0.073 -0.3500  0.2502  0.2748
 5723SOL    HW218611   1.826   7.200   0.020  0.2205 -0.2434 -1.4700
 5724SOL     OW18612   1.300   7.376   0.908  0.0526 -0.4788 -0.3547
 5724SOL    HW118613   1.327   7.297   0.863 -0.5658 -1.8067  1.4761
 5724SOL    HW218614   1.209   7.360   0.934  0.3508  0.1914  1.2908
 5725SOL     OW18615   0.578   7.719  10.892 -0.0705  0.9030 -0.2676
 5725SOL    HW118616   0.618   7.732  10.977 -1.7477 -0.0238  0.7243
 5725SOL    HW218617   0.486   7.742  10.905  0.0699  3.1700 -2.5045
 5726SOL     OW18618   2.854   7.487   0.919  0.5434  0.2419  0.2517
 5726SOL    HW118619   2.868   7.403   0.962  0.4257 -0.5867 -1.2428
 5726SOL    HW218620   2.796   7.466   0.845  0.3543  1.6766 -0.0346
 5727SOL     OW18621   0.705   0.176   1.742  0.4872  0.0366  0.5656
 5727SOL    HW118622   0.772   0.135   1.686  0.9971 -1.7457  2.3871
 5727SOL    HW218623   0.622   0.150   1.702  0.7918  1.6010 -1.2545
 5728SOL     OW18624   0.439   7.655   2.013  0.2824 -0.0106 -0.1682
 5728SOL    HW118625   0.467   7.744   1.991  0.2412  0.6048  2.0165
 5728SOL    HW218626   0.377   7.667   2.084 -0.1550 -1.7744 -0.2207
 5729SOL     OW18627   0.741   0.676   2.389 -0.0844  0.1745  0.5325
 5729SOL    HW118628   0.747   0.727   2.308 -0.5194 -0.2767  0.2085
 5729SOL    HW218629   0.828   0.637   2.399 -0.1807 -0.1891 -0.0033
 5730SOL     OW18630   1.504   7.825   0.735  0.1850  0.2582 -0.4422
 5730SOL    HW118631   1.583   7.773   0.721  0.4614  0.7220 -0.6308
 5730SOL    HW218632   1.530   7.914   0.714 -0.3747  0.4266 -0.4378
 5731SOL     OW18633   0.561   6.257   1.823 -0.1037 -0.2711  0.1229
 5731SOL    HW118634   0.579   6.350   1.812  0.3623 -0.3302  0.3567
 5731SOL    HW218635   0.573   6.220   1.735 -0.4638 -0.0804 -0.0040
 5732SOL     OW18636   1.977   0.689   0.873  0.0739 -0.1710 -1.0588
 5732SOL    HW118637   1.889   0.652   0.872 -0.0358  0.0853 -1.0503
 5732SOL    HW218638   1.973   0.762   0.810  0.1574  0.1145 -0.7351
 5733SOL     OW18639   2.698   7.991   1.608 -0.0461 -0.2946 -0.1552
 5733SOL    HW118640   2.732   8.010   1.521  1.0124  0.7445  0.4600
 5733SOL    HW218641   2.776   7.987   1.664 -0.8227  0.9430  1.0841
 5734SOL     OW18642   0.073   7.951   0.679 -0.5483 -0.0792  0.0724
 5734SOL    HW118643   0.016   7.913   0.746 -2.3851  0.4664 -1.1222
 5734SOL    HW218644   0.036   8.037   0.661  1.2860  0.7416 -0.0235
 5735SOL     OW18645   7.534   7.904   0.516 -0.3377  0.0646  0.7573
 5735SOL    HW118646   7.535   7.950   0.600 -0.8652  1.6919 -0.0838
 5735SOL    HW218647   7.594   7.953   0.461 -0.1283 -0.8881  0.1184
 5736SOL     OW18648   1.816   6.973   0.511 -0.5360  0.1264  0.0054
 5736SOL    HW118649   1.815   6.977   0.607 -1.6052 -1.0843  0.0621
 5736SOL    HW218650   1.868   7.049   0.485  0.9819 -0.2973  1.5819
 5737SOL     OW18651   0.579   7.475   1.401 -0.8082  0.3758 -0.0617
 5737SOL    HW118652   0.663   7.430   1.387 -0.2201  0.9581  1.4174
 5737SOL    HW218653   0.523   7.408   1.441 -0.6742  0.3220  0.0366
 5738SOL     OW18654   7.872   0.314  11.456  0.2326 -1.1269  0.4717
 5738SOL    HW118655   7.795   0.327  11.401  1.3757 -1.6882 -1.3475
 5738SOL    HW218656   7.870   0.220  11.478 -0.9511 -0.6719  2.6287
 5739SOL     OW18657   2.101   7.869   1.914 -0.3591 -0.0845 -0.1511
 5739SOL    HW118658   2.055   7.835   1.837  0.5821  0.1395 -0.8483
 5739SOL    HW218659   2.039   7.927   1.957 -1.4531 -1.4552  0.1749
 5740SOL     OW18660   2.210   7.755   0.249 -0.4169  0.0853  0.2123
 5740SOL    HW118661   2.248   7.709   0.174 -1.3824  1.1660 -0.9880
 5740SOL    HW218662   2.136   7.803   0.212 -1.0377  0.4926  1.9151
 5741SOL     OW18663   7.406   6.837   1.005  0.1084 -0.4203  0.1924
 5741SOL    HW118664   7.334   6.776   0.987  1.0557 -2.1854  1.8481
 5741SOL    HW218665   7.482   6.797   0.962  0.7372 -0.4256  1.2633
 5742SOL     OW18666   2.110   7.430   0.245 -0.2581 -0.4733  0.2585
 5742SOL    HW118667   2.085   7.384   0.325  0.1638  0.1725  0.7763
 5742SOL    HW218668   2.030   7.471   0.214 -1.0197 -2.7747 -1.0842
 5743SOL     OW18669   7.746   4.774  11.587 -0.0033  0.5189  0.1191
 5743SOL    HW118670   7.801   4.761  11.664  0.9158  0.2651 -0.5616
 5743SOL    HW218671   7.783   4.715  11.521  0.2701  1.9316 -1.0368
 5744SOL     OW18672   0.479   6.485   1.388  0.0704 -0.1359  0.3133
 5744SOL    HW118673   0.516   6.408   1.345 -0.8160 -0.0914 -0.5632
 5744SOL    HW218674   0.541   6.555   1.368 -0.8680  0.1597 -1.9825
 5745SOL     OW18675   7.996   0.265   1.964 -0.1327 -0.0030 -0.0609
 5745SOL    HW118676   7.964   0.304   2.045  2.5080 -0.8192  1.5038
 5745SOL    HW218677   8.044   0.336   1.920 -1.4348  0.3973 -0.8917
 5746SOL     OW18678   1.088   7.858  11.466 -0.3118  0.6083 -0.2189
 5746SOL    HW118679   1.008   7.903  11.439  1.3411  4.4558  0.5739
 5746SOL    HW218680   1.110   7.898  11.550  2.6038 -0.0625 -0.5634
 5747SOL     OW18681   1.335   7.327  11.587  0.8037 -0.6944  0.0075
 5747SOL    HW118682   1.351   7.302  11.497  0.0146 -0.5951 -0.1698
 5747SOL    HW218683   1.418   7.312  11.632  1.5423  0.3136 -0.9613
 5748SOL     OW18684   0.077   0.263  10.508  0.2291  0.1338  0.3587
 5748SOL    HW118685   0.020   0.220  10.444 -1.6668  2.2088  0.5652
 5748SOL    HW218686   0.150   0.296  10.456 -0.0341 -0.3381 -0.3272
 5749SOL     OW18687   1.555   1.783   0.665  0.1593  0.0823 -0.4650
 5749SOL    HW118688   1.587   1.870   0.691  0.8978 -0.7655  1.6408
 5749SOL    HW218689   1.626   1.723   0.690 -1.2109 -1.3523  0.0966
 5750SOL     OW18690   1.026   0.381   0.717 -0.1943 -0.5777  0.1810
 5750SOL    HW118691   1.038   0.294   0.753  0.3881 -0.8155 -0.5463
 5750SOL    HW218692   0.999   0.435   0.791 -1.2273 -1.5064  0.5067
 5751SOL     OW18693   0.297   7.192   1.523 -0.5720  0.2197  0.7184
 5751SOL    HW118694   0.303   7.168   1.430 -1.6152  2.5794 -0.0503
 5751SOL    HW218695   0.377   7.158   1.562  0.5116  0.2377 -1.3439
 5752SOL     OW18696   1.371   0.602   1.755  0.5665  0.1062  0.7159
 5752SOL    HW118697   1.361   0.506   1.752  1.4171  0.0005 -1.8159
 5752SOL    HW218698   1.466   0.615   1.760  0.4086  0.8471  1.9999
 5753SOL     OW18699   0.455   7.631   0.206  0.8989 -0.5526  0.1759
 5753SOL    HW118700   0.533   7.686   0.202  0.2531  0.3905  0.2969
 5753SOL    HW218701   0.476   7.563   0.270  1.2667  0.2631  0.9323
 5754SOL     OW18702   0.765   7.661   0.893 -0.4911 -0.4396  0.4538
 5754SOL    HW118703   0.714   7.673   0.973  0.0567  0.7528  0.6507
 5754SOL    HW218704   0.704   7.681   0.822 -0.7859 -0.8033  0.6022
 5755SOL     OW18705   7.847   0.447  12.165  0.2625 -0.0259 -0.1915
 5755SOL    HW118706   7.881   0.459  12.253  1.3401  1.9722 -0.8342
 5755SOL    HW218707   7.765   0.497  12.164  0.5200  0.3969 -0.4611
 5756SOL     OW18708   0.065   7.100  11.818 -0.2630  0.9029 -0.9418
 5756SOL    HW118709   0.033   7.161  11.884  0.1392  1.5016 -1.2980
 5756SOL    HW218710   0.070   7.152  11.738  1.7992  0.8886 -0.8644
 5757SOL     OW18711   3.154   7.503   0.907 -0.1019 -0.6442  0.5221
 5757SOL    HW118712   3.093   7.574   0.927  0.0562 -0.5954  0.8376
 5757SOL    HW218713   3.241   7.543   0.920  0.0633 -0.1830 -1.5667
 5758SOL     OW18714   1.147   1.375   0.902 -0.6828 -0.4117 -0.2122
 5758SOL    HW118715   1.180   1.287   0.922 -1.3280 -0.4983  0.5125
 5758SOL    HW218716   1.137   1.417   0.987  1.4632  1.0834 -0.6221
 5759SOL     OW18717   1.579   1.362  10.849 -0.1391 -0.2917 -0.0177
 5759SOL    HW118718   1.561   1.331  10.760 -1.4680  0.4056 -0.0204
 5759SOL    HW218719   1.638   1.296  10.886 -0.7671 -1.3898 -0.9140
 5760SOL     OW18720   0.093   5.695   3.056 -0.1761 -0.0974 -0.1511
 5760SOL    HW118721   0.085   5.660   3.144  0.8780  0.1908  0.0667
 5760SOL    HW218722   0.141   5.776   3.066  0.7711 -0.5188 -1.0830
 5761SOL     OW18723   7.628   5.672   3.134 -0.0445 -0.5149  0.2179
 5761SOL    HW118724   7.673   5.728   3.198  0.7959  1.3321 -1.8385
 5761SOL    HW218725   7.694   5.607   3.108  0.0916 -0.3767  0.2125
 5762SOL     OW18726   5.136   7.240  12.313  0.1242  0.3031 -0.4452
 5762SOL    HW118727   5.191   7.318  12.309  0.4613  0.0221 -2.1653
 5762SOL    HW218728   5.121   7.217  12.221 -1.1121 -0.8568  0.0225
 5763SOL     OW18729   0.348   7.568   0.845  0.4600  0.1099  0.2950
 5763SOL    HW118730   0.399   7.519   0.780 -0.2311  1.4174 -1.3132
 5763SOL    HW218731   0.327   7.650   0.801 -0.8934  0.6357  1.8445
 5764SOL     OW18732   0.814   5.542   2.405 -0.2753 -0.0441  0.2659
 5764SOL    HW118733   0.864   5.602   2.351  0.9432 -0.7964  0.5313
 5764SOL    HW218734   0.723   5.570   2.394 -0.0698 -0.1026 -2.0680
 5765SOL     OW18735   2.157   7.392   0.920  0.1696  0.9096  0.3112
 5765SOL    HW118736   2.201   7.314   0.886  1.9136  1.1335  1.9028
 5765SOL    HW218737   2.124   7.437   0.842  1.5290 -0.0226 -0.8566
 5766SOL     OW18738   1.791   7.838   0.685  0.2514  0.7760  0.0184
 5766SOL    HW118739   1.794   7.931   0.708  0.7118  0.2613  2.2553
 5766SOL    HW218740   1.840   7.833   0.602  0.5442  2.4637  0.0489
 5767SOL     OW18741   2.766   7.333   0.342 -0.1098  0.1489 -0.3383
 5767SOL    HW118742   2.804   7.257   0.385 -2.2609 -0.4996  0.5717
 5767SOL    HW218743   2.710   7.297   0.273 -0.4451  0.9477 -0.5041
 5768SOL     OW18744   2.189   0.543  11.857  0.7274 -0.0965  0.6670
 5768SOL    HW118745   2.274   0.557  11.815  0.3236 -0.2427 -0.2221
 5768SOL    HW218746   2.209   0.534  11.950  1.7236 -0.4808  0.4243
 5769SOL     OW18747   2.203   7.539   2.582  0.5177 -0.5645 -0.3643
 5769SOL    HW118748   2.125   7.484   2.573  0.8561 -0.8106 -2.3688
 5769SOL    HW218749   2.199   7.597   2.506  2.0312 -0.2469 -0.2216
 5770SOL     OW18750   7.857   5.937   0.976 -0.3521  0.0784 -0.7174
 5770SOL    HW118751   7.825   5.990   0.903 -1.5333  0.9919  0.4412
 5770SOL    HW218752   7.796   5.954   1.048  1.4988  0.1882  0.9007
 5771SOL     OW18753   1.083   5.975   2.395  0.2251  0.3811  0.1117
 5771SOL    HW118754   1.160   5.992   2.450  0.3281  0.0249  0.0792
 5771SOL    HW218755   1.009   5.977   2.457  0.2687  0.6363  0.1569
 5772SOL     OW18756   0.227   7.340   2.611 -0.3292 -0.1731 -0.5036
 5772SOL    HW118757   0.152   7.349   2.669 -1.6516  2.0203 -2.4025
 5772SOL    HW218758   0.271   7.425   2.613 -0.4341  0.0012 -2.6377
 5773SOL     OW18759   1.233   7.667   1.971  0.7315  0.4434 -0.1668
 5773SOL    HW118760   1.240   7.630   1.883  1.5902  1.8672 -0.7218
 5773SOL    HW218761   1.168   7.736   1.963  2.1872  1.8632 -0.1636
 5774SOL     OW18762   0.383   1.203  12.262  0.1055  0.1272 -0.1859
 5774SOL    HW118763   0.398   1.148  12.186 -1.4535  0.5559 -0.8508
 5774SOL    HW218764   0.295   1.179  12.292  0.2664  0.7222  0.8311
 5775SOL     OW18765   0.220   6.765  11.601  0.1072 -0.1908 -0.1896
 5775SOL    HW118766   0.208   6.842  11.546 -0.1283 -0.3664 -0.3874
 5775SOL    HW218767   0.131   6.738  11.624  0.2101  1.3594  2.3632
 5776SOL     OW18768   5.971   6.131   0.377 -0.3114  0.5750  0.0785
 5776SOL    HW118769   5.941   6.064   0.315 -0.1045  1.3969 -0.9391
 5776SOL    HW218770   6.001   6.203   0.321  1.9782  0.4581  1.0670
 5777SOL     OW18771   7.980   7.489  12.023 -0.3825  0.3350 -0.5409
 5777SOL    HW118772   7.997   7.398  12.045 -0.7604  0.0543 -1.3596
 5777SOL    HW218773   7.978   7.535  12.108 -0.3422 -0.4391 -0.1157
 5778SOL     OW18774   1.384   7.156   0.800 -0.0777  0.0710  0.2529
 5778SOL    HW118775   1.394   7.165   0.705  0.2312 -0.1067  0.2702
 5778SOL    HW218776   1.305   7.102   0.810 -0.5778  0.7624  0.1119
 5779SOL     OW18777   1.853   0.014   3.842 -0.0866 -0.0852  0.3265
 5779SOL    HW118778   1.819  -0.044   3.910  0.3377 -1.5163 -0.6432
 5779SOL    HW218779   1.775   0.045   3.796 -0.2681 -0.7820  0.1544
 5780SOL     OW18780   1.070   6.727   2.131  0.1276 -0.4362 -0.4992
 5780SOL    HW118781   1.127   6.666   2.177  0.4795  0.0558 -0.2843
 5780SOL    HW218782   1.127   6.771   2.068 -0.2964 -0.9226 -1.2359
 5781SOL     OW18783   0.398   6.858  12.311 -0.1129  0.0956  0.0223
 5781SOL    HW118784   0.385   6.816  12.396 -0.6570  0.5225  0.1564
 5781SOL    HW218785   0.492   6.853  12.295 -0.1450 -1.0333  0.1062
 5782SOL     OW18786   1.608   0.489   0.548  0.0682  0.0261  0.7182
 5782SOL    HW118787   1.663   0.567   0.545  2.1262 -1.1319  3.5421
 5782SOL    HW218788   1.552   0.502   0.624 -1.0619 -0.4002 -0.0100
 5783SOL     OW18789   0.811   0.302   0.922  0.5279 -0.0725 -0.1957
 5783SOL    HW118790   0.832   0.215   0.956  1.8819 -0.1419 -1.1021
 5783SOL    HW218791   0.718   0.313   0.939  0.6101 -1.1487  1.1392
 5784SOL     OW18792   7.742   0.778   1.269  0.3816  0.5679 -0.1405
 5784SOL    HW118793   7.727   0.708   1.206 -0.2072 -0.8488  1.4893
 5784SOL    HW218794   7.820   0.823   1.237  1.4036 -1.4911 -0.7271
 5785SOL     OW18795   2.491   6.893   0.774  0.6263 -0.2305 -0.3008
 5785SOL    HW118796   2.585   6.879   0.763  0.4400 -0.8515 -1.2743
 5785SOL    HW218797   2.450   6.833   0.711 -0.4325 -0.1874  0.3137
 5786SOL     OW18798   0.664   6.823   2.519  0.0727 -0.2041 -0.1998
 5786SOL    HW118799   0.667   6.918   2.507  1.0271  0.1291  2.1208
 5786SOL    HW218800   0.741   6.791   2.471  0.0432  0.2283 -0.5472
 5787SOL     OW18801   7.608   7.498   1.702 -0.7901  0.2015  0.0121
 5787SOL    HW118802   7.528   7.450   1.677 -0.3585 -0.8817  0.6141
 5787SOL    HW218803   7.590   7.528   1.791 -2.1083  3.5734 -1.2513
 5788SOL     OW18804   0.973   0.430   2.091 -0.1200  0.8552 -0.1546
 5788SOL    HW118805   0.941   0.342   2.070 -1.0340  0.2964  3.0727
 5788SOL    HW218806   0.914   0.488   2.044 -1.8817 -0.2660  0.5510
 5789SOL     OW18807   2.578   6.213   4.190 -0.1384  0.0241 -0.1211
 5789SOL    HW118808   2.589   6.123   4.222  0.0192  0.2315  0.4104
 5789SOL    HW218809   2.666   6.242   4.168 -0.0357  0.4515  0.8109
 5790SOL     OW18810   7.800   7.540   2.982 -0.3653  0.5924  0.4427
 5790SOL    HW118811   7.774   7.609   3.042 -1.3848  1.2896 -0.7451
 5790SOL    HW218812   7.857   7.583   2.918 -0.7044  0.2712 -0.0912
 5791SOL     OW18813   1.321   7.787   3.831 -0.1832  0.1439 -0.7684
 5791SOL    HW118814   1.254   7.841   3.873  1.2403  3.4989 -2.4597
 5791SOL    HW218815   1.379   7.760   3.902 -0.9315  0.8912  0.1378
 5792SOL     OW18816   2.556   1.238   3.482 -0.4296 -0.1853  0.0463
 5792SOL    HW118817   2.529   1.289   3.558  1.9168 -0.2631  1.0113
 5792SOL    HW218818   2.531   1.292   3.407 -0.6222  1.0146  0.9396
 5793SOL     OW18819   7.993   2.809   2.516 -0.1263 -0.0393  0.2278
 5793SOL    HW118820   7.922   2.859   2.475 -1.2303 -0.3028  1.7309
 5793SOL    HW218821   7.985   2.828   2.610  1.7699 -0.1289  0.4575
 5794SOL     OW18822   0.435   0.876   3.936 -0.2748 -0.2852 -0.1950
 5794SOL    HW118823   0.448   0.962   3.976 -1.2781  0.2253 -0.9086
 5794SOL    HW218824   0.496   0.874   3.862 -0.1134 -0.2556 -0.0602
 5795SOL     OW18825   6.531   5.654   3.281 -0.1566  0.1438  1.0968
 5795SOL    HW118826   6.596   5.660   3.351 -0.2742  0.8918  1.1431
 5795SOL    HW218827   6.451   5.687   3.320 -1.0488 -2.3765  1.5938
 5796SOL     OW18828   1.618   7.513   3.570 -0.3630 -0.2724  0.0417
 5796SOL    HW118829   1.695   7.464   3.542 -0.5268 -0.3200 -0.3285
 5796SOL    HW218830   1.594   7.475   3.654  0.3259  0.0858  0.4148
 5797SOL     OW18831   0.054   1.921   3.450 -0.2183  0.6525 -0.0832
 5797SOL    HW118832   0.036   1.831   3.478  1.1868  0.2551 -0.3646
 5797SOL    HW218833   0.003   1.931   3.370  1.1417 -0.6334 -1.1850
 5798SOL     OW18834   0.690   7.122   2.789 -0.0215 -0.1488 -0.3141
 5798SOL    HW118835   0.725   7.038   2.819  0.9279  0.3751  0.0888
 5798SOL    HW218836   0.767   7.176   2.775 -0.6443  1.7663  2.6648
 5799SOL     OW18837   0.920   6.088   1.753 -0.0095  0.1356  0.1812
 5799SOL    HW118838   0.910   6.078   1.848 -1.3321  0.7208  0.1270
 5799SOL    HW218839   0.879   6.010   1.717  0.3945 -0.0323  0.0866
 5800SOL     OW18840   0.132   6.885   2.648 -0.3620 -0.6218  0.3195
 5800SOL    HW118841   0.217   6.844   2.668 -0.1757 -0.0307  0.7666
 5800SOL    HW218842   0.095   6.907   2.733 -0.6145 -0.1768  0.0985
 5801SOL     OW18843   3.894   7.485   4.666 -0.6890  0.3316  0.5838
 5801SOL    HW118844   3.923   7.451   4.581 -0.7544  1.1811  0.2135
 5801SOL    HW218845   3.799   7.473   4.666 -0.7256  0.6152  0.4055
 5802SOL     OW18846   0.935   7.630   3.457 -0.5003 -0.0537 -0.1509
 5802SOL    HW118847   0.932   7.704   3.396 -2.2935 -0.4767 -0.6388
 5802SOL    HW218848   0.930   7.552   3.400 -0.0716 -0.5233  0.4387
 5803SOL     OW18849   0.221   0.427   3.031 -0.3339  0.1254  0.0129
 5803SOL    HW118850   0.132   0.409   3.062  0.2442  0.2468  1.8945
 5803SOL    HW218851   0.275   0.361   3.074  0.5064  0.0282 -1.1323
 5804SOL     OW18852   0.138   5.805   2.093  0.1103  0.3366  0.6850
 5804SOL    HW118853   0.101   5.764   2.015  1.4605 -0.6386  0.5152
 5804SOL    HW218854   0.063   5.822   2.150 -0.7270 -0.2777 -0.2098
 5805SOL     OW18855   1.261   7.929   3.280  0.0041  0.0920 -0.0596
 5805SOL    HW118856   1.241   7.954   3.370  1.2978  0.5304  0.1265
 5805SOL    HW218857   1.179   7.940   3.232 -0.2097  1.7912  0.6552
 5806SOL     OW18858   7.949   7.895   1.898 -0.0344 -0.3225  0.6377
 5806SOL    HW118859   7.991   7.916   1.981  2.6050  0.1456 -0.7204
 5806SOL    HW218860   8.002   7.824   1.861 -1.8577 -1.3438 -0.1509
 5807SOL     OW18861   0.737   6.639   4.379  0.5199 -0.1784  0.1606
 5807SOL    HW118862   0.781   6.668   4.459  0.2033 -2.3376  1.1703
 5807SOL    HW218863   0.799   6.579   4.337  0.2783  0.1574 -0.7159
 5808SOL     OW18864   0.665   0.089   3.195 -0.3251  0.1149  0.1595
 5808SOL    HW118865   0.706   0.171   3.166 -1.6958 -0.2103 -3.0814
 5808SOL    HW218866   0.737   0.026   3.198  0.2080  0.6584 -0.7554
 5809SOL     OW18867   0.624   7.620   1.127  0.5486  0.3312 -0.7871
 5809SOL    HW118868   0.608   7.536   1.085 -0.6606  1.2094 -2.1763
 5809SOL    HW218869   0.576   7.614   1.210  1.0105 -0.5750 -0.5778
 5810SOL     OW18870   7.794   0.631   0.993  0.0627  0.1306  0.2616
 5810SOL    HW118871   7.885   0.639   1.020 -0.0834  1.0978  0.5289
 5810SOL    HW218872   7.788   0.685   0.913 -0.2908  0.1507  0.2986
 5811SOL     OW18873   0.487   7.404   1.012 -0.1021 -0.0108 -0.5896
 5811SOL    HW118874   0.541   7.357   0.949  1.4762  2.2967 -1.0588
 5811SOL    HW218875   0.413   7.437   0.961  0.3172  0.4713 -0.8904
 5812SOL     OW18876   0.373   0.630   3.211 -0.1861 -0.2735 -0.0450
 5812SOL    HW118877   0.318   0.561   3.176  1.3986 -1.8789  0.5127
 5812SOL    HW218878   0.326   0.711   3.190 -1.4106 -1.4076 -1.9485
 5813SOL     OW18879   0.510   7.383   3.579 -0.6105  0.1343 -0.0737
 5813SOL    HW118880   0.484   7.360   3.490 -1.6161  0.4584  0.1312
 5813SOL    HW218881   0.542   7.301   3.616 -0.7999 -0.1456 -0.5189
 5814SOL     OW18882   1.826   0.275   3.629 -0.1348 -0.1006  0.8589
 5814SOL    HW118883   1.849   0.242   3.542 -1.8834  2.2551 -0.5879
 5814SOL    HW218884   1.766   0.209   3.665 -0.2735 -0.5591 -0.1889
 5815SOL     OW18885   7.641   6.095   3.910  0.3711 -0.5532  0.2801
 5815SOL    HW118886   7.676   6.160   3.970 -0.5248  0.1692  0.0407
 5815SOL    HW218887   7.546   6.103   3.918  0.2380 -0.7956 -0.8540
 5816SOL     OW18888   7.566   1.281   2.011 -0.3382  0.5856  0.6982
 5816SOL    HW118889   7.658   1.273   1.985 -0.6954  1.3147 -0.9322
 5816SOL    HW218890   7.567   1.271   2.106  1.3671  0.1503  0.6683
 5817SOL     OW18891   0.430   7.907   2.548  0.0396 -0.3827  0.0008
 5817SOL    HW118892   0.507   7.947   2.507  1.3302 -0.2991  2.3058
 5817SOL    HW218893   0.397   7.975   2.608 -0.7235 -1.0598  0.3704
 5818SOL     OW18894   3.246   5.662   5.940  0.7944  0.0924  0.0337
 5818SOL    HW118895   3.154   5.645   5.960  1.3583 -1.1175  1.7513
 5818SOL    HW218896   3.294   5.590   5.979  2.5218  0.7868 -0.6769
 5819SOL     OW18897   0.353   7.912   2.291 -0.4599 -0.1208 -0.2725
 5819SOL    HW118898   0.300   7.844   2.250  0.4481 -0.1604 -1.4537
 5819SOL    HW218899   0.358   7.887   2.383 -2.4295 -0.1206 -0.1348
 5820SOL     OW18900   0.868   0.467   4.935 -0.1141  0.0367 -0.4426
 5820SOL    HW118901   0.916   0.527   4.878 -0.5405 -1.0793 -2.0803
 5820SOL    HW218902   0.776   0.490   4.921 -0.1693  0.7176  0.9613
 5821SOL     OW18903   1.230   0.728   4.228  0.4803 -0.1935  0.0353
 5821SOL    HW118904   1.199   0.657   4.283  1.3778 -0.6860 -0.0773
 5821SOL    HW218905   1.299   0.770   4.280  0.3932  0.1927 -0.1596
 5822SOL     OW18906   2.368   1.013   3.545 -0.1144 -0.0072 -0.1933
 5822SOL    HW118907   2.432   1.078   3.515 -0.6950  0.6113 -0.0999
 5822SOL    HW218908   2.415   0.930   3.541  0.0531  0.1352 -2.1908
 5823SOL     OW18909   0.916   7.864   5.485 -0.2176 -0.0722  0.4323
 5823SOL    HW118910   0.889   7.775   5.463 -1.3812 -0.2900  2.4679
 5823SOL    HW218911   0.876   7.880   5.570  1.3583  1.7967  0.8825
 5824SOL     OW18912   0.740   7.308   1.851  0.3480 -0.7862 -0.4550
 5824SOL    HW118913   0.678   7.274   1.915  0.4711 -0.8973 -0.3937
 5824SOL    HW218914   0.698   7.386   1.815  0.0307 -1.0430 -0.6482
 5825SOL     OW18915   1.911   6.991   1.628 -0.1548 -0.3074 -0.2175
 5825SOL    HW118916   1.863   6.987   1.546 -0.3911  0.7110 -0.1435
 5825SOL    HW218917   1.965   6.912   1.628  0.8095  0.2941 -1.9579
 5826SOL     OW18918   1.701   6.773   0.189  0.1357 -0.1429 -0.6030
 5826SOL    HW118919   1.676   6.681   0.195 -0.3527  0.0709  1.4217
 5826SOL    HW218920   1.618   6.821   0.187  0.3880  0.2737 -1.5130
 5827SOL     OW18921   7.752   6.683   2.639  0.0797  0.5860 -0.0591
 5827SOL    HW118922   7.815   6.649   2.576 -1.6690 -0.2150 -1.4616
 5827SOL    HW218923   7.687   6.729   2.586 -2.1709 -1.2148  0.9226
 5828SOL     OW18924   0.166   0.929   3.899 -0.0764  0.3553 -0.2088
 5828SOL    HW118925   0.243   0.885   3.936 -0.0629  0.4773 -0.0892
 5828SOL    HW218926   0.147   0.880   3.819 -0.8356 -0.6677  0.5727
 5829SOL     OW18927   1.099   6.139   3.837  0.1309 -0.1924 -0.2565
 5829SOL    HW118928   1.116   6.220   3.789  0.7287  0.4475  0.9819
 5829SOL    HW218929   1.161   6.141   3.910 -0.8720 -1.0284  0.6562
 5830SOL     OW18930   0.465   1.022   2.664  0.8987  0.7991 -0.1803
 5830SOL    HW118931   0.520   0.943   2.663  0.5132  0.3553  2.9169
 5830SOL    HW218932   0.381   0.993   2.628  0.2286 -0.7580  2.3721
 5831SOL     OW18933   2.263   6.923   3.207 -0.5396  0.0922 -0.2932
 5831SOL    HW118934   2.329   6.956   3.269  0.6647 -2.1485 -0.2911
 5831SOL    HW218935   2.183   6.970   3.230  0.5324  1.3155  1.1449
 5832SOL     OW18936   0.657   6.032   1.126  0.2689 -0.8098  0.2710
 5832SOL    HW118937   0.693   5.986   1.202  0.4347  0.5017  1.0184
 5832SOL    HW218938   0.704   5.995   1.051  1.5369 -0.7371  1.0110
 5833SOL     OW18939   0.023   7.984   2.396 -0.1960  0.0002 -0.6164
 5833SOL    HW118940   0.100   7.997   2.452 -1.5693  3.8424  0.7151
 5833SOL    HW218941   0.015   7.889   2.388  2.4125 -0.6597  2.4521
 5834SOL     OW18942   1.431   1.717   4.747 -0.4819 -0.0095 -0.5134
 5834SOL    HW118943   1.485   1.793   4.726  1.1899 -1.2048 -0.7958
 5834SOL    HW218944   1.445   1.702   4.841 -0.1784 -0.4009 -0.6144
 5835SOL     OW18945   3.384   7.934   1.841 -0.7647  0.4960 -0.5775
 5835SOL    HW118946   3.304   7.922   1.893 -0.8899  1.1836 -0.6062
 5835SOL    HW218947   3.445   7.977   1.900 -1.1526  1.9442 -1.2041
 5836SOL     OW18948   1.743   6.774   2.731 -0.6722  0.2601 -0.1714
 5836SOL    HW118949   1.738   6.765   2.826  1.0619  0.7343  0.0112
 5836SOL    HW218950   1.794   6.854   2.718 -0.8610  0.1759 -1.4953
 5837SOL     OW18951   7.353   0.685   2.115  0.0251  0.1364  0.4270
 5837SOL    HW118952   7.426   0.635   2.151 -0.6326 -0.3707  1.0744
 5837SOL    HW218953   7.390   0.772   2.099  0.5486  0.1280  1.5389
 5838SOL     OW18954   0.874   6.346   2.714 -0.1216 -0.3301 -0.2577
 5838SOL    HW118955   0.787   6.359   2.677 -0.3884  0.8083  0.7102
 5838SOL    HW218956   0.924   6.303   2.645 -1.6692 -1.7749 -0.5452
 5839SOL     OW18957   0.185   0.239   3.398 -0.7099 -0.5031 -0.0323
 5839SOL    HW118958   0.280   0.223   3.400 -0.2060  2.0558  1.3074
 5839SOL    HW218959   0.152   0.199   3.478 -0.4233  0.0836  0.3931
 5840SOL     OW18960   1.169   0.343   3.640 -0.0015 -0.0121 -0.0570
 5840SOL    HW118961   1.215   0.259   3.636  0.0913 -0.2709  3.5643
 5840SOL    HW218962   1.081   0.323   3.608  1.0710 -0.4863 -3.0039
 5841SOL     OW18963   0.467   1.241   2.186 -0.5852 -0.0774  0.4263
 5841SOL    HW118964   0.510   1.156   2.178 -0.4306  0.0078  0.3524
 5841SOL    HW218965   0.471   1.262   2.280 -0.1075  0.1159  0.3641
 5842SOL     OW18966   7.909   0.575   1.610  0.7327  0.1454 -0.2295
 5842SOL    HW118967   7.901   0.480   1.596  1.0568 -0.1152  1.1928
 5842SOL    HW218968   7.867   0.590   1.694  1.2872  1.1753 -0.1235
 5843SOL     OW18969   0.752   1.131   3.762  0.3415  0.4175  0.0331
 5843SOL    HW118970   0.836   1.160   3.725  0.9178 -1.8423 -0.5486
 5843SOL    HW218971   0.687   1.156   3.696  0.7407  0.7465 -0.2469
 5844SOL     OW18972   0.635   7.884   1.118  0.3487 -0.1947 -0.2739
 5844SOL    HW118973   0.624   7.790   1.110  0.3945 -0.3590  1.4368
 5844SOL    HW218974   0.558   7.921   1.074  0.8597 -0.9729 -1.8924
 5845SOL     OW18975   0.660   0.503   1.604  0.1307 -0.3417  0.5016
 5845SOL    HW118976   0.588   0.442   1.620 -0.3989  0.4190  1.1212
 5845SOL    HW218977   0.739   0.454   1.629  0.3114 -2.4954 -3.5417
 5846SOL     OW18978   0.355   0.602   3.985  0.0096  0.0123  0.5144
 5846SOL    HW118979   0.394   0.685   3.956 -0.5161  0.2564  0.4908
 5846SOL    HW218980   0.322   0.621   4.073  0.2692 -0.2995  0.6822
 5847SOL     OW18981   0.672   0.668   3.721  0.2160 -0.3918 -0.1693
 5847SOL    HW118982   0.609   0.597   3.732  0.1028 -0.1092  1.1448
 5847SOL    HW218983   0.745   0.629   3.673  0.2668 -1.4693  0.7539
 5848SOL     OW18984   6.514   7.894   2.675  0.4556 -0.1978 -0.0686
 5848SOL    HW118985   6.449   7.945   2.628  2.4156  1.7126 -0.8546
 5848SOL    HW218986   6.530   7.818   2.620 -0.3873 -0.1961 -0.3269
 5849SOL     OW18987   1.505   0.584   3.724 -0.2742 -0.2412 -0.8306
 5849SOL    HW118988   1.581   0.582   3.666 -0.0343 -1.5847 -0.5045
 5849SOL    HW218989   1.430   0.575   3.666 -0.0454 -1.3642 -0.9786
 5850SOL     OW18990   1.860   5.316   2.287  0.0163 -0.2796  0.1865
 5850SOL    HW118991   1.897   5.340   2.372  0.7050  0.3273 -0.2755
 5850SOL    HW218992   1.929   5.266   2.244 -1.4705 -3.5373  1.2456
 5851SOL     OW18993   1.645   6.790   1.681 -0.1744  0.8556 -0.0196
 5851SOL    HW118994   1.720   6.752   1.636 -0.2508  0.5795  0.0839
 5851SOL    HW218995   1.680   6.870   1.721 -0.1808  1.2633 -0.8125
 5852SOL     OW18996   0.934   0.906   4.097 -0.4595  0.2112 -0.9031
 5852SOL    HW118997   0.900   0.910   4.008  0.1888  1.5743 -1.1117
 5852SOL    HW218998   0.967   0.817   4.107 -2.2646 -0.5483 -1.3600
 5853SOL     OW18999   1.077   6.019   1.427 -0.5478  0.4012 -0.0860
 5853SOL    HW119000   1.086   6.016   1.522  1.0788 -1.1281 -0.2299
 5853SOL    HW219001   1.081   6.111   1.405 -2.0830  0.8800  1.3887
 5854SOL     OW19002   7.636   2.323   6.333  0.5338 -0.2461 -0.4823
 5854SOL    HW119003   7.701   2.347   6.400  0.6898 -1.4376 -0.1827
 5854SOL    HW219004   7.686   2.274   6.268  0.1848  0.0381 -0.9689
 5855SOL     OW19005   6.322   1.714   2.989 -0.0774  0.0793 -0.9004
 5855SOL    HW119006   6.291   1.673   2.908  1.4712 -1.2168 -0.8690
 5855SOL    HW219007   6.417   1.718   2.980  0.2685 -1.2866  1.3711
 5856SOL     OW19008   1.506   1.305   4.609  0.1804  0.1102 -0.4735
 5856SOL    HW119009   1.476   1.215   4.598 -1.6559  0.4739  0.9523
 5856SOL    HW219010   1.433   1.359   4.576 -1.3167  1.0471  3.7447
 5857SOL     OW19011   7.622   7.862   5.153 -0.3104  0.0665 -0.5737
 5857SOL    HW119012   7.566   7.935   5.182 -1.6455 -0.8519 -0.7703
 5857SOL    HW219013   7.653   7.822   5.235 -0.7903 -0.0510 -0.4465
 5858SOL     OW19014   4.321   7.840   2.850 -0.2366 -0.2381  0.0770
 5858SOL    HW119015   4.315   7.871   2.941  0.2654 -0.1071  0.0698
 5858SOL    HW219016   4.232   7.814   2.828 -0.3061 -0.5856  0.7225
 5859SOL     OW19017   1.568   0.472   4.551 -0.0729  0.6084  0.4371
 5859SOL    HW119018   1.616   0.396   4.518 -0.4342  0.3135  0.5793
 5859SOL    HW219019   1.596   0.480   4.642 -0.4702  0.2876  0.5910
 5860SOL     OW19020   5.131   7.470   4.085 -0.7633  0.6439  0.1238
 5860SOL    HW119021   5.208   7.519   4.114 -0.9858  0.1178  1.6958
 5860SOL    HW219022   5.165   7.405   4.023 -0.3742  2.2751 -1.4425
 5861SOL     OW19023   7.920   7.670   2.736  0.1466 -0.2101  0.1653
 5861SOL    HW119024   7.846   7.664   2.676  0.5046  0.3336 -0.3384
 5861SOL    HW219025   7.951   7.760   2.727  0.1825 -0.1046  1.1904
 5862SOL     OW19026   0.674   7.875   6.704  0.5326  0.1648 -0.3146
 5862SOL    HW119027   0.763   7.887   6.737  1.1151  1.1664 -2.0958
 5862SOL    HW219028   0.676   7.914   6.616 -1.5247 -0.2804 -0.6034
 5863SOL     OW19029   2.030   7.125   4.349  0.0444 -0.3833  0.2438
 5863SOL    HW119030   2.088   7.110   4.424  1.2886  0.8914 -0.3921
 5863SOL    HW219031   1.942   7.123   4.386  0.6457  0.8774  1.8958
 5864SOL     OW19032   0.349   6.121   6.177  0.0285 -0.0459 -0.1907
 5864SOL    HW119033   0.357   6.202   6.127 -0.9765  0.4750  0.4601
 5864SOL    HW219034   0.275   6.136   6.235  1.4521 -0.4255  1.8374
 5865SOL     OW19035   7.361   0.327   4.251 -0.2842 -0.0090 -0.0155
 5865SOL    HW119036   7.286   0.372   4.288  0.3065 -0.3475  1.6517
 5865SOL    HW219037   7.415   0.396   4.214 -0.9972  0.3072 -0.4961
 5866SOL     OW19038   2.471   1.122   2.792 -0.1315  0.1947 -0.2763
 5866SOL    HW119039   2.381   1.139   2.817  0.0394  0.6495  0.0561
 5866SOL    HW219040   2.500   1.053   2.852  0.9162  2.6767  2.3209
 5867SOL     OW19041   1.287   7.337   4.031 -0.3255 -0.6306 -0.1790
 5867SOL    HW119042   1.340   7.293   4.097  1.2061 -0.4481 -1.2335
 5867SOL    HW219043   1.333   7.321   3.949 -0.5578  1.6125 -0.8185
 5868SOL     OW19044   3.518   6.715   4.562 -0.1111 -0.0337 -0.1414
 5868SOL    HW119045   3.536   6.638   4.508 -1.4569 -1.2424  1.0248
 5868SOL    HW219046   3.440   6.691   4.612  0.1686  1.6246  1.1894
 5869SOL     OW19047   0.286   7.210   5.279  0.0944 -0.5532 -0.3342
 5869SOL    HW119048   0.265   7.136   5.222  0.8378 -1.5027  0.6026
 5869SOL    HW219049   0.317   7.278   5.219  1.1477 -1.6323 -1.0483
 5870SOL     OW19050   7.981   1.655   4.588  0.4769 -0.2176  0.0412
 5870SOL    HW119051   7.968   1.562   4.571  1.0187 -0.0007 -1.7483
 5870SOL    HW219052   7.913   1.677   4.651 -1.4320 -1.2718 -1.5272
 5871SOL     OW19053   1.397   0.132   5.658  0.3197 -0.2016  0.4731
 5871SOL    HW119054   1.307   0.147   5.629  0.2806 -0.2826  0.5525
 5871SOL    HW219055   1.422   0.213   5.702  0.0992 -0.3726  0.9262
 5872SOL     OW19056   1.126   5.569   4.668  0.0475  0.2668 -0.5789
 5872SOL    HW119057   1.098   5.553   4.759  0.0311  0.9346 -0.4647
 5872SOL    HW219058   1.220   5.587   4.675  0.3359 -1.0270 -0.8553
 5873SOL     OW19059   1.369   5.865   3.816 -0.5669  0.3742  0.1516
 5873SOL    HW119060   1.453   5.820   3.803  0.9015  3.0621 -0.4315
 5873SOL    HW219061   1.328   5.818   3.889  0.8145 -1.8374 -0.3923
 5874SOL     OW19062   7.956   0.000   5.608  0.2405  0.2016  0.5785
 5874SOL    HW119063   7.978  -0.093   5.599  1.3554  0.5022  0.0521
 5874SOL    HW219064   8.040   0.043   5.628  0.0445  1.3077 -0.8469
 5875SOL     OW19065   2.569   7.756   6.313  0.2551 -0.0036 -0.6169
 5875SOL    HW119066   2.503   7.690   6.292  0.6492 -1.3369  1.9474
 5875SOL    HW219067   2.650   7.723   6.274  0.1080 -0.1950 -0.7590
 5876SOL     OW19068   0.402   7.235   2.939 -0.2094 -0.0827 -0.0092
 5876SOL    HW119069   0.481   7.180   2.934  0.3794  0.7835 -0.3906
 5876SOL    HW219070   0.424   7.313   2.889 -1.5962 -0.1589 -0.7772
 5877SOL     OW19071   5.572   0.609   3.478 -0.1810  0.7089 -0.8991
 5877SOL    HW119072   5.602   0.539   3.536  0.0319  1.8955  0.4689
 5877SOL    HW219073   5.593   0.577   3.390  0.2181 -0.7932 -0.2941
 5878SOL     OW19074   0.382   0.100   4.512  0.1766  0.3595 -0.0282
 5878SOL    HW119075   0.297   0.144   4.516 -0.4889 -0.9099  0.3271
 5878SOL    HW219076   0.445   0.171   4.507 -0.9716  1.3249 -2.4040
 5879SOL     OW19077   0.177   6.770   5.028  0.4171  0.4176  0.1160
 5879SOL    HW119078   0.271   6.758   5.014  0.3553 -0.1507  0.1671
 5879SOL    HW219079   0.136   6.712   4.964  0.1131 -0.2047  0.8560
 5880SOL     OW19080   2.354   6.304   4.446 -0.0922 -0.1960  0.5837
 5880SOL    HW119081   2.326   6.341   4.530  1.0922  0.5289  0.6721
 5880SOL    HW219082   2.410   6.230   4.470  0.0927 -0.1059  0.4283
 5881SOL     OW19083   1.850   6.480   4.235 -0.4452  0.3472  0.2307
 5881SOL    HW119084   1.882   6.395   4.206  0.6261  0.9709 -0.4690
 5881SOL    HW219085   1.858   6.478   4.330 -0.9174 -0.5095  0.2630
 5882SOL     OW19086   0.521   7.137   1.702  0.4667  1.0290 -0.0549
 5882SOL    HW119087   0.557   7.193   1.771  0.3962 -0.3375  1.1192
 5882SOL    HW219088   0.563   7.052   1.715 -0.9801  0.2088 -0.5022
 5883SOL     OW19089   7.566   0.408   3.170  0.0686  0.4851  0.3319
 5883SOL    HW119090   7.654   0.428   3.203  0.1980 -1.9631  1.6748
 5883SOL    HW219091   7.515   0.487   3.188  1.4176  1.0965  1.6831
 5884SOL     OW19092   1.473   6.929   5.261  0.4117  0.3219 -0.3315
 5884SOL    HW119093   1.471   6.954   5.169 -0.0835  0.5877 -0.2502
 5884SOL    HW219094   1.428   6.845   5.264 -3.9367  2.3953  0.2852
 5885SOL     OW19095   1.745   6.958   5.869  0.1055 -0.1597  0.2862
 5885SOL    HW119096   1.781   7.045   5.856 -0.1010  0.3492  2.6888
 5885SOL    HW219097   1.816   6.908   5.908  0.1809 -1.0597 -0.9474
 5886SOL     OW19098   7.774   0.477   3.355 -0.1186 -0.4501  0.7467
 5886SOL    HW119099   7.688   0.477   3.397 -0.1950 -0.1334  0.5971
 5886SOL    HW219100   7.836   0.492   3.426 -0.2841  0.5935  0.6825
 5887SOL     OW19101   2.756   6.901   5.580  0.5912  0.4864  0.0892
 5887SOL    HW119102   2.742   6.989   5.614 -0.1990  0.4051  0.0087
 5887SOL    HW219103   2.817   6.860   5.641  0.8096  1.0202  0.2346
 5888SOL     OW19104   1.655   0.801   6.167  0.5463  0.4981 -0.0173
 5888SOL    HW119105   1.598   0.876   6.182  1.9126  1.5110  0.2949
 5888SOL    HW219106   1.705   0.825   6.088 -0.1155 -0.7936 -0.8639
 5889SOL     OW19107   1.723   0.987   4.957 -0.3132 -0.2122 -0.1652
 5889SOL    HW119108   1.707   1.018   4.868  0.3222 -1.4682 -0.7454
 5889SOL    HW219109   1.795   0.925   4.948 -1.3355 -1.6306  0.9619
 5890SOL     OW19110   2.167   1.070   3.307  0.5123 -0.1818 -0.0728
 5890SOL    HW119111   2.230   1.052   3.376  2.0598  0.3231 -1.2890
 5890SOL    HW219112   2.211   1.134   3.250 -1.1118  0.2166 -0.9587
 5891SOL     OW19113   0.083   0.226   4.150  0.1942 -0.1650 -0.1387
 5891SOL    HW119114   0.160   0.283   4.141 -0.2161  0.9779  2.5855
 5891SOL    HW219115   0.018   0.263   4.090  0.1099  2.0232  1.1896
 5892SOL     OW19116   2.748   0.751   4.649 -0.5396  0.5566  0.1003
 5892SOL    HW119117   2.815   0.701   4.697 -2.4926 -1.4657  0.8572
 5892SOL    HW219118   2.723   0.695   4.576 -2.3051  0.6807  0.5746
 5893SOL     OW19119   0.102   0.037   2.091  0.2668  0.0672  0.3645
 5893SOL    HW119120   0.077   0.123   2.057  0.6898  0.1104  0.1557
 5893SOL    HW219121   0.035   0.017   2.157 -0.8650 -0.2467 -0.8422
 5894SOL     OW19122   1.413   7.812   2.492  0.3268  0.0141 -0.3440
 5894SOL    HW119123   1.458   7.787   2.412 -1.6948  0.2526 -1.6314
 5894SOL    HW219124   1.358   7.736   2.513 -0.9059  0.8079 -0.5562
 5895SOL     OW19125   0.402   7.009   3.680  0.4473  0.1032  0.0194
 5895SOL    HW119126   0.367   6.961   3.755  0.6855 -0.8156 -0.4432
 5895SOL    HW219127   0.361   6.969   3.604  1.1889  0.1538 -0.4221
 5896SOL     OW19128   3.431   7.369   6.217  0.2391 -0.2933  0.1694
 5896SOL    HW119129   3.384   7.362   6.134 -0.9878 -0.4302  0.8480
 5896SOL    HW219130   3.462   7.280   6.235 -0.9788 -0.6461  0.6689
 5897SOL     OW19131   2.273   6.667   5.593 -0.0954 -0.0409  0.7962
 5897SOL    HW119132   2.221   6.710   5.526  1.9822 -1.4158 -1.8885
 5897SOL    HW219133   2.354   6.718   5.597  0.9700 -1.5998  0.1059
 5898SOL     OW19134   6.422   7.302   3.009  0.4721  0.1304 -0.4300
 5898SOL    HW119135   6.374   7.368   3.058  0.2621 -0.6858  0.4791
 5898SOL    HW219136   6.481   7.353   2.953  0.5900  1.0856  0.5265
 5899SOL     OW19137   0.858   0.689   7.474  0.5719 -0.1892  0.0723
 5899SOL    HW119138   0.803   0.682   7.397 -0.7627 -0.9996  1.0529
 5899SOL    HW219139   0.875   0.783   7.484 -1.9299  0.2609  0.5961
 5900SOL     OW19140   6.412   0.984   3.645 -1.0565  0.1968 -0.2323
 5900SOL    HW119141   6.448   1.061   3.690  1.1288  0.0219 -1.5272
 5900SOL    HW219142   6.376   0.930   3.715  0.6902  0.7202  1.1440
 5901SOL     OW19143   1.460   1.134   4.059 -0.2403 -0.0470 -0.0207
 5901SOL    HW119144   1.415   1.061   4.102 -1.4456  1.3071  1.1495
 5901SOL    HW219145   1.497   1.097   3.979 -1.8407 -1.6600 -0.0700
 5902SOL     OW19146   6.886   0.428   5.128  0.0678  0.1060 -0.1067
 5902SOL    HW119147   6.825   0.359   5.152  1.5952 -1.8833 -1.6271
 5902SOL    HW219148   6.926   0.454   5.211 -0.0820 -1.2934  0.4359
 5903SOL     OW19149   0.141   1.058   4.558 -0.1207 -0.0569  0.0181
 5903SOL    HW119150   0.224   1.011   4.564 -0.0274  0.1532  0.3802
 5903SOL    HW219151   0.130   1.099   4.644  1.2625  3.0702 -1.1400
 5904SOL     OW19152   7.831   7.637   4.369  0.1245 -0.0240 -0.0068
 5904SOL    HW119153   7.747   7.596   4.350 -0.1980  1.0318 -0.9748
 5904SOL    HW219154   7.855   7.683   4.288  1.9884 -0.8640 -0.0049
 5905SOL     OW19155   0.082   7.173   5.719  0.6267 -0.2338  0.3093
 5905SOL    HW119156   0.078   7.186   5.624  1.0822  0.7724  0.4129
 5905SOL    HW219157  -0.004   7.199   5.751  0.1462 -1.4685  0.0966
 5906SOL     OW19158   1.906   5.663   3.697  0.7812  0.2771 -0.2528
 5906SOL    HW119159   1.923   5.704   3.612  1.4897  0.8188  0.1392
 5906SOL    HW219160   1.985   5.611   3.714  0.5452 -0.0083 -0.0276
 5907SOL     OW19161   3.005   1.196   4.186  0.0038  0.3370 -0.2653
 5907SOL    HW119162   2.958   1.126   4.141 -0.4677  0.9193 -0.6858
 5907SOL    HW219163   3.086   1.154   4.218 -1.2461 -0.9714  1.4109
 5908SOL     OW19164   0.121   7.464   5.296  0.5072 -0.3341 -0.3395
 5908SOL    HW119165   0.159   7.444   5.210  0.1823  1.3826 -0.9151
 5908SOL    HW219166   0.179   7.529   5.333 -0.2206  0.0954  0.0677
 5909SOL     OW19167   7.312   0.713   2.924 -0.1088 -0.1587 -0.1816
 5909SOL    HW119168   7.374   0.713   2.997  1.2183 -0.2187 -1.2784
 5909SOL    HW219169   7.227   0.696   2.965  0.5925 -0.1538  1.3460
 5910SOL     OW19170   7.544   7.511   2.873 -0.1795  0.0798 -0.8975
 5910SOL    HW119171   7.632   7.539   2.899  0.3287 -1.0683 -1.2647
 5910SOL    HW219172   7.499   7.591   2.849  0.0993  0.9337  1.1998
 5911SOL     OW19173   0.677   1.034   5.254 -0.3298  0.4691  0.0538
 5911SOL    HW119174   0.773   1.039   5.255 -0.2768 -0.4268  0.6560
 5911SOL    HW219175   0.649   1.110   5.305  0.1242  0.0084  1.0295
 5912SOL     OW19176   1.795   6.294   2.871  0.4164 -0.3172  0.6596
 5912SOL    HW119177   1.872   6.303   2.928  1.7989  2.3040 -1.3854
 5912SOL    HW219178   1.726   6.342   2.917  1.1962  0.8093  0.7124
 5913SOL     OW19179   2.112   5.243   5.362 -0.0870 -0.2417  0.2925
 5913SOL    HW119180   2.053   5.288   5.422 -1.3120  1.0249 -1.7386
 5913SOL    HW219181   2.137   5.310   5.299  1.1938 -1.4909 -0.5828
 5914SOL     OW19182   0.466   7.882   4.354 -0.2000 -0.1021 -0.6916
 5914SOL    HW119183   0.426   7.947   4.412 -0.0809  0.0135 -0.7393
 5914SOL    HW219184   0.404   7.810   4.353 -0.2747 -0.0401 -0.5406
 5915SOL     OW19185   1.448   0.038   4.189  0.1799  0.0151  0.4916
 5915SOL    HW119186   1.352   0.044   4.179  0.4151  1.3390 -1.6503
 5915SOL    HW219187   1.464   0.071   4.277 -1.3343 -0.0767  0.8435
 5916SOL     OW19188   7.616   6.505   3.323 -0.2387  0.4059  0.1082
 5916SOL    HW119189   7.572   6.489   3.240  0.3911  1.2347 -0.4122
 5916SOL    HW219190   7.662   6.423   3.343  0.1003  0.3897 -0.6863
 5917SOL     OW19191   0.083   7.968   3.568  0.7983 -0.5427 -0.2080
 5917SOL    HW119192   0.013   7.905   3.584  0.6163 -0.0580  1.0453
 5917SOL    HW219193   0.163   7.916   3.566  0.4740 -1.0253 -1.0361
 5918SOL     OW19194   0.764   6.552   5.070 -0.1412  0.0934 -0.0851
 5918SOL    HW119195   0.849   6.567   5.027  0.1828  1.4549  0.9615
 5918SOL    HW219196   0.761   6.457   5.083  0.0103 -0.3129 -2.5024
 5919SOL     OW19197   0.980   7.635   1.477 -0.4141  0.3366  0.2191
 5919SOL    HW119198   0.979   7.675   1.564 -0.0844  0.1352  0.3166
 5919SOL    HW219199   1.014   7.704   1.419  2.4868 -0.4964  0.7518
 5920SOL     OW19200   0.210   7.424   4.351  0.3616 -0.1710 -0.0592
 5920SOL    HW119201   0.269   7.491   4.384  0.4207 -0.8391  1.2480
 5920SOL    HW219202   0.201   7.362   4.423  0.3234 -1.5850 -1.2378
 5921SOL     OW19203   1.406   0.060   3.905 -0.0763 -0.6879 -0.6893
 5921SOL    HW119204   1.387   0.153   3.920  0.6116 -0.5328 -0.7407
 5921SOL    HW219205   1.442   0.029   3.988 -1.0774 -1.1317 -0.3988
 5922SOL     OW19206   7.698   7.728   6.384  0.0724  0.0111  0.1004
 5922SOL    HW119207   7.710   7.815   6.346  2.7851  1.1648  3.1027
 5922SOL    HW219208   7.786   7.702   6.412 -0.9142 -3.0361  0.7100
 5923SOL     OW19209   1.405   1.946   5.067  0.3423  0.6707  0.2037
 5923SOL    HW119210   1.336   1.982   5.012 -0.1697 -1.4281 -0.6249
 5923SOL    HW219211   1.396   1.992   5.150 -0.2038  2.4342 -0.7867
 5924SOL     OW19212   2.164   6.078   5.838 -0.7435 -0.4486 -0.0671
 5924SOL    HW119213   2.073   6.062   5.861 -0.9668  0.1896 -0.4820
 5924SOL    HW219214   2.208   6.090   5.923 -1.1626 -0.1488  0.1108
 5925SOL     OW19215   0.829   0.133   5.365  0.6429 -0.4311 -0.4152
 5925SOL    HW119216   0.837   0.043   5.399  0.1660  0.2048  1.5363
 5925SOL    HW219217   0.746   0.134   5.319  0.4561 -0.8922 -0.0961
 5926SOL     OW19218   2.596   6.694   7.257 -0.4494 -0.3760  0.0206
 5926SOL    HW119219   2.648   6.618   7.281  0.0758  0.2159  0.8216
 5926SOL    HW219220   2.513   6.682   7.303 -0.0055  0.0063  0.9401
 5927SOL     OW19221   0.414   0.642   9.287  0.2707 -0.5465  0.5455
 5927SOL    HW119222   0.347   0.706   9.312  0.3186 -0.5970  0.8052
 5927SOL    HW219223   0.378   0.598   9.211  0.5071  0.2281 -0.0245
 5928SOL     OW19224   7.518   0.163   5.945 -0.3721  0.1122  0.0626
 5928SOL    HW119225   7.600   0.125   5.912 -0.1002  0.6540  0.0923
 5928SOL    HW219226   7.543   0.206   6.027 -0.4490  1.2288 -0.4776
 5929SOL     OW19227   7.711   1.013   5.294  0.6588  0.4957 -0.5761
 5929SOL    HW119228   7.700   0.964   5.213 -0.6815  1.7688 -1.1909
 5929SOL    HW219229   7.761   0.954   5.351 -0.3543 -1.3306 -1.5023
 5930SOL     OW19230   0.178   6.264   6.798 -0.2133 -0.0886  0.0798
 5930SOL    HW119231   0.148   6.199   6.862  2.6114  0.2738  1.9615
 5930SOL    HW219232   0.154   6.228   6.713  1.5960 -3.9111  0.9793
 5931SOL     OW19233   2.229   7.618   6.771  0.3505 -0.6297 -0.9159
 5931SOL    HW119234   2.307   7.671   6.754 -0.3283  1.1734  1.1676
 5931SOL    HW219235   2.162   7.656   6.715 -0.3165  1.3028  1.0753
 5932SOL     OW19236   3.751   6.510   8.351  0.7954 -0.1005 -0.2780
 5932SOL    HW119237   3.808   6.564   8.297  1.5354 -0.7298 -0.1332
 5932SOL    HW219238   3.771   6.420   8.327  1.5569 -0.4272  1.4163
 5933SOL     OW19239   7.427   0.392   5.791 -0.0799  0.0707 -0.1932
 5933SOL    HW119240   7.461   0.319   5.844 -1.0204 -0.5681 -0.4412
 5933SOL    HW219241   7.405   0.352   5.706 -2.5881  0.1451  0.3321
 5934SOL     OW19242   1.090   6.539   5.765 -0.1002  0.1786 -0.3327
 5934SOL    HW119243   1.183   6.560   5.767 -0.3216  1.2719 -0.3665
 5934SOL    HW219244   1.056   6.588   5.690 -0.2953 -2.1524 -1.8506
 5935SOL     OW19245   1.706   0.383   5.635 -0.2313 -0.3361  0.7181
 5935SOL    HW119246   1.721   0.291   5.616 -2.3780 -0.8646  1.3415
 5935SOL    HW219247   1.658   0.416   5.559  2.2591  0.8693 -0.4592
 5936SOL     OW19248   2.109   0.678   7.077 -0.0841 -0.3215 -0.2961
 5936SOL    HW119249   2.114   0.588   7.047  0.7240 -0.6102  0.6328
 5936SOL    HW219250   2.171   0.726   7.022  0.6631 -0.6549  0.2358
 5937SOL     OW19251   0.907   1.342   4.584  0.0804  0.3524  0.4488
 5937SOL    HW119252   0.991   1.320   4.625  0.3262 -1.8126 -1.0618
 5937SOL    HW219253   0.849   1.359   4.659  1.1028 -1.1416  1.6624
 5938SOL     OW19254   7.545   7.634   8.785 -0.5472 -0.6414  0.2646
 5938SOL    HW119255   7.529   7.559   8.728 -1.6192 -0.8610  0.8287
 5938SOL    HW219256   7.615   7.683   8.741 -0.2583 -1.6384 -0.4185
 5939SOL     OW19257   1.562   6.433   6.868  0.6517 -0.3676 -0.2891
 5939SOL    HW119258   1.658   6.437   6.863  0.7742 -1.8455  0.3018
 5939SOL    HW219259   1.545   6.376   6.942 -0.7582  1.9244  1.2737
 5940SOL     OW19260   1.111   7.006   7.238 -0.0269  0.2637  0.0486
 5940SOL    HW119261   1.093   7.081   7.181 -1.7358 -1.7682 -2.3063
 5940SOL    HW219262   1.175   6.954   7.190 -0.8121 -1.0437  0.3704
 5941SOL     OW19263   7.387   1.101   4.733 -0.3541  0.2199  0.7571
 5941SOL    HW119264   7.296   1.125   4.716 -0.3379 -0.3233 -0.1436
 5941SOL    HW219265   7.437   1.180   4.712 -0.4317 -0.1234 -0.8375
 5942SOL     OW19266   0.880   0.419   6.683  0.2641  0.6458  0.0531
 5942SOL    HW119267   0.859   0.344   6.740  0.7756  0.8180  0.4715
 5942SOL    HW219268   0.873   0.495   6.740 -0.0802  0.9114 -0.3324
 5943SOL     OW19269   7.551   5.610   8.978 -0.0056  0.2846  0.8286
 5943SOL    HW119270   7.598   5.546   8.925  0.5878  0.3840  1.2296
 5943SOL    HW219271   7.601   5.691   8.969  0.6610  0.0634  2.3053
 5944SOL     OW19272   7.864   6.764   5.785  0.8074  0.1369  0.0289
 5944SOL    HW119273   7.826   6.750   5.699  0.8951  1.5551 -0.2601
 5944SOL    HW219274   7.798   6.732   5.846 -0.7523  2.1945 -0.4763
 5945SOL     OW19275   1.272   0.828   3.584  0.3565  0.4098 -0.5870
 5945SOL    HW119276   1.285   0.737   3.558  1.8019 -0.2639  2.0664
 5945SOL    HW219277   1.228   0.823   3.669 -1.3010  2.2935 -1.2648
 5946SOL     OW19278   1.343   7.348   5.858  0.2501  0.3074  0.3693
 5946SOL    HW119279   1.392   7.327   5.779  0.4350  0.8803  0.3297
 5946SOL    HW219280   1.398   7.316   5.930 -0.2129 -0.8006  0.2509
 5947SOL     OW19281   7.538   2.508   5.850 -0.3564  0.5400 -0.1111
 5947SOL    HW119282   7.481   2.515   5.773  0.6416 -2.4897 -1.3266
 5947SOL    HW219283   7.490   2.451   5.910  0.1232  0.3952  0.1401
 5948SOL     OW19284   0.131   0.609   6.163 -0.2942  0.2353 -0.2993
 5948SOL    HW119285   0.096   0.542   6.221  0.2417  0.0812 -0.1445
 5948SOL    HW219286   0.219   0.626   6.197 -0.7473  1.6932  0.2513
 5949SOL     OW19287   2.514   0.400   5.517  0.1831 -0.0722 -0.8460
 5949SOL    HW119288   2.566   0.463   5.566  2.1125 -1.7699 -0.5828
 5949SOL    HW219289   2.426   0.407   5.555  0.1630  2.7449 -1.1727
 5950SOL     OW19290   2.746   1.002   6.277  0.0289  0.0353 -0.4491
 5950SOL    HW119291   2.742   0.911   6.306  1.5659 -0.1669 -0.7832
 5950SOL    HW219292   2.829   1.035   6.312 -0.0353  1.0135 -1.1590
 5951SOL     OW19293   7.590   0.495   5.025  0.0411  0.1269 -0.1558
 5951SOL    HW119294   7.554   0.492   5.114 -1.1923  1.9178 -0.5224
 5951SOL    HW219295   7.636   0.579   5.021  1.0299 -0.4323 -0.8928
 5952SOL     OW19296   3.520   7.749   8.325  0.4739  0.4048  0.6459
 5952SOL    HW119297   3.569   7.795   8.257  1.3192 -1.2504  0.0649
 5952SOL    HW219298   3.587   7.707   8.379 -0.1943  1.6032  2.4669
 5953SOL     OW19299   2.363   7.159   5.881  0.4881  0.4130 -0.5567
 5953SOL    HW119300   2.415   7.090   5.921 -0.8354 -0.3918 -0.1409
 5953SOL    HW219301   2.410   7.182   5.801  2.1016  0.5944  0.4217
 5954SOL     OW19302   0.078   7.430   6.117  0.7109  0.8347  0.7922
 5954SOL    HW119303  -0.011   7.397   6.110  0.5475  1.5743 -0.9499
 5954SOL    HW219304   0.101   7.457   6.029  2.5206  1.0501  1.2904
 5955SOL     OW19305   7.523   7.441   6.045  0.2902 -0.0241 -0.5066
 5955SOL    HW119306   7.477   7.364   6.015 -0.0880  0.8451 -2.2953
 5955SOL    HW219307   7.456   7.494   6.089  0.4884 -0.5499  0.4613
 5956SOL     OW19308   1.659   0.528   6.216 -0.0644  0.2665 -0.1595
 5956SOL    HW119309   1.655   0.615   6.177 -1.3122  0.1654 -0.2822
 5956SOL    HW219310   1.708   0.540   6.297  2.8706  0.4371 -1.8054
 5957SOL     OW19311   7.235   5.454   5.760 -0.2506  0.4148 -0.3264
 5957SOL    HW119312   7.318   5.457   5.712 -0.5311  0.4885 -0.8138
 5957SOL    HW219313   7.260   5.436   5.850  0.2195 -0.8106 -0.6853
 5958SOL     OW19314   0.408   1.788   6.586  0.5943  0.4879  0.1617
 5958SOL    HW119315   0.459   1.784   6.505  0.3946 -0.1422  0.0698
 5958SOL    HW219316   0.376   1.699   6.600 -0.7587  0.9374  0.0496
 5959SOL     OW19317   1.573   7.722   5.176  0.1270  0.1517 -0.1140
 5959SOL    HW119318   1.520   7.778   5.233  2.1175  0.8173  1.1943
 5959SOL    HW219319   1.537   7.736   5.089 -2.2762  0.0100  0.7615
 5960SOL     OW19320   1.159   7.677   4.149 -0.5577 -0.0670  0.1558
 5960SOL    HW119321   1.247   7.674   4.111 -0.9534  0.1660 -0.8139
 5960SOL    HW219322   1.100   7.663   4.075 -1.4331  2.4295  0.2849
 5961SOL     OW19323   0.889   7.745   6.493  0.0516  0.3865  0.1907
 5961SOL    HW119324   0.946   7.668   6.491  0.2246  0.5231 -0.5854
 5961SOL    HW219325   0.864   7.754   6.585 -1.6828 -1.8339  0.0148
 5962SOL     OW19326   1.488   7.240   4.636  0.3531  0.7711 -0.4417
 5962SOL    HW119327   1.429   7.275   4.569  0.0851  0.7297 -0.2279
 5962SOL    HW219328   1.462   7.148   4.645  0.9065  0.5686 -0.8425
 5963SOL     OW19329   0.493   7.225   7.619 -0.1411 -0.8044  0.3008
 5963SOL    HW119330   0.460   7.139   7.593  0.3685 -0.5508 -1.3228
 5963SOL    HW219331   0.498   7.221   7.714 -1.1338 -2.1937  0.3276
 5964SOL     OW19332   0.786   1.172   6.905  0.6192 -0.3225 -0.1306
 5964SOL    HW119333   0.790   1.091   6.955  0.7696  0.4558  1.1692
 5964SOL    HW219334   0.868   1.174   6.854  0.0578 -1.5450 -1.1096
 5965SOL     OW19335   1.774   6.647   7.909 -0.1319  0.4603  0.3848
 5965SOL    HW119336   1.869   6.655   7.905 -0.1185  0.2247  0.1916
 5965SOL    HW219337   1.752   6.589   7.836 -0.3914  0.2455  0.6307
 5966SOL     OW19338   0.177   0.633   7.077  0.0159  0.4877 -0.0325
 5966SOL    HW119339   0.112   0.573   7.113  0.7440 -0.7299 -0.6856
 5966SOL    HW219340   0.125   0.698   7.030 -0.7386 -0.5229 -0.6381
 5967SOL     OW19341   2.285   7.371   6.059  0.3446  0.1220 -0.2173
 5967SOL    HW119342   2.327   7.288   6.036  1.8594  1.1061 -1.1654
 5967SOL    HW219343   2.229   7.392   5.984  0.9159  0.5379 -0.5399
 5968SOL     OW19344   1.018   0.747   5.933 -0.5526  0.5258  0.2688
 5968SOL    HW119345   1.086   0.779   5.874 -2.3482  1.6212 -1.3031
 5968SOL    HW219346   1.054   0.666   5.970  2.0279  1.6278  0.3822
 5969SOL     OW19347   1.306   7.613   6.377 -0.1934  0.3763  0.0254
 5969SOL    HW119348   1.306   7.672   6.302  0.3913  0.9170  0.4277
 5969SOL    HW219349   1.346   7.532   6.345 -0.0385  0.5671 -0.2663
 5970SOL     OW19350   0.410   1.426   7.088 -0.0892  0.2373  0.0828
 5970SOL    HW119351   0.455   1.369   7.150 -0.9942 -1.2188 -0.5577
 5970SOL    HW219352   0.446   1.402   7.002 -0.3156  0.7825 -0.1713
 5971SOL     OW19353   3.224   7.033   7.246 -0.0342  0.5258 -0.1269
 5971SOL    HW119354   3.184   6.995   7.324  1.5172 -0.7137  0.1143
 5971SOL    HW219355   3.251   7.121   7.274 -1.2855  0.8619  0.0981
 5972SOL     OW19356   1.027   6.722   6.757  0.3253  0.3806  0.4413
 5972SOL    HW119357   1.028   6.719   6.662 -0.4186 -2.3875  0.4565
 5972SOL    HW219358   1.051   6.813   6.778 -3.2628  2.2767 -2.4203
 5973SOL     OW19359   7.706   7.278   6.564 -0.0882  0.4344  0.2388
 5973SOL    HW119360   7.657   7.336   6.507 -0.3526 -1.3337 -1.4436
 5973SOL    HW219361   7.793   7.272   6.524 -0.4287 -1.2248 -0.3467
 5974SOL     OW19362   0.770   6.111   6.552  0.0398  0.4285 -0.3695
 5974SOL    HW119363   0.809   6.105   6.465 -1.9696 -0.5526 -1.2630
 5974SOL    HW219364   0.686   6.157   6.537  0.2521  1.4223  1.2719
 5975SOL     OW19365   1.347   1.379   7.516  0.2923 -0.4061 -0.0969
 5975SOL    HW119366   1.313   1.451   7.463 -1.3888 -0.6185  0.6667
 5975SOL    HW219367   1.331   1.301   7.463  0.6043 -0.4031 -0.2006
 5976SOL     OW19368   1.168   5.973   6.427  0.2242  0.5325  0.1237
 5976SOL    HW119369   1.262   5.986   6.415  0.6639 -2.0258  0.1094
 5976SOL    HW219370   1.149   6.015   6.511  1.7171 -0.1323  0.8388
 5977SOL     OW19371   7.536   0.706   4.458  0.2354 -0.4759 -0.5733
 5977SOL    HW119372   7.487   0.627   4.439  1.5913 -1.0565 -1.8092
 5977SOL    HW219373   7.566   0.738   4.373  1.5040  0.1617  0.0802
 5978SOL     OW19374   1.879   0.989   5.357 -0.1954 -0.0869  0.1271
 5978SOL    HW119375   1.850   0.906   5.320  0.5580  0.7573 -2.5803
 5978SOL    HW219376   1.820   1.054   5.319  0.3888  0.8134  0.7261
 5979SOL     OW19377   0.547   7.989   5.859  0.3987  0.5280 -0.3080
 5979SOL    HW119378   0.456   7.994   5.830  0.8803  1.4130 -1.7719
 5979SOL    HW219379   0.576   8.080   5.863  1.3493  0.2322 -0.3161
 5980SOL     OW19380   2.337   6.034   7.960  0.0055  1.0949  0.2463
 5980SOL    HW119381   2.412   5.991   7.919 -0.5224  0.5471 -0.1630
 5980SOL    HW219382   2.300   5.966   8.017 -1.1290  0.8299 -0.7841
 5981SOL     OW19383   1.470   0.370   5.772 -0.5508  0.0995 -0.0093
 5981SOL    HW119384   1.560   0.372   5.742 -0.3614 -0.8315  0.4818
 5981SOL    HW219385   1.465   0.439   5.839 -0.0667 -0.2268  0.3602
 5982SOL     OW19386   2.002   0.137   8.019 -0.0082  0.2625  0.4502
 5982SOL    HW119387   2.087   0.112   7.985  0.8719  0.1158  2.5742
 5982SOL    HW219388   2.002   0.233   8.016 -0.8803  0.2404 -1.9685
 5983SOL     OW19389   2.165   7.521   5.674 -0.4027  0.4145 -0.2389
 5983SOL    HW119390   2.252   7.480   5.673 -0.7999 -0.5103 -2.1527
 5983SOL    HW219391   2.171   7.589   5.606 -1.2867  0.0221 -0.7316
 5984SOL     OW19392   0.344   7.248   7.135 -0.3036 -0.4931 -0.4363
 5984SOL    HW119393   0.437   7.249   7.161 -0.6253 -0.8249  0.7888
 5984SOL    HW219394   0.345   7.221   7.043  0.8072 -0.6283 -0.3980
 5985SOL     OW19395   1.598   0.681   5.494  0.2036 -0.3063 -0.1288
 5985SOL    HW119396   1.692   0.665   5.495  0.1591 -0.5451  0.4451
 5985SOL    HW219397   1.558   0.594   5.491  0.0042 -0.2022 -0.5166
 5986SOL     OW19398   7.187   7.700   8.581 -0.4983 -0.1548  0.0065
 5986SOL    HW119399   7.207   7.757   8.506  0.8290 -0.0275  0.4285
 5986SOL    HW219400   7.205   7.612   8.548  1.9149  0.0126  0.6538
 5987SOL     OW19401   1.953   6.249   5.258  0.0256 -0.0685  0.1228
 5987SOL    HW119402   1.890   6.293   5.315  0.5556  1.2080 -0.2438
 5987SOL    HW219403   2.037   6.290   5.278  0.0023  1.5468 -2.5955
 5988SOL     OW19404   0.510   5.422   7.342  0.3147  0.0155  0.1557
 5988SOL    HW119405   0.579   5.488   7.334  0.5163 -0.2260 -0.1173
 5988SOL    HW219406   0.517   5.391   7.433  0.6116 -0.0556  0.1106
 5989SOL     OW19407   2.627   7.528   4.184  0.5428  0.3614 -0.0703
 5989SOL    HW119408   2.567   7.555   4.114 -0.7901 -1.1478  0.4320
 5989SOL    HW219409   2.586   7.451   4.223  0.6757  1.7447  3.1158
 5990SOL     OW19410   6.471   7.966   8.661 -0.6156  0.5161  0.1661
 5990SOL    HW119411   6.396   7.960   8.601 -0.8971 -0.9465  0.6244
 5990SOL    HW219412   6.543   7.997   8.606 -1.3129  0.9714 -0.5143
 5991SOL     OW19413   7.392   5.514   9.196 -0.0356  0.1837 -0.2092
 5991SOL    HW119414   7.453   5.534   9.125 -0.5220 -0.2156 -0.7517
 5991SOL    HW219415   7.318   5.574   9.181  1.0900  2.1845  1.6713
 5992SOL     OW19416   0.119   7.805   8.486 -0.5766  0.0488  0.0071
 5992SOL    HW119417   0.180   7.783   8.415  0.7140 -0.9823  1.3751
 5992SOL    HW219418   0.037   7.824   8.442 -0.2678 -2.1595 -1.6872
 5993SOL     OW19419   7.716   7.656   7.501  0.1807 -0.7365 -0.4665
 5993SOL    HW119420   7.687   7.567   7.478 -1.9124  0.6402 -3.8325
 5993SOL    HW219421   7.797   7.668   7.451 -0.6684 -0.0954 -1.7340
 5994SOL     OW19422   2.840   7.857   7.734  0.1327  0.2428  0.3365
 5994SOL    HW119423   2.846   7.929   7.671  0.7525 -0.6746 -0.6994
 5994SOL    HW219424   2.777   7.796   7.695  0.8866 -0.5640  0.3497
 5995SOL     OW19425   7.901   1.717   5.875  0.4209 -0.0135  0.5785
 5995SOL    HW119426   7.871   1.626   5.881 -0.0589  0.1875  1.3578
 5995SOL    HW219427   7.821   1.769   5.884  0.6220  0.4912 -0.3825
 5996SOL     OW19428   2.111   0.320   8.296 -0.2761  1.0016  0.0937
 5996SOL    HW119429   2.036   0.336   8.238 -0.0773  2.0250  0.1083
 5996SOL    HW219430   2.168   0.395   8.282  0.7652  0.2157  0.0707
 5997SOL     OW19431   1.555   7.292  11.723 -0.2746  0.3178  0.2034
 5997SOL    HW119432   1.642   7.285  11.761 -0.3864  0.1440  0.4300
 5997SOL    HW219433   1.520   7.374  11.757  0.0788  0.7598 -0.4715
 5998SOL     OW19434   2.991   6.742   6.717  0.1211  0.4206 -0.3067
 5998SOL    HW119435   2.998   6.705   6.629 -1.6192  0.1653 -0.3690
 5998SOL    HW219436   2.938   6.820   6.706 -1.2932 -0.3587  0.6970
 5999SOL     OW19437   3.483   2.449  10.589 -0.4242  0.1868 -0.0147
 5999SOL    HW119438   3.450   2.361  10.570  0.1302  0.1559 -0.8596
 5999SOL    HW219439   3.493   2.490  10.503  2.4473 -0.0550  0.1223
 6000SOL     OW19440   1.843   0.073   9.662 -0.0714 -0.0576  0.7748
 6000SOL    HW119441   1.786   0.012   9.617  0.7123  0.2850 -0.7866
 6000SOL    HW219442   1.920   0.080   9.605  0.0103  2.0974  1.0452
 6001SOL     OW19443   1.274   0.997   9.043 -0.1803  0.0750 -0.1342
 6001SOL    HW119444   1.347   1.059   9.044  0.1595 -0.2483 -1.8690
 6001SOL    HW219445   1.197   1.052   9.030 -0.1354  0.3131  0.5514
 6002SOL     OW19446   0.510   1.400   6.815 -0.3607  0.3897 -0.3595
 6002SOL    HW119447   0.544   1.443   6.737  0.6675 -0.1129 -0.2039
 6002SOL    HW219448   0.575   1.332   6.835 -1.0046  0.0080  0.4795
 6003SOL     OW19449   2.834   7.516  10.551  0.2120  0.7828 -0.0039
 6003SOL    HW119450   2.911   7.537  10.603  0.9136  0.4377 -0.8783
 6003SOL    HW219451   2.851   7.428  10.517 -0.0168  1.1749 -1.1802
 6004SOL     OW19452   0.210   1.402   8.812 -0.0836 -0.0591  0.4910
 6004SOL    HW119453   0.205   1.457   8.890 -1.8530 -1.2098  1.2605
 6004SOL    HW219454   0.126   1.356   8.810  0.5178 -1.1833 -1.2641
 6005SOL     OW19455   1.265   7.317   8.095  0.0808  0.2160  0.1547
 6005SOL    HW119456   1.273   7.410   8.115 -1.9393  0.3715  0.4240
 6005SOL    HW219457   1.349   7.280   8.121  0.9639  1.9680 -0.0542
 6006SOL     OW19458   1.169   0.279   8.387 -0.2270 -0.1764  0.0135
 6006SOL    HW119459   1.164   0.293   8.293 -2.9347 -0.7070 -0.0047
 6006SOL    HW219460   1.120   0.352   8.425  0.9516  0.1173  1.0473
 6007SOL     OW19461   1.207   7.438   8.850  0.1456  0.3766 -0.4191
 6007SOL    HW119462   1.118   7.407   8.866 -0.2660  1.1217 -1.2151
 6007SOL    HW219463   1.238   7.469   8.935 -0.4341  0.3252 -0.1871
 6008SOL     OW19464   3.302   0.716   7.280  0.0319 -0.3586  0.2801
 6008SOL    HW119465   3.269   0.789   7.228 -0.4705 -0.3804  0.5596
 6008SOL    HW219466   3.360   0.757   7.345 -0.0643 -0.2366  0.2878
 6009SOL     OW19467   2.990   6.918   7.824  0.0663  0.2742 -0.2705
 6009SOL    HW119468   2.934   6.887   7.753 -1.5256 -0.6878  1.3207
 6009SOL    HW219469   3.072   6.869   7.815 -0.6091 -0.7948 -0.6874
 6010SOL     OW19470   2.194   0.560   8.936 -0.6582 -0.0624  0.5395
 6010SOL    HW119471   2.269   0.515   8.974  1.0186  0.8618 -1.4437
 6010SOL    HW219472   2.223   0.583   8.847 -3.8936 -1.1527 -0.9476
 6011SOL     OW19473   1.274   7.571   8.171  0.3698 -0.0102 -0.0244
 6011SOL    HW119474   1.230   7.567   8.256 -1.7456  1.1249 -0.9928
 6011SOL    HW219475   1.307   7.660   8.166 -0.3956  0.2430 -0.7799
 6012SOL     OW19476   1.262   6.253   6.581 -0.3620 -0.0904  0.2929
 6012SOL    HW119477   1.277   6.188   6.650 -0.5687 -0.2806  0.1584
 6012SOL    HW219478   1.285   6.337   6.622 -1.0033 -0.1376  0.7760
 6013SOL     OW19479   0.671   7.875   7.415 -0.2218  0.1886  0.1142
 6013SOL    HW119480   0.583   7.854   7.383 -0.6529  0.3456  1.1731
 6013SOL    HW219481   0.657   7.909   7.503  0.8839  0.4660  0.1899
 6014SOL     OW19482   7.924   0.922  11.450  0.3774  0.2050  0.3460
 6014SOL    HW119483   7.905   0.877  11.532  0.8659 -0.9232 -0.1290
 6014SOL    HW219484   7.902   0.857  11.382 -1.7110  1.7009 -0.5225
 6015SOL     OW19485   0.435   0.108   7.386  0.1098 -0.3991  0.0722
 6015SOL    HW119486   0.409   0.032   7.334  1.4168 -1.4819  0.9447
 6015SOL    HW219487   0.530   0.114   7.376  0.0500  1.0894  0.0966
 6016SOL     OW19488   0.403   7.471   7.996  0.2009  0.3571  0.2724
 6016SOL    HW119489   0.459   7.520   7.937  1.1159  0.2433  1.0176
 6016SOL    HW219490   0.337   7.534   8.026 -0.9526  0.1513 -1.6657
 6017SOL     OW19491   1.073   1.558   7.309 -0.3523 -0.0199 -0.7134
 6017SOL    HW119492   1.145   1.620   7.305  1.6657 -2.0905  0.7180
 6017SOL    HW219493   0.995   1.612   7.320  1.0471  2.2798 -1.3546
 6018SOL     OW19494   0.245   7.176   6.112 -0.2268  0.0418  0.1539
 6018SOL    HW119495   0.196   7.114   6.059  0.3012 -1.9736  1.8901
 6018SOL    HW219496   0.184   7.249   6.126 -0.4575  0.5480 -2.8807
 6019SOL     OW19497   2.075   7.612   9.792  0.0260  0.1191 -0.1654
 6019SOL    HW119498   2.118   7.553   9.730 -1.0460  1.0028 -1.8366
 6019SOL    HW219499   2.025   7.554   9.849 -0.2064 -0.6604 -1.1293
 6020SOL     OW19500   1.758   0.812   9.437 -0.5741  0.3434  0.5031
 6020SOL    HW119501   1.664   0.813   9.417 -0.3559 -3.0967 -1.6279
 6020SOL    HW219502   1.767   0.748   9.508  0.1770  0.0173  0.1278
 6021SOL     OW19503   3.067   7.314   8.143  0.6082  0.2937 -0.2840
 6021SOL    HW119504   3.128   7.247   8.113  0.1737  0.1341 -0.8150
 6021SOL    HW219505   3.116   7.362   8.210  1.2779  0.1002 -0.6251
 6022SOL     OW19506   0.402   1.038   8.575  0.0500  0.4041 -0.0001
 6022SOL    HW119507   0.340   1.110   8.570 -1.3854 -0.8083 -0.5378
 6022SOL    HW219508   0.359   0.965   8.530  0.7173 -1.2925  1.9090
 6023SOL     OW19509   6.607   7.837   7.858 -0.2642 -0.5937  0.1554
 6023SOL    HW119510   6.616   7.751   7.816  1.1675 -0.3125 -0.1636
 6023SOL    HW219511   6.588   7.818   7.949 -0.3350 -1.2475  0.0066
 6024SOL     OW19512   7.390   1.134   8.188 -0.4618  0.1900  0.3025
 6024SOL    HW119513   7.455   1.068   8.163 -0.5025  0.5479 -0.7878
 6024SOL    HW219514   7.366   1.111   8.278  1.1559  0.0481  0.7247
 6025SOL     OW19515   7.266   0.332   7.490 -0.3530  0.2151  0.3927
 6025SOL    HW119516   7.286   0.239   7.482  0.5426  0.4099  0.3023
 6025SOL    HW219517   7.195   0.346   7.427 -0.6459 -0.4471  0.5707
 6026SOL     OW19518   0.290   0.389   8.483  0.2721  0.6159 -0.0628
 6026SOL    HW119519   0.309   0.318   8.422 -1.0208  0.9259 -0.8658
 6026SOL    HW219520   0.373   0.406   8.527  0.7058 -1.0712 -0.1812
 6027SOL     OW19521   2.367   7.998   7.497  0.0011 -0.0630  0.4381
 6027SOL    HW119522   2.456   8.033   7.498 -0.3125  0.8204 -0.9384
 6027SOL    HW219523   2.378   7.906   7.472  0.5454 -0.0459  0.5985
 6028SOL     OW19524   3.221   7.076   8.075 -0.2647  0.2752  0.6299
 6028SOL    HW119525   3.197   6.986   8.095 -1.3049  0.3056 -0.3593
 6028SOL    HW219526   3.238   7.076   7.981 -0.1624  1.0870  0.6393
 6029SOL     OW19527   1.779   7.379   6.692 -0.0799  0.5376 -0.3208
 6029SOL    HW119528   1.874   7.370   6.688 -0.1397 -0.2044 -0.2801
 6029SOL    HW219529   1.761   7.404   6.783 -0.0739 -1.8090  0.4077
 6030SOL     OW19530   7.305   7.337   6.622  0.1227  0.1584 -0.2888
 6030SOL    HW119531   7.240   7.271   6.645 -1.0690  0.9008 -1.3813
 6030SOL    HW219532   7.354   7.352   6.702 -1.0760 -0.4140  0.5813
 6031SOL     OW19533   7.874   0.535  10.084  0.0872 -0.1618  0.3099
 6031SOL    HW119534   7.870   0.508  10.175 -1.2031 -0.5996  0.1529
 6031SOL    HW219535   7.859   0.630  10.086 -0.0316 -0.1852  0.5587
 6032SOL     OW19536   1.882   7.736   6.754 -0.4690 -0.1287  0.2871
 6032SOL    HW119537   1.849   7.823   6.732 -0.7253 -0.0130  1.1046
 6032SOL    HW219538   1.942   7.715   6.683 -0.0767  0.8884  0.3028
 6033SOL     OW19539   1.088   0.432   9.643  0.5480  0.2003  0.1361
 6033SOL    HW119540   1.116   0.520   9.668  0.2919  0.9897 -2.1449
 6033SOL    HW219541   1.158   0.399   9.587  0.9916 -1.4042  1.5386
 6034SOL     OW19542   0.988   0.577  10.570 -0.2535  0.2492 -0.3150
 6034SOL    HW119543   0.999   0.507  10.635 -0.4410 -1.3382 -1.9337
 6034SOL    HW219544   0.895   0.573  10.546 -0.1056  0.5715 -0.9580
 6035SOL     OW19545   1.009   0.639   4.776 -0.3101  0.0097  0.1412
 6035SOL    HW119546   1.094   0.596   4.770 -0.1109  0.6258 -1.8233
 6035SOL    HW219547   0.991   0.673   4.688 -2.0947  0.8396  0.7593
 6036SOL     OW19548   0.887   0.244   9.067 -0.2629  0.1273  0.1333
 6036SOL    HW119549   0.873   0.168   9.011 -2.6101  0.5006  0.1006
 6036SOL    HW219550   0.853   0.216   9.153 -0.6024  0.9337  0.2682
 6037SOL     OW19551   7.383   6.955   8.836 -0.0932  0.0174  0.2949
 6037SOL    HW119552   7.295   6.916   8.841 -0.4479  0.6973 -0.4870
 6037SOL    HW219553   7.375   7.038   8.884 -0.1020  0.4562 -0.4428
 6038SOL     OW19554   0.776   6.752   6.904 -0.5475 -0.3624 -0.7249
 6038SOL    HW119555   0.866   6.738   6.873  0.2834  2.6770 -0.0341
 6038SOL    HW219556   0.725   6.766   6.825 -0.6397 -2.8982 -1.1758
 6039SOL     OW19557   1.221   6.472   8.626 -0.0296 -0.1634 -0.2109
 6039SOL    HW119558   1.304   6.443   8.664 -0.5045  0.1821  1.1515
 6039SOL    HW219559   1.169   6.392   8.617 -0.1552 -0.1661  0.5082
 6040SOL     OW19560   0.666   7.716   8.691  0.1009 -0.3279  0.9011
 6040SOL    HW119561   0.730   7.658   8.733  0.2977 -0.3769  0.5343
 6040SOL    HW219562   0.604   7.657   8.648  1.2267 -0.2926 -0.8891
 6041SOL     OW19563   2.178   7.378   7.220 -0.2976  0.3138 -0.2832
 6041SOL    HW119564   2.235   7.301   7.220  0.4987  0.8711 -1.6709
 6041SOL    HW219565   2.226   7.443   7.170 -1.7727  1.1189 -0.6960
 6042SOL     OW19566   2.949   0.133  10.754  0.1972 -0.0030  0.4393
 6042SOL    HW119567   3.041   0.108  10.762  0.1258  0.0987  1.8413
 6042SOL    HW219568   2.901   0.050  10.757  0.3171 -0.2724 -2.6747
 6043SOL     OW19569   7.098   1.010   8.882  0.0263 -0.3979 -0.2262
 6043SOL    HW119570   7.139   1.094   8.900 -0.8373  0.4360 -1.9118
 6043SOL    HW219571   7.061   0.982   8.966  1.0280  0.4939  0.5240
 6044SOL     OW19572   3.136   0.229   7.809 -0.2167  0.4442 -0.1401
 6044SOL    HW119573   3.211   0.286   7.821 -0.0016  0.3507 -0.9667
 6044SOL    HW219574   3.172   0.141   7.810 -0.5815  0.2837  1.3947
 6045SOL     OW19575   1.061   0.851   6.906 -0.0229 -0.3418 -0.1504
 6045SOL    HW119576   1.112   0.807   6.974 -0.4505 -0.2157  0.2551
 6045SOL    HW219577   1.053   0.785   6.836  0.1119 -0.5954  0.0705
 6046SOL     OW19578   1.045   2.449   8.529 -0.1966  0.1604 -0.6050
 6046SOL    HW119579   0.990   2.450   8.450 -0.5186  1.4047 -0.3966
 6046SOL    HW219580   0.991   2.407   8.596  0.9214 -3.0830 -1.5511
 6047SOL     OW19581   2.333   7.581   7.092 -0.2477 -0.0461  1.0507
 6047SOL    HW119582   2.352   7.594   6.999  0.4786 -0.9055  1.0587
 6047SOL    HW219583   2.287   7.660   7.119 -2.0174 -0.5096 -0.4411
 6048SOL     OW19584   1.160   0.945   9.959 -0.2454 -0.1003  0.2833
 6048SOL    HW119585   1.086   0.951   9.898 -0.1657 -1.6291  0.0021
 6048SOL    HW219586   1.194   1.034   9.964 -1.6592  0.4983 -0.1371
 6049SOL     OW19587   2.247   7.826   9.281 -0.3400  0.5728  0.3368
 6049SOL    HW119588   2.332   7.869   9.277  0.3477 -0.5247  2.0867
 6049SOL    HW219589   2.184   7.897   9.267  0.8275  1.5332 -0.2569
 6050SOL     OW19590   3.068   0.287   8.159  0.0147  0.3743 -0.2474
 6050SOL    HW119591   3.035   0.362   8.110  0.0270  0.5637  0.0315
 6050SOL    HW219592   2.994   0.227   8.165 -1.3051  2.1086  3.0426
 6051SOL     OW19593   1.534   7.928   7.499  0.7187 -0.7489 -0.3825
 6051SOL    HW119594   1.577   7.843   7.505 -0.0671 -1.1196  0.1885
 6051SOL    HW219595   1.440   7.907   7.495  0.3136  0.1463  2.5632
 6052SOL     OW19596   1.753   7.420   7.545 -0.2745  0.3383  0.1025
 6052SOL    HW119597   1.673   7.380   7.578 -1.4659  1.1859 -1.6108
 6052SOL    HW219598   1.770   7.374   7.462  1.4362 -0.3079  0.7644
 6053SOL     OW19599   0.564   0.262   8.825 -0.7211 -0.2455  0.5123
 6053SOL    HW119600   0.636   0.325   8.832  0.5280 -1.3290 -1.4791
 6053SOL    HW219601   0.604   0.178   8.851 -1.0053 -0.9928 -1.3280
 6054SOL     OW19602   1.621   6.574   6.511 -0.3404 -0.4253  0.3446
 6054SOL    HW119603   1.703   6.584   6.560 -0.3837 -0.6522  0.4620
 6054SOL    HW219604   1.555   6.619   6.564 -0.1068  0.6235 -0.2355
 6055SOL     OW19605   3.382   1.684   9.044 -0.0241  0.4019 -0.4444
 6055SOL    HW119606   3.398   1.637   9.125 -2.2630  0.7834  0.2679
 6055SOL    HW219607   3.465   1.729   9.025  1.0155 -0.9481  0.7509
 6056SOL     OW19608   1.539   7.106   8.145  0.3229 -0.2280  0.0185
 6056SOL    HW119609   1.528   7.028   8.199  1.4926 -0.6101 -0.2522
 6056SOL    HW219610   1.630   7.133   8.160 -0.3789  1.7639  0.9729
 6057SOL     OW19611   0.524   0.153  11.226 -0.0358 -0.2406  0.2934
 6057SOL    HW119612   0.589   0.171  11.158 -0.5839 -1.6424 -0.6463
 6057SOL    HW219613   0.511   0.238  11.269 -0.3920  0.9605 -1.9880
 6058SOL     OW19614   6.161   0.009   8.769  0.2684  0.3071  0.0056
 6058SOL    HW119615   6.074  -0.017   8.738 -1.3788  1.2344  3.4269
 6058SOL    HW219616   6.209  -0.074   8.777 -0.5501 -0.3094 -1.0817
 6059SOL     OW19617   1.568   0.036  10.191  0.1023  0.3524 -0.1758
 6059SOL    HW119618   1.519   0.104  10.144  1.0245  1.4540  0.3984
 6059SOL    HW219619   1.626   0.085  10.250  0.5970 -0.9510  0.4561
 6060SOL     OW19620   7.475   0.930  10.811  0.3644  0.4462 -0.1830
 6060SOL    HW119621   7.555   0.907  10.763 -0.5042  2.1709 -2.6347
 6060SOL    HW219622   7.404   0.900  10.754 -0.7303  1.1393  0.7931
 6061SOL     OW19623   0.810   0.657  10.335  0.5484 -0.6277  0.1946
 6061SOL    HW119624   0.820   0.714  10.258  3.4947 -0.9452  0.2039
 6061SOL    HW219625   0.843   0.572  10.305  0.9939 -0.9660  1.5900
 6062SOL     OW19626   1.290   7.198  11.995  0.3849  0.1340 -0.3537
 6062SOL    HW119627   1.371   7.209  12.044 -0.0032 -1.5100  0.7312
 6062SOL    HW219628   1.221   7.200  12.061 -0.4425  0.9607 -1.2007
 6063SOL     OW19629   0.741   0.185   7.473 -0.7175 -0.5062  0.6596
 6063SOL    HW119630   0.756   0.125   7.546 -0.0832 -1.0101  0.1188
 6063SOL    HW219631   0.785   0.266   7.499  0.6420 -1.1016  0.2755
 6064SOL     OW19632   0.902   0.100   8.345 -0.6257 -0.2277 -0.3155
 6064SOL    HW119633   0.903   0.185   8.390  0.2581 -0.7565  0.7140
 6064SOL    HW219634   0.956   0.115   8.268 -2.4790  0.7998 -1.4889
 6065SOL     OW19635   6.241   6.218  10.600 -0.1938  0.3646 -0.1951
 6065SOL    HW119636   6.325   6.197  10.641  0.1192  2.1276  0.1688
 6065SOL    HW219637   6.220   6.306  10.633 -0.7579  1.1646 -2.5030
 6066SOL     OW19638   2.262   5.208  11.639  0.0142 -0.1592 -0.3858
 6066SOL    HW119639   2.229   5.118  11.636  0.2023 -0.2407 -0.0289
 6066SOL    HW219640   2.193   5.260  11.597 -0.5235 -0.3430  0.2466
 6067SOL     OW19641   1.172   7.073  11.222  0.1065  0.4152  0.2189
 6067SOL    HW119642   1.114   7.149  11.215 -0.1466  0.1013 -1.4902
 6067SOL    HW219643   1.141   7.026  11.300 -2.6327 -0.2770 -1.1596
 6068SOL     OW19644   3.404   1.010   9.927  0.6365  0.5749 -0.0350
 6068SOL    HW119645   3.455   0.995   9.848  1.5298  0.8350  0.4736
 6068SOL    HW219646   3.372   0.924   9.952  2.5636  0.0221  0.7686
 6069SOL     OW19647   0.534   0.173  10.470 -0.5366 -0.0278 -0.1716
 6069SOL    HW119648   0.479   0.213  10.403 -0.6701  0.1103  0.0169
 6069SOL    HW219649   0.489   0.192  10.552  0.4239  1.1975  0.1048
 6070SOL     OW19650   7.737   7.210   9.308 -0.0956 -0.3456  0.1269
 6070SOL    HW119651   7.774   7.250   9.230 -0.2367  1.5927  1.0131
 6070SOL    HW219652   7.748   7.116   9.294 -0.0758 -0.0520 -2.1892
 6071SOL     OW19653   2.412   6.679  11.442 -0.2701 -0.1945  0.5124
 6071SOL    HW119654   2.324   6.716  11.448 -0.2430 -0.3203  1.8968
 6071SOL    HW219655   2.432   6.647  11.530  0.4755 -1.7834 -0.1903
 6072SOL     OW19656   7.801   7.628   9.917 -0.3080  0.2102 -0.0368
 6072SOL    HW119657   7.849   7.547   9.898 -2.6901 -1.5302  0.7754
 6072SOL    HW219658   7.867   7.687   9.953  1.4476 -1.5343 -0.2062
 6073SOL     OW19659   1.230   6.067  10.973  0.0348  0.2606  0.2023
 6073SOL    HW119660   1.297   5.999  10.983  1.3474  1.5208  0.2743
 6073SOL    HW219661   1.204   6.061  10.881 -1.2304 -1.5242  0.6228
 6074SOL     OW19662   1.837   0.772   9.824  0.0594 -0.0025  0.0981
 6074SOL    HW119663   1.904   0.837   9.845  0.3486 -0.8151  1.9757
 6074SOL    HW219664   1.770   0.784   9.892 -0.7495 -0.4839 -0.5985
 6075SOL     OW19665   1.468   7.429  11.370  0.4120 -0.6459  0.0528
 6075SOL    HW119666   1.553   7.472  11.376  0.7520 -1.3294  0.3036
 6075SOL    HW219667   1.489   7.336  11.363 -0.2945 -0.7501 -0.8194
 6076SOL     OW19668   2.309   6.895   9.448  0.1372 -1.0099  0.1278
 6076SOL    HW119669   2.362   6.846   9.386  0.9748 -0.8211  0.6810
 6076SOL    HW219670   2.278   6.971   9.398 -0.1505 -1.4535 -0.3771
 6077SOL     OW19671   2.819   6.980   8.269  0.5908 -0.0646  0.4114
 6077SOL    HW119672   2.855   6.913   8.210 -2.5300 -2.3706  0.8699
 6077SOL    HW219673   2.895   7.011   8.318  2.4782 -2.0057 -1.0658
 6078SOL     OW19674   2.183   6.325  11.252  0.0476  0.5257  0.0843
 6078SOL    HW119675   2.201   6.356  11.341  1.1658 -2.5318  1.0584
 6078SOL    HW219676   2.092   6.296  11.255 -0.7273  2.7122 -0.5830
 6079SOL     OW19677   0.051   0.211  10.764 -0.0604  0.2443  0.3352
 6079SOL    HW119678   0.039   0.117  10.749  0.6901  0.0001  1.1441
 6079SOL    HW219679   0.085   0.244  10.681 -2.5023  0.2681 -0.7345
 6080SOL     OW19680   5.992   7.049  10.856  0.1432  0.0226 -0.1158
 6080SOL    HW119681   5.976   7.142  10.868 -0.4988 -0.0232 -0.5381
 6080SOL    HW219682   5.905   7.011  10.842  0.4611 -0.5184 -0.6987
 6081SOL     OW19683   7.884   6.552   9.803  0.1434 -0.2670  0.3254
 6081SOL    HW119684   7.799   6.525   9.766 -0.7391  0.3818  1.8035
 6081SOL    HW219685   7.946   6.537   9.732 -1.1915 -0.8375 -0.7782
 6082SOL     OW19686   0.201   0.902  12.075  0.3150 -0.2562 -0.3913
 6082SOL    HW119687   0.136   0.846  12.033 -0.7409 -0.6145  1.6119
 6082SOL    HW219688   0.193   0.986  12.032 -2.3712  0.0709  0.5786
 6083SOL     OW19689   7.418   1.114   8.803 -0.1748 -0.2214  0.5452
 6083SOL    HW119690   7.352   1.168   8.847 -1.5029 -1.3372  0.0126
 6083SOL    HW219691   7.431   1.040   8.862 -0.1611 -0.5022  0.1932
 6084SOL     OW19692   0.895   7.178  10.313 -0.7460  0.3635  0.2293
 6084SOL    HW119693   0.856   7.094  10.340  0.9420 -0.8143 -0.7531
 6084SOL    HW219694   0.965   7.153  10.254 -0.2103  2.5197 -0.1261
 6085SOL     OW19695   0.862   7.992  10.056 -0.3706  0.1272  0.2612
 6085SOL    HW119696   0.913   8.011   9.977 -1.0915 -1.0411 -0.5402
 6085SOL    HW219697   0.925   7.956  10.118  0.3351  1.7142  0.5096
 6086SOL     OW19698   1.080   1.449  11.119  0.1557  0.7162 -0.0196
 6086SOL    HW119699   1.121   1.453  11.033  0.1501 -0.6238 -0.1085
 6086SOL    HW219700   1.149   1.476  11.180  0.5191  0.5210 -0.3446
 6087SOL     OW19701   1.278   7.179  10.366 -0.9363 -0.3773  0.6413
 6087SOL    HW119702   1.373   7.170  10.366 -0.5615  2.6118  0.9273
 6087SOL    HW219703   1.253   7.169  10.274 -0.2957 -0.6629  0.4929
 6088SOL     OW19704   0.911   7.653  10.859 -0.5453 -0.7048 -0.3278
 6088SOL    HW119705   0.872   7.677  10.943 -1.7767 -2.2112 -0.4055
 6088SOL    HW219706   0.844   7.600  10.816  1.2845 -2.7754 -0.8305
 6089SOL     OW19707   1.626   7.795  10.057  0.0187 -0.4979 -0.4506
 6089SOL    HW119708   1.591   7.881  10.082  0.6649 -0.3996  0.1829
 6089SOL    HW219709   1.644   7.802   9.963 -1.8843 -0.6539 -0.8618
 6090SOL     OW19710   1.486   6.575  11.131  0.5158 -0.0803 -0.3817
 6090SOL    HW119711   1.519   6.567  11.042  2.0944 -0.0148  0.1777
 6090SOL    HW219712   1.462   6.668  11.139  2.4640  0.4472 -0.0775
 6091SOL     OW19713   2.035   5.705  11.767 -0.2190 -0.3384  0.1319
 6091SOL    HW119714   2.057   5.793  11.738 -1.2756 -0.3682 -0.8156
 6091SOL    HW219715   2.120   5.662  11.778  0.3956  1.2810  2.3202
 6092SOL     OW19716   1.888   6.760  11.194  0.7972 -0.3025 -0.1475
 6092SOL    HW119717   1.825   6.787  11.261  2.6523  0.8023  1.2682
 6092SOL    HW219718   1.835   6.734  11.119 -1.3974  3.9091 -0.3525
 6093SOL     OW19719   5.585   0.118  10.601 -0.1521 -0.0543 -0.0262
 6093SOL    HW119720   5.512   0.118  10.663 -0.5446  2.1132 -0.3997
 6093SOL    HW219721   5.548   0.155  10.521  0.6229 -1.7966 -1.2480
 6094SOL     OW19722   7.073   0.620  10.914  0.1137  0.2477  0.2778
 6094SOL    HW119723   7.084   0.593  10.822  0.2339  0.0381  0.3522
 6094SOL    HW219724   7.007   0.689  10.911 -1.6710 -1.3802  0.3004
 6095SOL     OW19725   7.457   7.817   9.601 -0.0910 -0.0428  0.3428
 6095SOL    HW119726   7.517   7.755   9.559  0.3255  2.2267 -2.7100
 6095SOL    HW219727   7.391   7.836   9.535 -2.8260 -0.4758  2.7360
 6096SOL     OW19728   2.006   0.362   9.934 -0.1440 -0.2060 -0.3327
 6096SOL    HW119729   2.039   0.272   9.929  0.2937 -0.0763  0.1351
 6096SOL    HW219730   2.085   0.416   9.941 -0.3952  0.2344 -0.8126
 6097SOL     OW19731   0.275   7.857  10.279 -0.3161 -0.5216 -0.2943
 6097SOL    HW119732   0.340   7.867  10.349  0.5552  1.2001 -1.2915
 6097SOL    HW219733   0.323   7.816  10.208 -0.8183 -0.9411 -0.3895
 6098SOL     OW19734   1.731   6.860  10.432 -0.0425  0.2838 -0.2273
 6098SOL    HW119735   1.723   6.914  10.510 -0.1285 -0.4896  0.3142
 6098SOL    HW219736   1.659   6.797  10.439 -0.7915  0.9497 -1.5478
 6099SOL     OW19737   0.106   1.314  11.057  0.1916 -0.3068  0.3280
 6099SOL    HW119738   0.103   1.317  11.153 -0.2964  0.8068  0.2830
 6099SOL    HW219739   0.166   1.383  11.032 -0.7532  0.3343 -0.2213
 6100SOL     OW19740   0.136   0.859  10.655 -0.3884  0.8095 -0.3357
 6100SOL    HW119741   0.192   0.810  10.596 -0.0442 -1.9747  2.0714
 6100SOL    HW219742   0.163   0.950  10.644  0.8946  0.2029 -3.0272
 6101SOL     OW19743   0.760   1.285  10.515 -0.1623  0.2484  0.0762
 6101SOL    HW119744   0.702   1.330  10.576 -0.0211  0.1220  0.3089
 6101SOL    HW219745   0.816   1.231  10.572  0.0220  0.1894 -0.1609
 6102SOL     OW19746   0.782   2.242   9.745  0.1503 -0.1419  0.0453
 6102SOL    HW119747   0.861   2.223   9.694 -0.2914  0.5752 -0.9475
 6102SOL    HW219748   0.727   2.292   9.685 -1.1660 -0.8310  0.6408
 6103SOL     OW19749   0.562   0.131   9.303 -0.6178  0.4489 -0.3901
 6103SOL    HW119750   0.515   0.181   9.237 -0.1856 -0.1303 -1.1401
 6103SOL    HW219751   0.541   0.040   9.285 -1.2032  0.3182  0.8212
 6104SOL     OW19752   2.097   6.292  10.985 -0.1256 -0.4278 -0.5489
 6104SOL    HW119753   2.112   6.200  11.004 -1.0851 -0.3160  0.8695
 6104SOL    HW219754   2.133   6.339  11.060  0.4224  0.3810 -1.2879
 6105SOL     OW19755   1.392   7.420  10.047  0.3318  0.3058  0.4543
 6105SOL    HW119756   1.363   7.333  10.075 -0.0919 -0.0173 -0.9520
 6105SOL    HW219757   1.479   7.406  10.012 -0.1175  0.2475 -0.6898
 6106SOL     OW19758   2.107   7.891  10.090 -0.3670  0.0851 -0.1410
 6106SOL    HW119759   2.189   7.891  10.139 -0.9904 -2.1499  1.0397
 6106SOL    HW219760   2.134   7.892   9.998  0.9673 -0.0298  0.2306
 6107SOL     OW19761   3.221   7.052  11.473 -0.5737 -0.0875  0.0518
 6107SOL    HW119762   3.160   7.120  11.503 -1.4628 -0.5753 -0.6052
 6107SOL    HW219763   3.169   6.999  11.413 -0.6481 -2.7941  2.2930
 6108SOL     OW19764   6.641   0.985  10.584 -0.1688  0.1773 -0.7834
 6108SOL    HW119765   6.702   0.969  10.656  0.3081  1.2954 -0.9305
 6108SOL    HW219766   6.559   0.945  10.613 -0.2379  1.3918  0.7862
 6109SOL     OW19767   0.975   7.755   9.790  0.3389 -0.5185 -0.1267
 6109SOL    HW119768   0.950   7.668   9.759  3.0663 -1.8070  0.9567
 6109SOL    HW219769   0.974   7.748   9.885  1.0118  0.5008 -0.0374
 6110SOL     OW19770   1.502   7.536  11.864 -0.0120  0.1414 -0.1815
 6110SOL    HW119771   1.516   7.584  11.783  1.3103 -0.8245 -0.5548
 6110SOL    HW219772   1.410   7.549  11.884 -0.2835  0.6538 -1.6642
 6111SOL     OW19773   1.344   6.753  10.357 -0.2109  0.2530  0.5042
 6111SOL    HW119774   1.284   6.694  10.402  0.8009 -0.7149  0.6169
 6111SOL    HW219775   1.319   6.840  10.388 -0.4050 -0.2784  1.9195
 6112SOL     OW19776   1.011   0.503   9.087  0.5984  0.3916  0.0246
 6112SOL    HW119777   0.965   0.419   9.091  1.1791 -0.0939 -2.4336
 6112SOL    HW219778   1.088   0.491   9.143 -0.8735  0.3991  2.1991
 6113SOL     OW19779   7.868   7.535   8.471  0.1863  0.1333 -0.2500
 6113SOL    HW119780   7.944   7.526   8.528  0.2393  0.1217 -0.3216
 6113SOL    HW219781   7.836   7.445   8.459 -0.2227  0.2078  0.2953
 6114SOL     OW19782   0.781   7.694  11.450 -0.0470 -0.3684 -0.2746
 6114SOL    HW119783   0.826   7.776  11.426 -0.6032  0.5271  1.5560
 6114SOL    HW219784   0.730   7.717  11.527  0.2953 -2.6384  0.6886
 6115SOL     OW19785   0.703   0.907  10.537  0.0042 -0.5951  0.4933
 6115SOL    HW119786   0.730   0.816  10.524  0.3581 -0.6096  1.2449
 6115SOL    HW219787   0.725   0.926  10.628 -1.0145 -0.0741  0.6550
 6116SOL     OW19788   0.625   2.196   0.091 -0.1812 -0.3012 -0.2143
 6116SOL    HW119789   0.705   2.174   0.044  0.3574  1.4154 -0.1359
 6116SOL    HW219790   0.639   2.161   0.179  0.2614 -0.4464 -0.3405
 6117SOL     OW19791   1.538   7.140  10.582  0.3853 -0.4557  0.1757
 6117SOL    HW119792   1.626   7.104  10.592  0.8658  0.2766 -1.0824
 6117SOL    HW219793   1.546   7.230  10.612  0.1302 -0.3283 -0.1318
 6118SOL     OW19794   1.196   7.849   8.480 -0.8268  0.4536 -0.3651
 6118SOL    HW119795   1.220   7.807   8.562  1.8523  0.1254 -1.2062
 6118SOL    HW219796   1.188   7.942   8.501  0.6109  0.4796  0.1427
 6119SOL     OW19797   1.867   0.022   8.797 -0.0393  1.0129  0.0365
 6119SOL    HW119798   1.957   0.054   8.787  0.2667  0.0708 -0.4226
 6119SOL    HW219799   1.853  -0.033   8.719 -0.2034 -0.6958  1.2195
 6120SOL     OW19800   2.476   7.655  10.423  0.3001  0.3223  0.2024
 6120SOL    HW119801   2.505   7.605  10.500  0.4303  0.1854  0.0640
 6120SOL    HW219802   2.542   7.636  10.356  0.3913  0.7442  0.1744
 6121SOL     OW19803   0.577   0.261   9.699 -0.3191  0.1724 -0.1335
 6121SOL    HW119804   0.615   0.182   9.663 -0.2738  0.5219 -0.8749
 6121SOL    HW219805   0.573   0.322   9.625 -0.2969  0.8819  0.4294
 6122SOL     OW19806   1.365   6.791   9.909  0.5406 -0.1364 -0.2713
 6122SOL    HW119807   1.391   6.821   9.996  1.0344 -0.6748 -0.2245
 6122SOL    HW219808   1.414   6.710   9.897  0.7441  0.1178 -1.1953
 6123SOL     OW19809   2.020   0.689  10.056  0.1072 -0.2752 -0.7793
 6123SOL    HW119810   1.953   0.662   9.993 -1.4266 -0.2570  0.7588
 6123SOL    HW219811   2.010   0.784  10.063  0.7520 -0.1862 -1.0246
 6124SOL     OW19812   1.273   1.649   8.971  0.1295  0.1458 -0.2771
 6124SOL    HW119813   1.367   1.637   8.980 -0.2675 -1.7776  2.4839
 6124SOL    HW219814   1.246   1.583   8.908  0.5327  0.2984 -0.6130
 6125SOL     OW19815   0.265   1.219  11.277  0.0955  0.0761 -0.3254
 6125SOL    HW119816   0.333   1.172  11.229  0.1848 -1.7333  1.4361
 6125SOL    HW219817   0.311   1.289  11.323  0.0540  1.6187 -2.4695
 6126SOL     OW19818   0.589   7.184  10.197 -0.7181 -0.1965 -0.4498
 6126SOL    HW119819   0.650   7.110  10.194 -0.7886 -0.2679 -0.2173
 6126SOL    HW219820   0.510   7.151  10.154 -1.6164 -1.0993  1.7231
 6127SOL     OW19821   3.325   7.367  10.055  0.5313  0.0033 -0.0654
 6127SOL    HW119822   3.250   7.418  10.086 -0.4130  0.3544 -2.6494
 6127SOL    HW219823   3.304   7.276  10.078 -1.4758 -0.1032 -1.9570
 6128SOL     OW19824   1.241   6.674  11.780  0.0918  0.3249  0.6176
 6128SOL    HW119825   1.215   6.763  11.757 -0.1317  0.1570  0.2222
 6128SOL    HW219826   1.188   6.618  11.724  1.4627 -0.0225 -0.3965
 6129SOL     OW19827   1.032   0.168  11.254  0.8446  0.6205 -0.0351
 6129SOL    HW119828   0.954   0.111  11.256  1.7972 -0.7978 -1.1225
 6129SOL    HW219829   1.054   0.181  11.346  0.1002 -0.0868  0.2587
 6130SOL     OW19830   2.075   0.939   0.010  0.2969 -0.2799  0.1455
 6130SOL    HW119831   2.024   1.013   0.042  0.3659  0.2116 -0.8486
 6130SOL    HW219832   2.020   0.900  -0.058  1.1130  0.1054 -0.7674
 6131SOL     OW19833   0.150   7.471  11.303 -0.2251  0.3494  0.2019
 6131SOL    HW119834   0.197   7.544  11.263  1.9854 -0.9457  0.2772
 6131SOL    HW219835   0.071   7.461  11.250  0.6392  1.2451 -1.3039
 6132SOL     OW19836   2.282   0.112  10.487 -0.6957 -0.5290  0.0529
 6132SOL    HW119837   2.308   0.202  10.464 -0.5863 -0.8404 -1.0978
 6132SOL    HW219838   2.343   0.086  10.556 -0.4729  0.1381  0.1158
 6133SOL     OW19839   1.934   7.682  10.205 -0.2804 -0.5150  0.3796
 6133SOL    HW119840   2.011   7.735  10.187 -1.4024  1.5609  1.3103
 6133SOL    HW219841   1.967   7.592  10.212  1.7057  0.0195 -1.1947
 6134SOL     OW19842   0.609   0.800   1.181  0.3448  0.7184 -0.0938
 6134SOL    HW119843   0.651   0.859   1.244 -1.1750 -1.2555  3.0639
 6134SOL    HW219844   0.641   0.713   1.206 -1.6837 -0.3137 -0.8397
 6135SOL     OW19845   2.369   6.561  11.720  0.4896 -0.1308 -0.3832
 6135SOL    HW119846   2.314   6.626  11.765  0.9218  0.0152 -0.0639
 6135SOL    HW219847   2.424   6.525  11.789  0.3670 -0.7251 -0.5924
 6136SOL     OW19848   0.466   6.948  11.440 -0.0323 -0.2469  0.1381
 6136SOL    HW119849   0.436   6.977  11.354  0.5988 -1.4302 -0.5094
 6136SOL    HW219850   0.428   7.012  11.501 -0.4161  0.6722 -1.0085
 6137SOL     OW19851   0.600   6.677  10.465 -0.0749  0.1476 -0.8147
 6137SOL    HW119852   0.530   6.622  10.501  0.8105  0.8128  2.2479
 6137SOL    HW219853   0.555   6.756  10.433 -0.7877  1.7076  3.3490
 6138SOL     OW19854   1.050   6.357  10.101 -0.0579  0.0441  0.4213
 6138SOL    HW119855   0.967   6.321  10.068 -0.7218  1.6359  0.2792
 6138SOL    HW219856   1.087   6.286  10.154 -2.0583 -0.3127  1.4280
 6139SOL     OW19857   0.876   5.780  11.298 -0.5673 -0.3940 -0.3936
 6139SOL    HW119858   0.903   5.780  11.206 -1.1519 -2.6116 -0.6255
 6139SOL    HW219859   0.957   5.789  11.347  0.1988 -2.6029 -1.1308
 6140SOL     OW19860   1.996   0.858   1.497 -0.1325 -0.3947  0.3585
 6140SOL    HW119861   2.007   0.941   1.543 -0.4709  0.2204 -0.6322
 6140SOL    HW219862   2.085   0.822   1.492  0.3912  0.9706 -1.1061
 6141SOL     OW19863   7.596   6.212  11.492  0.1694 -0.6536 -0.3303
 6141SOL    HW119864   7.561   6.296  11.522  0.3163 -0.7132  0.0072
 6141SOL    HW219865   7.611   6.162  11.572  0.8901 -0.6878 -0.4842
 6142SOL     OW19866   1.912   6.874   0.013  0.1904 -0.7274 -1.3040
 6142SOL    HW119867   1.975   6.931   0.056  0.1185 -0.6622 -1.2843
 6142SOL    HW219868   1.837   6.871   0.072 -0.0188 -0.4186 -1.5451
 6143SOL     OW19869   1.141   7.329   0.204  0.0306 -0.8958 -0.0267
 6143SOL    HW119870   1.204   7.375   0.259 -1.3017  2.2418 -0.9102
 6143SOL    HW219871   1.070   7.304   0.264 -0.3038  0.3728  0.1400
 6144SOL     OW19872   0.278   1.284   0.141  0.4291  0.0305 -0.1069
 6144SOL    HW119873   0.351   1.250   0.089  0.4924 -0.6125  0.3933
 6144SOL    HW219874   0.315   1.298   0.228 -0.4650 -2.1186  0.6945
 6145SOL     OW19875   2.960   0.268   0.367 -0.1146  0.1214 -0.4808
 6145SOL    HW119876   3.026   0.316   0.416  2.1795 -2.8682 -0.3067
 6145SOL    HW219877   2.891   0.250   0.431  0.2828  0.8289  0.1583
 6146SOL     OW19878   1.979   0.588  11.118 -0.5132 -0.7815 -0.2582
 6146SOL    HW119879   2.073   0.572  11.115 -0.8320 -3.1588 -0.1436
 6146SOL    HW219880   1.959   0.593  11.212 -0.7044 -2.1992 -0.1908
 6147SOL     OW19881   7.753   6.775  11.922  0.3643  0.1032 -0.0071
 6147SOL    HW119882   7.845   6.795  11.903  0.2469  0.9549  0.2917
 6147SOL    HW219883   7.756   6.735  12.009  0.6391 -1.6093 -0.7607
 6148SOL     OW19884   7.657   0.135  11.730 -0.0533 -0.8569  0.2088
 6148SOL    HW119885   7.680   0.205  11.791  2.8658 -2.1071  0.6935
 6148SOL    HW219886   7.567   0.113  11.753 -1.2197  2.8624 -0.1879
 6149SOL     OW19887   7.204   0.209  11.196  0.4072 -0.2201 -0.2067
 6149SOL    HW119888   7.177   0.299  11.215 -0.6882 -0.4572 -0.5594
 6149SOL    HW219889   7.257   0.216  11.116  1.0829  0.2062  0.2659
 6150SOL     OW19890   0.608   5.895  10.491  0.2654  0.0199  0.6028
 6150SOL    HW119891   0.522   5.887  10.534  0.2019  0.1720  0.5031
 6150SOL    HW219892   0.632   5.804  10.471 -0.8357  0.0851 -1.2499
 6151SOL     OW19893   1.259   6.780  11.422 -0.5608  0.3679 -0.8644
 6151SOL    HW119894   1.289   6.700  11.466 -0.0556  0.8635 -0.3047
 6151SOL    HW219895   1.168   6.790  11.450 -0.6605 -0.0549 -1.0137
 6152SOL     OW19896   2.474   7.440   0.510  0.2984  0.5203  0.2373
 6152SOL    HW119897   2.402   7.498   0.483 -2.4073 -1.9359  1.5733
 6152SOL    HW219898   2.500   7.396   0.429 -1.1803  0.0027  0.0022
 6153SOL     OW19899   7.946   7.344  10.345 -0.0115  0.7808  0.2346
 6153SOL    HW119900   7.856   7.363  10.320 -0.3370 -0.3937  0.4743
 6153SOL    HW219901   7.992   7.428  10.335 -0.3653  0.6880 -3.0785
 6154SOL     OW19902   1.046   7.519   0.628 -0.2929  0.0837  0.3075
 6154SOL    HW119903   1.079   7.598   0.670 -3.1606  1.1605  0.7712
 6154SOL    HW219904   1.027   7.459   0.700  1.3155 -0.8679 -0.0061
 6155SOL     OW19905   0.857   0.572   0.410 -0.4240 -0.5486  0.1947
 6155SOL    HW119906   0.810   0.501   0.367 -0.4338  0.0976 -0.8869
 6155SOL    HW219907   0.791   0.617   0.463 -0.9567  0.0852 -0.9688
 6156SOL     OW19908   1.485   1.231  10.645 -0.2885  0.0619  0.0794
 6156SOL    HW119909   1.475   1.143  10.609  0.0411 -0.4491  1.1802
 6156SOL    HW219910   1.400   1.272  10.631 -0.2473 -0.1991 -1.0243
 6157SOL     OW19911   0.827   7.249  11.461 -0.3663  0.2450  0.2311
 6157SOL    HW119912   0.875   7.226  11.381 -0.3723 -0.5138  0.4371
 6157SOL    HW219913   0.885   7.221  11.532 -0.9615 -0.3472  0.4853
 6158SOL     OW19914   7.611   6.058  11.693  0.0783 -0.0940  0.2200
 6158SOL    HW119915   7.586   6.074  11.784 -2.4419  0.8932 -0.5343
 6158SOL    HW219916   7.579   5.970  11.674 -1.4228  0.5066 -0.2462
 6159SOL     OW19917   1.282   5.002  10.723 -0.0842 -0.1840  0.4909
 6159SOL    HW119918   1.319   5.084  10.758  0.1020 -0.3926  0.7909
 6159SOL    HW219919   1.351   4.937  10.737 -1.3191 -1.0742  3.0599
 6160SOL     OW19920   2.785   5.585  10.154  0.0201 -0.0130  0.8032
 6160SOL    HW119921   2.714   5.522  10.143  0.3232 -0.2056 -0.1999
 6160SOL    HW219922   2.865   5.534  10.141  0.2554  0.6600 -0.6473
 6161SOL     OW19923   7.994   4.913  10.654  0.1564 -0.0858  0.5788
 6161SOL    HW119924   7.932   4.843  10.675  1.4496 -1.2496  0.6825
 6161SOL    HW219925   7.982   4.978  10.724 -1.2322 -0.0554  0.3476
 6162SOL     OW19926   7.938   7.438  11.111 -0.2748  0.2909  0.0813
 6162SOL    HW119927   7.941   7.381  11.034  1.6813 -0.1461  0.4329
 6162SOL    HW219928   7.885   7.513  11.083 -0.6624 -0.4519 -1.2669
 6163SOL     OW19929   0.686   6.562   0.698 -0.0432 -0.0770  0.1816
 6163SOL    HW119930   0.600   6.573   0.738  0.3254 -1.0809  1.3106
 6163SOL    HW219931   0.732   6.644   0.716 -0.4377  0.0944  0.4141
 6164SOL     OW19932   1.638   7.372  10.259 -0.6187  0.0502 -0.1957
 6164SOL    HW119933   1.691   7.396  10.183 -1.5672 -0.2999 -0.9881
 6164SOL    HW219934   1.668   7.431  10.328  0.3079  0.3372 -0.8107
 6165SOL     OW19935   0.256   7.830  10.645 -0.4730  0.1692 -0.0242
 6165SOL    HW119936   0.319   7.862  10.580 -0.4760  2.0226  0.8022
 6165SOL    HW219937   0.306   7.824  10.726 -1.0310  0.3568  0.3454
 6166SOL     OW19938   2.614   7.968  12.110  0.2617  0.4882  0.0957
 6166SOL    HW119939   2.591   8.050  12.153  0.4081  0.0410  1.0660
 6166SOL    HW219940   2.532   7.918  12.106  0.7769 -0.7379  2.7415
 6167SOL     OW19941   2.813   6.526  12.262  0.1560  0.1098 -0.1671
 6167SOL    HW119942   2.816   6.586  12.187  0.3596  0.4526  0.1106
 6167SOL    HW219943   2.719   6.510  12.276  0.0040  1.4399  0.5863
 6168SOL     OW19944   3.471   0.733   2.037 -0.2016  0.1290 -0.4672
 6168SOL    HW119945   3.461   0.691   2.122 -0.6243 -2.0677 -1.5155
 6168SOL    HW219946   3.395   0.791   2.029 -0.4415 -0.0538  0.4166
 6169SOL     OW19947   1.142   0.544  12.022 -0.2609 -0.5133  0.0405
 6169SOL    HW119948   1.124   0.480  11.954  0.5909  0.7310 -1.4125
 6169SOL    HW219949   1.061   0.596  12.027 -0.8962 -1.5415  1.1155
 6170SOL     OW19950   2.520   7.757   0.681  0.4844 -0.0058 -0.9426
 6170SOL    HW119951   2.588   7.710   0.632 -0.3460  0.0822 -2.2194
 6170SOL    HW219952   2.446   7.761   0.621  0.0283  1.6622 -0.3114
 6171SOL     OW19953   0.646   6.493  12.033  0.4106 -0.0379  0.0977
 6171SOL    HW119954   0.595   6.418  12.062  0.8719  0.0224  1.0917
 6171SOL    HW219955   0.737   6.470  12.055  0.8758 -0.2404 -1.8201
 6172SOL     OW19956   0.854   6.213   9.933 -0.5959 -0.0969 -0.1862
 6172SOL    HW119957   0.772   6.171   9.958 -0.2875 -0.2570  0.6027
 6172SOL    HW219958   0.919   6.143   9.934 -0.0978  0.3373  1.0490
 6173SOL     OW19959   3.142   6.546   0.114  0.2529 -0.2000  0.4107
 6173SOL    HW119960   3.148   6.637   0.083  0.3526  0.0606  1.1732
 6173SOL    HW219961   3.233   6.515   0.112  0.0988 -0.6360 -0.8411
 6174SOL     OW19962   3.433   1.308  10.930 -0.3619  0.2832 -0.1112
 6174SOL    HW119963   3.491   1.307  10.854 -0.7291  1.1343 -0.4155
 6174SOL    HW219964   3.348   1.334  10.894 -0.4478  1.0765  0.6465
 6175SOL     OW19965   4.362   7.441   1.621 -0.0612  0.5034  0.0327
 6175SOL    HW119966   4.278   7.398   1.605  0.0124  0.3305  0.1056
 6175SOL    HW219967   4.403   7.389   1.691 -1.4636  2.6458  2.6517
 6176SOL     OW19968   2.562   0.162   0.916  0.2201  0.2866 -0.3544
 6176SOL    HW119969   2.519   0.081   0.889 -1.7516  0.8359  0.9404
 6176SOL    HW219970   2.560   0.160   1.012  2.4608  0.7358 -0.2316
 6177SOL     OW19971   2.557   6.877   0.297  0.0122 -0.2273  0.0877
 6177SOL    HW119972   2.582   6.835   0.379  0.4754  3.0268  1.7782
 6177SOL    HW219973   2.629   6.858   0.237  2.5814  1.8873  2.2525
 6178SOL     OW19974   0.896   7.043   1.950  0.0694  0.0026 -0.2187
 6178SOL    HW119975   0.975   7.026   2.002 -0.2705 -2.5997 -0.3821
 6178SOL    HW219976   0.908   6.988   1.872 -1.2700  0.6703 -0.9190
 6179SOL     OW19977   3.310   2.734   1.446  0.3094  0.5502  0.0699
 6179SOL    HW119978   3.305   2.650   1.400 -0.4628  0.7060 -0.1458
 6179SOL    HW219979   3.228   2.740   1.495 -1.1501  2.5699 -2.3889
 6180SOL     OW19980   3.185   6.694   1.624  0.6650  0.1752  0.1797
 6180SOL    HW119981   3.259   6.680   1.683 -0.0008  1.4847  1.3874
 6180SOL    HW219982   3.203   6.779   1.584  0.9969 -0.6000 -1.3801
 6181SOL     OW19983   4.626   1.462   1.269  0.0838  0.2713  0.2706
 6181SOL    HW119984   4.643   1.400   1.340 -1.3038 -0.7267 -0.2300
 6181SOL    HW219985   4.702   1.452   1.210 -0.2665 -1.2199  0.0335
 6182SOL     OW19986   3.070   1.037  11.700  0.4631 -0.2558  0.3969
 6182SOL    HW119987   3.122   1.108  11.662  0.5987  0.9621  2.6999
 6182SOL    HW219988   3.090   0.961  11.646  0.2119  1.4358 -2.2476
 6183SOL     OW19989   2.047   0.425   2.255  0.1330  0.7279  0.4373
 6183SOL    HW119990   2.137   0.458   2.246 -0.0434  1.2766  0.6177
 6183SOL    HW219991   2.013   0.470   2.333 -1.1405  2.5065 -1.0545
 6184SOL     OW19992   3.045   6.622   0.416  0.0018 -0.2240 -0.0199
 6184SOL    HW119993   2.980   6.685   0.446  0.4748  0.2661 -0.0147
 6184SOL    HW219994   3.025   6.610   0.323  0.7091  0.9316 -0.3403
 6185SOL     OW19995   4.065   0.219   2.926 -0.0243 -0.2129  0.1676
 6185SOL    HW119996   4.072   0.313   2.944 -0.8050 -0.2626  0.8312
 6185SOL    HW219997   4.155   0.190   2.912  0.6462  0.0469  3.1411
 6186SOL     OW19998   1.293   2.055   1.047  0.2529  0.4344  0.1501
 6186SOL    HW119999   1.332   2.031   0.963  3.2591  0.5883  1.3773
 6186SOL    HW220000   1.291   2.151   1.046 -1.8927  0.4306 -0.5914
 6187SOL     OW20001   3.854   1.467   1.822  0.1943  0.7297 -0.2005
 6187SOL    HW120002   3.911   1.477   1.899 -1.4566 -0.7890  1.2925
 6187SOL    HW220003   3.772   1.510   1.847 -0.7195 -0.6748 -0.6687
 6188SOL     OW20004   2.710   1.400   2.133  0.1696 -0.1037 -0.4944
 6188SOL    HW120005   2.802   1.426   2.131  0.4606 -1.1435 -2.1650
 6188SOL    HW220006   2.667   1.471   2.180  1.5633  1.2647 -1.1938
 6189SOL     OW20007   2.142   1.055   1.301  0.2107  0.5035 -0.5827
 6189SOL    HW120008   2.058   1.035   1.259  0.4636 -1.0591 -0.4078
 6189SOL    HW220009   2.127   1.137   1.348 -0.7332  1.0980 -1.8659
 6190SOL     OW20010   4.111   1.912   0.174  0.0472  0.4919 -0.0710
 6190SOL    HW120011   4.034   1.855   0.168 -0.4840  0.8236  2.2464
 6190SOL    HW220012   4.181   1.855   0.205 -0.1230  0.7814  0.8878
 6191SOL     OW20013   3.905   0.679   3.241  0.5220  0.3950  0.0176
 6191SOL    HW120014   3.957   0.635   3.309 -0.0037 -0.0201  0.1580
 6191SOL    HW220015   3.855   0.608   3.201 -1.2680  1.0132  1.0600
 6192SOL     OW20016   2.733   0.191   0.108  0.9262  0.1242  0.0670
 6192SOL    HW120017   2.817   0.171   0.148  1.1811  0.9095 -0.0545
 6192SOL    HW220018   2.670   0.139   0.158  1.3681  0.2742  0.7952
 6193SOL     OW20019   2.661   0.959  10.765 -0.1627  0.2716 -0.2340
 6193SOL    HW120020   2.625   0.888  10.711  1.3367  0.3030 -1.3728
 6193SOL    HW220021   2.602   1.032  10.752 -1.3750 -0.5627  0.4296
 6194SOL     OW20022   2.310   2.508   2.983  0.3469 -0.0685 -0.0975
 6194SOL    HW120023   2.271   2.574   2.926  1.5276  0.8803  0.1691
 6194SOL    HW220024   2.278   2.530   3.071 -0.3114 -0.6682 -0.1700
 6195SOL     OW20025   5.584   7.402   1.717  0.4115  0.5105 -0.1633
 6195SOL    HW120026   5.623   7.335   1.660 -0.8587 -0.0655 -0.3772
 6195SOL    HW220027   5.589   7.365   1.805  0.1498  0.3444 -0.2186
 6196SOL     OW20028   1.436   0.537   0.748  0.1292  0.0259  0.3145
 6196SOL    HW120029   1.374   0.598   0.707 -0.8762 -1.5831 -0.6626
 6196SOL    HW220030   1.388   0.502   0.824  0.1320 -0.6212  0.0246
 6197SOL     OW20031   4.914   3.276   0.424 -0.5207  0.6847  0.0958
 6197SOL    HW120032   4.862   3.348   0.461  0.6128  1.2972  0.5704
 6197SOL    HW220033   4.925   3.300   0.332 -2.7544 -0.4888 -0.5569
 6198SOL     OW20034   0.488   2.021   2.228  0.0624  0.0746 -0.0208
 6198SOL    HW120035   0.574   2.052   2.200 -0.9727  0.9508 -2.5675
 6198SOL    HW220036   0.480   1.934   2.191  0.2182 -0.4180  1.0723
 6199SOL     OW20037   4.684   2.599   0.886  0.8197 -1.3261  0.3422
 6199SOL    HW120038   4.666   2.692   0.904 -0.3842 -1.4470 -0.1846
 6199SOL    HW220039   4.648   2.584   0.799  0.3300 -2.4760  0.7310
 6200SOL     OW20040   2.585   0.744  12.487  0.3757 -0.7008 -0.3469
 6200SOL    HW120041   2.604   0.692  12.566 -0.7587 -1.1874 -0.3848
 6200SOL    HW220042   2.536   0.820  12.519  1.8261  0.2691 -0.3242
 6201SOL     OW20043   2.099   1.801   4.298  0.6300  0.4386 -0.0670
 6201SOL    HW120044   2.174   1.837   4.345  0.8374  0.0244 -0.0846
 6201SOL    HW220045   2.080   1.718   4.341 -0.5692  1.0836  0.7132
 6202SOL     OW20046   1.352   1.349   0.473 -0.8119  1.0217  0.4809
 6202SOL    HW120047   1.330   1.335   0.565 -0.4714  0.1633  0.4450
 6202SOL    HW220048   1.431   1.403   0.475 -1.2037  1.6033  0.6669
 6203SOL     OW20049   2.223   0.490   1.934  0.7453  0.3356  0.1573
 6203SOL    HW120050   2.221   0.397   1.959 -0.2888  0.3556  0.1885
 6203SOL    HW220051   2.284   0.494   1.860 -1.3363 -0.8652 -1.7424
 6204SOL     OW20052   3.422   0.666   2.312 -0.9209  0.2051 -0.0206
 6204SOL    HW120053   3.476   0.727   2.363 -1.8034 -0.6358  1.9929
 6204SOL    HW220054   3.337   0.666   2.356 -1.2795 -1.6214 -0.6485
 6205SOL     OW20055   2.659   0.379   0.758  0.0356 -1.1654  0.0356
 6205SOL    HW120056   2.644   0.301   0.811  0.8555 -0.7676  0.8715
 6205SOL    HW220057   2.733   0.422   0.799 -1.2821  0.8341  0.4680
 6206SOL     OW20058   3.231   0.054   0.420  0.0759 -0.0418 -0.3141
 6206SOL    HW120059   3.256   0.136   0.378  1.1818 -0.4886 -0.5861
 6206SOL    HW220060   3.286  -0.012   0.378 -1.6661 -1.1324 -0.9655
 6207SOL     OW20061   3.566   2.047   2.624  0.8685 -0.1524  0.0263
 6207SOL    HW120062   3.502   1.976   2.633  0.4654 -0.2120 -2.5062
 6207SOL    HW220063   3.579   2.079   2.713 -0.4310 -2.0968  0.9880
 6208SOL     OW20064   1.438   7.940   2.214  0.8495  0.0649  0.1809
 6208SOL    HW120065   1.388   8.000   2.158 -0.0456  0.2955  1.1874
 6208SOL    HW220066   1.414   7.853   2.184 -0.0981  0.1771  0.5952
 6209SOL     OW20067   3.196   2.333   2.012 -0.4595  0.2099  0.2413
 6209SOL    HW120068   3.288   2.317   1.989 -1.1931 -0.8522 -2.3877
 6209SOL    HW220069   3.187   2.428   2.010  0.4121  0.2950 -0.2612
 6210SOL     OW20070   4.210   2.882   0.122  0.4387  0.1809  0.2261
 6210SOL    HW120071   4.242   2.971   0.132  1.8195 -0.2902  0.1707
 6210SOL    HW220072   4.148   2.887   0.049  1.9858  0.7389 -1.0944
 6211SOL     OW20073   2.953   7.020  12.114 -0.5669  0.2400  0.0441
 6211SOL    HW120074   2.989   7.006  12.027 -0.8935  0.7353 -0.1770
 6211SOL    HW220075   2.863   6.990  12.109 -0.7650  0.8134  0.0364
 6212SOL     OW20076   2.693   1.625   0.335  0.3672 -0.5562 -0.3276
 6212SOL    HW120077   2.617   1.645   0.280 -0.1610 -0.5150  0.4013
 6212SOL    HW220078   2.741   1.708   0.341  0.5559 -0.6182 -0.9073
 6213SOL     OW20079   4.471   1.807  11.174 -0.0480 -0.5100  0.1582
 6213SOL    HW120080   4.517   1.724  11.183  0.7151  0.0814  2.4934
 6213SOL    HW220081   4.402   1.803  11.241 -1.6171 -0.2302 -1.3745
 6214SOL     OW20082   5.526   0.902  12.364 -0.1453  0.0475 -0.0096
 6214SOL    HW120083   5.619   0.883  12.349 -0.4284 -1.0102 -0.4655
 6214SOL    HW220084   5.527   0.961  12.440  0.8092 -1.3517  1.1351
 6215SOL     OW20085   1.683   0.078   2.160 -0.1502  0.4051  0.4980
 6215SOL    HW120086   1.602   0.054   2.206 -0.3963  0.1059 -0.0762
 6215SOL    HW220087   1.656   0.149   2.102  0.0790  0.5423  0.5610
 6216SOL     OW20088   3.506   7.694   2.045  0.1637 -0.2025  0.1051
 6216SOL    HW120089   3.458   7.681   1.964 -1.0049 -0.5990  0.8471
 6216SOL    HW220090   3.490   7.786   2.067 -2.8592 -1.0281  1.9152
 6217SOL     OW20091   3.022   0.492   2.439  0.4816  0.0088  0.3698
 6217SOL    HW120092   2.951   0.435   2.468 -0.5301  1.1665  0.2610
 6217SOL    HW220093   3.102   0.450   2.471 -0.1785 -1.7262 -0.1616
 6218SOL     OW20094   3.458   0.447   1.623  0.4091 -0.5518 -0.7425
 6218SOL    HW120095   3.389   0.412   1.680  0.0630 -0.6932 -1.2393
 6218SOL    HW220096   3.476   0.534   1.658  1.1685 -1.1547  0.4150
 6219SOL     OW20097   2.165   0.799   1.775 -0.0566 -0.8378 -0.5410
 6219SOL    HW120098   2.124   0.871   1.726  0.8860 -1.2385 -1.9756
 6219SOL    HW220099   2.105   0.783   1.848 -0.1878  1.5397 -0.0567
 6220SOL     OW20100   3.113   1.555   0.810  0.3099 -0.3404 -0.4599
 6220SOL    HW120101   3.150   1.475   0.849 -2.0500 -2.0189 -1.4748
 6220SOL    HW220102   3.163   1.567   0.729  2.1495  0.5527  0.7324
 6221SOL     OW20103   6.218   7.542   1.551 -0.0900 -0.0706  0.2825
 6221SOL    HW120104   6.206   7.618   1.608 -1.0552 -0.5469  0.7435
 6221SOL    HW220105   6.291   7.494   1.589  1.6031  1.4224 -0.9236
 6222SOL     OW20106   3.136   7.447   1.561 -0.4901  0.2691 -0.2400
 6222SOL    HW120107   3.168   7.476   1.646 -2.5030 -1.3123  1.1699
 6222SOL    HW220108   3.185   7.499   1.497  2.8534 -0.1340  1.7459
 6223SOL     OW20109   2.185   2.021   1.510  0.1510  0.2150  0.3214
 6223SOL    HW120110   2.181   2.054   1.600 -0.4814  0.6463  0.1426
 6223SOL    HW220111   2.095   1.997   1.489  0.2664  0.2649 -0.2547
 6224SOL     OW20112   2.457   7.480   2.120  0.1089  0.0612 -0.5627
 6224SOL    HW120113   2.533   7.423   2.107 -0.3547 -0.6281 -0.2661
 6224SOL    HW220114   2.487   7.566   2.091  1.7554  0.3064  1.6115
 6225SOL     OW20115   0.550   2.066   3.150 -0.2749  0.3970  0.0067
 6225SOL    HW120116   0.534   2.041   3.241 -3.4523 -0.8852 -0.7592
 6225SOL    HW220117   0.550   2.162   3.152  0.1606  0.3966  1.3995
 6226SOL     OW20118   1.725   2.005   0.748  0.3070 -0.1064  0.0184
 6226SOL    HW120119   1.753   2.096   0.757  0.3868 -0.0713 -0.5949
 6226SOL    HW220120   1.759   1.977   0.664  1.6342 -1.2009  0.8841
 6227SOL     OW20121   3.886   2.172   2.060  0.4052 -0.1268 -0.0982
 6227SOL    HW120122   3.816   2.177   2.125  0.6928  1.1843  0.1557
 6227SOL    HW220123   3.841   2.165   1.976 -0.0971  1.6161 -0.0165
 6228SOL     OW20124   4.218   1.184   3.053 -0.6728 -0.2287 -0.5927
 6228SOL    HW120125   4.279   1.158   2.983 -1.2603 -2.2575 -0.4045
 6228SOL    HW220126   4.250   1.270   3.081  2.0318 -1.1416 -0.5926
 6229SOL     OW20127   3.698   0.968  12.338  0.1295  0.3255 -0.2693
 6229SOL    HW120128   3.749   0.908  12.392  1.9214  2.6013  0.7892
 6229SOL    HW220129   3.712   1.054  12.379 -2.6723  1.4471 -1.3842
 6230SOL     OW20130   5.050   1.468   0.686  0.4840 -0.9849  0.6279
 6230SOL    HW120131   5.028   1.420   0.607 -0.2008 -0.0566  0.2396
 6230SOL    HW220132   4.972   1.520   0.706  1.4564  0.5721  0.5669
 6231SOL     OW20133   2.919   1.632   2.753  0.3297  0.0371  0.4157
 6231SOL    HW120134   3.010   1.603   2.747  0.4444  0.4495  0.1384
 6231SOL    HW220135   2.904   1.645   2.847  0.7087  0.4440  0.4212
 6232SOL     OW20136   3.192   2.571  12.155 -0.5906  0.3154 -0.1824
 6232SOL    HW120137   3.222   2.540  12.070  0.0085 -0.6028  0.3550
 6232SOL    HW220138   3.178   2.665  12.142  0.2472  0.3300 -1.0842
 6233SOL     OW20139   3.353   2.172   1.491 -0.3817 -0.3745  0.1264
 6233SOL    HW120140   3.358   2.248   1.434  1.4682 -2.7210 -3.2713
 6233SOL    HW220141   3.415   2.191   1.562  0.2354  1.1768 -0.7724
 6234SOL     OW20142   3.278   0.435  12.184 -0.5808 -0.3542  0.0157
 6234SOL    HW120143   3.328   0.513  12.209  0.5095 -0.9549 -0.2171
 6234SOL    HW220144   3.332   0.361  12.214 -0.0671 -1.0756 -2.4842
 6235SOL     OW20145   3.805   2.139   1.779 -0.0073  0.1380  0.0970
 6235SOL    HW120146   3.725   2.178   1.745  0.9463  1.5693 -0.6372
 6235SOL    HW220147   3.856   2.118   1.700 -0.0369 -1.6282  0.5211
 6236SOL     OW20148   3.865   1.218  11.197  0.3487 -0.2233 -0.8173
 6236SOL    HW120149   3.800   1.164  11.153  1.0785 -2.8768  1.0713
 6236SOL    HW220150   3.943   1.211  11.143  0.0323  0.2061 -1.3425
 6237SOL     OW20151   1.455   0.016   1.457 -0.3378  0.0510  0.1377
 6237SOL    HW120152   1.426   0.104   1.431 -0.6131 -0.1706 -0.3106
 6237SOL    HW220153   1.449   0.017   1.552 -2.3584 -0.1590  0.0422
 6238SOL     OW20154   3.179   0.713   2.423 -0.6325 -0.5189 -0.2042
 6238SOL    HW120155   3.111   0.646   2.432 -0.3798 -0.8844 -0.9908
 6238SOL    HW220156   3.170   0.766   2.503 -0.8891 -1.4286  0.3872
 6239SOL     OW20157   1.820   7.727   2.008 -0.1151 -0.7001  0.2162
 6239SOL    HW120158   1.865   7.644   1.996  1.9318  0.4238 -0.2715
 6239SOL    HW220159   1.877   7.777   2.066 -1.3965  0.3171  0.6533
 6240SOL     OW20160   2.431   5.956   2.639  1.0036 -0.0059  0.3107
 6240SOL    HW120161   2.413   5.979   2.730  1.6414  1.2205  0.1431
 6240SOL    HW220162   2.456   5.863   2.642 -0.1102 -0.3011  1.2146
 6241SOL     OW20163   1.908   7.312   1.139 -0.1967 -0.2530  0.3326
 6241SOL    HW120164   1.937   7.378   1.076  1.2733 -1.3379 -0.1547
 6241SOL    HW220165   1.944   7.230   1.107 -0.2632 -0.9901  2.0493
 6242SOL     OW20166   2.293   7.441   1.473 -0.2551  0.2186 -0.3927
 6242SOL    HW120167   2.296   7.487   1.557  0.8901 -0.4651 -0.0346
 6242SOL    HW220168   2.206   7.459   1.438  0.1677  2.7634 -0.3225
 6243SOL     OW20169   1.538   0.049   1.780  0.2042  0.1568 -0.2624
 6243SOL    HW120170   1.557  -0.011   1.851  1.2944  0.0360 -0.6401
 6243SOL    HW220171   1.448   0.078   1.796 -0.8863 -2.6273 -0.8410
 6244SOL     OW20172   2.516   6.743   1.688 -0.4207  0.3268 -0.5095
 6244SOL    HW120173   2.461   6.684   1.637 -1.3714  1.4130 -0.7682
 6244SOL    HW220174   2.595   6.692   1.707 -0.9223 -0.7762 -1.3193
 6245SOL     OW20175   2.595   3.700   0.795  0.2855 -0.4197  0.9267
 6245SOL    HW120176   2.687   3.695   0.769  0.3056  2.6767 -0.0187
 6245SOL    HW220177   2.595   3.682   0.889  2.0547  0.6528  1.1812
 6246SOL     OW20178   1.865   0.216   1.131  0.7387  0.4363 -0.1738
 6246SOL    HW120179   1.880   0.131   1.172  0.4761  0.3218 -0.3083
 6246SOL    HW220180   1.952   0.253   1.118  0.7993  0.8968  1.3709
 6247SOL     OW20181   1.157   7.132   1.251 -0.3488  0.1156  0.5130
 6247SOL    HW120182   1.149   7.227   1.251  0.5630  0.2008  0.6005
 6247SOL    HW220183   1.089   7.102   1.191 -1.6846  0.7157  1.6807
 6248SOL     OW20184   5.838   0.485   1.908  0.0789  0.0430  0.1301
 6248SOL    HW120185   5.881   0.497   1.824  0.9556  0.6905  0.6600
 6248SOL    HW220186   5.744   0.494   1.888  0.3404  1.4193 -0.5706
 6249SOL     OW20187   0.624   6.107   0.394  0.1874  0.2541  0.2954
 6249SOL    HW120188   0.546   6.089   0.343  1.3786  1.2614 -2.0512
 6249SOL    HW220189   0.679   6.029   0.382  0.1224  0.1324  0.7766
 6250SOL     OW20190   2.936   0.526   0.277 -0.3061  0.2764  0.1330
 6250SOL    HW120191   2.845   0.515   0.251  0.1375 -0.7902 -1.0629
 6250SOL    HW220192   2.972   0.438   0.278  0.6182  0.6462  0.9749
 6251SOL     OW20193   3.979   4.328   2.123 -0.1184 -0.6256  0.7253
 6251SOL    HW120194   3.944   4.369   2.044 -1.6330  0.8804  2.0960
 6251SOL    HW220195   3.950   4.237   2.117  1.3343 -1.0232 -1.2718
 6252SOL     OW20196   2.202   1.888   2.361  0.5233 -0.3798  0.3994
 6252SOL    HW120197   2.257   1.813   2.380 -0.1337 -0.8772  0.3945
 6252SOL    HW220198   2.121   1.872   2.410 -0.3220 -0.5778 -0.9806
 6253SOL     OW20199   2.573   1.286   0.009 -0.0298  0.2901 -0.1808
 6253SOL    HW120200   2.511   1.234  -0.042 -0.0610  0.0807  0.0671
 6253SOL    HW220201   2.590   1.363  -0.045  0.4784 -0.2670 -0.8176
 6254SOL     OW20202   2.140   1.318   0.163 -0.3295  0.3022  0.0196
 6254SOL    HW120203   2.165   1.236   0.206  1.2010  0.8476  0.2428
 6254SOL    HW220204   2.121   1.293   0.073 -0.2174 -0.3477  0.1744
 6255SOL     OW20205   3.260   0.177   0.017 -0.0640 -0.0588  0.1234
 6255SOL    HW120206   3.285   0.138   0.100  0.2827 -0.2391 -0.0656
 6255SOL    HW220207   3.310   0.258   0.013  1.0767 -0.7805 -0.5957
 6256SOL     OW20208   3.318   7.909   0.828  0.1956 -0.0795  0.0417
 6256SOL    HW120209   3.406   7.932   0.799  0.5681  2.0160  2.4451
 6256SOL    HW220210   3.331   7.857   0.907 -0.6606  0.8742  0.8481
 6257SOL     OW20211   1.000   0.482   1.300 -0.0120  0.0989  0.6771
 6257SOL    HW120212   1.061   0.411   1.278 -0.1174 -0.2956  1.5951
 6257SOL    HW220213   0.934   0.440   1.356 -1.3134  0.4443 -0.5502
 6258SOL     OW20214   2.803   2.164   0.065  0.2058  0.8029  0.1828
 6258SOL    HW120215   2.769   2.246   0.100  1.1691  1.3078 -0.0343
 6258SOL    HW220216   2.893   2.183   0.041  0.7126 -0.5454  0.8944
 6259SOL     OW20217   2.255   0.820   1.397  0.4179  0.1702 -0.2667
 6259SOL    HW120218   2.224   0.900   1.354 -1.7118 -0.4582 -0.0307
 6259SOL    HW220219   2.348   0.835   1.412  0.3280  2.0975 -1.3287
 6260SOL     OW20220   2.799   0.152  12.349  0.1012 -0.0981  0.6892
 6260SOL    HW120221   2.735   0.197  12.293  1.4157  2.3197  1.0001
 6260SOL    HW220222   2.765   0.163  12.438 -1.0124 -2.2937  0.5964
 6261SOL     OW20223   1.067   2.238   1.158 -0.1674  0.2456 -0.0506
 6261SOL    HW120224   1.047   2.179   1.085 -1.1306  0.8269 -0.2698
 6261SOL    HW220225   1.134   2.297   1.124 -0.8633  0.7356 -0.5819
 6262SOL     OW20226   4.573   2.209   0.480 -0.1222  0.5413 -0.5764
 6262SOL    HW120227   4.601   2.178   0.566 -0.0758  0.5786 -0.5780
 6262SOL    HW220228   4.484   2.175   0.470 -0.9474  2.2843  0.3958
 6263SOL     OW20229   3.987   1.339   0.384 -0.3886 -0.2543  0.4029
 6263SOL    HW120230   4.041   1.332   0.463 -0.1656  0.2355  0.3001
 6263SOL    HW220231   3.984   1.250   0.349 -0.7189 -0.5278  1.1149
 6264SOL     OW20232   3.939   0.921   1.797 -0.3986  0.2879  0.3005
 6264SOL    HW120233   3.996   0.997   1.803 -0.4409  0.2520  1.2730
 6264SOL    HW220234   3.978   0.867   1.728  0.1253  0.7708  0.2173
 6265SOL     OW20235   3.702   1.052   1.623 -0.4383 -0.2157  0.1814
 6265SOL    HW120236   3.669   1.119   1.683 -1.9084 -0.5664 -0.1845
 6265SOL    HW220237   3.736   0.983   1.679  0.2614  0.4253  0.5680
 6266SOL     OW20238   0.711   1.104  11.517  0.3598 -0.5952  0.0255
 6266SOL    HW120239   0.636   1.161  11.535 -0.1996 -1.2285 -0.2578
 6266SOL    HW220240   0.729   1.116  11.424  1.0103  0.0165  0.2193
 6267SOL     OW20241   4.736   0.025   3.255  0.2717  0.2308  0.1907
 6267SOL    HW120242   4.782  -0.036   3.312  0.1087  2.0827  2.4459
 6267SOL    HW220243   4.766   0.111   3.283 -0.5454  1.2798 -1.9396
 6268SOL     OW20244   1.910   0.499   1.352 -0.0402  0.2619 -0.3780
 6268SOL    HW120245   2.000   0.510   1.322  0.4431  0.0713  0.9153
 6268SOL    HW220246   1.861   0.569   1.309  1.1681  1.7322  0.5391
 6269SOL     OW20247   4.063   3.995   1.763  0.4489  0.0887  0.1120
 6269SOL    HW120248   4.088   4.037   1.680  0.7227 -0.0571  0.1208
 6269SOL    HW220249   3.988   3.940   1.740  0.5177  0.0566 -0.0390
 6270SOL     OW20250   1.872   1.031   0.836  0.3141 -0.1585 -0.6600
 6270SOL    HW120251   1.957   1.007   0.798  0.9049  3.1068 -1.6646
 6270SOL    HW220252   1.808   0.997   0.774  1.0503  0.1786 -1.6234
 6271SOL     OW20253   1.488   1.631   1.054 -0.2094  0.3694  0.1659
 6271SOL    HW120254   1.555   1.661   0.993 -0.2772  0.5665  0.1865
 6271SOL    HW220255   1.525   1.648   1.141  0.1009 -0.3779  0.1942
 6272SOL     OW20256   1.340   7.184   1.521 -0.3024  0.7133 -0.7215
 6272SOL    HW120257   1.279   7.213   1.589 -0.6613 -1.4814 -0.0054
 6272SOL    HW220258   1.284   7.164   1.446 -0.7689 -2.3042  0.2675
 6273SOL     OW20259   2.733   2.096   1.502 -0.2578 -0.4274  1.1076
 6273SOL    HW120260   2.715   2.016   1.453 -0.2997 -0.8787  1.8474
 6273SOL    HW220261   2.819   2.124   1.470 -0.0925 -0.9501  1.0726
 6274SOL     OW20262   1.648   1.746   0.355  0.0081 -0.5313  0.5778
 6274SOL    HW120263   1.664   1.831   0.396 -1.9974  0.9253 -1.4231
 6274SOL    HW220264   1.715   1.739   0.288  0.2170 -0.5521  0.7884
 6275SOL     OW20265   2.139   1.296   0.678  0.0741 -0.0947  0.1454
 6275SOL    HW120266   2.159   1.321   0.588  0.8074 -0.1260  0.2908
 6275SOL    HW220267   2.044   1.296   0.683  0.0314  0.9997 -0.3316
 6276SOL     OW20268   3.765   0.945   2.067  0.1478 -0.4681  0.2837
 6276SOL    HW120269   3.753   0.854   2.042 -0.4490 -0.4986  0.6511
 6276SOL    HW220270   3.768   0.993   1.984 -3.3381 -0.3695  0.0451
 6277SOL     OW20271   1.314   0.872   0.458 -0.1993  0.1760 -0.1322
 6277SOL    HW120272   1.236   0.922   0.483  0.1649  0.5973  0.1916
 6277SOL    HW220273   1.326   0.810   0.530  0.2016  0.6288  0.1957
 6278SOL     OW20274   2.490   1.350   0.280  0.7338  0.1560 -1.2175
 6278SOL    HW120275   2.535   1.353   0.196  0.6806  2.7282 -1.2489
 6278SOL    HW220276   2.430   1.425   0.278 -0.4509 -0.6787  0.4944
 6279SOL     OW20277   5.828   1.910   0.285 -0.4469  0.2108  0.5002
 6279SOL    HW120278   5.922   1.903   0.300 -0.4798  0.3389  0.7832
 6279SOL    HW220279   5.789   1.849   0.348 -0.6445  1.6037  1.8059
 6280SOL     OW20280   3.757   1.106   1.247  0.3119  0.3429 -0.0710
 6280SOL    HW120281   3.740   1.195   1.276 -0.6661  0.2480 -0.3242
 6280SOL    HW220282   3.814   1.069   1.315 -0.1559  0.8245  0.5973
 6281SOL     OW20283   2.867   2.786   1.204 -0.3392 -0.4516  0.3290
 6281SOL    HW120284   2.866   2.810   1.112 -3.5095 -1.6237 -0.0804
 6281SOL    HW220285   2.909   2.700   1.206 -0.2676 -0.4243 -0.0439
 6282SOL     OW20286   5.748   1.556  11.851  0.6020  0.1396 -0.5206
 6282SOL    HW120287   5.704   1.638  11.828 -0.5469  0.3668  2.1348
 6282SOL    HW220288   5.707   1.491  11.793  0.2206  1.1135 -1.3948
 6283SOL     OW20289   1.293   1.668   2.905 -0.2340 -0.0099  0.0436
 6283SOL    HW120290   1.313   1.598   2.843  1.5830  0.3353  0.1558
 6283SOL    HW220291   1.306   1.749   2.856 -0.7692  0.2594  0.3340
 6284SOL     OW20292   1.815   1.810   1.898  0.2597  0.8223  0.0836
 6284SOL    HW120293   1.793   1.753   1.971  0.3770  0.9919  0.2524
 6284SOL    HW220294   1.910   1.820   1.903  0.3066  0.5754 -0.2850
 6285SOL     OW20295   3.479   6.854   2.198  0.1442  0.0324 -0.1340
 6285SOL    HW120296   3.435   6.933   2.167 -0.0040  0.0009 -0.0056
 6285SOL    HW220297   3.499   6.872   2.290  0.3638  0.0302 -0.1809
 6286SOL     OW20298   1.234   6.529   2.214  0.0471  0.4418 -0.4033
 6286SOL    HW120299   1.310   6.529   2.272  0.1105  0.1076 -0.4834
 6286SOL    HW220300   1.176   6.462   2.250 -0.7899  1.5715  0.4029
 6287SOL     OW20301   1.421   0.070   2.564 -0.1483  0.1609 -0.5738
 6287SOL    HW120302   1.486   0.062   2.633 -2.0507  0.0275  1.3172
 6287SOL    HW220303   1.404  -0.021   2.537  1.1870  0.2632 -1.8625
 6288SOL     OW20304   3.698   0.938   0.223  0.2024 -0.0491 -0.1734
 6288SOL    HW120305   3.718   0.984   0.304  1.5670  0.1685 -0.6085
 6288SOL    HW220306   3.739   0.852   0.233 -0.3017 -0.3088 -0.3153
 6289SOL     OW20307   1.857   1.717   0.951  0.2040  0.9238 -0.4106
 6289SOL    HW120308   1.947   1.745   0.968  0.2243 -1.1305  4.1956
 6289SOL    HW220309   1.803   1.789   0.983  0.2281  0.7958 -0.0794
 6290SOL     OW20310   3.413   2.041   2.278  0.4124 -0.1907 -0.2657
 6290SOL    HW120311   3.360   2.070   2.353  1.1793  1.6105 -0.3715
 6290SOL    HW220312   3.351   2.036   2.206  0.3232  1.8620 -0.3807
 6291SOL     OW20313   3.248   1.336   1.239  0.5671 -0.3831 -0.5252
 6291SOL    HW120314   3.296   1.307   1.162  2.2008  2.0753 -0.5435
 6291SOL    HW220315   3.277   1.426   1.253 -2.2339  0.4075  0.9732
 6292SOL     OW20316   2.881   0.732   1.934  0.2016  0.4028  0.0679
 6292SOL    HW120317   2.866   0.661   1.997  2.0410 -0.3006 -0.2236
 6292SOL    HW220318   2.885   0.811   1.987 -0.7602  0.1660  0.5230
 6293SOL     OW20319   2.783   0.735   1.367 -0.1613  0.0813  0.1991
 6293SOL    HW120320   2.824   0.685   1.297  2.0725 -0.7193  1.9776
 6293SOL    HW220321   2.713   0.678   1.400  2.6893 -2.3979  2.5701
 6294SOL     OW20322   2.188   0.858   0.982 -0.3520 -0.1700 -0.1420
 6294SOL    HW120323   2.268   0.884   0.936  1.6414 -0.9648  2.6411
 6294SOL    HW220324   2.187   0.762   0.976 -3.1054 -0.1369 -3.0815
 6295SOL     OW20325   2.209   7.593   1.129  0.1435  0.2658  0.1105
 6295SOL    HW120326   2.181   7.533   1.060  2.0148  0.2075 -0.6424
 6295SOL    HW220327   2.140   7.588   1.195 -0.6277 -1.3111 -0.7828
 6296SOL     OW20328   4.030   3.416   0.108  0.9504  0.1972 -0.0068
 6296SOL    HW120329   3.971   3.400   0.181  1.2229 -1.7575 -0.1604
 6296SOL    HW220330   3.972   3.444   0.036  0.4453  0.2059  0.3965
 6297SOL     OW20331   4.681   0.396   0.762 -0.1881  0.3576 -0.2001
 6297SOL    HW120332   4.723   0.457   0.822 -0.2340 -0.8431  1.1026
 6297SOL    HW220333   4.754   0.352   0.718  0.0061 -1.4367  1.7669
 6298SOL     OW20334   3.622   0.783   2.904 -0.2441 -0.5778 -0.3902
 6298SOL    HW120335   3.611   0.838   2.827 -2.9695 -0.0764  0.2442
 6298SOL    HW220336   3.552   0.812   2.964  0.9784 -1.8036  1.7411
 6299SOL     OW20337   2.728   0.391   2.295  0.0851 -0.7114  0.3363
 6299SOL    HW120338   2.713   0.406   2.388 -1.6549  1.0212 -0.1740
 6299SOL    HW220339   2.641   0.383   2.257  0.6991  0.2574 -1.3825
 6300SOL     OW20340   2.119   1.008   3.659  0.2524  0.2820  0.0756
 6300SOL    HW120341   2.204   1.044   3.633 -1.1551  3.3810 -0.7460
 6300SOL    HW220342   2.078   0.982   3.577  0.3088 -1.0318  0.4488
 6301SOL     OW20343   4.158   1.156   1.092 -0.4764  0.3146 -0.0967
 6301SOL    HW120344   4.067   1.157   1.065 -0.0231  1.6203 -1.7478
 6301SOL    HW220345   4.174   1.244   1.126 -0.2348 -0.4080  1.8225
 6302SOL     OW20346   3.558   0.512   0.845 -0.3724 -0.5154 -0.1099
 6302SOL    HW120347   3.628   0.500   0.909  0.8894 -0.3745 -1.4344
 6302SOL    HW220348   3.556   0.607   0.830 -1.4278 -0.4120  0.5082
 6303SOL     OW20349   2.711   1.537   0.589 -0.3567  0.6869 -0.7211
 6303SOL    HW120350   2.623   1.512   0.618 -1.0039  0.4299 -2.7532
 6303SOL    HW220351   2.700   1.562   0.497  1.9419 -0.8482 -1.5016
 6304SOL     OW20352   2.237   0.021  10.919 -0.1161  0.0304 -0.5783
 6304SOL    HW120353   2.148   0.054  10.931  0.0349  0.0779  0.4906
 6304SOL    HW220354   2.226  -0.066  10.882 -0.6443 -0.2991  0.3196
 6305SOL     OW20355   3.940   0.579   1.777  0.2899 -0.2234  0.6124
 6305SOL    HW120356   4.033   0.571   1.798  0.3455  0.3335  0.6155
 6305SOL    HW220357   3.895   0.523   1.841  0.6668 -1.0634  0.1472
 6306SOL     OW20358   3.286   0.063   2.180 -0.8050 -0.5738 -0.1107
 6306SOL    HW120359   3.266   0.151   2.212 -0.2331 -0.7166  0.6792
 6306SOL    HW220360   3.379   0.051   2.200 -0.8071 -1.2485 -0.4770
 6307SOL     OW20361   3.365   1.052   1.833 -0.2317 -0.0565  0.6114
 6307SOL    HW120362   3.341   1.056   1.740  0.0225 -0.9047  0.4972
 6307SOL    HW220363   3.419   1.129   1.847  0.2982 -0.2816 -0.1298
 6308SOL     OW20364   1.689   0.446   1.154  0.6975 -0.4952  0.2672
 6308SOL    HW120365   1.732   0.495   1.084 -1.4447  1.5638  0.2456
 6308SOL    HW220366   1.730   0.360   1.153  1.2250 -0.3155 -3.0615
 6309SOL     OW20367   2.656   2.463   1.508  0.3318 -0.2482 -0.1939
 6309SOL    HW120368   2.730   2.445   1.565  0.6349 -1.4467 -0.9163
 6309SOL    HW220369   2.584   2.412   1.546  0.4595 -0.8162 -0.6936
 6310SOL     OW20370   4.162   7.980   2.300  0.2925 -0.5164 -0.2439
 6310SOL    HW120371   4.154   8.075   2.294 -0.0322 -0.4197  1.2313
 6310SOL    HW220372   4.188   7.952   2.212  2.3316  1.1076 -0.2249
 6311SOL     OW20373   1.766   0.495   2.776 -0.6350  0.0691 -0.0098
 6311SOL    HW120374   1.700   0.486   2.708 -2.4530  0.2018  1.6306
 6311SOL    HW220375   1.803   0.408   2.786  0.5874  0.3040 -1.9772
 6312SOL     OW20376   6.140   6.739   3.320  0.1625 -0.2703  0.3473
 6312SOL    HW120377   6.130   6.671   3.387 -1.5561 -2.8202 -2.2627
 6312SOL    HW220378   6.160   6.690   3.240 -3.0263  2.0706 -2.1111
 6313SOL     OW20379   4.110   1.726   3.443 -0.0540 -0.0251 -0.8171
 6313SOL    HW120380   4.085   1.748   3.533 -1.3139  2.2023 -1.6308
 6313SOL    HW220381   4.206   1.726   3.445 -0.0451  0.9799  0.3259
 6314SOL     OW20382   3.601   1.844   1.084 -0.0708 -0.3222 -0.3702
 6314SOL    HW120383   3.618   1.932   1.050 -0.1228 -0.4040 -0.6094
 6314SOL    HW220384   3.622   1.786   1.011  0.8586 -0.5668  0.0795
 6315SOL     OW20385   1.615   7.561   0.684  0.1165  0.2475  0.6407
 6315SOL    HW120386   1.617   7.487   0.744 -1.6877 -0.5600 -0.2251
 6315SOL    HW220387   1.627   7.523   0.598  1.8069  1.2992  0.3658
 6316SOL     OW20388   3.183   1.532   2.742 -0.1553  0.0128  0.0974
 6316SOL    HW120389   3.207   1.491   2.659 -1.3816 -1.4438  0.4273
 6316SOL    HW220390   3.130   1.467   2.787 -1.6382  1.7096  0.9520
 6317SOL     OW20391   3.909   7.002  11.756 -0.3858 -0.0953 -0.1551
 6317SOL    HW120392   3.883   7.081  11.710 -0.9844 -0.6714 -0.8350
 6317SOL    HW220393   3.969   7.032  11.824 -0.7512  0.9557 -0.2818
 6318SOL     OW20394   3.848   3.295   1.986  0.1997 -0.0521 -0.3585
 6318SOL    HW120395   3.894   3.216   2.015  0.6535  0.5534  0.6517
 6318SOL    HW220396   3.917   3.361   1.976 -0.2229  0.3406 -0.7450
 6319SOL     OW20397   3.782   0.103  12.213  0.0776 -0.7022 -0.1711
 6319SOL    HW120398   3.790   0.012  12.182  0.4672 -0.5463 -0.5350
 6319SOL    HW220399   3.834   0.154  12.151 -1.4527 -0.0141 -0.9322
 6320SOL     OW20400   4.420   1.894   1.110  0.1628  0.2328  0.0948
 6320SOL    HW120401   4.353   1.938   1.162  0.0397 -0.1152  0.2332
 6320SOL    HW220402   4.410   1.802   1.132  0.0578  0.0719 -0.6081
 6321SOL     OW20403   3.180   0.533   1.033 -0.1539  0.5564 -0.0276
 6321SOL    HW120404   3.255   0.577   1.074 -0.7398  1.3779  0.1811
 6321SOL    HW220405   3.123   0.604   1.005 -0.6974 -0.0562 -0.5063
 6322SOL     OW20406   2.610   1.154   0.498 -0.1409 -0.1071 -0.1484
 6322SOL    HW120407   2.514   1.157   0.492 -0.0371  0.1249 -2.0406
 6322SOL    HW220408   2.640   1.235   0.457  0.8882  0.0007  0.7536
 6323SOL     OW20409   3.036   0.972   1.366 -0.1725  0.9055  0.0984
 6323SOL    HW120410   3.041   0.878   1.380 -0.2320  0.8620 -0.1768
 6323SOL    HW220411   3.085   0.988   1.286 -1.0143  0.9747 -0.4192
 6324SOL     OW20412   3.741   2.182   1.384 -0.2068  0.0376 -0.3092
 6324SOL    HW120413   3.733   2.123   1.459  0.2366  0.7768  0.3310
 6324SOL    HW220414   3.835   2.183   1.365 -0.5700 -3.0609 -3.2802
 6325SOL     OW20415   1.260   1.789   1.118  0.1849  0.4442  0.1716
 6325SOL    HW120416   1.324   1.736   1.070  0.9418  0.5626  1.0251
 6325SOL    HW220417   1.256   1.871   1.069 -0.3395 -0.0653 -0.6572
 6326SOL     OW20418   3.343   1.481   0.618 -0.2036 -0.0026 -0.9966
 6326SOL    HW120419   3.364   1.448   0.531  0.0159  0.2597 -1.0428
 6326SOL    HW220420   3.428   1.496   0.660 -0.2992 -0.9582 -0.4227
 6327SOL     OW20421   3.118   0.115   0.835  0.0604  0.2010  0.1465
 6327SOL    HW120422   3.183   0.045   0.840 -0.5125 -0.3499  0.0068
 6327SOL    HW220423   3.066   0.093   0.758 -0.4942  0.4636  0.4427
 6328SOL     OW20424   4.645   6.398  11.725 -0.4159 -0.5797  0.1882
 6328SOL    HW120425   4.550   6.407  11.728 -0.4439 -0.8828  0.3157
 6328SOL    HW220426   4.678   6.487  11.734 -0.7041 -0.3164 -1.1847
 6329SOL     OW20427   2.818   2.500   0.641  0.0312 -0.2189  0.6020
 6329SOL    HW120428   2.846   2.409   0.639  1.4511  0.2042  0.1646
 6329SOL    HW220429   2.782   2.513   0.729  2.5001 -0.4574  1.7260
 6330SOL     OW20430   2.103   0.814   2.324 -0.0301  0.4081 -0.5453
 6330SOL    HW120431   2.167   0.755   2.285 -0.7234 -1.2033  0.6579
 6330SOL    HW220432   2.156   0.873   2.378  0.5880  0.1951 -0.9045
 6331SOL     OW20433   3.657   0.269   1.588 -0.2071  0.2188  0.3794
 6331SOL    HW120434   3.570   0.308   1.598  1.1348  3.1810  1.7977
 6331SOL    HW220435   3.690   0.260   1.677  1.2617 -0.0166 -0.1500
 6332SOL     OW20436   2.681   1.146  11.938 -0.1154  0.6994 -0.1785
 6332SOL    HW120437   2.649   1.113  12.022  0.4969  0.8434  0.1185
 6332SOL    HW220438   2.634   1.228  11.924 -1.9690 -0.4392 -1.1234
 6333SOL     OW20439   2.974   0.218  11.866  0.3445  0.4393  0.0173
 6333SOL    HW120440   2.882   0.200  11.848  0.8584 -0.2606 -2.1828
 6333SOL    HW220441   2.993   0.297  11.816  1.1937 -0.0422 -0.4427
 6334SOL     OW20442   3.063   2.010   1.052 -0.2735 -0.4524 -0.5900
 6334SOL    HW120443   3.157   1.999   1.069  0.7179  1.5363 -3.6772
 6334SOL    HW220444   3.033   1.924   1.023  1.7705 -0.3119 -3.5987
 6335SOL     OW20445   4.935   7.952   2.052 -0.0014  0.5319  0.3009
 6335SOL    HW120446   5.003   8.001   2.098  0.3502  0.4259 -0.1032
 6335SOL    HW220447   4.904   7.888   2.116  0.5770  0.2999  0.3539
 6336SOL     OW20448   2.369   0.764  11.744  0.4369  0.8702  0.4205
 6336SOL    HW120449   2.362   0.784  11.651  0.4547 -0.7910  0.0175
 6336SOL    HW220450   2.462   0.773  11.764  0.4420  1.1774  0.2578
 6337SOL     OW20451   3.104   0.682  11.277  0.0662  0.2638 -0.3385
 6337SOL    HW120452   3.080   0.768  11.244 -0.6650  0.4457  0.6685
 6337SOL    HW220453   3.072   0.621  11.210  0.0498  0.7290 -0.7577
 6338SOL     OW20454   3.515   3.009   1.743 -0.1503 -0.5366 -0.4675
 6338SOL    HW120455   3.534   3.102   1.755 -0.4208 -0.6200  0.7446
 6338SOL    HW220456   3.570   2.965   1.806  1.6717 -1.4215 -2.5436
 6339SOL     OW20457   3.310   1.353   0.365  0.0847  0.1432  0.5087
 6339SOL    HW120458   3.315   1.264   0.333  0.0394  0.5343 -0.6187
 6339SOL    HW220459   3.218   1.364   0.390 -0.3663  0.4867 -1.2206
 6340SOL     OW20460   5.318   1.779   0.808  0.5570  0.3639  0.4512
 6340SOL    HW120461   5.410   1.769   0.831  0.4314 -0.8192  0.5355
 6340SOL    HW220462   5.317   1.845   0.739  1.4253  0.6581  0.7174
 6341SOL     OW20463   1.369   1.840   2.584  0.2802  0.2314 -0.3512
 6341SOL    HW120464   1.302   1.811   2.646 -0.7651  1.6664 -0.7541
 6341SOL    HW220465   1.325   1.906   2.531  1.4111 -0.3115 -2.0535
 6342SOL     OW20466   4.196   0.526   1.561 -0.5143  0.3229 -0.1636
 6342SOL    HW120467   4.218   0.565   1.646  0.9560 -0.6606 -0.0716
 6342SOL    HW220468   4.140   0.452   1.583  0.1244 -0.1210 -0.0273
 6343SOL     OW20469   4.424   1.438  12.432 -0.0868 -0.2040 -0.1956
 6343SOL    HW120470   4.401   1.526  12.401  0.8633 -0.7632 -2.7654
 6343SOL    HW220471   4.513   1.447  12.465  0.0459 -0.2012 -0.5476
 6344SOL     OW20472   2.501   7.855   1.207 -0.3470  0.1504 -0.0115
 6344SOL    HW120473   2.595   7.846   1.222 -0.0929 -0.4836 -1.7346
 6344SOL    HW220474   2.472   7.914   1.276  1.3940  0.7279  0.2960
 6345SOL     OW20475   2.999   1.667   2.227 -0.5359  0.1350  0.3784
 6345SOL    HW120476   3.050   1.746   2.206  1.9175 -0.9489  1.7560
 6345SOL    HW220477   2.961   1.686   2.313 -0.3684  0.0063  0.4810
 6346SOL     OW20478   2.930   1.149   1.896  0.4055  0.0542  0.3890
 6346SOL    HW120479   2.923   1.079   1.831 -1.3132  1.6022 -1.2002
 6346SOL    HW220480   2.974   1.220   1.850 -3.1299  2.1367 -0.0796
 6347SOL     OW20481   2.637   2.472   0.434  0.1089 -0.0986  0.7052
 6347SOL    HW120482   2.691   2.487   0.511 -0.5416  0.2344  1.0999
 6347SOL    HW220483   2.647   2.551   0.381 -1.1039  0.5996  1.4607
 6348SOL     OW20484   2.347   1.571   3.155 -0.3053 -0.2238 -0.0096
 6348SOL    HW120485   2.434   1.611   3.146 -0.2988 -0.4330 -0.9515
 6348SOL    HW220486   2.361   1.498   3.215 -0.3131  1.1349  1.7073
 6349SOL     OW20487   1.876   0.349   2.051  0.0001 -0.1029 -0.2362
 6349SOL    HW120488   1.926   0.389   2.122  0.3892  1.1712 -1.1848
 6349SOL    HW220489   1.785   0.367   2.073  0.0783 -0.2711  0.2440
 6350SOL     OW20490   1.890   1.731   1.224  0.2890 -0.0467 -0.7476
 6350SOL    HW120491   1.942   1.787   1.166  1.2730  0.1945  0.3473
 6350SOL    HW220492   1.904   1.642   1.190  0.9902  0.0738 -0.7744
 6351SOL     OW20493   2.999   0.101   0.136 -0.3934  0.1587 -0.0943
 6351SOL    HW120494   2.997   0.147   0.220  0.8813 -0.0165  0.0423
 6351SOL    HW220495   3.079   0.132   0.093 -0.8222 -0.0522 -1.0789
 6352SOL     OW20496   3.757   0.101   0.701  0.8947 -0.0158  0.3791
 6352SOL    HW120497   3.806   0.095   0.783  1.5489  1.8925  0.1605
 6352SOL    HW220498   3.816   0.145   0.641  0.0819 -0.5880 -0.8705
 6353SOL     OW20499   1.633   2.712   1.651  0.0461 -0.9656 -0.4215
 6353SOL    HW120500   1.555   2.675   1.610  0.4671 -0.3276 -1.8650
 6353SOL    HW220501   1.662   2.780   1.590  1.7660 -1.2287  0.0475
 6354SOL     OW20502   2.494   1.952   0.505 -0.5410 -0.1205  0.4759
 6354SOL    HW120503   2.480   1.927   0.414  1.4073 -2.2591  0.6896
 6354SOL    HW220504   2.475   1.873   0.555  1.5460  0.0319  1.6154
 6355SOL     OW20505   3.745   1.914   2.418  0.7719  0.1253 -0.2121
 6355SOL    HW120506   3.685   1.939   2.489 -1.3591  0.3883 -1.9922
 6355SOL    HW220507   3.733   1.820   2.410  1.0266  0.0934 -0.2042
 6356SOL     OW20508   2.701   0.467   0.108 -0.2879 -0.6231  0.1238
 6356SOL    HW120509   2.724   0.375   0.116 -0.6904 -0.6425  1.1515
 6356SOL    HW220510   2.708   0.485   0.014 -2.2157 -2.2409 -0.4170
 6357SOL     OW20511   2.616   0.886   2.110 -0.2904 -0.6671  0.6654
 6357SOL    HW120512   2.706   0.867   2.084 -0.5759 -2.6860  0.9201
 6357SOL    HW220513   2.604   0.979   2.092  1.4139 -0.6488 -0.6257
 6358SOL     OW20514   4.446   1.290   1.999 -0.0520  0.2056  0.1288
 6358SOL    HW120515   4.528   1.250   2.029 -0.3909  0.5520  1.6265
 6358SOL    HW220516   4.420   1.238   1.923  1.5913  0.1511 -0.4430
 6359SOL     OW20517   3.619   0.235   1.169 -0.1998 -0.2205  0.1040
 6359SOL    HW120518   3.658   0.321   1.154 -0.8294  0.4221  1.8832
 6359SOL    HW220519   3.635   0.187   1.088  1.0359  1.2330 -0.5633
 6360SOL     OW20520   2.397   1.412   0.933  0.0241  0.3303  0.1123
 6360SOL    HW120521   2.468   1.395   0.994  0.4216 -0.5926 -0.5820
 6360SOL    HW220522   2.338   1.337   0.944 -0.4444  0.7026  0.1378
 6361SOL     OW20523   3.618   6.124   3.462 -0.2661 -0.9587 -0.1557
 6361SOL    HW120524   3.530   6.098   3.433 -1.0835  0.9358  0.4975
 6361SOL    HW220525   3.657   6.168   3.387 -0.0667 -1.2952 -0.2559
 6362SOL     OW20526   1.753   0.021   1.564 -0.0869 -0.0114  0.1308
 6362SOL    HW120527   1.704   0.048   1.642 -0.3308 -1.6187  0.5832
 6362SOL    HW220528   1.698   0.049   1.491  0.3953  1.9862  0.4878
 6363SOL     OW20529   1.947   2.342  11.772 -0.0046  0.4110 -0.0967
 6363SOL    HW120530   1.872   2.330  11.829 -2.1291  0.0944 -2.7523
 6363SOL    HW220531   2.009   2.273  11.798 -1.5698 -0.7107  0.7781
 6364SOL     OW20532   2.355   2.962   0.020  0.4831  0.6540 -0.1667
 6364SOL    HW120533   2.447   2.970  -0.006  0.9275  4.0355  1.7801
 6364SOL    HW220534   2.307   3.012  -0.047  0.6105  2.1776  0.8284
 6365SOL     OW20535   2.177   1.640   1.296  0.2903 -0.1889  0.3475
 6365SOL    HW120536   2.135   1.726   1.300  1.7214  0.5267  0.6505
 6365SOL    HW220537   2.268   1.659   1.272  1.2435 -1.3834  2.7009
 6366SOL     OW20538   2.237   1.048  12.133  0.3700  0.2614 -0.1225
 6366SOL    HW120539   2.280   0.970  12.096  1.1978  0.8627 -0.4637
 6366SOL    HW220540   2.144   1.035  12.113  0.5164 -0.5367 -0.3626
 6367SOL     OW20541   3.900   2.758  12.475  0.4254 -0.0527  0.1950
 6367SOL    HW120542   3.946   2.836  12.443 -1.3220  1.1785  0.5053
 6367SOL    HW220543   3.862   2.785  12.559  0.7759 -1.6372  0.8973
 6368SOL     OW20544   0.435   1.852   1.310 -0.2724  0.9479  0.5395
 6368SOL    HW120545   0.379   1.859   1.387 -0.4606 -0.7248  0.5827
 6368SOL    HW220546   0.468   1.763   1.313 -0.2729  0.8626 -1.3209
 6369SOL     OW20547   2.814   1.251  11.648  0.3153  0.1516 -0.1780
 6369SOL    HW120548   2.877   1.270  11.578  0.6297  3.2761  0.7861
 6369SOL    HW220549   2.747   1.319  11.639 -0.1305  0.0683  1.9848
 6370SOL     OW20550   3.649   1.231   1.825  0.1567 -0.0534  0.1508
 6370SOL    HW120551   3.730   1.231   1.876  0.2384 -0.8884  0.0373
 6370SOL    HW220552   3.653   1.311   1.773  1.8377 -1.0101 -1.2988
 6371SOL     OW20553   5.000   7.470   1.867  0.4185  0.5309 -0.6140
 6371SOL    HW120554   5.048   7.428   1.796 -0.5863 -2.2698  0.2360
 6371SOL    HW220555   5.041   7.438   1.947 -0.8325  0.6012  0.0930
 6372SOL     OW20556   4.131   7.345  11.836  0.5740 -0.4488 -0.4408
 6372SOL    HW120557   4.089   7.278  11.889 -0.1863 -0.3083 -0.8453
 6372SOL    HW220558   4.062   7.377  11.779  1.4176 -0.7227 -1.6501
 6373SOL     OW20559   4.512   0.802   3.188 -0.2690 -0.3440 -0.2255
 6373SOL    HW120560   4.559   0.884   3.174  0.0335 -0.5212 -0.2651
 6373SOL    HW220561   4.457   0.818   3.264 -2.2474  0.7888 -1.7830
 6374SOL     OW20562   2.420   0.199   3.277  0.1606 -0.5682 -0.7827
 6374SOL    HW120563   2.464   0.177   3.359 -0.0701 -1.8618 -0.9828
 6374SOL    HW220564   2.467   0.276   3.244  1.0937 -0.8321 -0.1021
 6375SOL     OW20565   2.449   7.933   0.886 -0.2578  0.3305 -0.7636
 6375SOL    HW120566   2.496   7.870   0.833 -0.2734  0.7959 -1.3385
 6375SOL    HW220567   2.454   7.899   0.975 -0.1668 -0.4150 -1.0517
 6376SOL     OW20568   4.146   7.662   2.186  0.1151 -0.0935 -0.2416
 6376SOL    HW120569   4.183   7.745   2.155 -2.1648  1.0387 -0.1845
 6376SOL    HW220570   4.207   7.631   2.253 -0.2105  2.9000  1.6179
 6377SOL     OW20571   2.152   7.395   1.909 -0.0548  0.2055  0.3541
 6377SOL    HW120572   2.156   7.364   1.999  0.7762 -2.8139 -0.5782
 6377SOL    HW220573   2.199   7.327   1.859  1.2438  2.7272 -2.1161
 6378SOL     OW20574   2.499   3.452   1.716 -0.6746 -0.4954 -1.0535
 6378SOL    HW120575   2.576   3.398   1.696 -1.2178 -1.5188 -0.4589
 6378SOL    HW220576   2.434   3.424   1.652 -0.6701  0.1392 -1.3449
 6379SOL     OW20577   2.417   2.234   0.394  0.1006 -0.7575  0.6488
 6379SOL    HW120578   2.462   2.149   0.391  0.6155 -0.5128  1.4527
 6379SOL    HW220579   2.484   2.296   0.420 -0.3245 -0.1216  0.2399
 6380SOL     OW20580   3.868   0.476   1.507  0.3594 -0.3509  0.1406
 6380SOL    HW120581   3.815   0.403   1.539  0.6231 -0.3471  0.6003
 6380SOL    HW220582   3.845   0.548   1.566  0.1210 -0.0654 -0.2919
 6381SOL     OW20583   1.839   1.959   0.494 -0.5933 -0.1163 -0.0350
 6381SOL    HW120584   1.863   2.042   0.535 -0.4783  0.1175 -0.5600
 6381SOL    HW220585   1.887   1.959   0.410 -1.2794 -0.3058 -0.4351
 6382SOL     OW20586   3.793   1.209  12.495  0.2753  0.2657  0.2044
 6382SOL    HW120587   3.727   1.241  12.556  0.2753  1.6277 -0.4594
 6382SOL    HW220588   3.851   1.284  12.481  0.2932 -0.0055 -1.4234
 6383SOL     OW20589   1.392   1.760   1.391 -0.0218  0.1953  0.2800
 6383SOL    HW120590   1.318   1.791   1.340  0.1569  1.8585  0.9550
 6383SOL    HW220591   1.468   1.775   1.335  0.2745  2.8276  1.2471
 6384SOL     OW20592   3.466   1.531   1.210 -0.7737  0.1901 -0.5162
 6384SOL    HW120593   3.437   1.556   1.122 -0.6523  0.1137 -0.5781
 6384SOL    HW220594   3.401   1.570   1.268 -0.1473  1.3587 -0.5651
 6385SOL     OW20595   1.658   0.294   1.757  0.0132 -0.1224 -0.0470
 6385SOL    HW120596   1.730   0.283   1.694  2.8184 -0.2090  2.9173
 6385SOL    HW220597   1.629   0.205   1.776 -1.3129 -0.0674 -1.5806
 6386SOL     OW20598   1.640   7.624   2.593  0.1909  0.8244 -0.5278
 6386SOL    HW120599   1.617   7.642   2.502  0.8493  1.5260 -0.5607
 6386SOL    HW220600   1.702   7.693   2.617 -0.8303  1.3405  0.8115
 6387SOL     OW20601   1.547   1.501   1.771 -0.1382  0.6013  0.2371
 6387SOL    HW120602   1.479   1.453   1.725 -0.9325  1.9667 -0.0822
 6387SOL    HW220603   1.561   1.452   1.852 -1.5182  0.2992  0.3105
 6388SOL     OW20604   0.934   0.264   3.549  0.3412  0.5222  0.1072
 6388SOL    HW120605   0.876   0.201   3.590 -0.5708  1.2576 -0.0267
 6388SOL    HW220606   0.946   0.231   3.459 -1.7306  1.5267 -0.6031
 6389SOL     OW20607   4.944   1.947   2.879  0.0061 -0.1693  0.9227
 6389SOL    HW120608   4.921   1.931   2.787  1.2690 -0.9500  0.7213
 6389SOL    HW220609   4.948   1.860   2.918  0.0192  0.1260  1.5925
 6390SOL     OW20610   1.901   1.095   3.360  0.3450 -0.3194  0.3575
 6390SOL    HW120611   1.895   1.144   3.441 -0.8491 -0.4197  0.3475
 6390SOL    HW220612   1.994   1.072   3.352  0.4372 -0.4983  1.7907
 6391SOL     OW20613   5.471   0.552   3.053 -0.3763  0.0251 -0.2461
 6391SOL    HW120614   5.474   0.507   2.968 -2.1660 -0.6950  0.0317
 6391SOL    HW220615   5.422   0.493   3.110 -0.0529  0.9459  1.0290
 6392SOL     OW20616   2.556   1.624   2.559  0.0446 -0.2246 -0.1471
 6392SOL    HW120617   2.567   1.661   2.647  0.9809  0.1799 -0.4265
 6392SOL    HW220618   2.482   1.563   2.568 -0.7924  0.8584  0.5904
 6393SOL     OW20619   2.846   1.023   4.055 -0.3181  0.5813 -0.1600
 6393SOL    HW120620   2.782   1.022   3.983 -1.8693  1.1094  1.1616
 6393SOL    HW220621   2.828   0.942   4.103  0.7255  0.2210 -0.3655
 6394SOL     OW20622   3.233   1.297   3.161 -0.2351  0.4997  0.1727
 6394SOL    HW120623   3.306   1.238   3.179 -0.0461 -0.0026 -1.9493
 6394SOL    HW220624   3.270   1.385   3.172  0.9938  0.2767 -1.6108
 6395SOL     OW20625   2.547   1.882   3.537 -0.6378 -0.1567  0.5012
 6395SOL    HW120626   2.512   1.970   3.550 -0.9819 -0.2440  0.1816
 6395SOL    HW220627   2.473   1.824   3.553 -0.6067 -0.3500 -0.0255
 6396SOL     OW20628   2.283   0.617   2.225  0.2368  0.4838  0.3090
 6396SOL    HW120629   2.328   0.571   2.297  2.6740  0.5409 -1.0674
 6396SOL    HW220630   2.354   0.650   2.170 -1.5283  2.1984 -1.0641
 6397SOL     OW20631   3.269   2.284   2.826 -0.7094  0.4260 -0.2101
 6397SOL    HW120632   3.216   2.205   2.813  1.4379 -1.1446  0.0035
 6397SOL    HW220633   3.303   2.276   2.915  1.6348  0.1936 -1.0713
 6398SOL     OW20634   0.833   2.038   4.181 -0.4639  0.1310 -0.0149
 6398SOL    HW120635   0.910   2.094   4.177  0.0712 -0.6631 -2.0890
 6398SOL    HW220636   0.863   1.953   4.150 -2.0655 -0.3127 -0.4488
 6399SOL     OW20637   3.068   1.052   3.258 -0.0840 -0.4654  0.4149
 6399SOL    HW120638   3.004   1.019   3.194 -0.9531 -1.6479  1.8351
 6399SOL    HW220639   3.086   0.977   3.314 -0.3780  0.8687  2.3800
 6400SOL     OW20640   2.036   2.814   2.022  0.3350  0.3782 -0.7221
 6400SOL    HW120641   2.000   2.728   2.001  1.0146  0.2005 -1.2136
 6400SOL    HW220642   2.083   2.800   2.104  0.2462  0.3372 -0.6779
 6401SOL     OW20643   1.180   1.731   4.980 -0.2614 -0.6418 -0.0920
 6401SOL    HW120644   1.191   1.814   4.933  1.4429  0.1140  1.5022
 6401SOL    HW220645   1.118   1.751   5.050 -0.3414 -0.9010 -0.0866
 6402SOL     OW20646   1.993   3.415   3.386  0.3874 -0.0921 -0.3397
 6402SOL    HW120647   1.959   3.427   3.298  0.7756  1.3181 -0.3344
 6402SOL    HW220648   1.940   3.475   3.440 -0.1118 -1.2275  0.4634
 6403SOL     OW20649   1.881   0.988   2.308  0.2871 -0.1277 -0.5417
 6403SOL    HW120650   1.953   0.925   2.304 -0.5442 -1.0227 -2.5447
 6403SOL    HW220651   1.912   1.064   2.258  0.8906  0.6818  1.0018
 6404SOL     OW20652   2.777   2.012   4.800 -0.2815 -0.0547  0.1186
 6404SOL    HW120653   2.819   1.963   4.871 -0.1613  1.1382  0.8948
 6404SOL    HW220654   2.783   1.953   4.724  0.1557 -1.0967  0.9293
 6405SOL     OW20655   3.846   1.304   2.794 -0.1835  0.1538 -0.0024
 6405SOL    HW120656   3.893   1.353   2.727  0.0557 -0.3589 -0.2199
 6405SOL    HW220657   3.871   1.213   2.778  0.7157  0.1207  1.4513
 6406SOL     OW20658   3.765   1.122   3.459  0.4768 -0.2177 -0.2769
 6406SOL    HW120659   3.763   1.030   3.486 -2.8704  0.4430  2.4802
 6406SOL    HW220660   3.799   1.120   3.370 -0.4185 -4.2338 -0.7343
 6407SOL     OW20661   1.923   6.837   3.444  0.2680  0.2570  0.1876
 6407SOL    HW120662   1.909   6.901   3.375  1.0171  1.9998  1.5762
 6407SOL    HW220663   2.011   6.804   3.430  0.4033  0.5759  0.2963
 6408SOL     OW20664   3.465   0.464   3.365 -0.2276 -0.3388 -0.1871
 6408SOL    HW120665   3.494   0.535   3.422 -0.4219 -0.4146  0.0101
 6408SOL    HW220666   3.427   0.508   3.289  1.2520 -0.2400 -0.8982
 6409SOL     OW20667   2.675   3.351   2.478 -0.4198  0.1373  0.0023
 6409SOL    HW120668   2.668   3.423   2.415  1.6719 -0.0549 -0.5179
 6409SOL    HW220669   2.749   3.375   2.534 -0.4538 -1.0482  0.5899
 6410SOL     OW20670   3.991   0.241   2.620  0.6996  0.4402  0.0549
 6410SOL    HW120671   4.027   0.242   2.709  3.0509  0.5219 -0.8175
 6410SOL    HW220672   4.044   0.305   2.572 -0.3871  0.2520 -1.4748
 6411SOL     OW20673   3.540   2.262   1.723  0.5751  0.3054  0.1067
 6411SOL    HW120674   3.521   2.293   1.811  1.9089  1.4770  0.0212
 6411SOL    HW220675   3.536   2.340   1.668  1.2150 -0.1499 -0.6177
 6412SOL     OW20676   3.265   1.236   3.883 -0.0526 -0.1111  0.5841
 6412SOL    HW120677   3.175   1.267   3.873  0.4041  0.9851 -0.3432
 6412SOL    HW220678   3.257   1.142   3.899 -1.2942 -0.6612 -2.5179
 6413SOL     OW20679   4.224   0.500   2.272  0.1088 -0.7096 -0.2315
 6413SOL    HW120680   4.200   0.504   2.364 -0.7472 -0.8570 -0.4395
 6413SOL    HW220681   4.289   0.569   2.261  0.4155 -0.8711  0.5346
 6414SOL     OW20682   2.880   1.648   3.469  0.4024  0.2796 -0.7836
 6414SOL    HW120683   2.881   1.555   3.493  0.2858 -0.0761 -2.0957
 6414SOL    HW220684   2.962   1.682   3.503  1.6495 -0.8987 -2.4649
 6415SOL     OW20685   1.958   7.910   2.923 -0.6097  0.1544  0.0127
 6415SOL    HW120686   2.048   7.942   2.921 -0.1479 -0.8087  2.1393
 6415SOL    HW220687   1.967   7.815   2.931 -1.8467 -0.0529 -0.7752
 6416SOL     OW20688   2.448   2.126   4.868 -0.5206 -0.6694  0.8290
 6416SOL    HW120689   2.508   2.191   4.830 -1.1515 -0.0578  0.8647
 6416SOL    HW220690   2.504   2.071   4.922 -0.2712  1.2555  2.6692
 6417SOL     OW20691   4.633   2.388   0.095 -0.4084 -0.2097 -0.5076
 6417SOL    HW120692   4.643   2.395   0.189 -1.7989  2.2121 -0.4586
 6417SOL    HW220693   4.547   2.348   0.083  0.0318 -1.1026 -0.7800
 6418SOL     OW20694   3.568   1.133   6.021  0.3087  0.2147  0.4529
 6418SOL    HW120695   3.519   1.077   5.962  0.3927 -0.8795  1.3805
 6418SOL    HW220696   3.659   1.106   6.011  0.6110  1.4824 -0.4538
 6419SOL     OW20697   2.233   0.995   5.626 -0.7804 -0.0379 -0.2253
 6419SOL    HW120698   2.225   0.994   5.722 -0.7662 -1.3906 -0.2233
 6419SOL    HW220699   2.274   0.911   5.604 -0.0366  0.5936 -1.3680
 6420SOL     OW20700   4.324   6.998   3.201  0.9513  0.1187 -0.2053
 6420SOL    HW120701   4.395   7.001   3.265  2.2620  0.6517 -1.6225
 6420SOL    HW220702   4.281   7.084   3.210 -0.4567 -0.7038  1.6031
 6421SOL     OW20703   3.558   2.217   3.240  0.4212  0.3144 -0.0317
 6421SOL    HW120704   3.595   2.173   3.316  0.9373  0.8965  0.0713
 6421SOL    HW220705   3.622   2.202   3.170  0.2936  0.3711 -0.1613
 6422SOL     OW20706   1.853   0.461  12.308  0.0232 -0.8721 -0.1852
 6422SOL    HW120707   1.771   0.502  12.282  0.1634  0.1953  0.9883
 6422SOL    HW220708   1.826   0.385  12.360 -0.2254 -0.9357 -0.4039
 6423SOL     OW20709   2.339   1.632   4.793 -0.6313 -0.3309 -0.1818
 6423SOL    HW120710   2.376   1.614   4.879  1.4221  1.4917 -0.5973
 6423SOL    HW220711   2.358   1.553   4.742  1.6519  0.0578 -0.0110
 6424SOL     OW20712   2.002   2.225   3.185 -0.1790 -0.0922  0.2499
 6424SOL    HW120713   2.097   2.213   3.185 -0.2253 -0.7770 -1.7447
 6424SOL    HW220714   1.981   2.257   3.097 -1.6941  1.1580  1.0071
 6425SOL     OW20715   3.838   0.399   3.408 -0.5008  0.0484 -0.7629
 6425SOL    HW120716   3.807   0.329   3.465  1.7166 -2.9482 -2.9171
 6425SOL    HW220717   3.879   0.461   3.468 -3.6116  0.3144  1.3578
 6426SOL     OW20718   3.784   0.965   2.417  0.0756  0.1476  0.2361
 6426SOL    HW120719   3.869   0.952   2.459  0.0511  1.2083  0.6332
 6426SOL    HW220720   3.788   1.054   2.383  0.2294 -0.7483 -2.3396
 6427SOL     OW20721   4.028   0.477   2.996 -0.9682  0.7149  0.8727
 6427SOL    HW120722   3.933   0.487   2.998 -0.7487  3.6084  1.2842
 6427SOL    HW220723   4.055   0.520   2.915  0.0095 -0.2815  0.6444
 6428SOL     OW20724   4.027   1.278   2.436 -0.0784 -0.2346  0.5484
 6428SOL    HW120725   3.986   1.355   2.476 -0.0623 -0.0099  0.1330
 6428SOL    HW220726   4.006   1.285   2.343  1.1444  0.0402  0.2773
 6429SOL     OW20727   1.144   5.901   2.136 -0.3455  0.3672  0.1474
 6429SOL    HW120728   1.137   5.935   2.225  3.0536  0.4888  0.5132
 6429SOL    HW220729   1.159   5.979   2.082  2.4915  0.0461  0.2887
 6430SOL     OW20730   0.935   2.570   1.670  0.1035  0.0719  0.0677
 6430SOL    HW120731   0.944   2.602   1.581  0.8200 -0.0191  0.0951
 6430SOL    HW220732   1.026   2.559   1.700 -0.1310 -0.2493  0.6734
 6431SOL     OW20733   2.594   2.531   3.111  0.0710  0.1211 -0.7288
 6431SOL    HW120734   2.665   2.596   3.119 -0.3250  0.3869  0.8702
 6431SOL    HW220735   2.522   2.569   3.161 -0.4007 -1.2420 -0.3508
 6432SOL     OW20736   4.296   0.929   1.041  0.1928  0.2381  0.3602
 6432SOL    HW120737   4.232   0.999   1.057 -0.4516 -0.1092 -0.5750
 6432SOL    HW220738   4.381   0.969   1.061 -0.0276  1.7231 -1.3084
 6433SOL     OW20739   6.484   0.599   2.922 -0.2667  0.4450  0.9111
 6433SOL    HW120740   6.412   0.548   2.960 -1.1103 -0.0941 -1.2404
 6433SOL    HW220741   6.443   0.681   2.894  0.0462  0.3316  0.1042
 6434SOL     OW20742   5.162   7.736   2.805  0.4616 -0.3683 -0.7235
 6434SOL    HW120743   5.083   7.717   2.855  0.0316  2.5322 -0.1068
 6434SOL    HW220744   5.161   7.673   2.734 -1.7650 -1.1849 -0.0619
 6435SOL     OW20745   3.066   1.994   3.607  0.1537 -0.1982  0.6389
 6435SOL    HW120746   3.027   2.069   3.562  0.3472 -0.5347 -0.0970
 6435SOL    HW220747   3.135   2.032   3.661 -0.0006  0.1963  0.5651
 6436SOL     OW20748   4.433   2.412   3.516  0.2205  0.1159  0.0894
 6436SOL    HW120749   4.360   2.368   3.472  0.5240 -1.0095  0.6477
 6436SOL    HW220750   4.508   2.354   3.499  1.4014  2.0620 -1.8731
 6437SOL     OW20751   0.666   7.353   3.162  0.5312 -0.6057 -0.5172
 6437SOL    HW120752   0.617   7.433   3.183  0.7484 -0.9466  1.5330
 6437SOL    HW220753   0.604   7.282   3.181  1.2540 -0.9859  0.5206
 6438SOL     OW20754   6.009   0.143   4.453  0.1280  0.2199  0.2291
 6438SOL    HW120755   6.000   0.050   4.432  0.5188  0.5315 -1.4316
 6438SOL    HW220756   5.945   0.186   4.396  1.6010  1.1497 -0.7904
 6439SOL     OW20757   4.285   2.590   2.934  0.0950  0.2038 -0.5124
 6439SOL    HW120758   4.335   2.580   2.852  3.0989  0.7619  1.0866
 6439SOL    HW220759   4.301   2.680   2.960  0.7382 -0.4497  1.5432
 6440SOL     OW20760   2.358   0.434   1.349 -0.0605 -0.2347 -0.0490
 6440SOL    HW120761   2.277   0.479   1.324  0.1548  0.8716  1.1834
 6440SOL    HW220762   2.336   0.390   1.431  1.1247  1.7259  1.3705
 6441SOL     OW20763   3.027   1.381   3.834 -0.3067 -0.0807  0.3857
 6441SOL    HW120764   3.088   1.453   3.814 -0.6598  0.0643 -0.1928
 6441SOL    HW220765   2.947   1.425   3.861 -0.0686 -0.2769  1.4340
 6442SOL     OW20766   3.491   1.465   3.610  0.1428 -0.3406  0.1374
 6442SOL    HW120767   3.494   1.373   3.635  0.0609 -0.7151 -1.1478
 6442SOL    HW220768   3.522   1.467   3.519 -0.0294  0.8725  0.0780
 6443SOL     OW20769   5.174   2.261   3.161 -0.3408  0.3269  0.0763
 6443SOL    HW120770   5.149   2.275   3.070 -1.8180 -2.2943 -0.0255
 6443SOL    HW220771   5.092   2.263   3.209 -0.0254 -1.6414  0.7963
 6444SOL     OW20772   3.331   1.547   3.200 -0.5042 -0.5163  0.7249
 6444SOL    HW120773   3.410   1.557   3.147 -0.2381 -0.4245  1.1284
 6444SOL    HW220774   3.337   1.618   3.264  0.0535 -1.6349  1.9621
 6445SOL     OW20775   3.415   1.400   2.046 -0.0817 -0.1488  0.3258
 6445SOL    HW120776   3.376   1.484   2.069 -0.7520 -0.2983 -0.2226
 6445SOL    HW220777   3.408   1.396   1.950  0.5644 -0.5309  0.2870
 6446SOL     OW20778   2.683   0.901   4.874  0.1575  0.1402 -0.0434
 6446SOL    HW120779   2.591   0.878   4.885 -0.0468  0.8609 -0.1903
 6446SOL    HW220780   2.710   0.860   4.792 -0.2741  0.6474 -0.4417
 6447SOL     OW20781   3.082   7.250   0.781  0.2852  0.5356 -0.4175
 6447SOL    HW120782   3.159   7.202   0.753  0.3491  0.6659 -0.4636
 6447SOL    HW220783   3.116   7.328   0.826  0.2734 -1.0753  2.6600
 6448SOL     OW20784   2.425   2.201   2.559 -0.9122  0.3081 -0.2253
 6448SOL    HW120785   2.375   2.122   2.580 -1.7900  0.6148 -1.0577
 6448SOL    HW220786   2.453   2.187   2.469  1.0339 -0.1010  0.3950
 6449SOL     OW20787   3.341   1.797   3.337 -0.2517  0.3262  0.2596
 6449SOL    HW120788   3.290   1.842   3.270 -2.1387 -0.5077  1.0608
 6449SOL    HW220789   3.420   1.850   3.347 -0.2090  0.8057 -2.1344
 6450SOL     OW20790   0.361   2.902   2.251 -0.3709 -0.1648  0.8289
 6450SOL    HW120791   0.385   2.994   2.259  3.0473 -1.0398  2.1266
 6450SOL    HW220792   0.343   2.873   2.340  0.3993 -1.1826  0.6721
 6451SOL     OW20793   4.275   7.457   2.611 -0.0515 -0.0001 -0.4914
 6451SOL    HW120794   4.343   7.512   2.650  0.6261 -1.5643  0.6301
 6451SOL    HW220795   4.297   7.455   2.518  0.4637  0.8336 -0.4050
 6452SOL     OW20796   2.059   6.601   3.747  0.7946 -0.0335  0.4256
 6452SOL    HW120797   2.029   6.591   3.656  0.7153  0.2696  0.4181
 6452SOL    HW220798   2.154   6.587   3.742  1.0111  1.4192  0.0600
 6453SOL     OW20799   4.047   0.978   5.508  0.1872  0.4187 -0.0802
 6453SOL    HW120800   4.016   0.911   5.569  2.1779 -0.4860 -0.0032
 6453SOL    HW220801   3.981   1.047   5.514 -1.3940 -1.0568  0.6084
 6454SOL     OW20802   2.586   0.821   3.340  0.0298 -0.3834 -0.2628
 6454SOL    HW120803   2.639   0.763   3.285 -0.5162 -0.3128 -0.8731
 6454SOL    HW220804   2.507   0.770   3.360  0.3434 -0.5160  0.7008
 6455SOL     OW20805   3.705   0.487   3.173 -0.1583 -0.1409  0.4589
 6455SOL    HW120806   3.625   0.497   3.122  1.1427  0.9319 -1.5610
 6455SOL    HW220807   3.677   0.458   3.259 -2.8953  2.3154  0.5263
 6456SOL     OW20808   2.654   1.537   3.138 -0.3899  0.2443  0.2064
 6456SOL    HW120809   2.719   1.591   3.093 -1.3964  2.5549  1.3514
 6456SOL    HW220810   2.679   1.447   3.119  4.3838  0.8600  2.1908
 6457SOL     OW20811   4.731   0.847   3.891  0.2470 -0.5132  0.6192
 6457SOL    HW120812   4.677   0.777   3.853  0.2049 -0.7219  1.0613
 6457SOL    HW220813   4.675   0.888   3.956  0.8862 -1.2690  1.6672
 6458SOL     OW20814   2.441   6.331   1.725 -0.0437 -0.5455 -0.0459
 6458SOL    HW120815   2.505   6.334   1.654  0.2940 -1.6383  0.2022
 6458SOL    HW220816   2.492   6.312   1.803 -0.2362  1.8130  0.7539
 6459SOL     OW20817   3.380   7.900   2.801  0.1017 -0.1039 -0.0013
 6459SOL    HW120818   3.329   7.925   2.724 -0.0157 -0.0295  0.1009
 6459SOL    HW220819   3.463   7.867   2.765 -0.2494 -0.7848 -0.1995
 6460SOL     OW20820   1.503   0.776   0.880  0.5631  0.1256 -0.8172
 6460SOL    HW120821   1.536   0.838   0.946 -0.8605 -0.4559  0.4994
 6460SOL    HW220822   1.486   0.696   0.929  0.8572 -0.8252 -2.2066
 6461SOL     OW20823   1.272   7.464   0.414  0.0542 -0.6058 -0.9336
 6461SOL    HW120824   1.287   7.533   0.350 -1.5361 -0.3402 -1.0393
 6461SOL    HW220825   1.236   7.509   0.491 -0.8826 -1.2757 -0.9614
 6462SOL     OW20826   2.516   1.050   3.230 -0.0312 -0.0779  0.4703
 6462SOL    HW120827   2.519   0.969   3.281 -2.8652 -0.6739 -0.1248
 6462SOL    HW220828   2.540   1.024   3.141  0.5907  0.0840  0.5830
 6463SOL     OW20829   3.353   7.798   3.041  0.1743  0.1961 -0.1714
 6463SOL    HW120830   3.366   7.835   2.954  0.5389 -0.6174 -0.4672
 6463SOL    HW220831   3.302   7.719   3.027  1.7588 -0.9335  0.1353
 6464SOL     OW20832   3.310   1.644   2.093  0.3138  0.5791  0.1740
 6464SOL    HW120833   3.322   1.686   2.178 -0.9219  0.3334  0.4920
 6464SOL    HW220834   3.235   1.689   2.054 -1.5367 -1.7213  0.8393
 6465SOL     OW20835   2.275   2.301   3.753 -0.3744 -0.4234  0.1145
 6465SOL    HW120836   2.345   2.274   3.812 -0.6379  1.0463  1.1694
 6465SOL    HW220837   2.256   2.391   3.779  0.1408  0.6505 -2.8467
 6466SOL     OW20838   2.966   7.083   1.025 -0.6534  0.3482 -1.0742
 6466SOL    HW120839   3.056   7.083   0.992  0.0215  1.9822  0.5942
 6466SOL    HW220840   2.971   7.032   1.106 -0.6033  2.5455  0.3846
 6467SOL     OW20841   3.575   2.862   2.887  0.1326  0.3869 -0.0580
 6467SOL    HW120842   3.605   2.946   2.853  1.3672 -0.0376 -0.0495
 6467SOL    HW220843   3.581   2.871   2.982  0.2524  0.2939 -0.0565
 6468SOL     OW20844   3.331   1.819   0.864 -0.3306  0.2546  0.1439
 6468SOL    HW120845   3.339   1.724   0.877 -0.3595  0.1139 -0.8313
 6468SOL    HW220846   3.238   1.837   0.877 -1.4934 -0.7294 -4.8074
 6469SOL     OW20847   1.267   0.127   2.852 -0.3623 -0.1172  0.2476
 6469SOL    HW120848   1.323   0.113   2.928 -2.1485  0.0291  1.6843
 6469SOL    HW220849   1.326   0.156   2.783  1.3370 -0.2588  1.5760
 6470SOL     OW20850   2.587   6.584   2.433 -0.6189  0.1605  0.3993
 6470SOL    HW120851   2.550   6.626   2.510  0.4146 -0.9346  1.5404
 6470SOL    HW220852   2.526   6.513   2.413 -2.2793  1.9811 -1.4329
 6471SOL     OW20853   4.909   7.997   4.579 -0.3631  0.1824  0.2478
 6471SOL    HW120854   4.838   7.998   4.514 -0.3747 -1.2412  0.2227
 6471SOL    HW220855   4.941   7.908   4.578  1.7827  0.9110 -0.0935
 6472SOL     OW20856   3.946   1.491   2.616  0.4659 -0.3061 -0.4919
 6472SOL    HW120857   3.929   1.584   2.605  0.3727 -0.5836 -3.4991
 6472SOL    HW220858   4.034   1.487   2.655 -0.8422  0.9621  2.9638
 6473SOL     OW20859   3.977   1.815   1.871 -0.3530 -0.5677  0.2786
 6473SOL    HW120860   3.912   1.747   1.884 -1.5941  0.7819  1.4460
 6473SOL    HW220861   3.993   1.851   1.958 -0.7050  1.4728 -0.4340
 6474SOL     OW20862   2.409   1.432   2.898 -0.1955 -0.4425 -0.1099
 6474SOL    HW120863   2.383   1.376   2.971  1.9963 -1.7086 -0.2102
 6474SOL    HW220864   2.342   1.417   2.831 -2.9481  1.6523  1.9183
 6475SOL     OW20865   3.137   2.505   2.700 -0.5063 -0.1112  0.4094
 6475SOL    HW120866   3.065   2.490   2.761  0.7170  2.2980  2.6432
 6475SOL    HW220867   3.202   2.438   2.723 -0.7641 -0.3244  0.5253
 6476SOL     OW20868   4.004   1.810   0.965  0.3132  0.9555  0.1382
 6476SOL    HW120869   4.062   1.861   0.908  1.4640 -0.3246  0.1316
 6476SOL    HW220870   4.005   1.856   1.048  1.7765  0.6709  0.2965
 6477SOL     OW20871   0.519   7.910   1.987 -0.5285  0.6471  0.0553
 6477SOL    HW120872   0.586   7.976   2.008 -0.4559  0.3675  0.7554
 6477SOL    HW220873   0.456   7.956   1.931  1.2535  0.4061 -2.3143
 6478SOL     OW20874   3.007   1.140   3.576 -0.1459 -0.2010  0.3018
 6478SOL    HW120875   2.943   1.086   3.529  0.0878  0.6820 -1.0999
 6478SOL    HW220876   3.085   1.139   3.520 -0.0753  1.4318  0.3341
 6479SOL     OW20877   2.304   1.940   3.116 -0.0196 -0.0639 -0.0248
 6479SOL    HW120878   2.365   1.957   3.045  0.0030  1.8096  0.4029
 6479SOL    HW220879   2.290   2.025   3.157 -0.0108 -1.0680  2.2372
 6480SOL     OW20880   3.968   1.698   2.294 -0.1366  0.1668 -0.0605
 6480SOL    HW120881   3.957   1.789   2.267 -0.4021  0.4405  0.9240
 6480SOL    HW220882   4.059   1.692   2.323  0.3947 -0.3311 -1.6797
 6481SOL     OW20883   1.397   1.522   2.672  1.0071 -0.5928 -0.3517
 6481SOL    HW120884   1.418   1.439   2.716  0.1662 -0.8633 -0.4384
 6481SOL    HW220885   1.354   1.495   2.591 -1.3274 -0.0944  0.6316
 6482SOL     OW20886   3.768   2.265   2.577  0.6189 -0.3015  0.2759
 6482SOL    HW120887   3.703   2.210   2.535  1.4838 -1.3667  0.2995
 6482SOL    HW220888   3.842   2.207   2.595  1.8040  0.9835 -0.2372
 6483SOL     OW20889   2.343   0.131   4.446  0.5103 -0.2247 -0.2244
 6483SOL    HW120890   2.425   0.171   4.477  0.5936 -0.1128 -0.5724
 6483SOL    HW220891   2.372   0.067   4.381  0.3090  0.0145 -0.5538
 6484SOL     OW20892   1.703   3.434   3.457  0.6107  0.1821 -0.3712
 6484SOL    HW120893   1.724   3.528   3.463 -1.3092  0.6559 -0.1876
 6484SOL    HW220894   1.775   3.390   3.501  0.5369  1.7486  1.4362
 6485SOL     OW20895   0.646   1.708   3.904  0.1967  0.3414 -0.1867
 6485SOL    HW120896   0.693   1.783   3.869 -1.2089  1.0767 -0.5885
 6485SOL    HW220897   0.709   1.636   3.902  0.7891  0.8643 -2.3361
 6486SOL     OW20898   2.097   1.382   3.550 -0.4532 -0.1213  0.3399
 6486SOL    HW120899   2.016   1.333   3.567 -0.5301  0.1056  0.6423
 6486SOL    HW220900   2.068   1.472   3.537 -0.3961 -0.2754 -1.0125
 6487SOL     OW20901   2.510   0.353   2.622  0.1398 -0.4482 -0.1072
 6487SOL    HW120902   2.453   0.397   2.685 -1.7349 -0.6733 -1.5796
 6487SOL    HW220903   2.575   0.419   2.599 -0.4367  0.3372  0.4486
 6488SOL     OW20904   3.188   1.851   4.151 -0.0431 -0.3004 -0.2984
 6488SOL    HW120905   3.214   1.861   4.242 -0.2769  0.6623 -0.3286
 6488SOL    HW220906   3.265   1.814   4.108  0.8248  1.1976 -0.1148
 6489SOL     OW20907   1.642   1.224   2.606  0.2479 -0.2549  0.4041
 6489SOL    HW120908   1.708   1.291   2.591  1.6995 -1.6555  0.2725
 6489SOL    HW220909   1.670   1.150   2.552 -2.2547 -0.4157 -0.8284
 6490SOL     OW20910   0.580   1.944   4.633  0.0539 -0.1870 -0.3977
 6490SOL    HW120911   0.572   1.853   4.602 -1.0369  0.2803 -1.5883
 6490SOL    HW220912   0.639   1.986   4.571  0.0268  0.0795 -0.2451
 6491SOL     OW20913   4.024   2.642   4.105  0.1687 -0.2071  0.4184
 6491SOL    HW120914   4.030   2.608   4.016 -0.2941  0.5426  0.0913
 6491SOL    HW220915   4.105   2.691   4.118 -0.2213  0.5751  0.0119
 6492SOL     OW20916   2.706   7.223   2.348 -0.1592  0.2022 -0.3265
 6492SOL    HW120917   2.768   7.197   2.416 -1.9449  0.9324  1.7051
 6492SOL    HW220918   2.652   7.145   2.333 -0.2486  0.2642 -0.3326
 6493SOL     OW20919   1.087   1.944   3.981 -0.4047 -0.1844  0.7678
 6493SOL    HW120920   1.029   2.007   4.026 -1.7625 -0.1753 -0.8921
 6493SOL    HW220921   1.153   1.921   4.047 -0.6976  1.8929  1.8777
 6494SOL     OW20922   3.638   7.744   3.470  0.2197 -0.1543 -0.3733
 6494SOL    HW120923   3.643   7.759   3.375  1.0513  3.3232  0.0788
 6494SOL    HW220924   3.729   7.729   3.496  0.1055 -0.2685 -0.0414
 6495SOL     OW20925   3.627   7.629   2.881  0.7644 -0.3846 -0.0763
 6495SOL    HW120926   3.620   7.711   2.831  1.1054  0.6047  1.4420
 6495SOL    HW220927   3.578   7.565   2.828  2.4605  0.1703 -2.5149
 6496SOL     OW20928   1.550   7.913   2.914 -0.7370  0.0603 -0.2570
 6496SOL    HW120929   1.492   7.850   2.872  1.9546 -1.8089 -1.4048
 6496SOL    HW220930   1.630   7.911   2.863  0.6473  2.0455  1.6158
 6497SOL     OW20931   7.642   2.248   4.621 -0.2765 -0.2109  0.1905
 6497SOL    HW120932   7.672   2.259   4.711 -0.1923 -0.2028  0.1614
 6497SOL    HW220933   7.716   2.206   4.576 -0.1244  0.2598  0.0003
 6498SOL     OW20934   1.569   0.496   3.344 -0.2878 -0.4075 -0.2456
 6498SOL    HW120935   1.584   0.582   3.303 -0.5624  0.4167  1.2959
 6498SOL    HW220936   1.570   0.434   3.271  3.4980  0.4105 -1.0760
 6499SOL     OW20937   2.725   2.185   3.390  0.3378  0.1380 -0.0315
 6499SOL    HW120938   2.675   2.196   3.310  0.9703  1.3846 -0.2882
 6499SOL    HW220939   2.729   2.091   3.404 -2.0725 -0.0071  0.0252
 6500SOL     OW20940   1.915   7.678   2.408 -0.0214 -0.0778 -0.0853
 6500SOL    HW120941   1.889   7.587   2.423  1.2254 -0.1599  1.8113
 6500SOL    HW220942   1.898   7.722   2.491  2.5284  0.6394  0.1182
 6501SOL     OW20943   2.173   1.375   2.750  0.1582  0.0073  0.5252
 6501SOL    HW120944   2.106   1.418   2.802  0.4609  0.2131  0.7455
 6501SOL    HW220945   2.142   1.284   2.741 -0.4862  0.2629  0.0469
 6502SOL     OW20946   2.874   3.367   4.911  0.5695 -0.0929 -0.0336
 6502SOL    HW120947   2.851   3.347   4.820 -0.3544  0.1902  0.1332
 6502SOL    HW220948   2.957   3.413   4.905 -0.1061  1.0621 -0.8335
 6503SOL     OW20949   3.715   2.324   3.515 -0.1333 -0.1604 -0.4610
 6503SOL    HW120950   3.727   2.364   3.601  1.4762 -0.4382 -0.5291
 6503SOL    HW220951   3.711   2.397   3.454  1.5813 -0.0314 -0.4507
 6504SOL     OW20952   2.446   0.829   4.934 -0.1104 -0.3065 -0.0702
 6504SOL    HW120953   2.409   0.841   4.847 -0.0948  0.5403  0.0389
 6504SOL    HW220954   2.484   0.741   4.932  2.1092  0.6058 -1.7347
 6505SOL     OW20955   0.659   7.650   3.630 -0.0005 -0.1710  0.5779
 6505SOL    HW120956   0.659   7.676   3.538 -2.1335 -0.9136  0.3177
 6505SOL    HW220957   0.612   7.566   3.632  1.1920 -0.8693  2.1835
 6506SOL     OW20958   4.470   0.449   1.576  0.6291 -0.0095  0.5657
 6506SOL    HW120959   4.406   0.492   1.520 -0.9839 -2.6296  0.2498
 6506SOL    HW220960   4.554   0.484   1.546 -0.4104  1.0880 -1.2711
 6507SOL     OW20961   3.017   0.997   3.796 -0.1354 -0.3846  0.3538
 6507SOL    HW120962   2.937   1.019   3.845 -0.6490 -0.2151 -0.5406
 6507SOL    HW220963   3.011   1.050   3.716  1.5500  0.6669  0.8774
 6508SOL     OW20964   4.608   1.338   3.175  0.6660  0.8656  0.0795
 6508SOL    HW120965   4.519   1.371   3.164  0.7247  0.9431 -0.1782
 6508SOL    HW220966   4.630   1.357   3.266 -0.0620 -0.3353  0.5328
 6509SOL     OW20967   3.866   2.761   2.612  0.0257  0.5624  0.0229
 6509SOL    HW120968   3.954   2.748   2.647  0.3072 -0.5063 -0.9909
 6509SOL    HW220969   3.808   2.722   2.677  0.4136 -0.0186  0.0262
 6510SOL     OW20970   2.443   1.087   4.527 -0.6758 -0.3501  0.1887
 6510SOL    HW120971   2.522   1.135   4.552 -1.5090  0.5083  1.2495
 6510SOL    HW220972   2.463   1.053   4.440  0.6919  0.2322  0.2452
 6511SOL     OW20973   1.889   0.144   3.086  0.4094  0.2535  0.4862
 6511SOL    HW120974   1.875   0.124   3.179  0.0982 -0.1799  0.3458
 6511SOL    HW220975   1.901   0.059   3.044 -1.4679  0.2830 -0.1984
 6512SOL     OW20976   2.631   1.821   0.841 -0.0682  0.4571  0.5567
 6512SOL    HW120977   2.718   1.787   0.818  0.5834  0.6410  2.5928
 6512SOL    HW220978   2.579   1.809   0.761  1.8748  0.5669 -0.7922
 6513SOL     OW20979   1.549   1.520   1.362  0.3983 -0.0131  0.1298
 6513SOL    HW120980   1.530   1.614   1.366  2.2444  0.3618  1.8663
 6513SOL    HW220981   1.632   1.515   1.314 -0.7207 -1.0145 -1.8430
 6514SOL     OW20982   0.679   7.777   2.631  0.0460  0.0702 -0.1880
 6514SOL    HW120983   0.603   7.812   2.584 -0.7063 -1.8852 -0.5280
 6514SOL    HW220984   0.670   7.682   2.623  1.3391 -0.2504  1.6876
 6515SOL     OW20985   2.268   2.503   5.202  0.5080 -0.0262 -0.1177
 6515SOL    HW120986   2.216   2.579   5.229  0.3008 -0.0505 -0.4482
 6515SOL    HW220987   2.333   2.538   5.140  2.2235  0.3762  1.7891
 6516SOL     OW20988   3.392   2.752   4.582 -0.1783 -0.5959 -0.0889
 6516SOL    HW120989   3.474   2.779   4.541 -0.3064 -0.7280 -0.4298
 6516SOL    HW220990   3.383   2.811   4.658  0.3713 -0.7680  0.1130
 6517SOL     OW20991   1.932   7.439   2.793 -0.6308 -0.0955  0.1991
 6517SOL    HW120992   1.930   7.382   2.870 -0.0735 -0.4899 -0.0741
 6517SOL    HW220993   1.890   7.387   2.724  0.9718 -0.6732 -0.3719
 6518SOL     OW20994   2.833   7.406   2.960 -0.2318  0.3845  0.3158
 6518SOL    HW120995   2.828   7.477   2.896 -0.7593 -0.8220 -1.0297
 6518SOL    HW220996   2.786   7.440   3.037 -1.9016  0.9094 -0.8825
 6519SOL     OW20997   2.158   4.171   3.663 -0.2944 -0.2296 -0.6057
 6519SOL    HW120998   2.196   4.174   3.576  0.2582 -0.2824 -0.3732
 6519SOL    HW220999   2.189   4.089   3.701 -0.1241  0.0186 -0.1880
 6520SOL     OW21000   2.336   2.272   2.861 -0.1229 -0.1207  0.2923
 6520SOL    HW121001   2.317   2.357   2.903 -0.3616  0.5623 -1.1327
 6520SOL    HW221002   2.250   2.235   2.843 -0.0624  0.2167 -0.7706
 6521SOL     OW21003   2.994   0.671   2.910 -0.1688  0.0220 -0.7253
 6521SOL    HW121004   3.062   0.736   2.891 -0.8590  1.3594  1.0249
 6521SOL    HW221005   3.037   0.606   2.966 -0.2104  0.7301  0.1680
 6522SOL     OW21006   3.921   1.518   3.606 -0.1040  0.2070 -0.1420
 6522SOL    HW121007   3.971   1.498   3.527 -1.9160  0.8458 -1.5169
 6522SOL    HW221008   3.914   1.614   3.606  0.2843  0.2469  1.0677
 6523SOL     OW21009   7.273   0.758   3.722  0.4108  0.3782  0.6740
 6523SOL    HW121010   7.310   0.766   3.633  1.0168 -1.0935  0.7667
 6523SOL    HW221011   7.347   0.776   3.780  0.0413  1.2235  0.9077
 6524SOL     OW21012   3.016   1.362   2.854  0.4954  0.1544  0.1551
 6524SOL    HW121013   3.060   1.357   2.938  1.2086  0.9423 -0.1539
 6524SOL    HW221014   2.924   1.378   2.875  0.4491 -0.8596  0.7905
 6525SOL     OW21015   0.102   6.992   1.600  0.4365  0.3284  0.2931
 6525SOL    HW121016   0.026   6.975   1.655 -0.2471 -1.3022 -1.0535
 6525SOL    HW221017   0.113   7.087   1.602  0.1281  0.3872  2.7550
 6526SOL     OW21018   3.704   2.437   3.947  0.4023  0.6608 -0.1324
 6526SOL    HW121019   3.618   2.475   3.962  0.0353 -0.6270  1.2951
 6526SOL    HW221020   3.738   2.420   4.034  1.1484 -0.8979 -0.6889
 6527SOL     OW21021   1.699   0.906   3.974 -0.4398 -0.1798 -0.2411
 6527SOL    HW121022   1.738   0.989   3.947  1.7642 -1.5339 -1.5221
 6527SOL    HW221023   1.656   0.872   3.895 -2.5138  0.2799  0.6084
 6528SOL     OW21024   3.076   6.192   2.236  0.4228 -0.3032  0.0684
 6528SOL    HW121025   3.130   6.216   2.160 -1.1748 -0.1791 -1.0922
 6528SOL    HW221026   3.056   6.100   2.223 -2.2528  0.3526 -1.3443
 6529SOL     OW21027   3.651   2.030   4.410  0.4929  0.0291 -0.3141
 6529SOL    HW121028   3.666   2.107   4.464  0.4327 -0.9289  1.1239
 6529SOL    HW221029   3.568   1.994   4.441 -0.1827  0.1046 -1.8908
 6530SOL     OW21030   3.743   0.668   2.026  0.0851  0.0982  0.1464
 6530SOL    HW121031   3.751   0.609   2.100 -0.4680  2.2640  2.0337
 6530SOL    HW221032   3.648   0.681   2.015  0.1311 -0.5465 -1.2705
 6531SOL     OW21033   0.635   1.219   3.539 -0.0089  0.4311 -0.0811
 6531SOL    HW121034   0.703   1.160   3.506  0.3784  1.0983 -0.5057
 6531SOL    HW221035   0.636   1.292   3.477  0.3680  1.4703  1.1130
 6532SOL     OW21036   3.506   7.468   2.703 -0.2606 -0.1504  0.2062
 6532SOL    HW121037   3.462   7.492   2.620 -0.7577 -0.8996  0.2457
 6532SOL    HW221038   3.536   7.379   2.689  0.4923  0.0493  0.5093
 6533SOL     OW21039   3.137   7.752   1.912 -0.6550  0.1672 -0.3871
 6533SOL    HW121040   3.055   7.756   1.863 -0.5397  0.8186 -0.5374
 6533SOL    HW221041   3.111   7.763   2.003 -0.7644  0.1177 -0.4127
 6534SOL     OW21042   5.695   7.907   1.936  0.1045 -0.0389  0.4290
 6534SOL    HW121043   5.754   7.976   1.907  1.5011 -0.4189  2.2160
 6534SOL    HW221044   5.609   7.949   1.937  0.4696  0.8339 -1.2041
 6535SOL     OW21045   1.326   0.997   4.317  0.3663 -0.0886 -0.0617
 6535SOL    HW121046   1.256   0.962   4.372  1.1378 -0.6655  0.5855
 6535SOL    HW221047   1.281   1.047   4.249 -0.6491 -0.0681  0.6010
 6536SOL     OW21048   7.924   1.398   3.158 -0.2403  0.0198 -0.3147
 6536SOL    HW121049   7.972   1.468   3.204 -0.7905  1.7609 -2.2318
 6536SOL    HW221050   7.975   1.319   3.176  1.2617  1.1553  0.7328
 6537SOL     OW21051   2.187   7.106   3.920 -0.2564 -0.3425  0.3961
 6537SOL    HW121052   2.181   7.042   3.991  0.6438 -2.6548 -1.4776
 6537SOL    HW221053   2.243   7.065   3.855 -1.3855  1.4682 -1.8727
 6538SOL     OW21054   2.365   0.877   4.701 -0.2725 -0.2181 -0.0284
 6538SOL    HW121055   2.390   0.961   4.664  0.0475  0.5428  1.7777
 6538SOL    HW221056   2.296   0.844   4.643 -0.8085  1.5490 -0.4635
 6539SOL     OW21057   4.096   0.534   3.415  0.0607  0.3160  0.7387
 6539SOL    HW121058   4.146   0.559   3.337 -1.4057 -0.3471 -0.4520
 6539SOL    HW221059   4.104   0.439   3.419 -1.0445  0.2009  0.5481
 6540SOL     OW21060   2.519   3.804   4.355 -0.0843 -0.1422  0.1259
 6540SOL    HW121061   2.599   3.851   4.332  2.2490 -3.8917 -0.2435
 6540SOL    HW221062   2.538   3.764   4.440 -0.6829 -2.7232 -0.8491
 6541SOL     OW21063   3.224   1.165   2.074 -0.7916 -0.4218  0.1212
 6541SOL    HW121064   3.253   1.254   2.056  0.1922 -0.4438  1.4933
 6541SOL    HW221065   3.251   1.115   1.998 -2.0827  0.5698 -1.0488
 6542SOL     OW21066   3.169   0.798   4.810 -0.0611 -0.2960 -0.1316
 6542SOL    HW121067   3.124   0.831   4.887 -0.2868  0.5184 -0.5924
 6542SOL    HW221068   3.221   0.873   4.779  2.3030 -1.4336  0.8633
 6543SOL     OW21069   2.337   2.501   2.584  0.1851  0.2855  0.0872
 6543SOL    HW121070   2.358   2.483   2.493  1.8728 -1.0710  0.6857
 6543SOL    HW221071   2.253   2.456   2.599 -0.0325  0.4049 -0.7460
 6544SOL     OW21072   3.062   2.632   5.037  0.6221 -0.7696  0.0104
 6544SOL    HW121073   3.057   2.703   5.101  0.6901 -1.3166  0.6334
 6544SOL    HW221074   3.151   2.638   5.002  0.6623 -0.6094  0.1361
 6545SOL     OW21075   3.000   6.973   4.351  0.2068  0.5018 -0.6723
 6545SOL    HW121076   2.929   7.036   4.364  1.6824  2.6257 -2.2635
 6545SOL    HW221077   3.077   7.026   4.333  1.6784 -1.7659 -1.5990
 6546SOL     OW21078   2.484   7.303   4.302 -0.3367 -0.1554 -0.1807
 6546SOL    HW121079   2.390   7.313   4.317 -0.4018 -1.5408  0.4957
 6546SOL    HW221080   2.493   7.216   4.264  0.6546  0.0679 -0.4954
 6547SOL     OW21081   3.629   1.351   3.017 -0.0031 -0.4381  0.2862
 6547SOL    HW121082   3.681   1.336   2.938  0.2273 -1.6176  0.6361
 6547SOL    HW221083   3.693   1.367   3.085 -0.1435 -0.6091  0.4617
 6548SOL     OW21084   1.078   7.483   2.833  0.4920  0.4821 -0.5466
 6548SOL    HW121085   1.103   7.495   2.925  1.3338 -0.8651 -0.5642
 6548SOL    HW221086   1.144   7.532   2.784 -0.0639  1.3528 -0.4357
 6549SOL     OW21087   2.611   0.600   1.701  0.0720  0.0522  0.3955
 6549SOL    HW121088   2.702   0.576   1.718  0.3592  0.6219 -0.2524
 6549SOL    HW221089   2.601   0.589   1.606  0.1904  2.2834  0.0606
 6550SOL     OW21090   2.930   1.932   2.580  0.3152 -0.1664  0.6331
 6550SOL    HW121091   2.892   1.846   2.561  0.6151 -0.3732  0.9529
 6550SOL    HW221092   2.930   1.938   2.676  1.7781 -0.5031  0.6878
 6551SOL     OW21093   2.712   6.931   4.586 -0.4572 -0.6218  0.6551
 6551SOL    HW121094   2.697   6.947   4.679 -2.6957 -1.8018  0.5433
 6551SOL    HW221095   2.733   7.017   4.550  0.7781 -0.2016  2.2765
 6552SOL     OW21096   2.484   0.591   2.763 -0.2250 -0.4325  0.4978
 6552SOL    HW121097   2.565   0.575   2.813 -0.9057 -0.4803  1.6102
 6552SOL    HW221098   2.481   0.687   2.753 -0.3737 -0.3722  1.0657
 6553SOL     OW21099   1.501   7.704   1.407 -0.0294  1.1445  0.1505
 6553SOL    HW121100   1.478   7.643   1.477  0.7805  1.6656  0.8902
 6553SOL    HW221101   1.465   7.788   1.437 -2.0553  0.8755 -1.3378
 6554SOL     OW21102   4.534   5.988   3.072 -0.5349  0.3657  0.2833
 6554SOL    HW121103   4.459   6.008   3.128 -0.3671 -1.2778  1.1579
 6554SOL    HW221104   4.589   6.067   3.077 -2.1964  1.6188 -0.4313
 6555SOL     OW21105   3.110   0.202   1.417 -0.3561 -0.4085  0.0365
 6555SOL    HW121106   3.174   0.222   1.486 -1.2121 -0.0303  0.7396
 6555SOL    HW221107   3.144   0.247   1.340 -0.3098  0.6894  0.6690
 6556SOL     OW21108   1.157   0.434   2.987 -0.2194 -0.2458 -0.1972
 6556SOL    HW121109   1.249   0.447   3.010 -0.6350  1.1108  0.8154
 6556SOL    HW221110   1.114   0.516   3.011 -1.8568 -1.1579  0.1689
 6557SOL     OW21111   2.686   1.159   2.002  0.2668 -0.0736  0.3299
 6557SOL    HW121112   2.775   1.143   1.969 -0.0972  0.4811 -0.9929
 6557SOL    HW221113   2.696   1.233   2.062  0.9291 -1.0262  1.4248
 6558SOL     OW21114   1.194   1.027   2.425  0.1721  0.0339  0.5094
 6558SOL    HW121115   1.218   0.950   2.477 -1.0188 -0.9512 -0.3547
 6558SOL    HW221116   1.271   1.044   2.371 -0.0246 -1.4440 -0.3014
 6559SOL     OW21117   3.595   6.539   2.565 -0.0545  0.7980 -0.3211
 6559SOL    HW121118   3.504   6.517   2.585  0.4506 -1.3357 -0.1753
 6559SOL    HW221119   3.601   6.534   2.470  0.5168 -1.9660 -0.2173
 6560SOL     OW21120   0.936   0.157   1.951 -0.6506  0.3367  0.3373
 6560SOL    HW121121   0.996   0.103   2.003 -0.8798  0.4442  0.7168
 6560SOL    HW221122   0.849   0.140   1.988 -0.8798  0.0819 -0.2945
 6561SOL     OW21123   5.135   1.181   4.099 -0.0462  0.3497 -0.2235
 6561SOL    HW121124   5.051   1.205   4.060  0.0352  0.6804 -0.1973
 6561SOL    HW221125   5.116   1.103   4.151 -0.9227  1.9456  1.9533
 6562SOL     OW21126   2.028   0.401   3.119  0.3673  0.2151  0.0183
 6562SOL    HW121127   1.961   0.451   3.165 -0.1806 -1.3880  1.0381
 6562SOL    HW221128   1.979   0.350   3.054  0.7784  0.1123 -0.2155
 6563SOL     OW21129   4.052   2.024   3.145 -0.2531 -0.2235 -0.0171
 6563SOL    HW121130   4.119   2.022   3.214 -0.4322 -0.0237  0.1653
 6563SOL    HW221131   4.020   1.934   3.140  2.4473 -1.2282 -2.5224
 6564SOL     OW21132   1.628   1.241   3.427 -0.0076  0.3091 -0.1481
 6564SOL    HW121133   1.564   1.200   3.486  0.2177 -0.1077 -0.1872
 6564SOL    HW221134   1.575   1.277   3.356 -0.1751 -0.4043 -0.3950
 6565SOL     OW21135   4.052   2.706   3.726 -0.8988  0.1475 -0.4175
 6565SOL    HW121136   4.015   2.636   3.778  2.3111 -0.1096  1.7745
 6565SOL    HW221137   4.104   2.662   3.658 -0.2629  0.3792 -0.0950
 6566SOL     OW21138   1.070   0.228   1.720 -0.1183 -0.2876 -0.8351
 6566SOL    HW121139   1.046   0.159   1.658 -2.0544  0.1777 -0.6503
 6566SOL    HW221140   1.019   0.210   1.799  1.9954 -0.6272  0.5378
 6567SOL     OW21141   3.847   2.246   3.784 -0.2523  0.0970 -0.8735
 6567SOL    HW121142   3.790   2.305   3.833  1.8786  1.9395 -0.4216
 6567SOL    HW221143   3.827   2.159   3.817  0.3025  1.1389  2.5553
 6568SOL     OW21144   1.143   1.252   4.653 -0.1449  0.6050  0.4360
 6568SOL    HW121145   1.170   1.210   4.735 -0.5663  0.3049  0.4208
 6568SOL    HW221146   1.206   1.324   4.642  0.7596 -0.1761  0.3155
 6569SOL     OW21147   4.978   1.119   1.229  0.2144  0.2973  0.1495
 6569SOL    HW121148   4.999   1.036   1.272  0.7822  0.5286  0.3254
 6569SOL    HW221149   5.056   1.172   1.239  0.0220  0.6933 -0.3664
 6570SOL     OW21150   1.850   6.915   2.245 -0.8302 -0.1009 -0.2316
 6570SOL    HW121151   1.904   6.883   2.173  0.9494 -0.1561  1.0622
 6570SOL    HW221152   1.870   7.008   2.252  0.5070 -0.4622  1.3591
 6571SOL     OW21153   2.122   1.698   0.663 -0.2312  0.7196 -0.0415
 6571SOL    HW121154   2.139   1.642   0.739 -0.7370  1.1600  0.4116
 6571SOL    HW221155   2.044   1.661   0.622  0.1659  0.3572 -0.4727
 6572SOL     OW21156   2.598   2.210   3.091  0.1400  0.7149  0.3009
 6572SOL    HW121157   2.543   2.156   3.035  0.5611  1.2909 -0.6889
 6572SOL    HW221158   2.550   2.291   3.102  0.4182  0.9100  0.1024
 6573SOL     OW21159   4.114   1.564   4.353  0.1129 -0.3423  0.4299
 6573SOL    HW121160   4.021   1.577   4.369  0.0959  0.0608  0.0269
 6573SOL    HW221161   4.134   1.621   4.279  0.6302 -0.6032  0.3640
 6574SOL     OW21162   2.137   2.147   4.180  0.1142 -0.0862  0.2432
 6574SOL    HW121163   2.192   2.223   4.158  0.2399 -0.5409 -1.0833
 6574SOL    HW221164   2.049   2.183   4.187  0.3161  0.3471  0.6418
 6575SOL     OW21165   3.429   1.612   4.553  0.3062 -0.4363  0.9591
 6575SOL    HW121166   3.391   1.538   4.504 -1.6697  0.2969  1.2988
 6575SOL    HW221167   3.508   1.576   4.593  0.6317 -1.7322 -0.7400
 6576SOL     OW21168   1.724   1.442   3.907 -0.0599 -0.0833 -0.3895
 6576SOL    HW121169   1.700   1.445   3.815  0.7931  0.2482 -0.6146
 6576SOL    HW221170   1.814   1.475   3.909 -0.6887  1.7600  0.7782
 6577SOL     OW21171   3.539   2.256   0.673 -0.2584 -0.3085  0.0897
 6577SOL    HW121172   3.627   2.265   0.636 -1.5876  2.3364 -2.8999
 6577SOL    HW221173   3.538   2.169   0.712  3.5450 -0.5629 -0.0586
 6578SOL     OW21174   3.746   2.540   3.681 -0.3352 -0.1476  0.6147
 6578SOL    HW121175   3.737   2.549   3.776 -0.3407  1.1135  0.5061
 6578SOL    HW221176   3.695   2.613   3.645 -1.0018 -1.0745 -0.3900
 6579SOL     OW21177   2.637   1.398   4.278  0.0423  0.2302 -0.5896
 6579SOL    HW121178   2.639   1.345   4.198 -0.5790 -0.6963 -0.0170
 6579SOL    HW221179   2.678   1.343   4.344  0.0745  0.7791 -0.1493
 6580SOL     OW21180   1.027   1.188   2.579  0.3017  0.2005  0.1349
 6580SOL    HW121181   1.079   1.141   2.515 -1.0965 -1.6775  0.3013
 6580SOL    HW221182   1.047   1.281   2.563  2.0155 -0.3584 -1.1776
 6581SOL     OW21183   2.888   1.395   3.580  0.1915  0.3184 -0.5305
 6581SOL    HW121184   2.919   1.363   3.496  1.0850  0.2167 -0.1683
 6581SOL    HW221185   2.941   1.349   3.645 -0.1447  0.7644  0.0741
 6582SOL     OW21186   2.894   0.302   2.583  0.2218 -0.0049 -0.1471
 6582SOL    HW121187   2.878   0.341   2.669 -2.9725  0.1912 -0.6977
 6582SOL    HW221188   2.852   0.216   2.588  1.3217 -0.6278 -1.0840
 6583SOL     OW21189   1.824   7.819   2.647  0.2993 -0.3297 -0.0795
 6583SOL    HW121190   1.864   7.851   2.728  3.7943 -1.5987 -1.1297
 6583SOL    HW221191   1.798   7.899   2.600 -0.1406  0.4899  1.4946
 6584SOL     OW21192   3.379   3.458   1.821 -0.6356 -0.4629  0.2749
 6584SOL    HW121193   3.286   3.478   1.836 -0.5523  0.1731  0.0061
 6584SOL    HW221194   3.407   3.414   1.901 -0.7392  0.9306  1.1214
 6585SOL     OW21195   1.556   0.690   1.369 -0.5020  0.3660 -0.3220
 6585SOL    HW121196   1.606   0.724   1.443 -1.9193  0.3596  0.6819
 6585SOL    HW221197   1.621   0.674   1.301  0.6976  1.3599  0.5575
 6586SOL     OW21198   2.131   0.876   3.105 -0.3381 -0.6355  0.1389
 6586SOL    HW121199   2.126   0.936   3.179 -1.8759 -0.1940 -0.2900
 6586SOL    HW221200   2.042   0.873   3.070  0.4113 -0.5307 -1.9248
 6587SOL     OW21201   4.630   0.742   2.519  0.5167 -0.2397 -0.1893
 6587SOL    HW121202   4.714   0.782   2.540  0.8228 -0.8003 -0.3298
 6587SOL    HW221203   4.565   0.799   2.561  0.9278  0.5358 -0.5935
 6588SOL     OW21204   1.753   7.281   2.617 -0.4347 -0.3676 -0.3174
 6588SOL    HW121205   1.758   7.331   2.536 -0.1318 -0.8799 -0.6227
 6588SOL    HW221206   1.659   7.272   2.635 -0.4937  0.0283 -0.4366
 6589SOL     OW21207   1.103   0.682   3.083 -0.2736  0.1297  0.7826
 6589SOL    HW121208   1.110   0.731   3.001  0.2639 -1.2939 -0.0636
 6589SOL    HW221209   1.083   0.748   3.149  0.9399  1.5628 -0.2131
 6590SOL     OW21210   3.123   7.048   3.121 -0.4304  0.0417 -0.2256
 6590SOL    HW121211   3.028   7.059   3.116 -0.3191  0.9854 -0.5268
 6590SOL    HW221212   3.155   7.133   3.151  0.2968 -0.3747  0.1982
 6591SOL     OW21213   3.436   0.385   1.367  0.7698 -0.5474 -0.0754
 6591SOL    HW121214   3.447   0.431   1.450  1.1465 -0.0907 -0.3747
 6591SOL    HW221215   3.485   0.303   1.378 -1.3227 -1.7485  1.0986
 6592SOL     OW21216   1.798   0.711   4.593 -0.2310  0.4534  0.4685
 6592SOL    HW121217   1.734   0.779   4.573 -0.1625  0.0866 -1.1089
 6592SOL    HW221218   1.756   0.658   4.661 -1.7655  0.0366 -0.7514
 6593SOL     OW21219   2.966   1.586   5.035  0.1939  0.4362 -0.3237
 6593SOL    HW121220   3.015   1.549   5.108  1.0777  1.3651 -0.4285
 6593SOL    HW221221   3.017   1.662   5.007 -0.1883  0.1872 -1.8218
 6594SOL     OW21222   3.240   1.085   2.990  0.0989 -0.1821  0.1630
 6594SOL    HW121223   3.209   1.144   3.059  1.9851 -0.2321  1.1378
 6594SOL    HW221224   3.299   1.139   2.938 -0.9560 -0.2748 -1.1706
 6595SOL     OW21225   4.258   2.627   4.425  0.7770  0.1834  0.3655
 6595SOL    HW121226   4.178   2.649   4.472  0.5992 -0.7380  0.5143
 6595SOL    HW221227   4.276   2.703   4.371 -0.1273  0.4504  0.4300
 6596SOL     OW21228   1.148   2.611   4.472  0.8033  0.3255  0.0612
 6596SOL    HW121229   1.237   2.599   4.503  0.1066 -0.5057  1.8747
 6596SOL    HW221230   1.099   2.642   4.548 -0.6710 -0.2443 -0.6011
 6597SOL     OW21231   1.190   0.541   5.464 -0.3154  0.3274  0.5457
 6597SOL    HW121232   1.201   0.507   5.553 -0.7760 -1.3806 -0.0127
 6597SOL    HW221233   1.096   0.531   5.447  0.2604 -3.2792 -1.5426
 6598SOL     OW21234   2.520   6.743   3.525 -0.2478 -0.3441  0.1652
 6598SOL    HW121235   2.601   6.707   3.563  0.1310  0.1255 -0.1764
 6598SOL    HW221236   2.549   6.821   3.477 -0.6532 -1.0873 -1.3447
 6599SOL     OW21237   1.621   0.713   3.199 -0.0770 -0.7314  0.0950
 6599SOL    HW121238   1.645   0.798   3.235 -3.1130  0.4009 -0.2804
 6599SOL    HW221239   1.650   0.716   3.108  1.1154 -0.7161  0.4603
 6600SOL     OW21240   4.171   2.484   3.216 -0.4520 -0.2433 -0.0964
 6600SOL    HW121241   4.111   2.546   3.257 -0.8947 -0.7346  0.0089
 6600SOL    HW221242   4.123   2.450   3.140  1.0842  2.1566 -2.3037
 6601SOL     OW21243   2.730   7.224   4.987 -0.3191 -0.3177  0.1782
 6601SOL    HW121244   2.780   7.305   4.986 -0.9689  0.1552  2.1974
 6601SOL    HW221245   2.646   7.247   5.027 -1.2784 -1.5923 -0.9736
 6602SOL     OW21246   3.576   0.856   5.472 -0.1411  0.0299  0.4071
 6602SOL    HW121247   3.662   0.875   5.510  0.6080 -0.4537 -0.9743
 6602SOL    HW221248   3.541   0.942   5.447 -0.2187  0.2569  1.2734
 6603SOL     OW21249   2.262   1.233   7.270 -0.4402  0.1312 -0.3180
 6603SOL    HW121250   2.286   1.180   7.194 -1.1170 -1.1818  0.3385
 6603SOL    HW221251   2.185   1.282   7.241 -0.1516  0.3358 -0.7541
 6604SOL     OW21252   2.424   7.975   4.935  0.1171  0.3899 -0.5027
 6604SOL    HW121253   2.352   7.912   4.943  0.0209  0.7394  2.4427
 6604SOL    HW221254   2.380   8.061   4.940  0.6310  0.6305 -0.1567
 6605SOL     OW21255   2.038   1.899   6.136 -0.2557 -0.0247  0.4150
 6605SOL    HW121256   2.092   1.851   6.074  0.3289 -1.3912  1.9076
 6605SOL    HW221257   2.088   1.979   6.155 -0.8759  0.8717 -1.4993
 6606SOL     OW21258   2.467   3.707   5.443  0.1536 -0.0888  0.1897
 6606SOL    HW121259   2.433   3.672   5.360 -0.1368 -1.6212  0.9061
 6606SOL    HW221260   2.389   3.713   5.499  0.3144  1.1377  0.2897
 6607SOL     OW21261   4.159   0.817   6.246  0.1493 -0.1860 -0.1987
 6607SOL    HW121262   4.068   0.836   6.223  0.0082  0.6051  0.9028
 6607SOL    HW221263   4.200   0.903   6.252  0.4029 -0.3858  1.4402
 6608SOL     OW21264   4.455   2.296   6.703 -0.3205 -0.2270 -0.6421
 6608SOL    HW121265   4.527   2.233   6.703 -0.5093 -0.4557  0.2015
 6608SOL    HW221266   4.458   2.336   6.616  0.3119 -0.8147 -0.8998
 6609SOL     OW21267   7.434   0.822   4.778  0.1663  0.6196  0.0097
 6609SOL    HW121268   7.421   0.916   4.767 -0.0247  0.5320 -0.5194
 6609SOL    HW221269   7.520   0.804   4.742  1.0573  0.9042  1.9009
 6610SOL     OW21270   2.124   1.741   3.308 -0.2856 -0.0862 -0.9462
 6610SOL    HW121271   2.190   1.810   3.305 -0.3874  0.0278 -0.6115
 6610SOL    HW221272   2.167   1.666   3.267  1.5989 -1.3089  2.7385
 6611SOL     OW21273   2.250   1.664   6.342  0.2669 -1.0901  0.1889
 6611SOL    HW121274   2.187   1.605   6.382 -1.2530  1.4180  1.6742
 6611SOL    HW221275   2.335   1.621   6.355 -0.8004 -3.1313  0.7569
 6612SOL     OW21276   1.129   0.211   4.129 -0.0716 -0.2596 -0.1350
 6612SOL    HW121277   1.061   0.266   4.089 -0.4696 -0.7347 -0.1163
 6612SOL    HW221278   1.157   0.260   4.206  1.0999  0.9484 -1.2633
 6613SOL     OW21279   3.417   1.355   6.064 -0.2299  0.7201 -0.0363
 6613SOL    HW121280   3.468   1.427   6.100 -0.6492  0.7711  0.4697
 6613SOL    HW221281   3.482   1.290   6.036  0.1023  0.2226  1.7640
 6614SOL     OW21282   3.495   2.853   5.767  0.2690 -0.7643 -0.2121
 6614SOL    HW121283   3.529   2.764   5.753 -0.1174 -0.7676 -1.1981
 6614SOL    HW221284   3.432   2.866   5.696  0.4767  0.3754 -0.2093
 6615SOL     OW21285   1.157   2.591   6.394 -0.0902  0.4047  0.1128
 6615SOL    HW121286   1.216   2.546   6.455  0.3141 -0.1526 -0.6792
 6615SOL    HW221287   1.211   2.660   6.356  0.0157 -0.0014 -0.4891
 6616SOL     OW21288   2.295   3.130   3.586  0.2111 -0.3231 -0.1278
 6616SOL    HW121289   2.255   3.155   3.503  2.1192 -1.6840 -1.5366
 6616SOL    HW221290   2.227   3.079   3.631 -0.2090 -1.2445 -1.7368
 6617SOL     OW21291   1.110   1.116   4.178  0.1386  0.3344 -0.2431
 6617SOL    HW121292   1.060   1.193   4.205 -1.0660 -0.4169 -0.2486
 6617SOL    HW221293   1.044   1.053   4.149  0.8168 -1.7380  2.2807
 6618SOL     OW21294   0.606   1.051   3.199  0.2778  0.5580  0.5276
 6618SOL    HW121295   0.556   1.132   3.212 -0.4966  0.0462  0.7915
 6618SOL    HW221296   0.658   1.068   3.120 -0.0726  1.2113  0.4299
 6619SOL     OW21297   5.083   3.495   3.674  0.6254  0.6130  0.2179
 6619SOL    HW121298   5.008   3.555   3.673  1.4467  1.6758  0.1102
 6619SOL    HW221299   5.084   3.459   3.762 -1.1187 -0.8872 -0.3208
 6620SOL     OW21300   3.173   1.977   5.695  0.1557  0.5837  0.0137
 6620SOL    HW121301   3.163   1.990   5.601 -2.5522  0.0451  0.1596
 6620SOL    HW221302   3.139   2.057   5.734  2.3878  1.3306  0.5954
 6621SOL     OW21303   3.160   7.807   4.747  0.0830  0.2307 -0.6382
 6621SOL    HW121304   3.223   7.849   4.687  1.1043  0.1909  0.3688
 6621SOL    HW221305   3.208   7.731   4.781 -0.8579 -0.3274 -0.5468
 6622SOL     OW21306   2.786   1.895   3.404 -0.4114  0.1482 -0.0065
 6622SOL    HW121307   2.827   1.810   3.421 -0.8056  0.1139  0.8769
 6622SOL    HW221308   2.695   1.883   3.433 -0.3558  0.9962  0.5430
 6623SOL     OW21309   0.896   2.101   6.257 -0.7056  0.3388 -0.1791
 6623SOL    HW121310   0.857   2.017   6.280 -1.7892  0.0881 -2.5755
 6623SOL    HW221311   0.850   2.165   6.311 -1.4235 -0.3987  0.0934
 6624SOL     OW21312   2.538   1.438   4.576 -0.1688  0.9657 -0.2458
 6624SOL    HW121313   2.591   1.372   4.619 -1.0841  1.1103  1.1538
 6624SOL    HW221314   2.454   1.394   4.558 -1.1997  2.0050  1.7237
 6625SOL     OW21315   3.787   2.205   6.317  0.2286  0.1696  0.5193
 6625SOL    HW121316   3.793   2.291   6.276  2.0399  0.1274  0.5874
 6625SOL    HW221317   3.783   2.144   6.243 -2.0710  0.3133  0.4674
 6626SOL     OW21318   1.824   7.659   3.032 -0.0681  0.5448  0.0218
 6626SOL    HW121319   1.775   7.739   3.050  1.8668  1.6988  0.3514
 6626SOL    HW221320   1.771   7.614   2.966 -1.0091  2.3054 -0.5019
 6627SOL     OW21321   1.214   1.875   4.724  0.0786  0.2378  0.7834
 6627SOL    HW121322   1.271   1.802   4.747 -0.2420 -0.4510 -0.4864
 6627SOL    HW221323   1.253   1.912   4.645  0.1216  1.3243  1.3037
 6628SOL     OW21324   3.121   0.517   3.320 -0.9622 -0.1125 -0.6060
 6628SOL    HW121325   3.163   0.459   3.383 -0.3167  1.0328  0.0634
 6628SOL    HW221326   3.148   0.484   3.235  1.0246  0.3438 -0.2041
 6629SOL     OW21327   3.194   0.207   6.794  0.0072 -0.3095  0.0624
 6629SOL    HW121328   3.222   0.155   6.870  2.7199  0.7843 -0.0786
 6629SOL    HW221329   3.161   0.288   6.832  0.3719 -0.1904  0.1325
 6630SOL     OW21330   2.081   1.023   2.668  0.0079  0.1529  0.2117
 6630SOL    HW121331   2.013   0.956   2.666 -0.3424  0.5109 -0.3809
 6630SOL    HW221332   2.131   1.005   2.748 -0.2742 -0.6127  0.2200
 6631SOL     OW21333   3.294   2.163   3.685  0.0685 -0.3345  0.0961
 6631SOL    HW121334   3.271   2.114   3.763 -2.2624  0.8539  0.2507
 6631SOL    HW221335   3.327   2.247   3.717 -1.9235  0.5861 -0.1232
 6632SOL     OW21336   2.305   7.250   3.497  0.4805 -0.2557 -0.2666
 6632SOL    HW121337   2.258   7.293   3.569  2.3537  0.7193  0.4564
 6632SOL    HW221338   2.395   7.240   3.530  2.4489  3.5443 -3.6408
 6633SOL     OW21339   2.227   7.010   3.577 -0.1548 -0.0175 -0.2287
 6633SOL    HW121340   2.163   6.979   3.513  0.7319  1.7405 -2.0849
 6633SOL    HW221341   2.255   7.095   3.544  1.8010  0.1018  1.4964
 6634SOL     OW21342   5.569   0.052   4.694 -0.1763 -0.1296  0.5767
 6634SOL    HW121343   5.573   0.145   4.676  1.0195 -0.1891  0.4947
 6634SOL    HW221344   5.498   0.043   4.758  0.1778  0.9235  1.1369
 6635SOL     OW21345   4.273   1.369   5.094  0.4436 -0.1143 -0.3014
 6635SOL    HW121346   4.282   1.401   5.184 -0.3255 -0.9738  0.1045
 6635SOL    HW221347   4.250   1.446   5.043 -2.1436 -0.0632  0.7679
 6636SOL     OW21348   2.435   7.722   4.547  0.1696 -0.0289  0.0391
 6636SOL    HW121349   2.408   7.693   4.460  1.8615 -1.9401  0.0828
 6636SOL    HW221350   2.511   7.668   4.569  0.7697  1.4734  2.0683
 6637SOL     OW21351   0.238   0.007   5.352 -0.0195  0.1917 -0.6284
 6637SOL    HW121352   0.275   0.093   5.333  4.1014 -1.1691  0.2491
 6637SOL    HW221353   0.226  -0.034   5.266 -0.2587  0.9725 -0.9751
 6638SOL     OW21354   4.686   1.968   4.958 -0.7353  0.2697  0.5885
 6638SOL    HW121355   4.701   2.061   4.940 -0.7573  0.4813  1.6236
 6638SOL    HW221356   4.597   1.952   4.929 -1.1471  0.8642  1.5037
 6639SOL     OW21357   3.652   1.871   6.201  0.2912 -0.1401 -0.5515
 6639SOL    HW121358   3.742   1.897   6.218  0.2827 -0.7196  0.4673
 6639SOL    HW221359   3.604   1.895   6.280 -0.5693  0.6435 -1.2884
 6640SOL     OW21360   7.844   0.255   6.033  0.5757 -0.0523 -0.3880
 6640SOL    HW121361   7.918   0.209   6.072  0.9247  0.6961 -0.1652
 6640SOL    HW221362   7.776   0.253   6.101  0.6042 -0.1875 -0.3620
 6641SOL     OW21363   3.024   0.984   6.378  0.1718  0.2876 -0.4837
 6641SOL    HW121364   3.018   1.034   6.459  0.9259  0.5745 -0.5984
 6641SOL    HW221365   3.109   0.939   6.383 -0.9291 -1.8960  0.1352
 6642SOL     OW21366   3.086   0.430   3.051 -0.5333  0.0887 -0.2824
 6642SOL    HW121367   3.086   0.338   3.025  0.8603 -0.7289  2.2440
 6642SOL    HW221368   3.178   0.456   3.049 -0.5914  0.6076  1.4356
 6643SOL     OW21369   4.611   2.396   6.485 -0.0626  0.4088  0.4976
 6643SOL    HW121370   4.638   2.487   6.499  0.2433  0.3395  0.3630
 6643SOL    HW221371   4.586   2.393   6.392  0.5279  0.2047  0.3413
 6644SOL     OW21372   5.101   2.116   5.026  0.1474 -0.7959  0.0985
 6644SOL    HW121373   5.116   2.022   5.026 -0.7140 -0.9402  1.0717
 6644SOL    HW221374   5.036   2.131   5.094 -0.2605  0.4220 -0.5222
 6645SOL     OW21375   1.563   0.836   4.501 -0.1837 -0.2273  0.0465
 6645SOL    HW121376   1.553   0.839   4.406  0.9823 -3.0373 -0.2601
 6645SOL    HW221377   1.502   0.767   4.529  0.1373 -0.0501  1.2196
 6646SOL     OW21378   3.087   0.149   3.402  0.1863  1.0908  0.4142
 6646SOL    HW121379   3.150   0.214   3.433 -0.2812  1.2438  1.0533
 6646SOL    HW221380   3.137   0.067   3.397  0.4777  1.2464  0.7637
 6647SOL     OW21381   2.908   2.569   4.511 -0.8855 -0.1732 -0.1111
 6647SOL    HW121382   2.970   2.552   4.582 -0.0559  1.3723 -0.4375
 6647SOL    HW221383   2.832   2.514   4.533 -0.6955  0.3210  2.0100
 6648SOL     OW21384   3.677   7.989   4.132 -0.5319 -0.0118  0.8024
 6648SOL    HW121385   3.626   8.054   4.180  1.9276  1.9016  1.0536
 6648SOL    HW221386   3.661   8.009   4.040 -0.5766  0.2778  0.8725
 6649SOL     OW21387   4.352   0.476   4.317  0.3035  0.1582  0.2807
 6649SOL    HW121388   4.329   0.393   4.357  1.9276 -0.2899  0.3875
 6649SOL    HW221389   4.294   0.484   4.241  2.5442 -2.9941 -2.0277
 6650SOL     OW21390   2.220   1.296   5.097  0.2955 -0.2690 -0.4743
 6650SOL    HW121391   2.278   1.229   5.062  1.1013  1.7745 -3.3605
 6650SOL    HW221392   2.165   1.322   5.023 -2.4012 -0.1167  1.4410
 6651SOL     OW21393   2.866   7.923   3.608  0.4592  0.3328 -0.5968
 6651SOL    HW121394   2.778   7.890   3.625  0.5993  0.4416  0.3874
 6651SOL    HW221395   2.897   7.870   3.535 -0.1652 -0.1705 -0.5081
 6652SOL     OW21396   2.601   1.479   5.649  0.2129 -0.2986 -0.1138
 6652SOL    HW121397   2.518   1.489   5.601 -0.5611  0.0825  1.2517
 6652SOL    HW221398   2.625   1.569   5.673 -0.4355 -0.6104  1.8468
 6653SOL     OW21399   2.731   2.542   3.802  0.4260 -0.3497  0.3505
 6653SOL    HW121400   2.727   2.453   3.836 -1.0073 -0.6576 -0.5496
 6653SOL    HW221401   2.733   2.532   3.707  0.3155  0.5810  0.2372
 6654SOL     OW21402   7.743   0.446   5.279 -0.0396 -0.7854 -0.2266
 6654SOL    HW121403   7.693   0.525   5.298  3.3250  1.4941  0.0129
 6654SOL    HW221404   7.769   0.413   5.365  0.8811 -0.4826 -0.3765
 6655SOL     OW21405   3.614   2.387   2.918 -0.6017 -0.0979  0.0948
 6655SOL    HW121406   3.642   2.441   2.991 -1.9180  0.3932  0.2621
 6655SOL    HW221407   3.671   2.413   2.845  0.8928 -0.7792  0.9716
 6656SOL     OW21408   2.767   0.312   5.405 -0.3456  0.4052 -0.0895
 6656SOL    HW121409   2.750   0.403   5.380 -0.2146  0.5799  0.4570
 6656SOL    HW221410   2.756   0.310   5.500  0.0636 -0.0625 -0.0472
 6657SOL     OW21411   4.293   7.434   2.917  0.8383  0.4250  0.0187
 6657SOL    HW121412   4.204   7.464   2.934  0.7914 -0.4772  1.5469
 6657SOL    HW221413   4.324   7.402   3.001  2.0651 -0.7016 -0.8180
 6658SOL     OW21414   2.765   1.379   6.054 -0.2529  0.0865  0.3091
 6658SOL    HW121415   2.794   1.469   6.065  0.4185 -0.2839  1.9300
 6658SOL    HW221416   2.826   1.327   6.108 -1.4562 -1.1662  0.5255
 6659SOL     OW21417   2.745   2.186   4.026  0.6035  0.1711 -0.2318
 6659SOL    HW121418   2.724   2.148   3.940  1.6008  1.4967 -1.0962
 6659SOL    HW221419   2.824   2.238   4.011  0.2097  1.2690  1.2718
 6660SOL     OW21420   1.665   1.915   4.768 -0.3906  0.2422  0.4973
 6660SOL    HW121421   1.667   1.896   4.862 -1.3650 -1.0958  0.2861
 6660SOL    HW221422   1.744   1.874   4.734  0.4287  1.5010  0.8425
 6661SOL     OW21423   1.080   1.790   5.235  0.3006  0.3765 -0.1234
 6661SOL    HW121424   0.999   1.765   5.279  0.3928  2.1087  1.1228
 6661SOL    HW221425   1.140   1.718   5.252 -0.2551  0.1593  1.0262
 6662SOL     OW21426   2.080   1.195   3.877  0.6616 -0.0046 -0.5094
 6662SOL    HW121427   2.154   1.150   3.917 -1.6381 -1.5245  2.4556
 6662SOL    HW221428   2.052   1.137   3.805  1.2010 -0.3692 -0.4259
 6663SOL     OW21429   1.226   1.091   4.872  0.1230 -0.0089  0.7184
 6663SOL    HW121430   1.275   1.011   4.889 -0.2854  0.0093  2.1062
 6663SOL    HW221431   1.286   1.162   4.893 -0.1325  0.0204  1.3806
 6664SOL     OW21432   2.530   1.744   4.627 -0.1382 -0.3902  0.1153
 6664SOL    HW121433   2.457   1.802   4.604 -0.9814 -1.4423  0.0606
 6664SOL    HW221434   2.493   1.684   4.692  1.2318  0.2669  1.5619
 6665SOL     OW21435   3.473   6.529   4.386  0.0370  0.3087 -0.4467
 6665SOL    HW121436   3.539   6.573   4.332 -1.8227  0.7019 -2.5410
 6665SOL    HW221437   3.485   6.436   4.367 -1.5410  0.5192 -2.8168
 6666SOL     OW21438   2.391   1.588   5.053 -0.0689 -0.0503  0.1322
 6666SOL    HW121439   2.414   1.668   5.102 -1.3959  0.1826  0.4244
 6666SOL    HW221440   2.323   1.546   5.107  0.4085 -1.2369 -0.1636
 6667SOL     OW21441   1.374   7.492   4.678  0.1530  0.0659 -0.3006
 6667SOL    HW121442   1.336   7.527   4.758  0.6712  0.9633 -0.4291
 6667SOL    HW221443   1.422   7.414   4.705  1.3918  1.0561  0.5007
 6668SOL     OW21444   2.303   0.806   3.835 -0.0693 -0.2020  0.2151
 6668SOL    HW121445   2.333   0.883   3.883 -0.2787 -0.6597  1.0909
 6668SOL    HW221446   2.214   0.828   3.808  0.4510  0.5207 -1.0069
 6669SOL     OW21447   3.147   0.839   3.423 -0.2073  0.7279  0.1796
 6669SOL    HW121448   3.145   0.778   3.496 -0.5897  1.4198  0.7650
 6669SOL    HW221449   3.166   0.785   3.346 -2.8527 -0.4956  0.2915
 6670SOL     OW21450   0.499   0.788   3.458  0.0698  0.1817  0.0336
 6670SOL    HW121451   0.493   0.732   3.535 -1.3756  1.0147  0.5707
 6670SOL    HW221452   0.434   0.856   3.473  1.5032  1.8024 -0.7675
 6671SOL     OW21453   0.945   1.288   3.275  0.3695 -0.1338  0.0779
 6671SOL    HW121454   1.040   1.281   3.269  1.0029  2.8386  3.2672
 6671SOL    HW221455   0.918   1.325   3.190  2.1706 -0.1481 -0.5391
 6672SOL     OW21456   1.835   0.568   5.400 -0.8318 -0.0186 -0.2759
 6672SOL    HW121457   1.917   0.587   5.446 -1.2644  0.1819  0.4255
 6672SOL    HW221458   1.857   0.496   5.341  0.2035  0.9714 -1.1347
 6673SOL     OW21459   2.492   0.240   6.793  0.4366  0.3872 -0.1271
 6673SOL    HW121460   2.526   0.327   6.775 -0.8742  1.3025  1.4996
 6673SOL    HW221461   2.549   0.205   6.861  0.1020  0.5761  0.2531
 6674SOL     OW21462   2.187   2.888   4.242  0.0458 -0.4996 -0.1999
 6674SOL    HW121463   2.166   2.968   4.193 -2.4379 -0.2853  1.0624
 6674SOL    HW221464   2.167   2.909   4.333  2.5061 -1.5696  0.6854
 6675SOL     OW21465   3.221   3.093   5.801 -0.0428  0.2902 -0.3693
 6675SOL    HW121466   3.261   3.032   5.739 -0.1047 -0.9516  0.7747
 6675SOL    HW221467   3.127   3.081   5.789 -0.0566 -0.2356  0.2123
 6676SOL     OW21468   4.317   7.709   5.144  0.1379 -0.4032 -0.1994
 6676SOL    HW121469   4.259   7.722   5.219  0.0793  0.5638 -0.3965
 6676SOL    HW221470   4.265   7.657   5.082  0.1540 -1.1214  0.3830
 6677SOL     OW21471   1.771   1.951   4.428  0.1828  0.1849 -0.4355
 6677SOL    HW121472   1.792   1.892   4.500  0.8866  1.1115  0.1368
 6677SOL    HW221473   1.827   1.922   4.356 -0.4838 -0.7089 -0.6127
 6678SOL     OW21474   1.972   0.477   4.358  0.3624 -0.6278  0.3877
 6678SOL    HW121475   2.051   0.470   4.412  0.8949  1.8185  0.0451
 6678SOL    HW221476   1.998   0.446   4.272  0.3468 -1.7819  0.7925
 6679SOL     OW21477   2.692   1.252   3.231 -0.3339  0.1571  0.4887
 6679SOL    HW121478   2.683   1.220   3.141  1.1663 -0.0141  0.3781
 6679SOL    HW221479   2.665   1.178   3.285  0.9782 -0.5604  0.1972
 6680SOL     OW21480   2.150   0.669   2.793  0.0500 -0.0200  0.3239
 6680SOL    HW121481   2.191   0.595   2.839 -0.9658 -0.8213 -0.0099
 6680SOL    HW221482   2.217   0.697   2.730  0.8049 -0.0313  1.0966
 6681SOL     OW21483   3.899   0.055   4.469 -0.5388 -0.6958 -0.0790
 6681SOL    HW121484   3.923  -0.011   4.534 -2.4219 -1.5209 -0.1533
 6681SOL    HW221485   3.854   0.124   4.519  0.6151  0.1161 -0.1275
 6682SOL     OW21486   3.247   7.158   4.750 -0.8090 -0.2226 -0.4749
 6682SOL    HW121487   3.162   7.143   4.710 -0.6035 -0.2156 -0.9158
 6682SOL    HW221488   3.293   7.216   4.690 -0.7900  0.4410  0.1646
 6683SOL     OW21489   5.850   1.258   4.913 -0.1980  0.1837 -0.6128
 6683SOL    HW121490   5.825   1.351   4.906  2.0340  0.8687 -0.2410
 6683SOL    HW221491   5.772   1.216   4.950 -1.2004  1.9328 -0.5749
 6684SOL     OW21492   2.218   2.473   4.843 -0.0178  0.3155  0.0052
 6684SOL    HW121493   2.207   2.512   4.756 -0.4617  2.9429  1.1658
 6684SOL    HW221494   2.271   2.536   4.891  0.3159 -1.1395  1.6254
 6685SOL     OW21495   3.309   1.007   5.177 -0.3030 -0.2003  0.8142
 6685SOL    HW121496   3.356   0.976   5.100 -0.6980 -1.8110  1.1689
 6685SOL    HW221497   3.374   1.006   5.248 -0.2877 -0.1088  0.8013
 6686SOL     OW21498   3.352   0.600   5.132  0.2419 -0.1123  0.5101
 6686SOL    HW121499   3.392   0.686   5.143 -0.0415  0.2258 -0.8613
 6686SOL    HW221500   3.358   0.559   5.218  4.0451 -0.2955  0.3509
 6687SOL     OW21501   1.381   1.540   4.336 -0.3047  0.1854  0.3575
 6687SOL    HW121502   1.425   1.623   4.356  1.2902 -0.5924  0.2265
 6687SOL    HW221503   1.436   1.499   4.269 -2.2754  0.0016 -1.2742
 6688SOL     OW21504   2.780   7.885   4.942  0.0336 -0.6552  0.7058
 6688SOL    HW121505   2.860   7.862   4.895  0.1969  1.0958  0.0603
 6688SOL    HW221506   2.719   7.815   4.920 -0.5528  0.9115 -3.8091
 6689SOL     OW21507   3.433   1.878   5.171 -0.0708 -0.3638  0.6761
 6689SOL    HW121508   3.380   1.862   5.093  1.4867  0.9687 -0.7397
 6689SOL    HW221509   3.502   1.813   5.167  1.2107  0.9810 -0.2735
 6690SOL     OW21510   2.292   1.440   6.084 -0.0489 -0.2567  0.5502
 6690SOL    HW121511   2.237   1.425   6.161  0.0057  1.3324  0.9229
 6690SOL    HW221512   2.379   1.407   6.109  0.0667  0.6131  1.3313
 6691SOL     OW21513   2.752   0.678   5.899 -0.3308  0.1761 -0.2272
 6691SOL    HW121514   2.722   0.588   5.911 -0.6838  0.1925 -0.9596
 6691SOL    HW221515   2.742   0.717   5.986 -2.4932  0.1835 -0.4160
 6692SOL     OW21516   2.892   1.475   5.641  0.3285 -0.5408 -0.0864
 6692SOL    HW121517   2.940   1.521   5.573  0.7811 -0.1027  0.5196
 6692SOL    HW221518   2.911   1.524   5.722 -0.0992 -1.1170  0.3743
 6693SOL     OW21519   2.743   0.676   3.828  0.2335 -0.4068 -0.0089
 6693SOL    HW121520   2.685   0.618   3.876 -0.8947  1.1074  0.5602
 6693SOL    HW221521   2.783   0.621   3.760 -0.5568 -1.8662  0.6751
 6694SOL     OW21522   2.998   1.353   4.618 -0.1182  0.1498 -0.3624
 6694SOL    HW121523   3.018   1.434   4.665 -0.9556  0.5025 -0.6022
 6694SOL    HW221524   3.024   1.283   4.678 -1.2186  0.5889  0.6669
 6695SOL     OW21525   3.603   1.468   3.312  0.4106 -0.2362  0.7044
 6695SOL    HW121526   3.691   1.443   3.338 -0.2459 -0.9104  2.5014
 6695SOL    HW221527   3.571   1.395   3.259  1.3686  0.6207 -1.1174
 6696SOL     OW21528   1.414   1.063   4.590 -1.1622 -0.2734 -0.0610
 6696SOL    HW121529   1.438   0.982   4.546 -1.0170  0.2562 -0.9890
 6696SOL    HW221530   1.318   1.059   4.597 -1.1586 -0.5143 -0.1298
 6697SOL     OW21531   3.129   1.628   6.000  0.4880  0.0165 -0.3507
 6697SOL    HW121532   3.172   1.706   5.965 -0.2471  0.9227  0.7064
 6697SOL    HW221533   3.153   1.558   5.939  0.3445  1.2579 -1.8874
 6698SOL     OW21534   2.662   2.868   4.984  0.3048  0.0105  0.4449
 6698SOL    HW121535   2.581   2.919   4.980 -0.5371 -1.1732  1.7164
 6698SOL    HW221536   2.721   2.919   5.039  0.3496  0.7540 -0.2780
 6699SOL     OW21537   4.269   1.781   3.154 -0.0145 -0.3499  0.0333
 6699SOL    HW121538   4.287   1.739   3.238  1.1073  0.0682  0.0116
 6699SOL    HW221539   4.254   1.873   3.176 -0.6861 -0.4165 -0.1235
 6700SOL     OW21540   2.993   1.757   5.747 -0.0168 -0.1108 -0.0885
 6700SOL    HW121541   2.939   1.784   5.821  0.4523  0.0822  0.1920
 6700SOL    HW221542   3.064   1.821   5.745 -0.4287  0.3312 -1.1716
 6701SOL     OW21543   3.885   0.240   3.173  0.3483  0.0448 -0.0455
 6701SOL    HW121544   3.968   0.255   3.128  0.0806  1.4917 -0.1061
 6701SOL    HW221545   3.894   0.286   3.256  0.4125 -1.6535  0.9303
 6702SOL     OW21546   4.307   0.843   5.132  0.1257  0.1916 -0.0512
 6702SOL    HW121547   4.359   0.917   5.163 -0.4533  0.6561 -0.1748
 6702SOL    HW221548   4.219   0.860   5.164  0.4924 -1.8692  2.3546
 6703SOL     OW21549   2.058   7.123   2.311 -0.1771  0.1548  0.2470
 6703SOL    HW121550   2.018   7.062   2.374 -0.2029 -1.1065 -0.9540
 6703SOL    HW221551   2.148   7.133   2.341 -0.0666 -0.7774  0.2651
 6704SOL     OW21552   2.232   4.176   7.657  0.4516 -0.4059 -0.7275
 6704SOL    HW121553   2.219   4.146   7.567  2.1394  0.3768 -1.2810
 6704SOL    HW221554   2.321   4.148   7.678  0.0295 -0.7013  0.7744
 6705SOL     OW21555   1.114   0.692   5.055 -0.3652  0.4729  0.6636
 6705SOL    HW121556   1.130   0.720   4.965 -0.1899 -0.6570  0.3285
 6705SOL    HW221557   1.086   0.601   5.047 -0.3531  0.3605  1.7569
 6706SOL     OW21558   2.960   0.602   4.782  0.4093  0.3547 -0.5159
 6706SOL    HW121559   3.025   0.666   4.810  0.2957  0.5526 -0.6991
 6706SOL    HW221560   2.909   0.582   4.860 -0.6637  1.7791 -0.8176
 6707SOL     OW21561   2.829   7.490   4.961  0.4554 -0.3066 -0.2747
 6707SOL    HW121562   2.894   7.505   4.892  0.6287  1.6136  0.2249
 6707SOL    HW221563   2.750   7.534   4.929 -0.1299 -1.2595 -0.1764
 6708SOL     OW21564   1.849   7.932   4.756  0.0173 -0.2523  0.6500
 6708SOL    HW121565   1.854   7.857   4.815 -0.6162 -0.7730  0.0635
 6708SOL    HW221566   1.810   7.897   4.676  2.7968 -0.0727 -0.9131
 6709SOL     OW21567   1.333   1.238   3.745 -0.0877  0.0281 -0.8148
 6709SOL    HW121568   1.335   1.326   3.783  1.6968  0.5395 -1.9745
 6709SOL    HW221569   1.283   1.186   3.808 -1.3177  1.8813 -0.1781
 6710SOL     OW21570   3.503   1.117   5.373  0.1026 -0.4123 -0.1026
 6710SOL    HW121571   3.586   1.162   5.355 -0.6547  0.6627 -1.0610
 6710SOL    HW221572   3.443   1.187   5.400 -1.5829 -0.5018 -3.1925
 6711SOL     OW21573   3.843   1.565   4.381  0.1030 -0.1593  0.2317
 6711SOL    HW121574   3.763   1.567   4.329  0.3636 -1.8642 -0.2839
 6711SOL    HW221575   3.826   1.501   4.450  0.6902  0.1518  0.6756
 6712SOL     OW21576   3.060   7.937   3.825 -0.4833 -0.3138  0.2759
 6712SOL    HW121577   3.138   7.969   3.779 -1.2399 -0.0935 -0.9085
 6712SOL    HW221578   2.996   7.920   3.755 -2.6490  2.5411  1.3429
 6713SOL     OW21579   0.487   1.611   3.690 -0.0197  0.2941 -0.5259
 6713SOL    HW121580   0.551   1.591   3.759 -1.0757 -1.5211 -0.0334
 6713SOL    HW221581   0.409   1.639   3.738 -0.2129  0.7090 -1.0720
 6714SOL     OW21582   1.707   7.884   3.157 -0.2393 -0.9710  0.0607
 6714SOL    HW121583   1.647   7.914   3.089 -0.5898 -1.1073  0.3094
 6714SOL    HW221584   1.662   7.904   3.240  0.6507  0.2196  0.2953
 6715SOL     OW21585   2.708   0.402   4.851 -0.3047  0.4488 -0.0991
 6715SOL    HW121586   2.800   0.407   4.826  0.1915  1.2790  1.6884
 6715SOL    HW221587   2.701   0.319   4.899 -0.1546  0.9980  0.8984
 6716SOL     OW21588   2.501   1.718   3.849  0.5538  0.2797  0.0272
 6716SOL    HW121589   2.591   1.739   3.824  0.5712  1.4695  1.0217
 6716SOL    HW221590   2.456   1.705   3.765  1.1098  2.0282 -0.5990
 6717SOL     OW21591   2.407   1.209   4.280  0.9272  0.0878 -0.6123
 6717SOL    HW121592   2.378   1.272   4.345  2.0210  0.8578 -0.8480
 6717SOL    HW221593   2.494   1.239   4.253  2.5232 -2.6984  0.8826
 6718SOL     OW21594   2.963   0.179   4.004  0.3247  0.3250  0.3634
 6718SOL    HW121595   2.880   0.143   4.036 -1.1493  1.0285 -2.3665
 6718SOL    HW221596   2.998   0.110   3.948  0.2906  0.9786 -0.4757
 6719SOL     OW21597   1.950   0.126   4.284  0.2289  0.2578 -0.3592
 6719SOL    HW121598   1.867   0.123   4.236  0.0966 -2.0763 -0.1094
 6719SOL    HW221599   2.007   0.182   4.231 -0.1345 -1.6664 -2.9857
 6720SOL     OW21600   2.872   1.861   3.704  0.4844  0.2951  0.2216
 6720SOL    HW121601   2.939   1.910   3.657  1.4825 -1.3233 -0.1356
 6720SOL    HW221602   2.910   1.842   3.789 -0.0252  0.4530  0.4873
 6721SOL     OW21603   0.126   1.139   6.104 -0.2890  0.2438  0.1240
 6721SOL    HW121604   0.039   1.146   6.064 -0.2680  0.5204  0.1217
 6721SOL    HW221605   0.143   1.045   6.109 -0.4976  0.1947 -0.0716
 6722SOL     OW21606   2.863   0.919   3.145  0.4963 -0.1854 -0.6816
 6722SOL    HW121607   2.845   0.906   3.052 -0.3053 -0.6512 -0.4662
 6722SOL    HW221608   2.842   0.835   3.185  2.6556 -0.6266 -0.3226
 6723SOL     OW21609   4.821   7.761   3.379  0.2587 -0.3998 -0.5629
 6723SOL    HW121610   4.900   7.709   3.365  1.2804  1.0520 -0.4084
 6723SOL    HW221611   4.771   7.750   3.298  1.4837  0.1075 -1.4133
 6724SOL     OW21612   2.282   0.558   5.052 -0.3128 -0.2413  0.7083
 6724SOL    HW121613   2.325   0.533   5.134 -0.1652 -2.9609 -0.1021
 6724SOL    HW221614   2.350   0.551   4.986 -0.7386  0.7016  0.1456
 6725SOL     OW21615   3.204   7.297   3.202  0.3180 -0.1094  0.0485
 6725SOL    HW121616   3.201   7.267   3.293 -1.9586 -0.4654 -0.0816
 6725SOL    HW221617   3.268   7.368   3.202 -0.0465  0.2889  2.0691
 6726SOL     OW21618   1.136   0.208   5.612 -0.4142 -0.3259  0.0302
 6726SOL    HW121619   1.109   0.222   5.703  0.1362  0.7639  0.0364
 6726SOL    HW221620   1.071   0.257   5.560 -0.9876 -1.3056 -0.2056
 6727SOL     OW21621   3.453   7.934   4.883  0.2931 -0.0317  0.4708
 6727SOL    HW121622   3.536   7.890   4.867  1.0325  1.4791 -0.1264
 6727SOL    HW221623   3.429   7.909   4.972  0.6091 -1.6652  0.1277
 6728SOL     OW21624   3.839   7.053   5.914 -0.0064 -0.1887 -0.2675
 6728SOL    HW121625   3.903   7.058   5.843  0.4527  1.4531  0.2240
 6728SOL    HW221626   3.801   7.141   5.918 -2.5703 -1.1835 -0.7552
 6729SOL     OW21627   2.776   1.834   4.611 -0.2695  0.3142  0.5820
 6729SOL    HW121628   2.692   1.791   4.623  1.0343 -2.7625 -0.1302
 6729SOL    HW221629   2.830   1.768   4.566  2.0949  2.6358 -0.2234
 6730SOL     OW21630   1.484   3.008   4.271 -0.1643 -0.0071 -1.1059
 6730SOL    HW121631   1.438   3.085   4.304  0.0944 -0.4577  0.3652
 6730SOL    HW221632   1.415   2.945   4.250 -0.2891 -0.2363 -0.0531
 6731SOL     OW21633   1.456   0.926   4.930 -0.1707 -0.1452 -0.0143
 6731SOL    HW121634   1.536   0.971   4.958 -1.7488  1.0071  3.1087
 6731SOL    HW221635   1.473   0.834   4.948  0.3914  0.1140  0.8461
 6732SOL     OW21636   2.671   7.406   3.788 -0.3830 -0.5076  0.0817
 6732SOL    HW121637   2.639   7.344   3.854 -0.7524  0.9787  1.3415
 6732SOL    HW221638   2.593   7.439   3.745 -0.5996  2.2549  2.3713
 6733SOL     OW21639   1.992   7.506   4.870  0.6642 -0.4098  0.0614
 6733SOL    HW121640   2.084   7.526   4.854  0.5353 -0.1179 -0.3561
 6733SOL    HW221641   1.978   7.420   4.830  0.7637 -0.4658  0.1490
 6734SOL     OW21642   2.109   1.381   5.560  0.2493 -0.4667 -0.0713
 6734SOL    HW121643   2.173   1.418   5.621 -0.0685  0.7952 -0.4750
 6734SOL    HW221644   2.034   1.359   5.615  0.0719  0.4025  0.0556
 6735SOL     OW21645   3.799   1.258   4.115  0.1489 -0.2710  0.2575
 6735SOL    HW121646   3.842   1.269   4.030 -0.0151 -0.8043  0.1019
 6735SOL    HW221647   3.763   1.345   4.136 -0.3564 -0.2881 -0.5129
 6736SOL     OW21648   2.960   7.533   5.197  0.1514  0.2213  0.3646
 6736SOL    HW121649   2.926   7.490   5.119  0.8428  0.0329  0.1566
 6736SOL    HW221650   2.921   7.620   5.196 -0.0986  0.1036 -0.0128
 6737SOL     OW21651   1.946   0.114   3.435 -0.1205  0.3842 -0.2541
 6737SOL    HW121652   2.009   0.153   3.374 -1.9351  2.4553 -0.9444
 6737SOL    HW221653   2.000   0.078   3.505  1.9988 -1.1304 -2.4798
 6738SOL     OW21654   2.872   1.732   6.043  0.1976 -0.2942  0.7795
 6738SOL    HW121655   2.953   1.681   6.030 -0.1934 -0.7248 -0.1009
 6738SOL    HW221656   2.897   1.802   6.103  0.5026 -2.1125  2.8797
 6739SOL     OW21657   2.206   7.371   4.353 -0.3850 -0.3573 -0.7040
 6739SOL    HW121658   2.160   7.413   4.280 -0.1084 -0.7933 -1.1372
 6739SOL    HW221659   2.157   7.290   4.369 -1.4456  0.5141  0.7108
 6740SOL     OW21660   0.688   3.054   6.464 -0.7772 -0.5269 -0.3827
 6740SOL    HW121661   0.674   2.976   6.518 -1.0452  0.3095  0.7869
 6740SOL    HW221662   0.604   3.098   6.462  0.0144  1.1748  1.3086
 6741SOL     OW21663   3.738   2.130   4.678  0.3846  0.1237  0.1416
 6741SOL    HW121664   3.767   2.045   4.711 -0.2049  0.3185  1.1680
 6741SOL    HW221665   3.666   2.155   4.735  0.4771  1.2639 -0.2269
 6742SOL     OW21666   0.075   0.884   6.066 -0.2171 -0.0030  0.0296
 6742SOL    HW121667  -0.019   0.873   6.075 -0.3094  0.9220  0.2624
 6742SOL    HW221668   0.112   0.809   6.113 -0.8261  0.4405  1.2625
 6743SOL     OW21669   2.531   1.542   6.414 -0.1522  0.1435 -0.2224
 6743SOL    HW121670   2.599   1.607   6.432 -0.5998 -0.0778  2.8104
 6743SOL    HW221671   2.567   1.487   6.345  1.2162  2.1571 -1.2088
 6744SOL     OW21672   3.271   1.107   4.258  0.0270  0.4882  0.6239
 6744SOL    HW121673   3.334   1.041   4.228 -0.3643  0.0485  0.7667
 6744SOL    HW221674   3.235   1.071   4.339 -1.1994  0.2293 -0.0169
 6745SOL     OW21675   5.160   2.070   4.700  0.0595 -0.6290 -0.0382
 6745SOL    HW121676   5.231   2.100   4.758 -1.3249 -0.0096  1.4044
 6745SOL    HW221677   5.085   2.124   4.725 -0.6157 -0.3373 -2.4423
 6746SOL     OW21678   4.302   2.777   4.092 -0.1513  0.1340 -0.2200
 6746SOL    HW121679   4.283   2.838   4.163  0.4793 -0.1123  0.1695
 6746SOL    HW221680   4.392   2.749   4.108 -0.5814 -1.2792 -0.0995
 6747SOL     OW21681   1.374   1.857   5.686 -0.1877 -0.7087  0.3726
 6747SOL    HW121682   1.299   1.891   5.637 -0.6933  0.0480  1.6247
 6747SOL    HW221683   1.347   1.770   5.716 -0.5372 -0.4731  0.7457
 6748SOL     OW21684   1.703   1.721   5.930 -0.2386 -0.0162  0.3127
 6748SOL    HW121685   1.654   1.783   5.984 -1.3919  1.1706 -1.9366
 6748SOL    HW221686   1.762   1.776   5.878 -0.0212 -0.9697 -0.4757
 6749SOL     OW21687   3.819   0.573   3.821  0.1106  0.0527 -0.5909
 6749SOL    HW121688   3.843   0.660   3.852  1.2092 -0.4525  0.0615
 6749SOL    HW221689   3.897   0.541   3.775 -0.4821 -0.3633 -1.3391
 6750SOL     OW21690   3.228   2.222   3.406 -0.0044 -0.0810 -0.1410
 6750SOL    HW121691   3.280   2.297   3.377  0.6133 -0.5925 -0.3787
 6750SOL    HW221692   3.257   2.205   3.495 -1.8155  1.4116  0.8063
 6751SOL     OW21693   1.793   4.065   5.383  0.4312 -0.1233  0.1485
 6751SOL    HW121694   1.855   4.075   5.311 -1.5847  1.5139 -1.5241
 6751SOL    HW221695   1.715   4.028   5.342 -0.8367  1.0185  1.4194
 6752SOL     OW21696   4.022   2.466   3.867 -0.0103  0.2310  0.0262
 6752SOL    HW121697   4.088   2.424   3.923 -0.3074  0.8040  0.8300
 6752SOL    HW221698   3.960   2.397   3.846 -0.2573  0.1458  0.9692
 6753SOL     OW21699   2.700   0.162   4.971  0.0644  0.6747  0.0421
 6753SOL    HW121700   2.722   0.070   4.962 -0.6561  0.4921  0.0785
 6753SOL    HW221701   2.754   0.193   5.044 -1.4281 -0.3291  1.6470
 6754SOL     OW21702   0.875   2.003   4.788 -0.4082  0.1812 -0.5351
 6754SOL    HW121703   0.905   2.065   4.722  0.0752  0.3772 -0.1394
 6754SOL    HW221704   0.837   1.931   4.738  0.3419  0.1225 -1.0405
 6755SOL     OW21705   3.750   1.795   4.046 -0.1839 -0.1818  0.1704
 6755SOL    HW121706   3.668   1.837   4.071 -0.6765  0.2733 -2.0064
 6755SOL    HW221707   3.723   1.714   4.004  0.4402  0.1223 -0.8513
 6756SOL     OW21708   4.555   7.225   3.213 -0.4724 -0.1364 -0.5852
 6756SOL    HW121709   4.598   7.223   3.127  2.8784  0.8083  0.9263
 6756SOL    HW221710   4.588   7.304   3.255 -4.2717  1.0591  0.6313
 6757SOL     OW21711   1.138   0.032   4.707  0.0734  0.5084  0.2853
 6757SOL    HW121712   1.100  -0.055   4.714  1.3928 -0.0066  1.6543
 6757SOL    HW221713   1.063   0.091   4.707 -0.8017 -0.5274  1.6812
 6758SOL     OW21714   4.083   0.723   2.007 -0.4983 -0.4108 -0.0189
 6758SOL    HW121715   4.038   0.749   2.087 -0.5482  3.7506 -1.1879
 6758SOL    HW221716   4.021   0.740   1.937  0.6783 -0.7975 -1.2128
 6759SOL     OW21717   2.372   0.147   4.076  0.8985 -0.3484  0.2346
 6759SOL    HW121718   2.321   0.173   3.999 -0.4456 -0.2509  1.1076
 6759SOL    HW221719   2.395   0.055   4.061  1.2229 -0.1372 -0.5690
 6760SOL     OW21720   3.600   0.959   3.251  0.3179  0.3867 -0.1566
 6760SOL    HW121721   3.553   0.904   3.189  2.0059 -2.2435  0.7640
 6760SOL    HW221722   3.565   0.935   3.337  1.9020 -0.1694  0.3650
 6761SOL     OW21723   4.968   0.491   3.880 -0.7954 -0.0128 -0.2007
 6761SOL    HW121724   4.895   0.533   3.926  0.7177  2.1736  0.3917
 6761SOL    HW221725   4.980   0.543   3.800  0.0489 -0.3638 -0.3169
 6762SOL     OW21726   3.752   0.163   5.026  0.0259  0.3579  0.6364
 6762SOL    HW121727   3.679   0.193   4.972  0.2421 -1.5173 -0.8181
 6762SOL    HW221728   3.829   0.173   4.971  0.4572 -0.2739  1.1020
 6763SOL     OW21729   4.568   1.882   4.663 -0.0783 -0.4027 -0.7557
 6763SOL    HW121730   4.644   1.913   4.614  1.7513 -4.0382 -0.4918
 6763SOL    HW221731   4.494   1.895   4.603  1.1893  0.4358 -2.2006
 6764SOL     OW21732   2.494   0.791   3.637 -0.1362 -0.2160 -0.9731
 6764SOL    HW121733   2.414   0.818   3.682 -0.2199 -0.5350 -0.9229
 6764SOL    HW221734   2.563   0.797   3.703  0.1384  1.3477 -1.3699
 6765SOL     OW21735   3.532   6.864   4.019  0.5868 -0.3925  0.0379
 6765SOL    HW121736   3.622   6.877   3.990  0.2661  0.3205 -0.6708
 6765SOL    HW221737   3.527   6.907   4.104  0.3899  1.3944 -0.8409
 6766SOL     OW21738   3.583   0.920   4.360  0.0455  0.4291 -0.1479
 6766SOL    HW121739   3.667   0.880   4.382  0.1253  1.2311  1.0805
 6766SOL    HW221740   3.603   0.983   4.291  0.1467 -0.6079 -1.0934
 6767SOL     OW21741   4.447   1.605   4.409  0.4396  0.2345  0.3592
 6767SOL    HW121742   4.402   1.689   4.414  0.1586  0.0667  0.6538
 6767SOL    HW221743   4.432   1.574   4.319 -0.6861 -0.1810  0.6773
 6768SOL     OW21744   0.329   1.428   3.278  0.1630  0.0261 -0.1552
 6768SOL    HW121745   0.256   1.490   3.274 -0.1518 -0.3608 -0.5854
 6768SOL    HW221746   0.394   1.470   3.334 -1.1027 -0.3626  1.6801
 6769SOL     OW21747   2.669   0.691   4.384  0.6217  0.4039 -0.2369
 6769SOL    HW121748   2.591   0.679   4.331  0.5629  0.1801 -0.1018
 6769SOL    HW221749   2.741   0.693   4.320  0.7575 -1.7554 -0.2341
 6770SOL     OW21750   2.472   6.078   4.582 -0.3406  0.4529 -0.6270
 6770SOL    HW121751   2.520   5.996   4.591  1.5759  1.4464 -1.2990
 6770SOL    HW221752   2.515   6.139   4.642 -0.0545  1.6553 -1.9820
 6771SOL     OW21753   1.099   0.388   5.050  0.1357  0.7569 -0.2294
 6771SOL    HW121754   1.098   0.309   5.104  0.5946  0.8312 -0.1032
 6771SOL    HW221755   1.009   0.399   5.021  0.1836 -0.1736 -0.7844
 6772SOL     OW21756   2.498   0.571   4.844  0.0628 -0.3062  0.0875
 6772SOL    HW121757   2.579   0.522   4.859 -1.0215 -1.6992  1.8228
 6772SOL    HW221758   2.469   0.544   4.757  0.4925 -1.3032  0.2362
 6773SOL     OW21759   0.694   7.355   4.233 -0.1968 -0.1646  0.6950
 6773SOL    HW121760   0.641   7.321   4.161  0.9867 -0.9570  0.1563
 6773SOL    HW221761   0.666   7.446   4.243  1.2104  0.7620 -2.4353
 6774SOL     OW21762   2.977   1.284   5.067  0.2160 -0.4981  0.2865
 6774SOL    HW121763   2.962   1.377   5.085 -0.9571 -0.8392  1.2020
 6774SOL    HW221764   2.917   1.263   4.995 -0.4237 -0.8148  0.9000
 6775SOL     OW21765   3.794   0.314   4.793  0.1960 -0.4249  0.8484
 6775SOL    HW121766   3.871   0.261   4.772  0.8182  1.3338 -1.7659
 6775SOL    HW221767   3.828   0.385   4.847  0.8338  1.2152 -1.5605
 6776SOL     OW21768   4.580   2.026   2.634 -0.6179  0.9933 -0.0844
 6776SOL    HW121769   4.531   2.000   2.556  1.9258 -0.7391 -1.2326
 6776SOL    HW221770   4.660   2.065   2.600 -0.5202  2.4624  1.7097
 6777SOL     OW21771   1.983   7.621   3.911  0.5415 -0.1457 -0.3734
 6777SOL    HW121772   1.968   7.648   3.820  1.3216  0.4653 -0.3255
 6777SOL    HW221773   1.937   7.538   3.919 -0.1726  0.1666 -1.1121
 6778SOL     OW21774   1.997   0.487   6.468 -0.3651 -0.0232  0.2500
 6778SOL    HW121775   2.063   0.553   6.489 -0.6674  0.4101 -0.1364
 6778SOL    HW221776   1.914   0.534   6.472 -0.6048 -0.4374  0.2030
 6779SOL     OW21777   1.856   2.090   5.159 -0.1715 -0.1208  0.5968
 6779SOL    HW121778   1.816   2.176   5.150  0.3952  0.0762 -0.1395
 6779SOL    HW221779   1.933   2.104   5.214 -0.1894 -0.1895  0.6403
 6780SOL     OW21780   3.854   0.398   5.658 -0.0261  0.1963  0.5497
 6780SOL    HW121781   3.823   0.307   5.663 -1.9251  0.7783  0.3630
 6780SOL    HW221782   3.896   0.405   5.573  0.2284 -0.5305  0.6086
 6781SOL     OW21783   2.354   6.923   3.803  0.0892 -0.3583  0.1434
 6781SOL    HW121784   2.341   6.950   3.712  0.5931 -1.1681 -0.1800
 6781SOL    HW221785   2.341   6.828   3.802 -0.5691 -0.2893  1.0464
 6782SOL     OW21786   2.858   0.378   5.687 -0.2695 -0.0917  0.2078
 6782SOL    HW121787   2.904   0.449   5.731  1.3419 -1.3442  0.6632
 6782SOL    HW221788   2.783   0.359   5.743 -0.2496  0.7061  0.5072
 6783SOL     OW21789   3.529   7.190   5.114  0.3833 -0.0008  0.2579
 6783SOL    HW121790   3.492   7.175   5.201  1.2067 -0.7975  0.4860
 6783SOL    HW221791   3.523   7.106   5.070  0.5341  0.2402 -0.2394
 6784SOL     OW21792   2.395   7.355   3.271  0.2833  0.4531  0.3009
 6784SOL    HW121793   2.373   7.297   3.343  3.3114  1.7227  2.4445
 6784SOL    HW221794   2.434   7.298   3.205 -0.5266 -0.4327  0.5707
 6785SOL     OW21795   3.144   1.748   3.518  0.8449  0.0452 -0.1516
 6785SOL    HW121796   3.107   1.833   3.544  0.7830 -0.1812  0.5200
 6785SOL    HW221797   3.223   1.771   3.469  0.6917  0.4977 -0.1958
 6786SOL     OW21798   3.053   2.377   4.676 -0.7424  0.4763 -0.0502
 6786SOL    HW121799   3.127   2.426   4.710 -1.1233 -0.4555  2.3250
 6786SOL    HW221800   3.090   2.320   4.608  0.8910 -0.3884  1.4632
 6787SOL     OW21801   3.363   0.662   4.478  0.4111  0.4922  0.0990
 6787SOL    HW121802   3.316   0.614   4.546 -0.0144 -0.5903 -0.9209
 6787SOL    HW221803   3.451   0.623   4.477  0.8065  1.3331  0.8281
 6788SOL     OW21804   2.842   0.378   3.214  0.4587 -0.0272 -0.1263
 6788SOL    HW121805   2.933   0.396   3.192  0.3899 -1.0017 -1.2679
 6788SOL    HW221806   2.840   0.285   3.235 -0.4921 -0.3096 -1.3633
 6789SOL     OW21807   5.665   0.364   3.313 -0.6557  0.2366 -0.3220
 6789SOL    HW121808   5.752   0.400   3.330 -0.1012 -1.1894  0.0235
 6789SOL    HW221809   5.675   0.315   3.232 -0.7866 -1.0210  0.4045
 6790SOL     OW21810   0.673   0.587   3.303  0.3963  0.1645  0.0072
 6790SOL    HW121811   0.709   0.579   3.391  1.8667  0.4695 -0.5352
 6790SOL    HW221812   0.606   0.655   3.310 -1.5813 -1.7918  1.4629
 6791SOL     OW21813   1.097   2.072   4.928  0.5271 -0.1225 -0.1032
 6791SOL    HW121814   1.164   2.084   4.860 -0.1940  0.8732 -0.6677
 6791SOL    HW221815   1.016   2.055   4.879  0.4681 -2.0394  0.5760
 6792SOL     OW21816   1.115   1.567   4.051  0.1983  0.4017  0.2353
 6792SOL    HW121817   1.050   1.512   4.007  1.3697  0.2711 -1.3821
 6792SOL    HW221818   1.102   1.549   4.144  0.5994 -2.6942 -0.2107
 6793SOL     OW21819   1.887   0.734   2.753  0.0368  0.0195 -0.3749
 6793SOL    HW121820   1.980   0.727   2.777  0.0364  0.2132 -0.3146
 6793SOL    HW221821   1.851   0.647   2.771  0.1504  0.0180 -0.1494
 6794SOL     OW21822   3.007   3.362   6.108  0.4901 -0.3805  0.2421
 6794SOL    HW121823   3.086   3.311   6.125  0.9696  0.8592  1.9701
 6794SOL    HW221824   3.038   3.451   6.094 -0.4902 -0.1703 -0.7512
 6795SOL     OW21825   3.530   1.092   4.689  0.0272  0.0849  0.2607
 6795SOL    HW121826   3.528   1.137   4.604  0.9521  1.5370  0.9667
 6795SOL    HW221827   3.574   1.009   4.671  0.9217  0.7164 -0.5399
 6796SOL     OW21828   1.828   1.268   4.810  0.3031 -0.1311  0.0855
 6796SOL    HW121829   1.793   1.197   4.756  0.1980  1.0699 -1.5149
 6796SOL    HW221830   1.751   1.322   4.831  0.5893  0.2942  0.0484
 6797SOL     OW21831   3.485   6.939   2.715 -0.6128  0.2412 -0.0558
 6797SOL    HW121832   3.389   6.931   2.713 -0.5027 -2.2356  1.0587
 6797SOL    HW221833   3.507   6.932   2.808  0.5886  3.0053 -0.0259
 6798SOL     OW21834   3.326   0.923   4.485 -0.3372 -0.4077 -0.1294
 6798SOL    HW121835   3.328   0.827   4.484 -3.3708 -0.5870 -1.9313
 6798SOL    HW221836   3.413   0.948   4.452 -0.0061 -2.5959 -1.1634
 6799SOL     OW21837   3.596   0.580   4.775 -0.3852  0.3443  0.1317
 6799SOL    HW121838   3.660   0.522   4.815 -0.4001 -0.5929 -1.1307
 6799SOL    HW221839   3.573   0.538   4.692 -1.2954  1.5595 -0.2805
 6800SOL     OW21840   3.184   0.387   6.395 -0.2509  0.4215 -0.0661
 6800SOL    HW121841   3.101   0.351   6.363  0.6310 -0.4142 -1.5668
 6800SOL    HW221842   3.233   0.310   6.424  1.1794  0.4365 -2.1633
 6801SOL     OW21843   2.815   0.485   3.625  0.0486  0.1033 -0.6788
 6801SOL    HW121844   2.741   0.505   3.569  0.5647  1.3038 -0.9524
 6801SOL    HW221845   2.823   0.389   3.621  0.0885  0.1498 -2.6870
 6802SOL     OW21846   2.745   7.918   3.936 -0.0619  0.1856  0.4182
 6802SOL    HW121847   2.698   7.876   3.864 -1.2621  0.7354  0.8585
 6802SOL    HW221848   2.714   8.008   3.935 -0.3167  0.1313  1.7964
 6803SOL     OW21849   3.890   1.746   2.942  0.0551 -0.0192 -0.4889
 6803SOL    HW121850   3.814   1.803   2.956  0.3756  0.2924  0.0035
 6803SOL    HW221851   3.908   1.709   3.028  0.1566 -0.4815 -0.7079
 6804SOL     OW21852   3.022   0.431   4.589 -0.0755  0.3705  0.1572
 6804SOL    HW121853   2.983   0.480   4.662 -2.1662 -1.1719  0.1648
 6804SOL    HW221854   3.031   0.495   4.519 -1.4495  1.1017  0.6047
 6805SOL     OW21855   0.998   0.605   4.093  0.5777 -0.3249  0.0373
 6805SOL    HW121856   0.997   0.564   4.007  0.7444  0.6598 -0.4435
 6805SOL    HW221857   1.090   0.624   4.111  0.3168  2.4875 -1.0725
 6806SOL     OW21858   1.059   0.168   5.189  0.0022 -0.3923  0.0445
 6806SOL    HW121859   0.992   0.166   5.257 -0.0165 -0.4220  0.0257
 6806SOL    HW221860   1.122   0.101   5.215  0.4064  0.1454  0.4468
 6807SOL     OW21861   0.525   7.659   6.743 -0.0833 -0.7766 -0.3840
 6807SOL    HW121862   0.575   7.738   6.722  0.8173 -1.1342  0.3569
 6807SOL    HW221863   0.434   7.683   6.724 -0.0588  0.9937  1.3188
 6808SOL     OW21864   2.569   6.283   4.750 -0.5297  0.0756  0.0257
 6808SOL    HW121865   2.557   6.378   4.751  1.0864  0.3144  1.5244
 6808SOL    HW221866   2.508   6.251   4.817 -2.0007 -0.1361 -1.3434
 6809SOL     OW21867   1.809   2.185   7.368 -0.0672  0.3155  0.0253
 6809SOL    HW121868   1.819   2.223   7.280  0.5708 -0.4722 -0.2624
 6809SOL    HW221869   1.737   2.233   7.407 -0.9375  0.1049 -1.2556
 6810SOL     OW21870   2.031   1.903   7.010  0.1507  0.3849  0.4512
 6810SOL    HW121871   2.066   1.814   7.006  1.7062  0.9928 -0.1763
 6810SOL    HW221872   2.095   1.952   7.062  0.2086  1.5052 -0.6239
 6811SOL     OW21873   2.064   0.957   7.342 -0.3271  0.4867 -0.0145
 6811SOL    HW121874   2.121   0.886   7.371  0.6040  2.0883  2.3821
 6811SOL    HW221875   2.062   0.949   7.247  3.4796 -0.0494 -0.1974
 6812SOL     OW21876   4.329   0.246   5.948  0.5491 -0.0370 -0.2515
 6812SOL    HW121877   4.299   0.169   5.900 -0.7560 -1.0184  1.9698
 6812SOL    HW221878   4.262   0.313   5.932  0.0096 -0.4292  0.3224
 6813SOL     OW21879   0.835   0.634   5.611  0.2985  0.5112  0.4481
 6813SOL    HW121880   0.862   0.695   5.543  1.0234 -1.0101 -0.6788
 6813SOL    HW221881   0.747   0.607   5.586  0.7516 -0.4213 -0.1862
 6814SOL     OW21882   3.343   7.791   7.093  0.2491 -0.0457 -0.3244
 6814SOL    HW121883   3.279   7.722   7.076 -0.3935  0.6705 -0.8301
 6814SOL    HW221884   3.425   7.743   7.110 -0.1510 -0.9284 -0.7954
 6815SOL     OW21885   1.471   2.771   7.421  0.3269 -0.7845  0.3993
 6815SOL    HW121886   1.394   2.764   7.478  1.7262  1.7662  2.8302
 6815SOL    HW221887   1.471   2.862   7.392  1.7712 -1.0732 -0.5985
 6816SOL     OW21888   2.070   1.431   7.574  0.1337 -0.0510  0.1409
 6816SOL    HW121889   2.106   1.394   7.655 -1.8166  0.6470  1.3818
 6816SOL    HW221890   2.037   1.355   7.526 -0.8868 -0.2575  1.1430
 6817SOL     OW21891   3.005   0.285   7.353  0.3486  0.3242  0.0258
 6817SOL    HW121892   3.021   0.314   7.443 -0.7662 -0.3292  0.4569
 6817SOL    HW221893   3.059   0.343   7.299  0.3678  1.3025  1.0529
 6818SOL     OW21894   4.250   0.374   6.243  0.1179  0.3085  0.1340
 6818SOL    HW121895   4.320   0.375   6.178 -0.2872  0.0819 -0.3093
 6818SOL    HW221896   4.173   0.343   6.196 -0.7209  2.1872  0.1729
 6819SOL     OW21897   1.150   7.681   5.286  0.1652  0.4288  0.6964
 6819SOL    HW121898   1.136   7.755   5.345  1.4840 -0.5059  2.2840
 6819SOL    HW221899   1.175   7.609   5.344  3.2946 -0.1046 -1.1086
 6820SOL     OW21900   1.767   1.021   5.665 -0.3677 -0.4805  0.1224
 6820SOL    HW121901   1.690   0.965   5.667 -1.5207  1.0511  1.0163
 6820SOL    HW221902   1.754   1.078   5.590  0.1444 -0.5418 -0.0155
 6821SOL     OW21903   1.934   1.453   6.934 -0.7107  0.5409 -0.4090
 6821SOL    HW121904   1.857   1.500   6.964 -1.6885 -0.5896 -1.0720
 6821SOL    HW221905   1.964   1.503   6.858  0.2631  1.9508  0.8529
 6822SOL     OW21906   2.791   7.999   7.323 -0.6584  0.3855  0.4229
 6822SOL    HW121907   2.780   8.002   7.418 -1.2976  0.3307  0.3543
 6822SOL    HW221908   2.790   8.091   7.296 -0.7276  0.3885  0.4372
 6823SOL     OW21909   1.346   2.136   6.381 -0.1758  0.1018  0.1196
 6823SOL    HW121910   1.438   2.109   6.375 -0.0748  0.6052 -0.6749
 6823SOL    HW221911   1.342   2.218   6.333 -1.0881 -0.0223 -0.0257
 6824SOL     OW21912   2.576   7.780   5.166 -0.1890  0.3003  0.0185
 6824SOL    HW121913   2.585   7.763   5.072  2.3013 -1.5672  0.4986
 6824SOL    HW221914   2.548   7.696   5.202  1.7903  0.1058  1.2431
 6825SOL     OW21915   2.217   7.762   4.673  0.0722  0.1276 -0.4489
 6825SOL    HW121916   2.299   7.761   4.623  0.3641  0.3116  0.0206
 6825SOL    HW221917   2.185   7.852   4.664 -0.0874  0.0516 -0.6446
 6826SOL     OW21918   3.984   0.348   6.112  0.0354 -0.4793 -0.0994
 6826SOL    HW121919   3.948   0.395   6.188  2.1330  1.5155 -0.2171
 6826SOL    HW221920   3.913   0.291   6.083 -1.3090 -0.2919  2.5105
 6827SOL     OW21921   1.730   1.156   5.190  0.5989  0.1172 -0.8722
 6827SOL    HW121922   1.778   1.233   5.161 -1.6452  1.6732 -0.6693
 6827SOL    HW221923   1.720   1.103   5.110  1.0643  0.6511 -1.2955
 6828SOL     OW21924   5.516   2.137   6.272  0.1594  0.0092 -0.1467
 6828SOL    HW121925   5.602   2.136   6.314 -0.5311 -2.1168  1.3727
 6828SOL    HW221926   5.474   2.217   6.304  1.4053  0.8772 -0.6181
 6829SOL     OW21927   2.638   7.999   5.748  0.3741 -0.1981 -0.4447
 6829SOL    HW121928   2.655   7.909   5.720  2.2810  0.1201 -0.4678
 6829SOL    HW221929   2.618   8.046   5.667 -1.4835 -0.7150 -0.3461
 6830SOL     OW21930   3.138   0.870   5.651  0.0042  0.0864  0.2379
 6830SOL    HW121931   3.166   0.924   5.577  0.4203 -0.3604  0.0654
 6830SOL    HW221932   3.059   0.825   5.620 -0.6704  1.0020  0.5703
 6831SOL     OW21933   3.973   6.705   6.491 -0.1387  0.2380  0.5553
 6831SOL    HW121934   3.996   6.721   6.582 -1.5173  0.9157  0.7993
 6831SOL    HW221935   3.958   6.610   6.487  2.8656 -0.3448  0.2908
 6832SOL     OW21936   3.489   0.120   9.240 -0.0364 -0.1101 -0.3058
 6832SOL    HW121937   3.440   0.049   9.282  1.1822 -0.4105  0.6669
 6832SOL    HW221938   3.580   0.098   9.256  0.3604  2.0388  0.6115
 6833SOL     OW21939   2.593   0.826   7.846  0.5926 -0.5047 -0.1821
 6833SOL    HW121940   2.612   0.874   7.926  0.1965  0.6212 -0.7386
 6833SOL    HW221941   2.664   0.763   7.838  0.9272 -0.2565  0.7649
 6834SOL     OW21942   3.572   0.973   9.712  0.1301  0.2887  0.2021
 6834SOL    HW121943   3.652   0.948   9.666 -0.4567 -0.8084 -0.2500
 6834SOL    HW221944   3.516   1.010   9.644  0.3850  1.4163  0.5879
 6835SOL     OW21945   1.710   1.386   5.487 -0.1727  0.0811  0.4938
 6835SOL    HW121946   1.800   1.355   5.499 -0.4557 -1.0279 -0.1239
 6835SOL    HW221947   1.719   1.473   5.449  0.6699 -0.7911 -1.4506
 6836SOL     OW21948   2.626   1.596   8.513  0.4642 -0.8180 -0.1425
 6836SOL    HW121949   2.707   1.552   8.487  0.5889  0.2112 -1.6452
 6836SOL    HW221950   2.556   1.540   8.478  0.5599 -1.0724  0.0749
 6837SOL     OW21951   4.919   1.063   6.194  0.1823 -0.2272 -0.2294
 6837SOL    HW121952   4.905   1.007   6.117  1.1340 -1.5577  0.5046
 6837SOL    HW221953   4.867   1.021   6.263  0.8141 -0.1439  0.3058
 6838SOL     OW21954   3.589   1.241   4.457  0.1880 -0.0226  0.3342
 6838SOL    HW121955   3.648   1.172   4.428 -0.0239 -0.0102 -0.1483
 6838SOL    HW221956   3.533   1.258   4.381 -0.1267  0.2909  0.6288
 6839SOL     OW21957   3.557   7.639   7.078  0.2853 -0.1065  0.4279
 6839SOL    HW121958   3.566   7.615   6.985 -0.0374  1.8928 -0.1799
 6839SOL    HW221959   3.645   7.631   7.113  0.4627 -0.6492 -0.1127
 6840SOL     OW21960   3.306   2.282   4.946  0.3327  0.3184  0.3250
 6840SOL    HW121961   3.338   2.297   5.035 -0.4188  0.1772  0.6255
 6840SOL    HW221962   3.285   2.370   4.914 -0.6122  0.2561  0.7587
 6841SOL     OW21963   3.823   1.022   5.094 -0.4109  0.3705 -0.2194
 6841SOL    HW121964   3.751   0.979   5.048 -1.4372  1.7460  0.0357
 6841SOL    HW221965   3.874   1.065   5.025 -1.3962  1.6325 -0.1767
 6842SOL     OW21966   1.898   0.693   5.012  0.0690  0.5403  0.3505
 6842SOL    HW121967   1.941   0.607   5.005  0.4699  0.6594  1.1730
 6842SOL    HW221968   1.971   0.756   5.011 -0.2716  0.9400 -1.1059
 6843SOL     OW21969   2.198   0.798   4.218  0.5123 -0.0068  0.5916
 6843SOL    HW121970   2.192   0.885   4.179 -2.6207 -0.8614 -1.1696
 6843SOL    HW221971   2.169   0.810   4.309  3.6812  1.2855  1.5497
 6844SOL     OW21972   2.831   1.556   6.405 -0.8684 -0.4812 -0.4167
 6844SOL    HW121973   2.860   1.642   6.374  0.3184 -0.1839  1.4093
 6844SOL    HW221974   2.872   1.494   6.345  1.8236  0.0424  0.7707
 6845SOL     OW21975   2.780   1.725   7.946 -0.2003  0.6853  0.4728
 6845SOL    HW121976   2.726   1.735   7.867 -1.3199 -0.6037  1.0319
 6845SOL    HW221977   2.775   1.809   7.989  1.7539  1.9788 -1.5787
 6846SOL     OW21978   2.059   7.658   6.983 -0.4643  0.1317 -0.4251
 6846SOL    HW121979   2.136   7.650   6.927 -0.1850 -1.0793  0.0996
 6846SOL    HW221980   1.990   7.688   6.924 -0.0120 -0.4737 -1.2919
 6847SOL     OW21981   3.408   2.664   6.558  0.4470  0.0722 -0.2104
 6847SOL    HW121982   3.418   2.708   6.643 -0.0022  0.7160 -0.4846
 6847SOL    HW221983   3.356   2.586   6.578 -0.0551  0.4670  0.0353
 6848SOL     OW21984   4.424   6.651   8.383 -0.0185  0.1479  0.6446
 6848SOL    HW121985   4.397   6.629   8.294 -0.2029 -0.3074  0.8113
 6848SOL    HW221986   4.348   6.696   8.421  0.0545  0.3279  0.5765
 6849SOL     OW21987   2.548   0.117   5.533 -0.4650 -0.8442 -0.3662
 6849SOL    HW121988   2.558   0.212   5.521 -2.0717 -0.6306 -0.2138
 6849SOL    HW221989   2.603   0.079   5.465  1.7393  0.1229  0.7418
 6850SOL     OW21990   0.589   0.641   4.264 -0.1395  0.0105  0.0317
 6850SOL    HW121991   0.670   0.605   4.301  0.0160  0.6223  0.2946
 6850SOL    HW221992   0.616   0.720   4.219 -0.4350 -0.3835 -0.8479
 6851SOL     OW21993   2.117   2.198   7.430 -0.7000  0.1258  0.0908
 6851SOL    HW121994   2.121   2.280   7.380  2.1816 -1.3677 -2.4971
 6851SOL    HW221995   2.026   2.191   7.457 -1.5202  3.1319 -1.4337
 6852SOL     OW21996   2.058   1.369   5.934  0.2726  0.2595  0.0491
 6852SOL    HW121997   2.115   1.393   6.007 -0.5928 -0.4527  0.9671
 6852SOL    HW221998   2.034   1.278   5.950 -1.3526  0.6270 -0.1803
 6853SOL     OW21999   4.044   0.384   6.480  0.3579 -0.1385 -0.1675
 6853SOL    HW122000   3.996   0.462   6.452  1.3293  1.2724  1.8580
 6853SOL    HW222001   4.122   0.383   6.424 -1.0784 -1.4843 -2.3013
 6854SOL     OW22002   2.902   0.705   3.451  0.2268 -0.5556 -0.0676
 6854SOL    HW122003   2.860   0.652   3.519  1.0711 -0.1937  0.7540
 6854SOL    HW222004   2.986   0.663   3.436 -0.1952 -0.9731 -1.3310
 6855SOL     OW22005   1.715   2.326   5.764  0.3480  0.2216 -0.3066
 6855SOL    HW122006   1.733   2.244   5.811  1.3456 -0.1066 -1.2419
 6855SOL    HW222007   1.646   2.368   5.816 -0.6452 -1.5031 -0.1536
 6856SOL     OW22008   2.093   1.872   8.635  0.0692 -0.2130  0.0822
 6856SOL    HW122009   2.040   1.939   8.678  0.8567  1.9997 -2.1644
 6856SOL    HW222010   2.183   1.891   8.660  0.5085  0.9201 -2.1106
 6857SOL     OW22011   3.078   1.428   7.768 -0.1189  0.1061 -1.2050
 6857SOL    HW122012   3.086   1.501   7.706 -1.2300  1.3403  0.0303
 6857SOL    HW222013   3.057   1.470   7.852 -1.0906 -1.6683 -0.5146
 6858SOL     OW22014   3.029   0.397   6.103 -0.2660 -0.3686  0.0813
 6858SOL    HW122015   3.001   0.372   6.191  1.6836 -0.5906  0.6717
 6858SOL    HW222016   3.011   0.319   6.049 -2.4455  0.1287  0.0032
 6859SOL     OW22017   2.709   7.806   9.657 -0.1678 -0.3941  0.3141
 6859SOL    HW122018   2.776   7.764   9.603  0.8026  1.4714 -0.0375
 6859SOL    HW222019   2.744   7.805   9.746 -1.0267 -2.0000  0.6674
 6860SOL     OW22020   2.560   1.182   7.079  0.1094 -0.3992 -0.0270
 6860SOL    HW122021   2.476   1.136   7.081 -0.0622 -0.2671 -2.0984
 6860SOL    HW222022   2.578   1.195   6.986  1.6078  1.0949  0.4222
 6861SOL     OW22023   2.794   0.516   7.267 -0.3470  0.5765  0.2689
 6861SOL    HW122024   2.833   0.551   7.347 -0.8861 -2.0504  1.8233
 6861SOL    HW222025   2.869   0.485   7.215 -0.0093  2.1090 -0.2153
 6862SOL     OW22026   1.319   1.546   5.759  0.5620 -0.8796 -0.8214
 6862SOL    HW122027   1.232   1.514   5.735  0.5144 -1.7520  0.4435
 6862SOL    HW222028   1.378   1.476   5.733  0.7365 -0.8862 -0.4112
 6863SOL     OW22029   2.511   3.003   5.300  0.2674 -0.0747 -0.3800
 6863SOL    HW122030   2.502   3.063   5.374 -1.0232 -0.6313 -0.0465
 6863SOL    HW222031   2.466   2.923   5.329  3.6161 -2.0116  0.0006
 6864SOL     OW22032   1.081   2.532   5.342  0.5737  0.2470  0.3312
 6864SOL    HW122033   1.121   2.548   5.257 -0.5891  2.9473  0.1989
 6864SOL    HW222034   1.034   2.450   5.332  2.3307 -0.6713 -0.8685
 6865SOL     OW22035   3.069   0.652   5.457 -0.2202  0.2182  0.4353
 6865SOL    HW122036   3.164   0.647   5.459 -0.1561  1.3269  0.6775
 6865SOL    HW222037   3.040   0.561   5.445  0.9522  0.1777 -3.4046
 6866SOL     OW22038   1.320   2.360   6.241 -0.0729 -0.0870  0.0510
 6866SOL    HW122039   1.405   2.391   6.209 -0.4055 -0.9801 -1.8865
 6866SOL    HW222040   1.271   2.440   6.261  0.5898  0.5117 -0.6379
 6867SOL     OW22041   3.367   6.730   4.948 -0.2073  0.4870  0.0254
 6867SOL    HW122042   3.355   6.825   4.952  1.1374  0.6505  2.4445
 6867SOL    HW222043   3.437   6.717   4.884 -1.4139  0.9504 -1.4434
 6868SOL     OW22044   3.463   7.663   7.572  0.4208 -0.1587  0.6064
 6868SOL    HW122045   3.420   7.589   7.529  0.7332  0.0674 -0.1029
 6868SOL    HW222046   3.467   7.638   7.664 -1.5138 -0.0455  0.7536
 6869SOL     OW22047   1.908   0.786   5.667 -0.5226 -0.4524 -0.4743
 6869SOL    HW122048   1.877   0.877   5.668  1.7798  0.3916 -0.5416
 6869SOL    HW222049   1.850   0.741   5.728 -2.5315  0.7291 -1.3889
 6870SOL     OW22050   1.778   1.208   6.328  0.0350  0.3136  0.4585
 6870SOL    HW122051   1.731   1.184   6.248 -0.7552  0.7815  0.7696
 6870SOL    HW222052   1.710   1.215   6.395  0.4717  1.5495  0.7954
 6871SOL     OW22053   4.099   1.548   6.865 -0.2370  0.4731 -0.1014
 6871SOL    HW122054   4.161   1.587   6.804  0.5595 -0.2362  0.2455
 6871SOL    HW222055   4.123   1.584   6.950  0.6109 -0.8842  0.2468
 6872SOL     OW22056   2.298   1.328   4.551 -1.4057 -0.1892  0.8813
 6872SOL    HW122057   2.313   1.241   4.513 -2.2070  0.2803 -0.5966
 6872SOL    HW222058   2.218   1.318   4.603 -0.7430 -0.6416  1.8514
 6873SOL     OW22059   1.522   1.369   5.702  0.7983  0.0484 -0.0951
 6873SOL    HW122060   1.575   1.391   5.778  1.5462  1.3630 -0.9571
 6873SOL    HW222061   1.583   1.374   5.628 -0.7751  3.5152 -1.3842
 6874SOL     OW22062   4.151   2.186   7.363  0.2935  0.0911 -0.8465
 6874SOL    HW122063   4.126   2.219   7.450  0.2949 -0.1931 -0.7393
 6874SOL    HW222064   4.118   2.252   7.303  1.2072  0.8422 -0.5693
 6875SOL     OW22065   2.919   6.475   6.196  0.1002 -0.1159 -0.0124
 6875SOL    HW122066   2.834   6.432   6.206  0.3160 -0.4758  0.3031
 6875SOL    HW222067   2.900   6.568   6.204 -0.5830 -0.0275 -2.0348
 6876SOL     OW22068   7.614   1.810   6.062 -0.3401  0.3881 -0.3561
 6876SOL    HW122069   7.623   1.881   5.998 -2.9025  0.9917 -0.1441
 6876SOL    HW222070   7.586   1.854   6.142 -1.2231 -0.7746 -0.0104
 6877SOL     OW22071   3.087   7.101   8.397 -0.1362 -0.5441 -0.1594
 6877SOL    HW122072   3.109   7.063   8.481  0.4944  0.1908  0.0205
 6877SOL    HW222073   3.141   7.180   8.391 -0.0551 -0.6625 -1.3124
 6878SOL     OW22074   2.908   6.336   3.599 -0.3093  0.0596  0.3751
 6878SOL    HW122075   2.905   6.266   3.533 -1.1765  0.8794 -0.4973
 6878SOL    HW222076   3.001   6.346   3.620 -0.1213 -0.9359  0.0543
 6879SOL     OW22077   4.576   1.293   6.536  0.2503 -0.0309  0.7575
 6879SOL    HW122078   4.645   1.298   6.601  0.1109  0.4209  0.8797
 6879SOL    HW222079   4.505   1.246   6.580  0.9953 -1.8154  0.1455
 6880SOL     OW22080   2.198   7.861   5.880 -0.3053 -0.1864  0.3351
 6880SOL    HW122081   2.117   7.894   5.841 -0.4520 -0.7715  0.1316
 6880SOL    HW222082   2.241   7.812   5.810  0.7675  1.0020  0.1195
 6881SOL     OW22083   3.070   7.841   5.006 -0.0215  0.2856  0.3782
 6881SOL    HW122084   3.097   7.851   4.915 -0.3329  1.5763  0.4112
 6881SOL    HW222085   3.140   7.789   5.046 -0.5273 -1.4606 -0.8694
 6882SOL     OW22086   2.928   6.902   5.341  0.5261  0.0737  0.0230
 6882SOL    HW122087   2.876   6.915   5.420  0.8371  0.5148  0.1543
 6882SOL    HW222088   2.951   6.990   5.312 -0.0837 -0.0566 -0.8956
 6883SOL     OW22089   3.322   7.845   6.575 -0.5416  0.1264  0.0605
 6883SOL    HW122090   3.290   7.935   6.566 -1.9058  0.0481  2.9751
 6883SOL    HW222091   3.245   7.791   6.562 -0.1181 -0.4947  0.1125
 6884SOL     OW22092   1.028   2.408   6.095  0.5973 -0.2167 -0.1504
 6884SOL    HW122093   0.961   2.385   6.160 -0.1206  0.8257 -0.4979
 6884SOL    HW222094   0.981   2.410   6.011  0.2290  3.7012 -0.0313
 6885SOL     OW22095   1.807   4.337   6.513  0.1244 -0.2354  0.5879
 6885SOL    HW122096   1.830   4.403   6.579 -0.1648  1.1349 -0.6345
 6885SOL    HW222097   1.891   4.306   6.479  0.2580  0.4377  0.2860
 6886SOL     OW22098   3.029   0.666   6.207  0.3291  0.0204  0.8130
 6886SOL    HW122099   3.070   0.596   6.155  0.0846 -0.5094  1.3202
 6886SOL    HW222100   3.079   0.668   6.288 -0.3039 -0.2666  1.2182
 6887SOL     OW22101   3.337   0.203   6.562  0.4297 -0.2701  0.0375
 6887SOL    HW122102   3.262   0.164   6.516  0.1769  1.0670 -0.7623
 6887SOL    HW222103   3.308   0.212   6.653 -0.7734  1.0810 -0.4406
 6888SOL     OW22104   3.161   6.771   5.920  0.5130 -0.1027 -0.2707
 6888SOL    HW122105   3.147   6.853   5.967  1.2367  0.0212 -0.2501
 6888SOL    HW222106   3.251   6.777   5.887  1.5158 -1.9035  1.8315
 6889SOL     OW22107   2.306   7.965   5.589  0.1179  0.3104  0.1009
 6889SOL    HW122108   2.354   8.033   5.541 -0.1674 -0.5616 -1.4874
 6889SOL    HW222109   2.214   7.993   5.584 -0.0723 -0.4182 -1.0490
 6890SOL     OW22110   2.934   6.695   5.180  0.5209 -0.6613 -0.0994
 6890SOL    HW122111   3.024   6.672   5.158  1.0351 -0.0720  1.2892
 6890SOL    HW222112   2.942   6.769   5.239 -0.8831 -0.6063  0.0517
 6891SOL     OW22113   3.641   0.970   6.799  0.3525  0.0049 -0.1746
 6891SOL    HW122114   3.726   1.008   6.777  0.6918 -1.0892 -0.8345
 6891SOL    HW222115   3.614   0.925   6.719  0.0753 -1.3260  0.6531
 6892SOL     OW22116   3.270   0.005   7.793  0.0223 -0.0020 -0.2505
 6892SOL    HW122117   3.305  -0.036   7.714  0.5339  0.6182 -0.3539
 6892SOL    HW222118   3.319  -0.035   7.865 -0.8636 -1.0092 -0.1843
 6893SOL     OW22119   2.519   7.545   5.320 -0.2424  0.0480  0.6154
 6893SOL    HW122120   2.536   7.509   5.407 -2.6734  1.3031  1.7030
 6893SOL    HW222121   2.426   7.529   5.306  0.5021 -2.4978 -2.9760
 6894SOL     OW22122   1.605   1.686   5.376  0.0259 -0.5165 -0.1862
 6894SOL    HW122123   1.699   1.682   5.361  0.0444 -1.6651  0.1392
 6894SOL    HW222124   1.589   1.775   5.408  1.4232 -1.1200  2.4856
 6895SOL     OW22125   3.388   0.456   6.918  0.2627  0.0349 -0.0210
 6895SOL    HW122126   3.396   0.367   6.951  0.4103 -0.5351 -1.5204
 6895SOL    HW222127   3.294   0.473   6.917  0.2168 -0.2179 -0.0095
 6896SOL     OW22128   2.533   1.749   6.853 -0.2659 -0.0997  0.0774
 6896SOL    HW122129   2.515   1.840   6.874  1.1571 -0.2530  2.3015
 6896SOL    HW222130   2.447   1.709   6.840 -0.9099  1.4894 -0.7659
 6897SOL     OW22131   1.746   0.116   5.604 -0.4620  0.1125  0.1261
 6897SOL    HW122132   1.791   0.099   5.522  0.4654  0.8916  0.4607
 6897SOL    HW222133   1.730   0.029   5.641 -0.1561 -0.2052 -0.4784
 6898SOL     OW22134   2.880   1.078   8.445  0.0447  0.4909  0.7618
 6898SOL    HW122135   2.915   1.067   8.534 -0.8865 -0.6808  1.0108
 6898SOL    HW222136   2.913   1.003   8.397 -0.8265  0.2102  0.5831
 6899SOL     OW22137   2.095   1.886   8.041  0.0006  0.1883 -0.2922
 6899SOL    HW122138   2.169   1.946   8.048 -0.3859  0.6378  0.0166
 6899SOL    HW222139   2.072   1.888   7.948  0.2312  0.2262 -0.3496
 6900SOL     OW22140   3.845   2.182   7.605 -0.3892 -0.5568 -0.0917
 6900SOL    HW122141   3.913   2.233   7.648 -0.7920  0.1846 -0.3048
 6900SOL    HW222142   3.805   2.131   7.675 -0.3735 -0.1236  0.2377
 6901SOL     OW22143   2.808   6.957   7.049  0.2684  0.3146  0.2067
 6901SOL    HW122144   2.836   7.042   7.016  1.3207 -0.1958 -0.2558
 6901SOL    HW222145   2.889   6.915   7.078  0.3637 -1.9616 -2.8456
 6902SOL     OW22146   4.443   0.699   7.358  0.3914  0.4291  0.6196
 6902SOL    HW122147   4.407   0.621   7.317  1.8525  0.5980 -1.1268
 6902SOL    HW222148   4.367   0.755   7.373 -0.5804 -1.0002  1.2018
 6903SOL     OW22149   3.186   7.838   6.268 -0.1002 -0.1550 -0.2531
 6903SOL    HW122150   3.172   7.909   6.330 -0.8262 -0.8306  0.3808
 6903SOL    HW222151   3.204   7.881   6.184  0.3981  0.7664  0.3171
 6904SOL     OW22152   4.033   1.146   6.452  0.1261  0.1002 -0.2206
 6904SOL    HW122153   4.114   1.106   6.422  0.3650  0.9288 -0.6999
 6904SOL    HW222154   3.996   1.082   6.513  0.7079 -0.6554 -0.6429
 6905SOL     OW22155   1.831   2.657   5.397 -0.1330  0.1902 -0.1868
 6905SOL    HW122156   1.878   2.718   5.454  1.8833 -1.0310 -0.4744
 6905SOL    HW222157   1.826   2.576   5.447 -0.8090 -0.0823 -0.6811
 6906SOL     OW22158   2.029   0.353   5.691 -0.2461 -0.1824  0.0310
 6906SOL    HW122159   1.953   0.404   5.663 -1.1687  0.5174  3.3540
 6906SOL    HW222160   2.012   0.265   5.658 -1.2184  0.5138 -1.4349
 6907SOL     OW22161   1.839   7.210   5.825  0.1302  0.1664  0.6112
 6907SOL    HW122162   1.933   7.227   5.820 -0.0826  1.3496  0.2389
 6907SOL    HW222163   1.813   7.193   5.734  0.2299 -1.7263  0.9010
 6908SOL     OW22164   1.113   1.139   6.070 -0.0751  0.0444  0.9672
 6908SOL    HW122165   1.127   1.201   6.141 -1.3725  1.8219 -0.2458
 6908SOL    HW222166   1.018   1.122   6.071 -0.2930  0.8807 -0.9032
 6909SOL     OW22167   1.151   1.964   6.302  0.2401 -0.4362 -0.6805
 6909SOL    HW122168   1.203   2.032   6.343  0.1804 -0.5768 -0.3669
 6909SOL    HW222169   1.063   2.001   6.297 -0.0223 -0.8793  0.4481
 6910SOL     OW22170   4.649   7.851   7.300 -0.0799 -0.0703  0.5138
 6910SOL    HW122171   4.592   7.780   7.270 -0.6027  0.9743 -1.1201
 6910SOL    HW222172   4.726   7.844   7.245  1.0735 -0.9678  2.1645
 6911SOL     OW22173   1.707   1.056   4.678 -0.1809  0.4514  0.1643
 6911SOL    HW122174   1.758   1.033   4.600 -0.7508 -0.1770 -0.0272
 6911SOL    HW222175   1.616   1.052   4.649 -0.4633 -0.9163  1.1408
 6912SOL     OW22176   2.749   1.694   7.464 -0.0599 -0.1557  0.2995
 6912SOL    HW122177   2.688   1.664   7.398 -1.2521  1.3392  0.6610
 6912SOL    HW222178   2.710   1.669   7.548  1.0089 -1.2641  0.5018
 6913SOL     OW22179   2.413   0.860   6.473  0.3459  0.0945 -0.3299
 6913SOL    HW122180   2.358   0.872   6.395 -1.0992 -0.7145  0.5203
 6913SOL    HW222181   2.386   0.931   6.532 -2.8805 -2.5616  1.7330
 6914SOL     OW22182   2.713   0.249   7.873 -0.5547 -0.2005 -0.3947
 6914SOL    HW122183   2.790   0.195   7.892 -1.0025 -0.2999  1.3076
 6914SOL    HW222184   2.642   0.187   7.859 -1.0673 -0.1345  1.5516
 6915SOL     OW22185   2.542   0.083   8.434 -0.3998  0.8868 -0.1978
 6915SOL    HW122186   2.587   0.080   8.518  0.2956  1.3269 -0.5502
 6915SOL    HW222187   2.469   0.144   8.448 -0.2677  0.9846  0.0673
 6916SOL     OW22188   4.665   6.964   7.320  0.1718  0.7716 -0.4173
 6916SOL    HW122189   4.705   6.885   7.285 -1.1313 -0.2922  0.4028
 6916SOL    HW222190   4.601   6.990   7.254  2.1272  2.4898 -1.7429
 6917SOL     OW22191   4.283   7.031   6.487  0.2360 -0.3289  0.1520
 6917SOL    HW122192   4.262   7.001   6.576 -0.2062  0.9314  0.4862
 6917SOL    HW222193   4.254   6.959   6.431 -0.9515 -0.4845  0.9269
 6918SOL     OW22194   1.023   7.915   6.328  0.8088  0.2930 -0.2328
 6918SOL    HW122195   1.017   7.834   6.379 -0.4773 -0.1607 -1.0485
 6918SOL    HW222196   0.939   7.959   6.344  0.2050 -0.0557 -2.2399
 6919SOL     OW22197   2.142   1.737   4.645  0.4415  0.3927  0.3778
 6919SOL    HW122198   2.191   1.811   4.610  1.9298  0.1055  1.7178
 6919SOL    HW222199   2.208   1.686   4.693 -0.2548 -2.4629 -1.4510
 6920SOL     OW22200   2.397   1.073   5.118 -0.5126 -0.2092 -0.1109
 6920SOL    HW122201   2.402   1.032   5.205  1.7091 -0.6337 -0.3830
 6920SOL    HW222202   2.415   1.001   5.057 -1.1423  0.2815 -0.8971
 6921SOL     OW22203   2.157   1.079   5.383 -0.3959 -0.1567  0.0299
 6921SOL    HW122204   2.198   1.050   5.465  0.0834 -1.1343 -0.5336
 6921SOL    HW222205   2.066   1.051   5.392 -0.3944 -0.0759  0.3171
 6922SOL     OW22206   2.849   7.043   6.282 -0.7664 -0.1456  0.1407
 6922SOL    HW122207   2.868   7.078   6.195 -1.1873 -1.6243 -0.5716
 6922SOL    HW222208   2.756   7.061   6.295 -0.7301 -0.0261  0.2307
 6923SOL     OW22209   2.460   0.521   5.257 -0.0871 -0.5816 -0.0982
 6923SOL    HW122210   2.501   0.450   5.208  2.3170  0.6768 -0.0297
 6923SOL    HW222211   2.467   0.494   5.348  1.9723  0.2113  0.0340
 6924SOL     OW22212   0.829   0.959   4.746  0.3882 -0.0461  0.2095
 6924SOL    HW122213   0.780   0.991   4.821 -1.6505  1.1289 -1.5338
 6924SOL    HW222214   0.921   0.961   4.775 -0.1673  1.9988  2.0970
 6925SOL     OW22215   3.766   7.636   7.262 -0.3208  0.1802 -0.2848
 6925SOL    HW122216   3.718   7.702   7.313  1.7242  0.2165  1.7437
 6925SOL    HW222217   3.802   7.577   7.328 -0.6608 -2.0340 -1.9597
 6926SOL     OW22218   1.913   1.606   6.120 -0.2642  0.2362  0.1684
 6926SOL    HW122219   1.838   1.634   6.068  0.5140  0.0512 -1.0842
 6926SOL    HW222220   1.952   1.688   6.152 -2.1216  0.3117  2.5750
 6927SOL     OW22221   4.308   6.906   4.686  0.1258  0.5158 -0.1431
 6927SOL    HW122222   4.262   6.989   4.691 -1.0042 -0.0207 -1.1668
 6927SOL    HW222223   4.360   6.912   4.606 -1.8028 -0.6034 -1.5781
 6928SOL     OW22224   1.166   0.534   4.398  0.1793 -0.3312  0.0422
 6928SOL    HW122225   1.106   0.476   4.446 -1.8534 -0.7752 -2.8002
 6928SOL    HW222226   1.203   0.478   4.330  1.9453  0.5893  0.2049
 6929SOL     OW22227   2.628   1.456   9.087 -0.6349 -0.3377 -0.0198
 6929SOL    HW122228   2.602   1.380   9.139 -1.9577  1.4240  2.0066
 6929SOL    HW222229   2.674   1.514   9.148  0.2376  0.6001 -1.4865
 6930SOL     OW22230   3.997   2.135   7.866  0.4724  0.2551  0.1008
 6930SOL    HW122231   3.983   2.136   7.961  0.4051 -0.6868  0.1007
 6930SOL    HW222232   3.919   2.094   7.830 -0.1877  1.9265 -0.5021
 6931SOL     OW22233   1.965   7.846   8.590 -0.8997  0.3445 -0.1570
 6931SOL    HW122234   2.045   7.892   8.615 -1.9893  1.7907  0.8304
 6931SOL    HW222235   1.989   7.753   8.591  0.4438  0.6756  1.3734
 6932SOL     OW22236   1.237   6.618   3.759 -0.2837 -0.0701 -0.5866
 6932SOL    HW122237   1.329   6.635   3.775 -0.5597  1.6035 -0.6602
 6932SOL    HW222238   1.236   6.532   3.717  1.1292 -0.6142  0.4326
 6933SOL     OW22239   3.367   0.489   4.898 -0.1095  0.4129  0.2228
 6933SOL    HW122240   3.370   0.521   4.988  2.2833 -1.9228  1.1327
 6933SOL    HW222241   3.445   0.527   4.857  0.2467 -0.5682 -0.0354
 6934SOL     OW22242   2.096   0.666   5.508 -0.3263 -0.1226 -0.4550
 6934SOL    HW122243   2.181   0.710   5.503 -0.0064 -0.3210  1.9920
 6934SOL    HW222244   2.038   0.730   5.549 -0.9052 -0.5680 -0.5679
 6935SOL     OW22245   1.442   1.468   6.789 -0.0383 -0.0547 -0.0469
 6935SOL    HW122246   1.457   1.541   6.849  1.7078 -0.7431  0.4067
 6935SOL    HW222247   1.529   1.431   6.773 -0.9465 -2.7981  0.7022
 6936SOL     OW22248   2.580   0.431   5.860  0.3943  0.6365 -0.3236
 6936SOL    HW122249   2.626   0.427   5.944  0.0857  0.4851 -0.1612
 6936SOL    HW222250   2.531   0.349   5.855  0.0559  0.8451 -0.4473
 6937SOL     OW22251   3.632   0.001   7.204 -0.0106 -0.0414 -0.2854
 6937SOL    HW122252   3.638  -0.085   7.163  0.3995  0.4202 -1.2323
 6937SOL    HW222253   3.594   0.057   7.136 -0.3202  0.5155  0.3353
 6938SOL     OW22254   3.106   7.228   7.475  0.7378 -0.1026  0.1553
 6938SOL    HW122255   3.041   7.219   7.545  1.6018  0.5940  1.0663
 6938SOL    HW222256   3.153   7.308   7.496  1.9183 -0.6130 -0.4747
 6939SOL     OW22257   1.449   2.206   5.260  0.2191 -0.3214 -0.1969
 6939SOL    HW122258   1.400   2.209   5.341  1.5440 -0.6854  0.6485
 6939SOL    HW222259   1.515   2.275   5.269  0.1039 -0.0745 -1.1463
 6940SOL     OW22260   2.748   2.129   7.464  0.4593 -0.2436  0.0115
 6940SOL    HW122261   2.730   2.058   7.526 -0.0465 -0.6757 -0.6218
 6940SOL    HW222262   2.662   2.169   7.449  0.5141 -0.3862 -0.6978
 6941SOL     OW22263   5.194   2.598   6.772  0.0828  0.2366  0.3241
 6941SOL    HW122264   5.116   2.652   6.784  0.1460  0.7404 -1.3293
 6941SOL    HW222265   5.236   2.597   6.859  0.8770  4.0790  0.1620
 6942SOL     OW22266   3.652   7.890   6.736  0.2600 -0.2796 -0.6701
 6942SOL    HW122267   3.697   7.820   6.783  0.6038 -1.0430 -2.0878
 6942SOL    HW222268   3.626   7.850   6.653  1.2734  1.5314 -1.9103
 6943SOL     OW22269   1.533   0.389   6.965  0.5600 -0.1576  0.2464
 6943SOL    HW122270   1.576   0.387   7.050  1.9214 -0.7951 -0.4151
 6943SOL    HW222271   1.521   0.296   6.942  0.8711 -0.0036 -0.5620
 6944SOL     OW22272   3.503   6.462   8.426 -0.2470  0.0030  0.2374
 6944SOL    HW122273   3.573   6.509   8.382 -0.2930  0.8816  1.0631
 6944SOL    HW222274   3.545   6.419   8.500 -0.0840 -1.8442 -0.8496
 6945SOL     OW22275   2.385   1.207   5.713  0.1050  0.5094  0.3035
 6945SOL    HW122276   2.466   1.165   5.743  0.8856  2.1249  0.5671
 6945SOL    HW222277   2.342   1.140   5.660  2.0163 -0.1604 -0.5340
 6946SOL     OW22278   0.760   1.361   5.922  0.0911  0.0498  0.5513
 6946SOL    HW122279   0.849   1.396   5.919  0.4582 -0.6913  1.9237
 6946SOL    HW222280   0.767   1.284   5.978 -1.0232 -1.2612 -1.0385
 6947SOL     OW22281   2.648   7.346   5.550  0.2108 -0.5433  0.1080
 6947SOL    HW122282   2.697   7.315   5.473  1.9206 -0.0332  0.9396
 6947SOL    HW222283   2.672   7.286   5.620  1.0770  0.7461  0.9684
 6948SOL     OW22284   2.004   3.159   8.879 -0.4044 -0.7842  0.2546
 6948SOL    HW122285   2.076   3.217   8.905 -1.8625 -0.8144  5.3184
 6948SOL    HW222286   2.048   3.084   8.839  2.0004  0.9047 -0.5288
 6949SOL     OW22287   1.974   7.461   5.143 -0.0741 -0.4335  0.2023
 6949SOL    HW122288   1.978   7.501   5.056  1.3519  2.6575  1.5135
 6949SOL    HW222289   1.928   7.525   5.197  1.4556 -0.9503  2.2755
 6950SOL     OW22290   2.380   1.650   7.329 -0.0186  0.0694  0.0227
 6950SOL    HW122291   2.465   1.638   7.286  0.0491  0.2518  0.1032
 6950SOL    HW222292   2.369   1.572   7.383 -0.6021 -0.6877 -1.1457
 6951SOL     OW22293   1.556   1.116   5.387  0.0618 -0.5207 -0.8109
 6951SOL    HW122294   1.544   1.022   5.375 -0.4142 -0.6583  0.6309
 6951SOL    HW222295   1.604   1.144   5.308 -0.3123 -1.8482 -1.5414
 6952SOL     OW22296   2.090   0.034   4.786 -0.6752 -0.2273  0.6025
 6952SOL    HW122297   1.995   0.028   4.798 -0.5910 -2.3484  0.5038
 6952SOL    HW222298   2.100   0.076   4.700 -1.5006  0.4537  0.8224
 6953SOL     OW22299   4.531   0.693   5.216 -0.2498  0.2682  0.5476
 6953SOL    HW122300   4.517   0.601   5.238 -0.4759 -0.9225 -3.7646
 6953SOL    HW222301   4.444   0.726   5.196  0.0473  0.9317  0.3423
 6954SOL     OW22302   2.606   7.686   4.895  0.2594 -0.5420 -0.2346
 6954SOL    HW122303   2.562   7.612   4.937  1.3639 -1.0361  0.1019
 6954SOL    HW222304   2.586   7.677   4.802 -0.1172 -0.9086 -0.1193
 6955SOL     OW22305   4.806   1.789   6.524  0.0772 -0.1498  0.2172
 6955SOL    HW122306   4.852   1.815   6.604 -1.5585  0.9864  0.8316
 6955SOL    HW222307   4.762   1.868   6.495  0.5654 -0.5718 -1.8084
 6956SOL     OW22308   3.136   1.614   6.945 -0.1027  0.1458 -0.5171
 6956SOL    HW122309   3.164   1.554   6.876  1.0246 -0.7690  0.6753
 6956SOL    HW222310   3.206   1.680   6.950  0.0487 -0.0429  0.0082
 6957SOL     OW22311   0.909   2.606   6.284 -0.2962 -0.5680  0.2642
 6957SOL    HW122312   1.001   2.581   6.294 -0.6038 -1.3420  1.3405
 6957SOL    HW222313   0.906   2.697   6.314  0.0908 -0.5919  0.3921
 6958SOL     OW22314   2.214   0.935   8.759  0.3219 -0.2127 -0.6652
 6958SOL    HW122315   2.152   0.998   8.795  0.4735 -0.1081 -0.5875
 6958SOL    HW222316   2.204   0.943   8.664  0.2594 -0.1513 -0.6538
 6959SOL     OW22317   3.000   2.181   5.723  0.1440  0.0339 -0.1266
 6959SOL    HW122318   3.027   2.271   5.743 -0.0903  0.3859 -1.2802
 6959SOL    HW222319   2.943   2.190   5.646 -0.3974 -1.0410  0.1304
 6960SOL     OW22320   2.221   0.317   6.433  0.8303  0.1725 -0.2091
 6960SOL    HW122321   2.248   0.325   6.341  1.2755  2.2000  0.0365
 6960SOL    HW222322   2.143   0.373   6.439  1.7508  1.3678  0.9725
 6961SOL     OW22323   0.815   2.373   6.362  0.2180 -0.5224  0.0754
 6961SOL    HW122324   0.877   2.440   6.335 -0.2439  0.5879  1.5999
 6961SOL    HW222325   0.731   2.403   6.327 -0.1343  0.1781  1.4494
 6962SOL     OW22326   2.208   1.101   4.883 -0.4787  0.0610  0.0965
 6962SOL    HW122327   2.267   1.025   4.886 -0.3905  0.1160 -0.1762
 6962SOL    HW222328   2.144   1.084   4.952  0.8995  0.8853  1.6492
 6963SOL     OW22329   2.205   1.553   5.272 -0.4929  0.3158  0.1203
 6963SOL    HW122330   2.159   1.636   5.259 -1.1021 -0.0096  0.1464
 6963SOL    HW222331   2.260   1.568   5.349 -0.8548  0.5881  0.3299
 6964SOL     OW22332   2.318   1.560   6.764  0.1757 -0.0529 -0.4841
 6964SOL    HW122333   2.265   1.564   6.844  0.2358 -1.0513 -0.3831
 6964SOL    HW222334   2.254   1.566   6.693  0.0654  0.2158 -0.3650
 6965SOL     OW22335   2.676   3.746   7.134 -0.2150 -0.4785 -0.1754
 6965SOL    HW122336   2.753   3.718   7.185 -0.4965 -0.7969  0.0769
 6965SOL    HW222337   2.693   3.839   7.115 -0.4605 -0.1276  1.1810
 6966SOL     OW22338   1.097   1.702   4.547 -0.0289 -0.4402 -0.1134
 6966SOL    HW122339   1.168   1.757   4.581  0.8355 -1.7115  0.2001
 6966SOL    HW222340   1.023   1.722   4.605  0.5111 -0.2197  0.5289
 6967SOL     OW22341   2.466   0.231   6.522 -0.4852  0.1361  0.1481
 6967SOL    HW122342   2.463   0.225   6.617  1.7790 -1.7389  0.2179
 6967SOL    HW222343   2.375   0.244   6.495 -1.5684 -1.8334  2.4648
 6968SOL     OW22344   3.410   7.360   6.899  0.0555  0.6554 -0.3748
 6968SOL    HW122345   3.370   7.446   6.908 -0.6569  0.5718 -2.3707
 6968SOL    HW222346   3.493   7.377   6.853  0.0252  0.3010 -0.5638
 6969SOL     OW22347   3.598   1.771   6.514  0.1219 -0.3951 -0.0113
 6969SOL    HW122348   3.693   1.774   6.522  0.1360 -0.9864  0.0509
 6969SOL    HW222349   3.577   1.679   6.497 -0.3115 -0.0189 -1.6817
 6970SOL     OW22350   1.829   7.988   5.057 -1.0035 -0.0556  0.1150
 6970SOL    HW122351   1.796   7.902   5.029 -0.2120  0.6273 -3.4033
 6970SOL    HW222352   1.773   8.051   5.012 -0.3322  1.2455  1.0413
 6971SOL     OW22353   3.671   1.469   5.823 -0.0650 -0.1755  0.2496
 6971SOL    HW122354   3.710   1.553   5.801 -0.4273  0.4936  2.0508
 6971SOL    HW222355   3.680   1.462   5.918  0.9468 -2.6661  0.0624
 6972SOL     OW22356   0.472   1.665   6.045  0.4852 -0.2861  0.3870
 6972SOL    HW122357   0.492   1.630   6.132 -0.9246 -0.0817  0.8224
 6972SOL    HW222358   0.393   1.617   6.018  1.0515 -0.5297 -0.8965
 6973SOL     OW22359   2.854   0.950   6.740 -0.1110  0.5307  0.0237
 6973SOL    HW122360   2.902   0.868   6.733 -0.9323 -0.1310  1.6451
 6973SOL    HW222361   2.901   1.010   6.682  0.4134 -1.1003 -1.3430
 6974SOL     OW22362   4.957   7.948   6.595 -0.0899 -0.2602 -0.1932
 6974SOL    HW122363   5.012   7.957   6.517 -0.4806 -1.0724 -0.5851
 6974SOL    HW222364   4.871   7.982   6.568  0.7113  3.1689  1.1073
 6975SOL     OW22365   3.048   7.066   5.681  0.7016  0.2688  0.1748
 6975SOL    HW122366   3.038   6.974   5.705 -1.6109 -0.3330 -2.5257
 6975SOL    HW222367   2.969   7.109   5.712  1.1188  1.0535  0.1929
 6976SOL     OW22368   1.111   2.692   6.002 -0.0483  0.0381  0.2706
 6976SOL    HW122369   1.103   2.598   6.014  0.4965 -0.1691 -0.8824
 6976SOL    HW222370   1.183   2.703   5.940  0.5219  1.2615  1.0901
 6977SOL     OW22371   2.002   6.855   6.722  0.0323 -0.2631  0.2472
 6977SOL    HW122372   1.982   6.824   6.634  0.3489 -0.1017  0.1180
 6977SOL    HW222373   2.051   6.936   6.708  1.1824 -0.8915  0.5541
 6978SOL     OW22374   0.600   2.272   5.699 -0.2328  0.6551  0.0612
 6978SOL    HW122375   0.691   2.295   5.683  0.2355 -0.8507  0.3772
 6978SOL    HW222376   0.589   2.187   5.656 -1.3198  0.5349  0.5425
 6979SOL     OW22377   2.555   1.335   5.079  0.0660 -0.0963 -0.0146
 6979SOL    HW122378   2.500   1.260   5.103  0.2559 -1.1315 -2.4928
 6979SOL    HW222379   2.493   1.408   5.075 -0.4447 -0.4665  0.7820
 6980SOL     OW22380   4.928   7.413   7.020  0.3693  0.1570  0.0417
 6980SOL    HW122381   4.865   7.475   6.985  1.9398  1.3392 -0.7859
 6980SOL    HW222382   4.932   7.343   6.955  0.5024  0.4729 -0.2881
 6981SOL     OW22383   3.326   0.212   5.947  0.2270 -0.4706  0.6120
 6981SOL    HW122384   3.297   0.271   5.876  1.3393 -1.3700 -0.6362
 6981SOL    HW222385   3.343   0.271   6.020 -0.9471  0.4975  0.1501
 6982SOL     OW22386   1.454   7.234   6.381  0.0635 -0.0131  0.6838
 6982SOL    HW122387   1.519   7.166   6.399  1.6306  1.5027  1.0416
 6982SOL    HW222388   1.505   7.308   6.349 -1.6869  0.7056 -0.6497
 6983SOL     OW22389   1.932   0.841   6.284 -0.0484 -0.1480 -0.2828
 6983SOL    HW122390   1.941   0.755   6.241  2.1079  0.2565 -0.7853
 6983SOL    HW222391   1.841   0.844   6.312 -0.3470 -2.3623 -0.7708
 6984SOL     OW22392   2.574   1.205   6.380  0.0961 -0.3245 -0.1401
 6984SOL    HW122393   2.602   1.199   6.472  1.5465 -0.2094 -0.5397
 6984SOL    HW222394   2.598   1.120   6.342 -0.1577 -0.2367 -0.5037
 6985SOL     OW22395   1.282   0.255   7.020 -0.3698  0.0426  0.1382
 6985SOL    HW122396   1.366   0.225   6.986 -1.6315 -2.0606 -1.3644
 6985SOL    HW222397   1.305   0.307   7.097  2.3266  0.3334 -0.7541
 6986SOL     OW22398   4.340   2.009   6.639 -0.4379 -0.2689  0.4009
 6986SOL    HW122399   4.395   2.048   6.708  1.3940  0.8446 -1.5487
 6986SOL    HW222400   4.399   1.953   6.590 -0.8889  1.1549 -1.9387
 6987SOL     OW22401   1.282   1.491   4.614  0.8110  0.0452 -0.7752
 6987SOL    HW122402   1.350   1.547   4.650  0.7543  0.3121 -1.0772
 6987SOL    HW222403   1.217   1.552   4.579  0.5702 -0.2079 -0.7745
 6988SOL     OW22404   4.505   0.030   9.030  0.0606 -0.2653  0.3476
 6988SOL    HW122405   4.442  -0.041   9.021 -1.0241  0.8948 -1.8605
 6988SOL    HW222406   4.587  -0.005   8.994  0.1493 -1.0671  1.2759
 6989SOL     OW22407   1.771   0.719   7.656  1.1081 -0.3391 -0.3165
 6989SOL    HW122408   1.788   0.735   7.563 -0.7303  1.2083 -0.4684
 6989SOL    HW222409   1.681   0.686   7.658  1.0184 -0.0665  0.9206
 6990SOL     OW22410   2.833   7.447   5.769 -0.0570 -0.1203  0.6599
 6990SOL    HW122411   2.829   7.352   5.754 -2.1297  0.2473 -1.9366
 6990SOL    HW222412   2.742   7.476   5.764  0.6912  2.2686 -0.9740
 6991SOL     OW22413   2.322   6.623   7.357  0.3401  0.0934  0.3770
 6991SOL    HW122414   2.304   6.597   7.267 -0.5857  1.2928  0.1895
 6991SOL    HW222415   2.368   6.549   7.395 -2.5098 -1.9884  0.0313
 6992SOL     OW22416   2.050   7.412   6.758 -0.4942  0.3203 -0.1285
 6992SOL    HW122417   2.092   7.331   6.728 -0.0876 -0.1000  1.4919
 6992SOL    HW222418   2.122   7.467   6.787 -0.8473  0.8915 -0.3198
 6993SOL     OW22419   5.541   0.145   6.612 -0.1178  0.0453  0.4677
 6993SOL    HW122420   5.553   0.080   6.682 -3.9344  0.2061  1.4970
 6993SOL    HW222421   5.541   0.229   6.658 -1.6823  0.2187  0.2218
 6994SOL     OW22422   3.756   1.479   9.742 -0.2562 -0.1375 -0.4228
 6994SOL    HW122423   3.772   1.533   9.665 -0.0677  0.3000 -0.0800
 6994SOL    HW222424   3.842   1.440   9.761  0.1941  1.3550  0.7680
 6995SOL     OW22425   1.330   0.492   4.045 -0.0065  0.0081  0.6089
 6995SOL    HW122426   1.368   0.471   4.131 -0.0209  0.0148  0.6169
 6995SOL    HW222427   1.393   0.457   3.982 -0.2662 -0.4968  0.6235
 6996SOL     OW22428   2.832   1.156   8.005  0.2218  0.6270 -0.1875
 6996SOL    HW122429   2.775   1.233   8.013 -0.6180 -0.1262  1.5564
 6996SOL    HW222430   2.901   1.170   8.070  0.0981 -0.0468  0.0941
 6997SOL     OW22431   0.681   1.575   7.211 -0.0482  0.6866 -0.1475
 6997SOL    HW122432   0.717   1.491   7.185 -1.3827  0.3526 -1.0480
 6997SOL    HW222433   0.636   1.607   7.133  0.5575  2.3247  0.1217
 6998SOL     OW22434   2.042   0.927   5.034  0.2656  0.1460  0.4763
 6998SOL    HW122435   2.002   0.988   5.096 -1.1280 -0.2249 -0.0248
 6998SOL    HW222436   2.109   0.882   5.084 -0.9247 -0.2494  1.7680
 6999SOL     OW22437   4.298   0.172   6.437  0.0779  0.1751 -0.1617
 6999SOL    HW122438   4.263   0.238   6.378  0.4778  0.8642  0.3535
 6999SOL    HW222439   4.336   0.106   6.380  1.9383  1.6275 -0.7099
 7000SOL     OW22440   2.040   1.529   8.295 -0.0967 -0.2419 -0.2810
 7000SOL    HW122441   2.036   1.442   8.256  0.4502 -0.8883  1.0729
 7000SOL    HW222442   2.093   1.580   8.233  0.0670 -1.0154 -0.7904
 7001SOL     OW22443   2.156   0.398   7.050  0.4132 -0.0911 -0.4353
 7001SOL    HW122444   2.110   0.344   6.985  1.5387 -0.1366 -1.2178
 7001SOL    HW222445   2.202   0.335   7.105  0.2774 -0.0077 -0.2271
 7002SOL     OW22446   3.889   1.706   8.248 -0.1691  0.3888  0.3479
 7002SOL    HW122447   3.982   1.719   8.266 -0.3921  1.4662  0.7771
 7002SOL    HW222448   3.846   1.784   8.284 -1.5008 -1.1037  2.1878
 7003SOL     OW22449   4.005   6.961   5.712  0.4243 -0.7962  0.2639
 7003SOL    HW122450   3.970   6.989   5.627 -2.4992 -0.0326  1.6224
 7003SOL    HW222451   4.097   6.988   5.709  0.0478  0.5257 -2.1061
 7004SOL     OW22452   3.583   0.535   4.498  0.0028  0.0449  0.6397
 7004SOL    HW122453   3.659   0.545   4.441  0.4043 -0.1490  1.1301
 7004SOL    HW222454   3.532   0.464   4.458 -0.6954  1.1542 -0.5085
 7005SOL     OW22455   3.191   1.773   5.349  0.0365 -0.4585  0.4975
 7005SOL    HW122456   3.284   1.791   5.333  0.4377 -2.1562  0.7297
 7005SOL    HW222457   3.146   1.848   5.312  1.4471 -0.1036 -0.6082
 7006SOL     OW22458   3.731   7.743   5.553  0.4807 -0.3694 -0.4392
 7006SOL    HW122459   3.791   7.806   5.511  1.3090  0.2711  1.5624
 7006SOL    HW222460   3.659   7.797   5.585  0.9380 -0.4785  0.8323
 7007SOL     OW22461   1.943   2.955   7.472 -0.1355  0.0291  0.5516
 7007SOL    HW122462   2.007   3.013   7.431 -0.4257  0.5816  0.8702
 7007SOL    HW222463   1.859   2.996   7.454 -0.2236  0.7029  2.3508
 7008SOL     OW22464   4.536   7.473   6.650  0.1019  0.1633  0.2842
 7008SOL    HW122465   4.613   7.416   6.651  0.3963  0.5578  1.3327
 7008SOL    HW222466   4.463   7.413   6.666  0.2289 -0.1502 -0.2715
 7009SOL     OW22467   1.930   7.781   5.510 -0.3339 -0.1129  0.4291
 7009SOL    HW122468   1.906   7.761   5.420  1.3661 -0.0654 -0.0637
 7009SOL    HW222469   1.852   7.760   5.561 -0.6746 -2.0746 -0.8081
 7010SOL     OW22470   1.755   2.516   6.981  0.3244  0.0459 -0.0904
 7010SOL    HW122471   1.688   2.536   6.915  0.7983  0.3376 -0.4876
 7010SOL    HW222472   1.737   2.426   7.007 -1.3716  0.6762  1.1505
 7011SOL     OW22473   1.399   0.921   6.473  0.5066 -0.0866  0.6390
 7011SOL    HW122474   1.341   0.845   6.474 -1.1714  1.1403  1.3358
 7011SOL    HW222475   1.446   0.914   6.390 -0.9042 -0.9362 -0.1243
 7012SOL     OW22476   2.986   6.819   4.691  0.4867 -0.4792  0.2127
 7012SOL    HW122477   2.940   6.844   4.771 -0.4615  0.1719 -0.5054
 7012SOL    HW222478   2.936   6.745   4.657 -0.3555  0.5131 -0.8093
 7013SOL     OW22479   1.911   7.039   6.273  0.5867 -0.3706  0.3039
 7013SOL    HW122480   1.929   7.116   6.326  0.1763 -1.5823  2.3251
 7013SOL    HW222481   1.820   7.018   6.291  0.5165 -0.9817 -0.6955
 7014SOL     OW22482   3.227   7.574   5.123  0.3300  0.1224  0.9720
 7014SOL    HW122483   3.247   7.494   5.074 -0.5806  1.6779 -2.1811
 7014SOL    HW222484   3.142   7.556   5.164  0.5795 -0.8407  1.0941
 7015SOL     OW22485   1.141   1.020   5.594 -0.3316  0.9273 -0.2042
 7015SOL    HW122486   1.185   0.936   5.602 -0.7569  0.2381 -3.6481
 7015SOL    HW222487   1.204   1.076   5.549 -1.0427  1.6071 -0.3781
 7016SOL     OW22488   2.574   0.331   4.499  0.5663  0.1846 -0.1605
 7016SOL    HW122489   2.573   0.264   4.568 -1.1650 -2.2410 -2.3251
 7016SOL    HW222490   2.652   0.312   4.448 -0.3022 -0.7356 -1.1979
 7017SOL     OW22491   2.263   0.549   8.217  0.2795  0.0722  1.1392
 7017SOL    HW122492   2.323   0.547   8.143 -0.5971  0.2676  0.4125
 7017SOL    HW222493   2.320   0.558   8.294  1.0957  1.8985  0.3650
 7018SOL     OW22494   2.174   7.651   7.550 -0.3725 -0.0636 -0.1432
 7018SOL    HW122495   2.112   7.609   7.610  0.2710 -1.1348 -0.2001
 7018SOL    HW222496   2.148   7.618   7.463  1.1315 -1.7054 -0.0329
 7019SOL     OW22497   1.341   7.222   7.020  0.7726 -0.0685  0.0445
 7019SOL    HW122498   1.294   7.235   6.938  0.8512  0.0891  0.0229
 7019SOL    HW222499   1.274   7.228   7.088  0.5395 -1.1873 -0.0600
 7020SOL     OW22500   1.291   2.478   8.316  0.0071 -0.1324 -0.3549
 7020SOL    HW122501   1.248   2.428   8.386  0.0570 -0.7554 -0.7635
 7020SOL    HW222502   1.256   2.567   8.325 -0.0906 -0.2371  0.3739
 7021SOL     OW22503   2.013   1.278   7.847  0.1969  0.0147 -0.3986
 7021SOL    HW122504   2.081   1.210   7.855 -0.2689 -0.7052 -2.0747
 7021SOL    HW222505   1.938   1.232   7.810 -0.3994  1.2953 -0.8193
 7022SOL     OW22506   2.860   0.151   9.181  0.5538 -0.0094  0.4507
 7022SOL    HW122507   2.830   0.060   9.174 -1.3279  0.4804  1.6040
 7022SOL    HW222508   2.939   0.154   9.126  2.1963 -2.9498  2.3381
 7023SOL     OW22509   4.772   7.511   8.087 -0.1464  0.0834 -0.0565
 7023SOL    HW122510   4.750   7.561   8.008 -1.1419 -0.1703  0.0483
 7023SOL    HW222511   4.733   7.562   8.158  2.7883  1.6397  0.6150
 7024SOL     OW22512   3.754   6.277   8.211 -0.0652  0.1614  0.0801
 7024SOL    HW122513   3.777   6.187   8.233 -0.2883  0.1282  0.1702
 7024SOL    HW222514   3.796   6.291   8.125 -2.2610 -0.9161 -1.2489
 7025SOL     OW22515   0.973   1.979   9.784 -0.0173 -0.1879 -0.4215
 7025SOL    HW122516   1.063   1.957   9.810 -0.3891 -1.6862 -0.3333
 7025SOL    HW222517   0.982   2.017   9.697  0.6951 -0.4555 -0.4730
 7026SOL     OW22518   2.793   0.690   7.650 -0.8450  0.2116  0.3851
 7026SOL    HW122519   2.729   0.621   7.633 -0.8603  0.2259  0.3836
 7026SOL    HW222520   2.811   0.684   7.743  0.8973 -1.2968 -0.0036
 7027SOL     OW22521   0.702   0.696   7.258  0.1106  0.0949 -0.0709
 7027SOL    HW122522   0.619   0.669   7.220 -0.2662  0.4654  0.4735
 7027SOL    HW222523   0.744   0.747   7.190  0.4508 -1.1118 -0.7966
 7028SOL     OW22524   1.689   1.571   7.678  0.1299 -0.1339  0.0801
 7028SOL    HW122525   1.684   1.484   7.639 -2.1660  0.7757 -1.9535
 7028SOL    HW222526   1.630   1.568   7.752 -0.4520 -0.1560 -0.3786
 7029SOL     OW22527   3.052   7.843   8.103 -0.3069 -0.5250  0.0995
 7029SOL    HW122528   3.085   7.787   8.033  0.3555 -1.0556  0.8092
 7029SOL    HW222529   3.112   7.827   8.176 -0.5122  0.6220  0.5288
 7030SOL     OW22530   2.936   6.037   7.836  0.4512  0.2697  0.0016
 7030SOL    HW122531   2.939   5.958   7.783 -0.3053 -0.8642  1.5868
 7030SOL    HW222532   2.962   6.107   7.776  1.7888 -1.2486 -1.2587
 7031SOL     OW22533   3.414   0.870   9.320  0.0572  0.1205  0.2534
 7031SOL    HW122534   3.397   0.910   9.405  1.4584 -0.3249  0.7793
 7031SOL    HW222535   3.460   0.938   9.271  0.2141  0.0107  0.2471
 7032SOL     OW22536   2.207   1.667   8.117  0.2547  0.7194 -0.1173
 7032SOL    HW122537   2.267   1.697   8.185 -1.0588 -0.6541  1.7492
 7032SOL    HW222538   2.168   1.748   8.082 -2.0094  1.4737  3.6415
 7033SOL     OW22539   2.839   0.495   8.566 -0.2984 -0.6658  0.0733
 7033SOL    HW122540   2.877   0.582   8.576 -0.2547 -0.6308 -0.3944
 7033SOL    HW222541   2.906   0.444   8.519 -0.5538 -0.7916 -0.1573
 7034SOL     OW22542   1.180   1.222  11.413  0.7090 -0.1475  0.2361
 7034SOL    HW122543   1.153   1.180  11.331 -0.4268  0.5507  0.2219
 7034SOL    HW222544   1.241   1.290  11.385 -2.2093  2.4121 -0.5397
 7035SOL     OW22545   2.333   1.410   9.606 -0.2508  0.3687  0.8105
 7035SOL    HW122546   2.376   1.325   9.618  0.3673  0.5838  0.1807
 7035SOL    HW222547   2.263   1.392   9.544  0.5950  0.5248 -0.2232
 7036SOL     OW22548   1.260   2.254   9.052  0.5243 -0.3216  0.3077
 7036SOL    HW122549   1.335   2.299   9.011 -0.7335  1.3041 -0.3118
 7036SOL    HW222550   1.239   2.184   8.991  0.7344  0.0247 -0.1761
 7037SOL     OW22551   1.802   0.454   6.817  0.4112  0.1449 -0.4629
 7037SOL    HW122552   1.794   0.535   6.868  1.2726  0.1988 -0.3896
 7037SOL    HW222553   1.746   0.468   6.741 -3.3108 -1.1110  1.8155
 7038SOL     OW22554   2.976   0.718   8.593  0.1893 -0.0072 -0.4959
 7038SOL    HW122555   3.055   0.691   8.641 -0.1989  1.5983  1.1763
 7038SOL    HW222556   2.967   0.811   8.612 -1.2186  0.2109 -2.0053
 7039SOL     OW22557   2.398   1.232   8.794 -0.4802 -0.9275 -0.1410
 7039SOL    HW122558   2.321   1.179   8.775 -1.1000 -0.6887  1.4981
 7039SOL    HW222559   2.434   1.193   8.874 -0.8704  0.9758  1.0315
 7040SOL     OW22560   3.535   0.743   6.996 -0.1106  0.5064 -0.0158
 7040SOL    HW122561   3.556   0.800   6.923 -1.1981  1.0100  0.0505
 7040SOL    HW222562   3.452   0.702   6.973  0.1726 -0.3269  0.3681
 7041SOL     OW22563   0.298   2.361   6.330  0.2056 -0.4233 -0.2299
 7041SOL    HW122564   0.277   2.367   6.236  0.6086  1.8726 -0.2261
 7041SOL    HW222565   0.226   2.309   6.367 -0.6020 -0.3604 -1.6320
 7042SOL     OW22566   3.324   0.236   8.055 -0.3866  0.2080  0.5595
 7042SOL    HW122567   3.233   0.264   8.071 -0.0301  2.6508 -1.1114
 7042SOL    HW222568   3.372   0.271   8.130 -0.5310  0.8254  0.3750
 7043SOL     OW22569   5.244   7.712   8.176 -0.0062 -0.2908 -0.1669
 7043SOL    HW122570   5.203   7.669   8.251  1.3998 -1.7334 -0.1959
 7043SOL    HW222571   5.283   7.641   8.125  1.5427  0.9160 -0.7424
 7044SOL     OW22572   1.042   3.024   7.788  0.6169 -0.2260  0.1573
 7044SOL    HW122573   0.992   2.944   7.807 -0.5346  0.5761  0.5968
 7044SOL    HW222574   1.087   3.044   7.870  0.5051 -0.1393  0.1967
 7045SOL     OW22575   2.812   0.092   6.774 -0.2498 -0.1702  0.6252
 7045SOL    HW122576   2.873   0.161   6.747  0.5004 -1.0341  0.0461
 7045SOL    HW222577   2.783   0.118   6.861 -0.2189  1.0254  0.3016
 7046SOL     OW22578   3.973   1.415  10.119  0.5456  0.1546  0.2671
 7046SOL    HW122579   3.969   1.330  10.163 -1.7891  0.6104  1.0915
 7046SOL    HW222580   4.011   1.474  10.185 -0.3710  0.2697  0.7123
 7047SOL     OW22581   3.690   2.453   9.473  0.6596  0.0013 -0.0097
 7047SOL    HW122582   3.740   2.517   9.524  0.2325 -0.4501  1.0142
 7047SOL    HW222583   3.600   2.483   9.479  0.5550 -0.2774 -0.1714
 7048SOL     OW22584   3.254   1.491   8.182  0.1297 -0.2360  0.3567
 7048SOL    HW122585   3.192   1.564   8.193 -0.0374 -0.3500  0.1744
 7048SOL    HW222586   3.225   1.427   8.248 -0.0685 -0.3724  0.1371
 7049SOL     OW22587   3.076   0.351   7.590  0.7881 -0.1000 -0.4125
 7049SOL    HW122588   3.142   0.418   7.571  0.7968 -0.2681 -0.9942
 7049SOL    HW222589   3.109   0.305   7.667  0.2039  1.3344  0.7357
 7050SOL     OW22590   5.247   0.610   9.837  0.3359  0.2083 -0.4883
 7050SOL    HW122591   5.277   0.531   9.792  0.7511 -0.4355  0.8697
 7050SOL    HW222592   5.322   0.669   9.836 -0.2925  1.0683 -2.4443
 7051SOL     OW22593   2.982   7.130  10.030 -0.1890 -0.2187 -0.3031
 7051SOL    HW122594   2.918   7.093   9.969  0.1562  0.0263 -0.8245
 7051SOL    HW222595   3.051   7.165   9.974 -0.4474  1.1111  0.1720
 7052SOL     OW22596   4.400   1.985   8.628  0.4447  0.2861 -0.6865
 7052SOL    HW122597   4.418   1.933   8.706  0.4090 -0.1790 -0.9798
 7052SOL    HW222598   4.486   2.015   8.598  0.4708  0.3551 -0.5412
 7053SOL     OW22599   2.700   1.269   8.429  0.1196  0.2054 -0.4326
 7053SOL    HW122600   2.746   1.345   8.393 -0.1434  0.4446 -0.2680
 7053SOL    HW222601   2.768   1.203   8.440  0.0753 -0.1763 -2.1647
 7054SOL     OW22602   1.617   7.699   6.884 -0.0434  0.3647  0.3218
 7054SOL    HW122603   1.695   7.751   6.867 -1.4082  2.9848  1.6123
 7054SOL    HW222604   1.559   7.719   6.811 -0.0040 -0.6879 -0.0249
 7055SOL     OW22605   2.659   0.727   8.318  0.3043 -0.0280  0.0159
 7055SOL    HW122606   2.691   0.780   8.245  0.5886 -1.6188 -1.0643
 7055SOL    HW222607   2.679   0.778   8.396 -1.3355  2.4302 -1.0403
 7056SOL     OW22608   2.715   2.393   7.081  0.2627  0.5722 -0.7389
 7056SOL    HW122609   2.627   2.385   7.045  0.4311 -1.8674 -0.7451
 7056SOL    HW222610   2.766   2.434   7.011 -0.1406 -1.1111 -2.0825
 7057SOL     OW22611   4.137   0.711   8.831  0.3719  0.5610  0.1195
 7057SOL    HW122612   4.190   0.652   8.886 -1.2510 -0.6625  0.4529
 7057SOL    HW222613   4.107   0.779   8.890  0.4313  0.4705  0.2540
 7058SOL     OW22614   3.113   7.076   8.901  0.2981 -0.0411  0.7471
 7058SOL    HW122615   3.020   7.056   8.892  0.4448 -0.3425 -0.1988
 7058SOL    HW222616   3.153   6.993   8.927  0.2820  0.1305  1.3255
 7059SOL     OW22617   3.608   0.474  10.241  0.0090 -0.1345  0.0941
 7059SOL    HW122618   3.648   0.393  10.209  0.2157 -0.0874  0.2320
 7059SOL    HW222619   3.532   0.487  10.185 -0.7055 -1.0569  0.8234
 7060SOL     OW22620   5.142   0.779   8.681 -0.9167  0.4889  0.0577
 7060SOL    HW122621   5.112   0.863   8.646  0.9461  1.2943  0.2343
 7060SOL    HW222622   5.165   0.727   8.604 -0.5837  0.7556 -0.0268
 7061SOL     OW22623   2.420   7.432   5.715  0.1460  0.1156  0.3602
 7061SOL    HW122624   2.476   7.477   5.778  2.5400  0.9693 -2.1812
 7061SOL    HW222625   2.480   7.399   5.648 -2.0366 -2.5737 -0.4725
 7062SOL     OW22626   1.690   7.432   6.949 -0.2738  0.9198 -0.3325
 7062SOL    HW122627   1.666   7.519   6.982  1.0975  1.1434  0.1476
 7062SOL    HW222628   1.769   7.409   6.997 -1.4498 -1.3226  0.7264
 7063SOL     OW22629   0.949   3.621   9.408  0.3672  0.0665  0.0696
 7063SOL    HW122630   1.031   3.584   9.442  0.9364  0.2356 -1.0570
 7063SOL    HW222631   0.880   3.577   9.457  1.1463  0.4102  1.5277
 7064SOL     OW22632   3.683   0.809   8.344 -0.1272  0.3211 -0.0604
 7064SOL    HW122633   3.591   0.823   8.321 -0.8905 -1.9786  1.2314
 7064SOL    HW222634   3.730   0.878   8.298 -2.3596  0.8426 -1.7431
 7065SOL     OW22635   2.061   2.474   8.142  0.1531 -0.8611  0.0257
 7065SOL    HW122636   2.032   2.529   8.214  0.3825  0.0655 -0.5654
 7065SOL    HW222637   1.983   2.426   8.115 -0.1648 -0.4741  0.2520
 7066SOL     OW22638   2.965   0.666   7.422 -0.1061 -0.2860  0.0763
 7066SOL    HW122639   2.917   0.687   7.502 -0.6579 -0.7075 -0.1411
 7066SOL    HW222640   3.049   0.632   7.452  1.3306  3.2021  0.4675
 7067SOL     OW22641   3.521   7.424   5.702  0.1486 -0.4922 -0.0678
 7067SOL    HW122642   3.434   7.462   5.716  0.1535 -1.0916  1.8723
 7067SOL    HW222643   3.582   7.495   5.719  0.0533 -0.0821 -1.3886
 7068SOL     OW22644   3.479   2.695   8.109  0.2700 -0.2084 -0.4379
 7068SOL    HW122645   3.572   2.673   8.107  0.7344  1.4914  0.6597
 7068SOL    HW222646   3.474   2.774   8.163 -2.0296 -1.3104  1.1305
 7069SOL     OW22647   3.451   2.011   8.898 -0.3174 -0.0606 -0.1397
 7069SOL    HW122648   3.524   1.950   8.913 -0.9352 -0.8947 -0.4386
 7069SOL    HW222649   3.490   2.097   8.908  0.4769 -0.5077  0.7716
 7070SOL     OW22650   4.063   2.432   9.335 -0.0802  0.2612 -0.4796
 7070SOL    HW122651   4.011   2.364   9.377  0.4371 -0.5861 -1.1791
 7070SOL    HW222652   4.154   2.404   9.345  0.0228 -0.7936 -3.4277
 7071SOL     OW22653   2.139   7.927   7.629 -0.3579 -0.2947 -0.1538
 7071SOL    HW122654   2.143   7.832   7.620  0.9323 -0.2746  0.0016
 7071SOL    HW222655   2.219   7.958   7.587  0.4922  0.5279  1.9134
 7072SOL     OW22656   2.559   0.615   6.488 -0.7078 -0.1010 -0.1734
 7072SOL    HW122657   2.532   0.597   6.398  1.3328  0.2402 -0.9148
 7072SOL    HW222658   2.524   0.702   6.507 -0.5266  0.1455 -0.9269
 7073SOL     OW22659   2.398   1.862   7.860 -0.2028  0.4085  0.0040
 7073SOL    HW122660   2.433   1.829   7.943 -0.2877  0.1016 -0.0799
 7073SOL    HW222661   2.424   1.796   7.796 -2.1614 -0.5898  0.1566
 7074SOL     OW22662   2.975   3.753  10.258  0.3127  0.4577  0.1534
 7074SOL    HW122663   3.022   3.751  10.174  1.4175  0.6777  0.7535
 7074SOL    HW222664   2.996   3.669  10.299  1.4310  1.1631  1.0793
 7075SOL     OW22665   1.113   1.201   8.954  0.3157 -0.3753  0.3993
 7075SOL    HW122666   1.026   1.189   8.992  0.3736  0.3494  0.7920
 7075SOL    HW222667   1.096   1.233   8.865  0.1314  1.8097  1.1486
 7076SOL     OW22668   1.623   6.611   9.133 -0.0891 -0.0838  0.0924
 7076SOL    HW122669   1.677   6.552   9.186 -1.1906 -0.8362  0.3949
 7076SOL    HW222670   1.676   6.626   9.054  1.8178  1.4760  1.5530
 7077SOL     OW22671   3.883   0.961   7.505  0.0167 -0.1123 -0.2883
 7077SOL    HW122672   3.805   0.990   7.553  0.7215  0.5124  0.5120
 7077SOL    HW222673   3.879   0.866   7.509  0.7880 -0.1272  2.3157
 7078SOL     OW22674   2.573   1.042   9.244  0.3794  0.4176 -0.5024
 7078SOL    HW122675   2.507   1.059   9.312  0.5229 -1.6575  0.2085
 7078SOL    HW222676   2.641   0.993   9.289  0.9977 -0.0638 -1.9255
 7079SOL     OW22677   3.554   0.757   7.925 -0.0753 -0.1532  0.3120
 7079SOL    HW122678   3.635   0.715   7.896  0.6939  1.2208  0.3856
 7079SOL    HW222679   3.535   0.823   7.858  0.2175  1.1732  1.4812
 7080SOL     OW22680   2.045   1.315   9.065  0.4148 -0.1804  0.8003
 7080SOL    HW122681   1.967   1.367   9.045  0.4832 -0.0342  0.9071
 7080SOL    HW222682   2.113   1.380   9.084  0.2804 -0.3027  1.7912
 7081SOL     OW22683   2.594   0.890   8.553  0.1875  0.4450 -0.0631
 7081SOL    HW122684   2.661   0.957   8.548 -0.7096  1.3742  0.1192
 7081SOL    HW222685   2.520   0.926   8.505 -0.6843  0.0406  0.9343
 7082SOL     OW22686   1.452   0.033   7.217  0.0152  0.2812  0.0886
 7082SOL    HW122687   1.483   0.060   7.130  0.6228  0.7790  0.4568
 7082SOL    HW222688   1.513   0.074   7.278 -0.8125  0.5008  0.7847
 7083SOL     OW22689   4.342   0.895  11.137  0.4773  0.0117  0.1349
 7083SOL    HW122690   4.419   0.882  11.082 -0.0929  2.5164 -1.4364
 7083SOL    HW222691   4.270   0.859  11.086  0.2496  0.0727  0.4093
 7084SOL     OW22692   2.168   6.699   6.191 -0.0635 -0.0581 -0.3555
 7084SOL    HW122693   2.172   6.710   6.286 -0.2490  0.9697 -0.4609
 7084SOL    HW222694   2.129   6.612   6.178  0.6519 -0.5232  0.5039
 7085SOL     OW22695   3.303   0.995   9.541 -0.1050  0.1585  0.3690
 7085SOL    HW122696   3.242   0.930   9.576 -0.2590  0.5180  0.7669
 7085SOL    HW222697   3.294   1.070   9.598  1.2787 -0.0545  0.9022
 7086SOL     OW22698   3.533   2.054   9.892 -0.2123 -0.0140  0.4397
 7086SOL    HW122699   3.483   2.126   9.853  0.8653  1.3531  1.4806
 7086SOL    HW222700   3.487   1.975   9.863 -1.7557  1.0939 -0.3079
 7087SOL     OW22701   5.308   0.793   7.717  0.6125  0.0305  0.1151
 7087SOL    HW122702   5.245   0.755   7.655  0.5214  0.8503 -0.3161
 7087SOL    HW222703   5.373   0.835   7.661  1.6580 -0.9693  0.5547
 7088SOL     OW22704   3.406   2.669  10.725  0.3584  0.5486  0.1361
 7088SOL    HW122705   3.447   2.606  10.665  1.6482  1.6452 -0.1832
 7088SOL    HW222706   3.315   2.674  10.696  0.9101  0.9306 -1.6613
 7089SOL     OW22707   3.478   5.900   8.905  0.0771  0.6193 -0.0259
 7089SOL    HW122708   3.535   5.866   8.974  0.5813 -2.2410 -1.6755
 7089SOL    HW222709   3.390   5.876   8.933  0.1676  0.4789  0.1376
 7090SOL     OW22710   1.386   0.414   8.084  0.3179  0.4445  0.0417
 7090SOL    HW122711   1.306   0.366   8.063  0.4860 -0.4003  1.2474
 7090SOL    HW222712   1.357   0.504   8.101 -0.5352 -0.0868  1.5133
 7091SOL     OW22713   2.777   2.009   8.005 -0.0569  0.4297  0.6594
 7091SOL    HW122714   2.823   2.071   7.949 -2.3744  0.8300 -0.9274
 7091SOL    HW222715   2.733   2.064   8.071  1.2761  0.0893  1.8773
 7092SOL     OW22716   1.940   7.864   7.926 -0.4228 -0.2000 -0.0536
 7092SOL    HW122717   1.975   7.806   7.859 -0.3780  0.4163 -0.5629
 7092SOL    HW222718   1.982   7.948   7.911 -0.8270  0.0935  0.4043
 7093SOL     OW22719   4.284   7.648   7.010  0.0003 -0.0391 -0.1349
 7093SOL    HW122720   4.198   7.691   7.011  0.8200  1.6781  0.7756
 7093SOL    HW222721   4.315   7.661   6.920  1.2008  3.5405  0.6041
 7094SOL     OW22722   1.757   7.800  10.541 -0.0695 -0.2468 -0.0511
 7094SOL    HW122723   1.777   7.738  10.612  1.1450 -0.8628 -0.8984
 7094SOL    HW222724   1.720   7.876  10.586 -0.1987 -0.9836  1.1539
 7095SOL     OW22725   3.003   1.983   8.907 -0.1524  0.0763 -0.5499
 7095SOL    HW122726   3.033   1.898   8.873 -1.0118 -0.8259  0.8515
 7095SOL    HW222727   3.071   2.044   8.879  1.7039 -1.4592  0.2975
 7096SOL     OW22728   2.390   0.641   7.966  0.4154  0.3572  0.2563
 7096SOL    HW122729   2.477   0.677   7.979  1.3030 -0.9909 -1.5487
 7096SOL    HW222730   2.338   0.715   7.934  0.8832  1.1368  1.2340
 7097SOL     OW22731   3.739   1.219   7.315 -0.1023 -0.3591  0.5794
 7097SOL    HW122732   3.684   1.168   7.256 -0.7462 -0.0844  0.9248
 7097SOL    HW222733   3.724   1.180   7.401 -0.7398  0.5048  0.8760
 7098SOL     OW22734   2.971   0.692   6.677  0.2733  0.2187  0.6069
 7098SOL    HW122735   3.012   0.695   6.591  0.3381  1.8359  0.6646
 7098SOL    HW222736   3.019   0.624   6.724 -0.5780 -1.5985 -1.0008
 7099SOL     OW22737   1.659   0.391   8.820  0.1573  0.7828 -0.0782
 7099SOL    HW122738   1.754   0.399   8.830  0.3673 -0.7731 -0.4807
 7099SOL    HW222739   1.631   0.474   8.781  1.4791  0.9199 -0.7834
 7100SOL     OW22740   2.350   7.887   8.125 -0.2166 -0.7419 -0.2369
 7100SOL    HW122741   2.341   7.794   8.104  0.9012 -0.8015 -0.5245
 7100SOL    HW222742   2.397   7.888   8.208 -0.3423 -0.4330 -0.1685
 7101SOL     OW22743   4.163   7.829   6.189  0.5188 -0.1464 -0.1990
 7101SOL    HW122744   4.144   7.741   6.155  0.8109  0.5690 -2.3157
 7101SOL    HW222745   4.100   7.886   6.145  0.4450  0.7680  1.0293
 7102SOL     OW22746   2.029   0.379   9.206 -0.4296 -0.3905  0.0355
 7102SOL    HW122747   2.070   0.449   9.257 -0.1675  0.2917 -1.0560
 7102SOL    HW222748   1.943   0.367   9.246 -0.7715  1.0932 -0.1800
 7103SOL     OW22749   2.784   0.382   8.948 -0.0498 -0.0444  0.0605
 7103SOL    HW122750   2.873   0.347   8.945 -0.4868 -1.1271 -1.2967
 7103SOL    HW222751   2.741   0.332   9.017  0.0765 -0.3484 -0.0768
 7104SOL     OW22752   3.345   0.631   7.767  0.2640  0.1108  0.1370
 7104SOL    HW122753   3.416   0.672   7.816 -0.5355  0.6341  0.8745
 7104SOL    HW222754   3.336   0.544   7.805  0.7300 -0.0843 -0.1890
 7105SOL     OW22755   2.952   0.091   7.965  0.6888  0.5942 -0.4197
 7105SOL    HW122756   3.029   0.114   7.913  2.3286 -1.7773  0.7630
 7105SOL    HW222757   2.981   0.017   8.019 -2.3971 -0.3003  0.2018
 7106SOL     OW22758   1.027   0.891   8.512 -0.2771  0.5119  0.2475
 7106SOL    HW122759   1.039   0.973   8.463  0.0202  0.3901  0.1163
 7106SOL    HW222760   1.059   0.823   8.453 -0.0394  0.3512  0.5622
 7107SOL     OW22761   4.430   2.058   7.308  0.0187 -0.1362 -0.7015
 7107SOL    HW122762   4.448   2.098   7.223  1.6075  0.6451 -0.0252
 7107SOL    HW222763   4.360   2.111   7.345  0.3307  0.4167 -0.9059
 7108SOL     OW22764   1.471   0.110   9.056 -0.0187 -0.1490  0.1342
 7108SOL    HW122765   1.470   0.121   8.961 -1.7779  2.3158  0.3415
 7108SOL    HW222766   1.532   0.177   9.087 -0.2685 -0.2316  0.8030
 7109SOL     OW22767   2.729   7.544   6.169 -0.5080 -0.2244 -0.0786
 7109SOL    HW122768   2.731   7.454   6.139 -0.7312 -0.8177  1.5823
 7109SOL    HW222769   2.821   7.566   6.186 -0.3810  0.1131 -1.1247
 7110SOL     OW22770   5.562   0.412   8.114  0.4081  0.0048 -0.3020
 7110SOL    HW122771   5.631   0.459   8.066  0.4714 -0.2083 -0.4177
 7110SOL    HW222772   5.483   0.465   8.099  0.6007  0.4063  0.0659
 7111SOL     OW22773   4.520   2.800   9.750 -0.2967  0.6196  0.5812
 7111SOL    HW122774   4.474   2.752   9.818 -0.0482  1.2921  1.2389
 7111SOL    HW222775   4.469   2.784   9.670 -0.8726  0.2352  1.0174
 7112SOL     OW22776   2.664   0.941   8.073 -0.0991 -0.1681  0.1632
 7112SOL    HW122777   2.723   1.009   8.040  0.1429  0.4812  1.8285
 7112SOL    HW222778   2.624   0.980   8.151 -1.6553 -1.1376 -0.1133
 7113SOL     OW22779   2.699   2.424   8.246 -0.2900  0.4873  0.4587
 7113SOL    HW122780   2.665   2.474   8.320 -1.3920  0.1713  0.1764
 7113SOL    HW222781   2.792   2.446   8.243 -0.8545  3.0896 -0.1098
 7114SOL     OW22782   3.861   0.429  10.551 -0.5097 -0.4105  0.5112
 7114SOL    HW122783   3.837   0.487  10.479  1.1022 -0.8034 -0.3893
 7114SOL    HW222784   3.877   0.487  10.625  3.0611  0.6561 -0.8805
 7115SOL     OW22785   3.394   6.880   8.438  0.3634 -0.1969  0.6614
 7115SOL    HW122786   3.447   6.956   8.461  0.2626  0.5503 -1.3339
 7115SOL    HW222787   3.440   6.841   8.363 -0.9616 -0.5466 -0.0025
 7116SOL     OW22788   4.721   0.356   9.645 -0.0495  0.2856 -0.2635
 7116SOL    HW122789   4.772   0.391   9.718  1.1540  0.9732 -1.4016
 7116SOL    HW222790   4.787   0.317   9.586 -1.2254 -4.5289  1.1262
 7117SOL     OW22791   4.256   0.276   9.624  0.2358 -0.0832  0.0264
 7117SOL    HW122792   4.264   0.321   9.708 -1.0872 -1.7264  1.1075
 7117SOL    HW222793   4.195   0.204   9.642  1.5875 -1.7839 -1.7880
 7118SOL     OW22794   3.401   0.292   8.772 -0.0233 -0.3751 -0.5893
 7118SOL    HW122795   3.474   0.354   8.774 -1.1727  1.0310 -1.2278
 7118SOL    HW222796   3.369   0.290   8.862  0.8036 -1.0320 -0.2965
 7119SOL     OW22797   1.858   0.630  10.843 -0.1189  0.3448  0.3710
 7119SOL    HW122798   1.858   0.630  10.938 -3.3987  1.5355  0.5245
 7119SOL    HW222799   1.832   0.719  10.819  0.2138 -0.0467 -1.6229
 7120SOL     OW22800   2.589   2.154   8.924 -0.1963 -0.3711  0.1322
 7120SOL    HW122801   2.515   2.104   8.956 -0.3985 -1.7005 -2.2008
 7120SOL    HW222802   2.579   2.241   8.965 -0.5716 -1.7328  3.2129
 7121SOL     OW22803   1.439   0.920   7.543  0.2268  0.7937  0.6193
 7121SOL    HW122804   1.490   0.864   7.484 -0.8517  0.4297  0.0052
 7121SOL    HW222805   1.423   0.999   7.491 -0.9622  0.3604  0.3005
 7122SOL     OW22806   3.317   1.455   6.541 -0.4863 -0.1298  0.1846
 7122SOL    HW122807   3.277   1.400   6.474 -0.8227  0.2442  0.0725
 7122SOL    HW222808   3.404   1.475   6.508 -1.3901  1.8470 -1.2008
 7123SOL     OW22809   3.632   1.359   9.122 -0.4783  0.3458  0.0153
 7123SOL    HW122810   3.695   1.377   9.191 -0.4102 -2.1201  0.6974
 7123SOL    HW222811   3.550   1.397   9.154 -0.0740  0.6987  0.6585
 7124SOL     OW22812   4.613   1.368   8.131 -0.6300  0.1147  0.3550
 7124SOL    HW122813   4.687   1.373   8.191  0.3172 -2.5024 -0.4945
 7124SOL    HW222814   4.548   1.316   8.178 -0.9816  0.3578  0.1415
 7125SOL     OW22815   2.903   2.812   8.225  0.3304 -0.2219  0.6410
 7125SOL    HW122816   2.936   2.829   8.137  0.1019 -1.3951  0.3114
 7125SOL    HW222817   2.965   2.857   8.283 -0.1472  1.5146 -0.1388
 7126SOL     OW22818   1.785   0.588   9.133 -0.3356  0.0234  0.2989
 7126SOL    HW122819   1.855   0.624   9.079 -0.1374  0.1479  0.6340
 7126SOL    HW222820   1.830   0.541   9.203 -0.5619  0.9384  1.0846
 7127SOL     OW22821   2.488   0.007   8.879  0.4716 -0.2084  0.1252
 7127SOL    HW122822   2.538   0.057   8.816  1.1088 -0.8623  0.0961
 7127SOL    HW222823   2.429   0.070   8.920  2.3395  0.9146  1.2165
 7128SOL     OW22824   1.849   0.603   9.609 -0.3679 -0.4123 -0.3244
 7128SOL    HW122825   1.826   0.517   9.646 -2.0025  0.0554 -0.1942
 7128SOL    HW222826   1.863   0.659   9.685  2.4724 -0.9266 -0.3551
 7129SOL     OW22827   2.333   1.632   7.705  0.1544  0.1908  0.3623
 7129SOL    HW122828   2.290   1.571   7.764  2.1753 -0.5932  1.0939
 7129SOL    HW222829   2.262   1.665   7.650 -1.5558 -0.1619  2.2277
 7130SOL     OW22830   2.807   2.976   9.344 -0.2008  0.4564 -0.1461
 7130SOL    HW122831   2.738   2.943   9.286 -0.2414  1.4934 -0.7039
 7130SOL    HW222832   2.759   3.010   9.420 -0.1126 -1.5639  0.8983
 7131SOL     OW22833   3.820   7.623   8.309 -0.2173  0.0402  0.5161
 7131SOL    HW122834   3.838   7.700   8.255  1.6963 -0.2851  0.5934
 7131SOL    HW222835   3.907   7.590   8.332 -0.9960 -1.2110  1.8260
 7132SOL     OW22836   3.479   6.607   6.427 -0.6779  0.1170  0.1545
 7132SOL    HW122837   3.442   6.678   6.373  0.4601 -1.8881 -3.6173
 7132SOL    HW222838   3.549   6.649   6.477  0.7914  1.5901 -2.8916
 7133SOL     OW22839   2.495   1.732   9.354 -0.6557 -0.2249  0.1586
 7133SOL    HW122840   2.447   1.814   9.353 -1.8967 -0.9318  0.1053
 7133SOL    HW222841   2.482   1.695   9.267 -0.9027 -0.9248  0.4866
 7134SOL     OW22842   1.565   1.418   9.906  0.4165  0.2930  0.2381
 7134SOL    HW122843   1.609   1.502   9.911  0.2267  0.5012 -1.2340
 7134SOL    HW222844   1.627   1.360   9.862 -0.7704  0.6586 -2.1024
 7135SOL     OW22845   1.764   7.426   8.301  0.3668 -0.3879  0.0554
 7135SOL    HW122846   1.722   7.358   8.353  0.7413 -0.6355  0.0430
 7135SOL    HW222847   1.744   7.403   8.210 -3.1130  1.8444  0.0582
 7136SOL     OW22848   3.625   1.633   8.751 -0.1435 -0.1232 -0.3640
 7136SOL    HW122849   3.597   1.544   8.774 -0.1140  0.0490  0.3737
 7136SOL    HW222850   3.633   1.632   8.656 -0.7426 -0.7334 -0.4118
 7137SOL     OW22851   3.335   6.298   7.857 -0.6787  0.0042 -0.2487
 7137SOL    HW122852   3.250   6.268   7.888  0.7888 -3.4699  0.9500
 7137SOL    HW222853   3.353   6.377   7.908 -1.0091 -2.1498  3.5532
 7138SOL     OW22854   1.881   6.469   7.068  0.3504  0.3201  0.6145
 7138SOL    HW122855   1.946   6.400   7.055  0.8149  0.9704 -0.7252
 7138SOL    HW222856   1.900   6.504   7.155  2.0075  0.6850  0.1490
 7139SOL     OW22857   3.722   7.759   7.565  0.0256 -0.3804  0.1981
 7139SOL    HW122858   3.635   7.725   7.546  0.8803 -2.3051 -0.5789
 7139SOL    HW222859   3.739   7.734   7.655  0.9720 -3.0193 -0.6019
 7140SOL     OW22860   3.982   1.094   8.178 -0.7365 -0.0331  0.6245
 7140SOL    HW122861   3.967   1.163   8.242 -0.5310 -0.0559  0.6953
 7140SOL    HW222862   4.052   1.127   8.123 -0.3336 -0.3689  0.9290
 7141SOL     OW22863   4.468   1.901   8.344 -0.4594  0.2291  0.8198
 7141SOL    HW122864   4.440   1.931   8.257 -1.6476  2.3263  1.8260
 7141SOL    HW222865   4.501   1.981   8.387  3.5541 -1.3761  1.1368
 7142SOL     OW22866   2.910   3.103  10.555  0.3050 -0.1122 -0.3031
 7142SOL    HW122867   2.951   3.096  10.469 -1.2393 -1.9810 -0.9218
 7142SOL    HW222868   2.958   3.040  10.609 -0.1569 -0.5426 -0.3902
 7143SOL     OW22869   4.032   6.730   6.770 -0.2194  0.1196 -0.4399
 7143SOL    HW122870   4.081   6.651   6.791 -0.2763  0.4067  0.8782
 7143SOL    HW222871   3.964   6.735   6.838 -0.8176  0.7895 -1.0686
 7144SOL     OW22872   2.663   1.378   5.334 -0.4037 -0.3412  0.0434
 7144SOL    HW122873   2.649   1.360   5.241  1.0800 -2.5931  0.1511
 7144SOL    HW222874   2.697   1.467   5.337 -0.3058 -0.2957 -1.6165
 7145SOL     OW22875   2.764   0.823   7.082 -0.0594  0.4173 -0.1765
 7145SOL    HW122876   2.697   0.797   7.146  1.6213  0.7489  1.8213
 7145SOL    HW222877   2.759   0.756   7.014 -1.7667 -0.1001  0.4016
 7146SOL     OW22878   2.095   7.170   6.649 -0.3241 -0.1150 -0.3152
 7146SOL    HW122879   2.148   7.167   6.729 -0.5569 -1.3312 -0.1872
 7146SOL    HW222880   2.126   7.096   6.598 -2.8266 -1.7574  0.3813
 7147SOL     OW22881   1.291   0.666   7.348 -0.2743  0.2512  0.0511
 7147SOL    HW122882   1.248   0.667   7.434 -0.0254 -0.0189  0.1808
 7147SOL    HW222883   1.331   0.753   7.341  0.1943  0.0789  0.4662
 7148SOL     OW22884   2.431   6.360  10.335 -0.1402  0.3016  0.3924
 7148SOL    HW122885   2.453   6.294  10.269  0.9391  0.8147  0.1948
 7148SOL    HW222886   2.469   6.327  10.416 -1.7298 -0.4738  0.8598
 7149SOL     OW22887   3.241   0.786   9.991  0.1984  0.0350  0.6358
 7149SOL    HW122888   3.321   0.736  10.007  0.2485  0.0003  0.2768
 7149SOL    HW222889   3.174   0.742  10.045  0.2481 -0.3973  0.3492
 7150SOL     OW22890   1.840   1.522   7.411  0.1247 -0.6274 -0.0925
 7150SOL    HW122891   1.891   1.562   7.340 -0.5507  0.6427  0.1086
 7150SOL    HW222892   1.906   1.493   7.474  0.6781 -0.6090 -0.6517
 7151SOL     OW22893   2.409   1.160   9.727  0.1377  0.4087 -0.0585
 7151SOL    HW122894   2.454   1.085   9.689 -0.5186 -0.3882  0.6908
 7151SOL    HW222895   2.440   1.163   9.818  0.1564  1.0437 -0.0831
 7152SOL     OW22896   2.671   4.726   8.315  0.0179  0.1478 -0.0778
 7152SOL    HW122897   2.720   4.697   8.238 -0.0633 -0.4849  0.1010
 7152SOL    HW222898   2.636   4.812   8.290  0.1548  0.0378 -0.6724
 7153SOL     OW22899   1.669   0.074   8.057 -0.4207 -0.6472 -0.0514
 7153SOL    HW122900   1.632   0.161   8.039  1.8419  0.3881 -0.0577
 7153SOL    HW222901   1.710   0.048   7.975 -1.0240 -1.7082 -0.0254
 7154SOL     OW22902   1.174   1.054   9.364  0.5224  0.0221  0.0961
 7154SOL    HW122903   1.100   1.012   9.320  0.4119 -0.0768  0.3796
 7154SOL    HW222904   1.135   1.121   9.419  0.7477  1.1632 -1.0724
 7155SOL     OW22905   2.386   0.329   9.999  0.1622  0.1083  0.0858
 7155SOL    HW122906   2.345   0.292   9.921 -0.8784  1.1906  0.0898
 7155SOL    HW222907   2.330   0.403  10.023 -0.4856 -1.1141  2.7911
 7156SOL     OW22908   4.298   0.540   8.966 -0.5640  0.3818 -0.3637
 7156SOL    HW122909   4.275   0.461   8.916  0.0543 -0.2859  0.3915
 7156SOL    HW222910   4.286   0.516   9.057  1.8140  0.3962  0.0157
 7157SOL     OW22911   1.202   0.135   9.307 -0.2761  0.3800  0.1198
 7157SOL    HW122912   1.246   0.194   9.368  2.1989 -0.7412 -0.4403
 7157SOL    HW222913   1.170   0.191   9.237  1.4008  1.1800 -0.0566
 7158SOL     OW22914   2.132   0.929   8.224  0.3711 -0.6620 -0.0273
 7158SOL    HW122915   2.039   0.950   8.231  0.8102  1.8155 -0.6238
 7158SOL    HW222916   2.135   0.844   8.179 -1.5722 -0.5192 -0.4800
 7159SOL     OW22917   2.296   2.460  10.022  0.2489  0.4041  0.0523
 7159SOL    HW122918   2.211   2.419  10.041  0.6472  0.1354  1.3773
 7159SOL    HW222919   2.348   2.390   9.984 -0.1336  0.5829 -0.8135
 7160SOL     OW22920   3.117   1.012  10.091 -0.2184  0.5426 -0.4757
 7160SOL    HW122921   3.171   0.958  10.033  0.8481  1.2164 -0.1570
 7160SOL    HW222922   3.178   1.078  10.124 -0.2769 -0.9288  2.9178
 7161SOL     OW22923   3.597   1.176   9.488  0.1178  0.0944  0.0220
 7161SOL    HW122924   3.568   1.250   9.540  0.2832  0.0935  0.1148
 7161SOL    HW222925   3.683   1.154   9.522 -0.2812 -0.6757  0.5593
 7162SOL     OW22926   2.220   0.313   5.925  0.3681  0.3946 -0.0717
 7162SOL    HW122927   2.166   0.334   5.849 -1.3802  1.0158  1.2646
 7162SOL    HW222928   2.296   0.268   5.889 -0.0783  1.2501 -2.2253
 7163SOL     OW22929   3.234   0.605   8.670 -0.1147  0.0890  0.2697
 7163SOL    HW122930   3.273   0.638   8.588 -0.0803 -2.5046 -0.8375
 7163SOL    HW222931   3.307   0.603   8.731  0.2109  0.5690 -0.0858
 7164SOL     OW22932   2.683   7.466   7.898 -0.4667 -0.3557 -0.3022
 7164SOL    HW122933   2.744   7.539   7.911 -1.4293  0.3381  0.4826
 7164SOL    HW222934   2.734   7.388   7.919 -0.0091  0.2554  0.9722
 7165SOL     OW22935   2.655   7.701   7.601  0.1435 -0.0366  0.7651
 7165SOL    HW122936   2.609   7.696   7.517 -0.3814  1.3987  0.9486
 7165SOL    HW222937   2.586   7.699   7.667  0.1691  3.1661  1.0189
 7166SOL     OW22938   3.026   1.797   9.165  0.2953  0.3246 -0.1998
 7166SOL    HW122939   3.054   1.865   9.104  1.4661  1.2435  1.2819
 7166SOL    HW222940   3.098   1.733   9.163 -0.7844 -0.9107 -1.5612
 7167SOL     OW22941   5.219   2.034   8.152 -1.0278  0.0448 -0.3804
 7167SOL    HW122942   5.303   2.062   8.116 -1.0188 -0.4391 -0.7411
 7167SOL    HW222943   5.154   2.075   8.096 -1.0332  0.3588 -0.1459
 7168SOL     OW22944   2.087   1.227   6.725 -0.0124 -0.2382 -0.7845
 7168SOL    HW122945   2.008   1.258   6.681 -0.8710 -0.0600  0.8054
 7168SOL    HW222946   2.086   1.269   6.811  2.1573  0.2584 -0.9277
 7169SOL     OW22947   1.718   7.762   9.639 -0.4312 -0.2844  0.0485
 7169SOL    HW122948   1.766   7.710   9.575 -0.4960 -1.4889  0.9457
 7169SOL    HW222949   1.743   7.725   9.724  0.0303  1.5781  0.7856
 7170SOL     OW22950   4.697   1.374   6.150  0.8283 -0.0040 -0.1257
 7170SOL    HW122951   4.646   1.305   6.193  1.2311 -0.7671 -0.8526
 7170SOL    HW222952   4.633   1.421   6.097  0.9181 -1.2817 -1.4454
 7171SOL     OW22953   3.398   1.646   7.987  0.2743  0.2410  0.2945
 7171SOL    HW122954   3.366   1.571   8.037 -1.2543 -0.5777 -1.7985
 7171SOL    HW222955   3.444   1.700   8.052  2.4262 -2.9724  1.6904
 7172SOL     OW22956   2.714   1.772   9.755  0.4234  0.1870 -0.6949
 7172SOL    HW122957   2.638   1.732   9.714  1.2623  0.0488 -2.2003
 7172SOL    HW222958   2.772   1.699   9.777  0.9109  0.3860 -1.2655
 7173SOL     OW22959   4.023   0.798   8.599 -0.2114 -0.3909  0.1093
 7173SOL    HW122960   4.065   0.771   8.681  0.8351 -3.1072 -1.1940
 7173SOL    HW222961   4.001   0.716   8.555 -1.1714  0.9752 -2.1384
 7174SOL     OW22962   0.828   2.585  10.624 -0.5848  0.4625  0.1082
 7174SOL    HW122963   0.843   2.679  10.624  0.6395  0.2848 -0.7729
 7174SOL    HW222964   0.881   2.552  10.552 -0.6099 -0.9662  0.7137
 7175SOL     OW22965   1.577   2.484   9.691 -0.5595 -0.2255 -0.4468
 7175SOL    HW122966   1.531   2.541   9.753 -0.4522  1.0339 -1.4943
 7175SOL    HW222967   1.551   2.395   9.717 -0.3396  0.2310  1.5398
 7176SOL     OW22968   4.104   1.220  10.781 -0.4105  0.1334 -0.4334
 7176SOL    HW122969   4.139   1.239  10.867 -1.7773 -0.1883  0.2199
 7176SOL    HW222970   4.013   1.194  10.797 -0.6236 -0.1530 -1.9422
 7177SOL     OW22971   4.605   0.337   7.947  0.4235 -0.0059  0.0117
 7177SOL    HW122972   4.692   0.303   7.965 -0.8329 -2.9556  1.1969
 7177SOL    HW222973   4.605   0.425   7.985  2.1972 -0.8217  2.0685
 7178SOL     OW22974   3.088   0.703   7.835 -0.1170  0.5871 -0.4707
 7178SOL    HW122975   3.054   0.769   7.775  1.6329  2.1729  0.1709
 7178SOL    HW222976   3.180   0.695   7.812  0.3765  0.5717  1.3635
 7179SOL     OW22977   2.903   0.444   9.644 -0.2299  0.9356 -0.7184
 7179SOL    HW122978   2.825   0.407   9.602  0.6509  0.3048 -1.8530
 7179SOL    HW222979   2.962   0.463   9.571  0.0147  3.0345 -0.0235
 7180SOL     OW22980   4.525   1.553  10.466  0.1128 -0.0848 -0.6741
 7180SOL    HW122981   4.552   1.520  10.380 -1.5960 -0.0022 -1.2883
 7180SOL    HW222982   4.479   1.635  10.447  0.4424  0.3659  0.4087
 7181SOL     OW22983   3.568   0.048   8.564  0.5909  0.1487  0.4773
 7181SOL    HW122984   3.620   0.009   8.494 -0.0228  1.2935 -0.6673
 7181SOL    HW222985   3.612   0.131   8.584 -0.8228  1.2004 -0.6122
 7182SOL     OW22986   4.509   2.146   5.299  0.3722 -0.2696 -0.3685
 7182SOL    HW122987   4.576   2.209   5.324  0.8002 -1.0526  0.4700
 7182SOL    HW222988   4.500   2.157   5.204  0.8803  0.6126 -0.3195
 7183SOL     OW22989   2.064   2.839   8.226 -0.0050 -0.0524  0.2910
 7183SOL    HW122990   2.031   2.797   8.306  0.0380 -0.5428  0.0531
 7183SOL    HW222991   2.056   2.933   8.244 -0.6843 -0.1567  0.5891
 7184SOL     OW22992   2.291   3.115   8.468 -0.0891  0.1753 -0.1142
 7184SOL    HW122993   2.205   3.155   8.477  0.2666  0.5364  2.3031
 7184SOL    HW222994   2.351   3.188   8.453  0.0899  0.1664  0.5526
 7185SOL     OW22995   1.556   2.638   9.460  0.7339  0.4176  0.2726
 7185SOL    HW122996   1.651   2.625   9.456  0.7304 -0.1678  1.5341
 7185SOL    HW222997   1.533   2.614   9.550 -0.7095 -0.0709 -0.2062
 7186SOL     OW22998   2.420   6.660   8.007  0.2261 -0.0065  0.4752
 7186SOL    HW122999   2.368   6.639   8.085  0.0930  1.3226  0.7564
 7186SOL    HW223000   2.474   6.734   8.033  1.9284 -1.0504  0.0294
 7187SOL     OW23001   1.838   1.056   9.349  0.0480  0.0950  0.2060
 7187SOL    HW123002   1.766   1.096   9.300 -0.3663  3.2185  2.9748
 7187SOL    HW223003   1.800   0.976   9.386 -1.2108  0.3750 -0.4040
 7188SOL     OW23004   3.181   1.900  10.137  0.5692 -0.2616  0.0176
 7188SOL    HW123005   3.168   1.992  10.159 -1.0449 -0.0080 -1.6798
 7188SOL    HW223006   3.258   1.873  10.186 -0.4728  1.2452  2.6729
 7189SOL     OW23007   2.083   7.745   6.558  0.1419 -0.2467  0.0952
 7189SOL    HW123008   2.081   7.713   6.468 -1.7042 -0.9939  0.3634
 7189SOL    HW223009   2.155   7.808   6.559  1.1434 -1.2921 -1.5170
 7190SOL     OW23010   1.565   1.959   9.270  0.4867  0.0392  0.1029
 7190SOL    HW123011   1.661   1.956   9.275  0.4305 -0.8490  1.1658
 7190SOL    HW223012   1.546   1.968   9.177  1.5744 -3.5943 -0.6458
 7191SOL     OW23013   5.070   7.723   8.906 -0.0285  0.1052  0.0504
 7191SOL    HW123014   5.111   7.810   8.899 -2.3303  1.1987 -0.7819
 7191SOL    HW223015   5.059   7.695   8.815 -1.2861 -0.0473  0.2400
 7192SOL     OW23016   5.046   7.005   7.363  0.1166  0.9852 -0.1177
 7192SOL    HW123017   4.991   7.017   7.286 -0.7325  0.3654  0.3754
 7192SOL    HW223018   5.052   7.092   7.403  0.6249  1.3273 -0.9001
 7193SOL     OW23019   2.232   3.440   9.271  0.5922 -0.3791 -0.0731
 7193SOL    HW123020   2.309   3.412   9.222  1.0614 -0.9475  0.9604
 7193SOL    HW223021   2.161   3.437   9.207  1.6046  1.2390 -1.3370
 7194SOL     OW23022   2.910   7.780   5.954  0.6216 -0.0419  0.7391
 7194SOL    HW123023   2.961   7.700   5.964  2.5386  0.7884 -1.3933
 7194SOL    HW223024   2.966   7.837   5.900 -0.7597  2.6471  1.9683
 7195SOL     OW23025   2.570   0.602   9.387  0.2563  0.4015  0.5631
 7195SOL    HW123026   2.631   0.609   9.314 -0.6477 -0.7224 -0.3287
 7195SOL    HW223027   2.487   0.634   9.352 -0.6769 -1.9639  0.4314
 7196SOL     OW23028   2.337   0.702   8.709  0.1196 -0.6681  0.1165
 7196SOL    HW123029   2.306   0.788   8.735 -0.0944  0.0345 -2.1950
 7196SOL    HW223030   2.432   0.706   8.721 -0.0516 -0.7818  1.7095
 7197SOL     OW23031   3.042   0.764  10.569 -0.5473 -0.6054 -0.2678
 7197SOL    HW123032   3.011   0.844  10.612  1.4805  0.2951 -0.3500
 7197SOL    HW223033   3.040   0.786  10.475 -0.7364 -0.9450 -0.3434
 7198SOL     OW23034   3.418   2.482   9.035  0.3052 -0.2100 -0.5797
 7198SOL    HW123035   3.472   2.533   9.095 -0.0332  0.3039 -0.7142
 7198SOL    HW223036   3.463   2.489   8.951 -0.1028  0.4143 -0.7435
 7199SOL     OW23037   0.602   0.851   9.228 -0.1398 -0.2143  0.1783
 7199SOL    HW123038   0.573   0.781   9.286  0.9300 -1.2247 -0.4634
 7199SOL    HW223039   0.620   0.808   9.144  0.1424  0.8989 -0.3626
 7200SOL     OW23040   2.520   1.081   8.996  0.4346  0.4105 -0.7905
 7200SOL    HW123041   2.527   0.999   8.947  1.2039 -0.2033  0.3207
 7200SOL    HW223042   2.536   1.057   9.087 -3.3025  1.0874  0.2323
 7201SOL     OW23043   3.204   5.970   6.900  0.1664 -0.5067 -0.1696
 7201SOL    HW123044   3.208   5.951   6.993  0.1073  0.9002  0.1515
 7201SOL    HW223045   3.186   5.886   6.858  1.1473 -1.3290  0.9945
 7202SOL     OW23046   1.030   6.998   6.731 -0.4019 -0.1573 -0.2643
 7202SOL    HW123047   0.967   7.036   6.670 -1.5463 -2.8378 -0.9042
 7202SOL    HW223048   1.010   7.041   6.815 -0.6298  1.6200 -1.1741
 7203SOL     OW23049   4.466   0.754  10.024  0.3381 -0.5977 -0.4393
 7203SOL    HW123050   4.411   0.819   9.979 -0.8986 -0.0896  1.6704
 7203SOL    HW223051   4.434   0.753  10.114  2.0731 -2.2632  0.2407
 7204SOL     OW23052   2.375   1.931   8.701 -0.5222  0.5409 -0.2364
 7204SOL    HW123053   2.425   1.868   8.754  0.3572  2.1625  0.9738
 7204SOL    HW223054   2.424   1.938   8.619  0.3106  0.8144  0.2621
 7205SOL     OW23055   2.803   0.367   7.544  0.4839  0.3507 -0.4109
 7205SOL    HW123056   2.871   0.348   7.609 -0.4729 -0.0904  0.5036
 7205SOL    HW223057   2.847   0.362   7.460  1.5715  0.0574  0.1598
 7206SOL     OW23058   2.224   2.686   7.913 -0.4206  1.1088  0.1445
 7206SOL    HW123059   2.256   2.730   7.834  0.7272  3.1654  1.6524
 7206SOL    HW223060   2.152   2.741   7.944 -2.0540 -0.6357 -0.3534
 7207SOL     OW23061   2.629   1.632   7.222  0.1670  0.6815  0.6101
 7207SOL    HW123062   2.649   1.539   7.222 -2.1012 -0.0017 -2.5660
 7207SOL    HW223063   2.682   1.668   7.150 -0.2607  1.4542  0.6673
 7208SOL     OW23064   1.699   0.848   8.038  0.3565 -0.1982 -0.1889
 7208SOL    HW123065   1.620   0.848   7.985  0.2413  1.9866 -0.1210
 7208SOL    HW223066   1.671   0.816   8.124 -0.6752  1.2750  0.0630
 7209SOL     OW23067   2.545   1.379   9.350 -0.7017  0.5871  0.2622
 7209SOL    HW123068   2.558   1.305   9.409 -2.2995 -0.0406 -0.1160
 7209SOL    HW223069   2.599   1.449   9.387 -1.0280 -0.0392  2.0311
 7210SOL     OW23070   2.906   2.957  10.023 -0.2834 -0.0761 -0.2322
 7210SOL    HW123071   2.834   2.906  10.060 -0.5666 -0.2733 -1.0546
 7210SOL    HW223072   2.882   2.972   9.932  0.8689 -0.4377 -0.6131
 7211SOL     OW23073   1.551   1.761   7.246  0.1768 -0.5273 -0.1580
 7211SOL    HW123074   1.633   1.786   7.204  0.9669 -2.9375 -0.2546
 7211SOL    HW223075   1.562   1.786   7.338  0.8066 -0.3516 -0.2819
 7212SOL     OW23076   2.968   1.722  10.156 -0.0054 -0.7548 -0.2009
 7212SOL    HW123077   3.046   1.777  10.163  1.4264 -2.8657  3.1674
 7212SOL    HW223078   2.992   1.654  10.094  0.6336 -1.0413  0.3502
 7213SOL     OW23079   3.442   7.447   9.808 -0.7677 -0.6959 -0.4170
 7213SOL    HW123080   3.504   7.512   9.841 -0.5241 -0.5149 -1.2098
 7213SOL    HW223081   3.376   7.439   9.877 -0.2010 -0.4281  0.1615
 7214SOL     OW23082   1.856   7.814   8.164 -0.0503  0.1613 -0.3136
 7214SOL    HW123083   1.910   7.746   8.203 -0.9675 -0.8259 -0.7245
 7214SOL    HW223084   1.890   7.823   8.075  0.2580  0.4661 -0.1707
 7215SOL     OW23085   2.509   0.557   6.937  0.5096  0.3854 -0.5962
 7215SOL    HW123086   2.504   0.538   6.843 -0.2346  0.2251 -0.5263
 7215SOL    HW223087   2.603   0.550   6.957  0.6715  0.3754 -1.3128
 7216SOL     OW23088   2.007   1.261   9.612 -0.0144  0.4402 -0.4675
 7216SOL    HW123089   1.963   1.322   9.671  0.2511  1.7562 -1.5852
 7216SOL    HW223090   2.030   1.313   9.536  1.1127 -0.8383 -1.0490
 7217SOL     OW23091   3.615   1.461   7.267  0.0348  0.4675  0.6918
 7217SOL    HW123092   3.672   1.384   7.265 -0.3824  0.1684 -0.1597
 7217SOL    HW223093   3.527   1.426   7.256 -0.1674  1.0558  0.3816
 7218SOL     OW23094   5.118   7.120   8.171 -0.3680  0.0072 -0.0559
 7218SOL    HW123095   5.033   7.105   8.213 -1.1724 -0.5926 -1.8129
 7218SOL    HW223096   5.117   7.212   8.145 -1.2816 -0.4347 -1.7004
 7219SOL     OW23097   3.725   6.924   8.060 -0.4628 -0.6760 -0.6027
 7219SOL    HW123098   3.720   7.004   8.112 -2.6504 -1.7928  1.0377
 7219SOL    HW223099   3.809   6.886   8.082 -0.3909  0.0173  0.3659
 7220SOL     OW23100   2.536   1.856   8.093  0.2686 -0.0488 -0.0465
 7220SOL    HW123101   2.584   1.826   8.170 -0.6073  0.0262  0.5540
 7220SOL    HW223102   2.596   1.915   8.048  0.2513  1.1779  1.4540
 7221SOL     OW23103   2.171   2.004   7.791 -0.1243 -0.9137  0.0633
 7221SOL    HW123104   2.209   2.077   7.742 -0.2448  0.3694  1.8248
 7221SOL    HW223105   2.243   1.942   7.802  0.6914  0.1624  0.8455
 7222SOL     OW23106   4.635   0.476   7.441 -0.1331  0.1757  0.7929
 7222SOL    HW123107   4.594   0.562   7.434  0.3702  0.3380 -0.4745
 7222SOL    HW223108   4.702   0.487   7.509 -0.3467  0.6675  0.9283
 7223SOL     OW23109   1.608   1.670   8.144 -0.1840 -0.4555 -0.2195
 7223SOL    HW123110   1.700   1.692   8.132 -0.4556  1.4624  0.7680
 7223SOL    HW223111   1.609   1.594   8.203  0.7586 -0.4148 -0.1700
 7224SOL     OW23112   3.983   0.723   9.620 -0.1517 -0.0718 -0.4926
 7224SOL    HW123113   4.075   0.747   9.630 -0.2588 -0.0163  0.5249
 7224SOL    HW223114   3.983   0.627   9.618 -0.1093 -0.0831 -0.0132
 7225SOL     OW23115   2.973   1.671   7.583  0.2636  0.1090  0.4696
 7225SOL    HW123116   3.011   1.755   7.609  0.7030  1.0786 -2.7442
 7225SOL    HW223117   2.884   1.693   7.555  0.2684 -0.5300 -0.0640
 7226SOL     OW23118   2.009   1.774   7.304 -0.0125 -0.0472 -0.0574
 7226SOL    HW123119   2.091   1.822   7.312 -1.0465  2.1354 -1.5632
 7226SOL    HW223120   1.960   1.797   7.383  1.0776 -2.0691  1.2957
 7227SOL     OW23121   1.886   1.690  10.423 -0.1025 -0.0169  0.5343
 7227SOL    HW123122   1.924   1.646  10.347  0.6021  1.9663 -0.3400
 7227SOL    HW223123   1.846   1.769  10.387 -0.2577  0.6816  2.1567
 7228SOL     OW23124   3.281   2.189  10.601 -0.6394 -0.5415  0.1278
 7228SOL    HW123125   3.336   2.170  10.525  0.3747  0.0602  0.6987
 7228SOL    HW223126   3.252   2.103  10.631 -1.4147 -0.7726 -1.1761
 7229SOL     OW23127   0.610   1.323   9.421  0.0302 -0.0578  0.1927
 7229SOL    HW123128   0.556   1.394   9.457  2.1094  2.6949 -1.7269
 7229SOL    HW223129   0.695   1.334   9.464  0.3997 -1.4064 -0.1533
 7230SOL     OW23130   2.651   2.844  10.358 -0.4964 -0.1111 -0.4028
 7230SOL    HW123131   2.622   2.935  10.369  1.6387  0.6877 -0.9869
 7230SOL    HW223132   2.677   2.838  10.266  1.0339 -0.7965  0.0519
 7231SOL     OW23133   5.208   1.154   9.550  0.4358  0.3934 -0.2953
 7231SOL    HW123134   5.203   1.066   9.512  1.0090 -0.5945  1.7380
 7231SOL    HW223135   5.119   1.173   9.577  0.5959 -0.4065  0.9052
 7232SOL     OW23136   2.484   7.136  10.972 -0.5352  0.1959 -0.3225
 7232SOL    HW123137   2.523   7.164  11.055  0.6689  1.4922 -1.2703
 7232SOL    HW223138   2.409   7.193  10.960  0.7829  1.8316 -1.3049
 7233SOL     OW23139   2.938   0.754   8.948  0.0959 -0.1836 -0.5576
 7233SOL    HW123140   2.918   0.847   8.938  0.8454 -0.0018 -0.4619
 7233SOL    HW223141   2.866   0.708   8.905 -0.6548  0.4199  0.0243
 7234SOL     OW23142   2.525   0.712  10.160 -0.0213  0.5689 -0.2392
 7234SOL    HW123143   2.527   0.619  10.136 -0.9930  0.6210 -0.5630
 7234SOL    HW223144   2.505   0.712  10.254 -0.5763  0.4645 -0.3583
 7235SOL     OW23145   2.415   2.044   9.740 -0.2156  0.1604  0.0994
 7235SOL    HW123146   2.356   2.000   9.801  1.1795 -0.2545  1.1718
 7235SOL    HW223147   2.366   2.044   9.657 -2.2548  0.9595  1.2112
 7236SOL     OW23148   4.035   0.111  11.074 -0.2538  0.3221 -0.4972
 7236SOL    HW123149   4.031   0.140  11.165 -1.4282  1.1643 -0.7942
 7236SOL    HW223150   4.043   0.015  11.079 -3.5519 -0.0202  0.5468
 7237SOL     OW23151   3.053   2.309  10.673  0.9370  0.7848 -0.2061
 7237SOL    HW123152   3.133   2.260  10.656  0.0747 -1.2089  1.0990
 7237SOL    HW223153   3.028   2.344  10.588  0.9670 -2.1286 -1.5119
 7238SOL     OW23154   2.968   1.732   9.544 -0.7624  0.3368  0.1332
 7238SOL    HW123155   2.938   1.815   9.507  1.1749  1.8124  1.7321
 7238SOL    HW223156   2.914   1.719   9.622 -1.8378 -0.5493 -0.7144
 7239SOL     OW23157   3.397   2.554   9.836  0.4712 -0.1610  0.2745
 7239SOL    HW123158   3.443   2.631   9.869  2.3384  0.1019 -2.6000
 7239SOL    HW223159   3.318   2.589   9.796 -0.2839 -0.1581  1.7006
 7240SOL     OW23160   3.309   1.325  11.206 -0.7176 -0.2127 -0.5537
 7240SOL    HW123161   3.248   1.386  11.246 -2.4023 -1.7992 -0.5855
 7240SOL    HW223162   3.371   1.381  11.158 -0.1614  1.5921  2.0754
 7241SOL     OW23163   2.937   1.373   9.172 -0.2245 -0.0355 -0.0674
 7241SOL    HW123164   2.942   1.404   9.081 -0.5979 -1.6064 -0.6614
 7241SOL    HW223165   2.904   1.283   9.164  2.4691 -1.2442  1.4272
 7242SOL     OW23166   2.016   2.474   9.459  0.1505 -0.1627  0.5842
 7242SOL    HW123167   1.986   2.454   9.548  1.3000  1.0089  1.2691
 7242SOL    HW223168   2.043   2.389   9.423  0.4924 -0.5267  1.6665
 7243SOL     OW23169   2.274   1.344  11.176 -0.0098  0.5257 -0.2935
 7243SOL    HW123170   2.329   1.384  11.108  0.6943 -0.3238 -0.2502
 7243SOL    HW223171   2.293   1.395  11.255  0.7479  0.2359 -0.2754
 7244SOL     OW23172   1.132   1.762  11.670  0.4417  0.5730 -0.3176
 7244SOL    HW123173   1.215   1.794  11.633  0.4814  0.0639 -0.6763
 7244SOL    HW223174   1.111   1.685  11.618 -0.5309  0.9927 -0.5581
 7245SOL     OW23175   0.806   7.440  10.282  0.5246  0.1053 -0.5847
 7245SOL    HW123176   0.852   7.371  10.329 -0.7930  0.0854  0.7357
 7245SOL    HW223177   0.719   7.443  10.322  0.9558  3.4862  0.4081
 7246SOL     OW23178   2.520   2.779   9.801 -0.0708  0.3536  0.1912
 7246SOL    HW123179   2.570   2.705   9.767  0.3481  0.6129  0.2444
 7246SOL    HW223180   2.524   2.845   9.733 -1.6222 -0.1703 -0.4660
 7247SOL     OW23181   3.785   2.538   8.792  0.2971 -0.3354 -0.0817
 7247SOL    HW123182   3.774   2.503   8.704 -0.3496 -0.3511 -0.0025
 7247SOL    HW223183   3.878   2.526   8.812  0.4217 -0.4279 -0.7176
 7248SOL     OW23184   3.435   1.231  10.100 -0.4343  0.2829 -0.1201
 7248SOL    HW123185   3.528   1.249  10.090 -0.0432 -1.3528  0.2279
 7248SOL    HW223186   3.419   1.154  10.046 -1.7553  0.9344 -0.7201
 7249SOL     OW23187   3.620   0.299   9.966 -0.2037  0.4063 -0.0424
 7249SOL    HW123188   3.699   0.354   9.966 -0.6566  1.4093 -4.0502
 7249SOL    HW223189   3.654   0.209   9.975  0.8222  1.0253  3.4651
 7250SOL     OW23190   4.428   1.786  10.359 -0.2529 -0.2296 -0.5363
 7250SOL    HW123191   4.486   1.827  10.295  2.0068  0.1923  1.6432
 7250SOL    HW223192   4.384   1.860  10.402 -5.0440 -0.5185 -4.1436
 7251SOL     OW23193   1.080   1.575   7.794 -0.2621  0.0324  0.2036
 7251SOL    HW123194   1.041   1.628   7.724 -1.7347  0.1164  1.0471
 7251SOL    HW223195   1.017   1.580   7.866  0.0651 -1.9873  0.6878
 7252SOL     OW23196   2.652   2.724   9.053  0.3270 -0.0964  0.0933
 7252SOL    HW123197   2.605   2.805   9.036 -0.6663 -0.7951 -0.6337
 7252SOL    HW223198   2.662   2.683   8.967  2.4025  0.0656  0.2002
 7253SOL     OW23199   3.843   1.209   9.617  0.2002  0.6839 -0.2655
 7253SOL    HW123200   3.879   1.122   9.638 -1.2275  0.1523  0.0980
 7253SOL    HW223201   3.830   1.250   9.702  1.5303  1.5689 -0.4579
 7254SOL     OW23202   0.459   1.445  12.412 -0.4213 -0.0176  0.3981
 7254SOL    HW123203   0.532   1.483  12.363 -0.3477  0.2330  0.6939
 7254SOL    HW223204   0.437   1.365  12.365 -1.0116  0.7142 -0.6252
 7255SOL     OW23205   2.765   3.639   8.861 -0.5417  0.1090  0.8662
 7255SOL    HW123206   2.836   3.611   8.920  0.0871 -0.0777  0.0464
 7255SOL    HW223207   2.798   3.617   8.774 -2.2612 -1.4389  0.5526
 7256SOL     OW23208   3.053   2.752  10.430  0.2324  0.1499  0.0248
 7256SOL    HW123209   3.128   2.796  10.391 -1.1240  1.1444 -1.6255
 7256SOL    HW223210   3.015   2.702  10.358 -0.8969 -0.0378  0.7304
 7257SOL     OW23211   4.778   0.735   9.737 -0.2973 -0.1557  0.4383
 7257SOL    HW123212   4.862   0.736   9.691 -1.0583  0.5802 -0.9912
 7257SOL    HW223213   4.714   0.767   9.673 -1.6032 -0.2202  1.6429
 7258SOL     OW23214   2.232   7.489  10.273  0.0757 -0.2684  0.8213
 7258SOL    HW123215   2.235   7.477  10.179 -2.8164 -1.6720  0.7941
 7258SOL    HW223216   2.313   7.449  10.305  0.9642 -0.0227 -1.0131
 7259SOL     OW23217   3.586   0.555   8.437 -0.0508  0.0950 -0.1900
 7259SOL    HW123218   3.651   0.612   8.395 -1.1181  1.1733 -0.4509
 7259SOL    HW223219   3.509   0.611   8.448 -0.6059 -0.8546  1.0384
 7260SOL     OW23220   3.325   3.612  11.237 -0.9064 -0.2027  0.4347
 7260SOL    HW123221   3.250   3.650  11.189 -0.1964  1.3572  0.4916
 7260SOL    HW223222   3.372   3.562  11.171 -0.6101  0.9246 -0.2328
 7261SOL     OW23223   2.013   6.520  11.799 -0.0605 -0.5487  0.1900
 7261SOL    HW123224   1.936   6.512  11.857  0.9504 -0.8343  1.5381
 7261SOL    HW223225   2.068   6.445  11.822  0.8531 -0.0846 -0.4304
 7262SOL     OW23226   3.905   3.451  10.643  0.2637 -0.2796  0.1218
 7262SOL    HW123227   3.886   3.400  10.565 -0.2452  0.3494 -0.1734
 7262SOL    HW223228   3.999   3.468  10.639  0.2449 -0.2775 -0.3348
 7263SOL     OW23229   3.086   3.137  10.328  0.0934  0.0887  0.0272
 7263SOL    HW123230   3.144   3.171  10.396 -1.2258  1.6509  0.4422
 7263SOL    HW223231   3.099   3.195  10.253 -0.8708  0.4284  0.1080
 7264SOL     OW23232   5.802   0.844   8.938 -0.6428 -1.1042  0.1502
 7264SOL    HW123233   5.778   0.817   8.849 -1.3797  0.3437 -0.1362
 7264SOL    HW223234   5.731   0.812   8.993 -1.3095 -0.1735 -0.1290
 7265SOL     OW23235   2.446   1.986  11.499  0.7046  0.1025 -0.3597
 7265SOL    HW123236   2.394   2.067  11.501  0.7490  0.1361 -0.5658
 7265SOL    HW223237   2.452   1.964  11.406  0.0016 -0.5889 -0.2555
 7266SOL     OW23238   2.753   1.571   9.463 -0.1109 -0.4549  0.6320
 7266SOL    HW123239   2.827   1.630   9.478 -0.9188  0.7266  0.0422
 7266SOL    HW223240   2.699   1.580   9.541  0.8178 -2.0853  1.5357
 7267SOL     OW23241   4.524   0.672   0.008 -0.5565  0.2333  0.0747
 7267SOL    HW123242   4.493   0.581   0.006  0.7361 -0.2404  0.1387
 7267SOL    HW223243   4.617   0.665  -0.015 -0.5525  1.6008 -0.4007
 7268SOL     OW23244   2.312   1.778  10.753 -0.1465 -0.4414 -0.3830
 7268SOL    HW123245   2.344   1.706  10.698  1.7705  0.2402 -0.2032
 7268SOL    HW223246   2.289   1.847  10.691  1.1269 -0.0195 -0.4054
 7269SOL     OW23247   2.617   0.740  11.375 -0.1207 -0.3987  0.4207
 7269SOL    HW123248   2.655   0.672  11.320  1.5446 -1.2566  2.5066
 7269SOL    HW223249   2.644   0.822  11.334  0.1093 -0.9910 -0.6400
 7270SOL     OW23250   3.442   3.084  10.366 -0.0094 -0.2319 -0.7218
 7270SOL    HW123251   3.394   3.004  10.348  0.5841 -0.3387 -1.9485
 7270SOL    HW223252   3.508   3.059  10.430 -1.5462 -0.0740  1.0176
 7271SOL     OW23253   2.269   7.767  10.783  0.4791 -0.1811  0.1677
 7271SOL    HW123254   2.226   7.719  10.712 -1.7486  1.4765  0.2721
 7271SOL    HW223255   2.326   7.830  10.738 -0.6395  0.6081 -0.1883
 7272SOL     OW23256   0.952   2.091  11.084 -0.3922  0.5646 -0.0933
 7272SOL    HW123257   1.039   2.129  11.096  2.0139 -4.3354  0.4084
 7272SOL    HW223258   0.951   2.064  10.992 -0.6384 -0.8319  0.2944
 7273SOL     OW23259   2.058   1.243  11.368 -0.2818 -0.0398 -0.3488
 7273SOL    HW123260   2.122   1.287  11.312 -0.3446 -1.1726 -1.3532
 7273SOL    HW223261   2.105   1.224  11.449  0.5232 -0.4390 -0.8998
 7274SOL     OW23262   2.454   1.927   7.242  0.1327  0.3813  0.7342
 7274SOL    HW123263   2.511   1.927   7.165  0.1522 -0.2790  0.7414
 7274SOL    HW223264   2.465   1.839   7.279 -1.7940 -0.1909  0.0567
 7275SOL     OW23265   3.850   1.212  10.878 -0.0214  0.4562 -0.1852
 7275SOL    HW123266   3.809   1.142  10.928 -1.0069 -0.3705 -2.0469
 7275SOL    HW223267   3.819   1.292  10.920  0.1257 -0.1962  1.2140
 7276SOL     OW23268   2.348   0.073   9.122  0.4550 -0.1076 -0.4016
 7276SOL    HW123269   2.379   0.118   9.200  0.3626  0.9006 -0.9332
 7276SOL    HW223270   2.255   0.094   9.117  0.9933  2.2620 -2.3121
 7277SOL     OW23271   2.896   7.498  11.671  0.4422  0.2898  0.2242
 7277SOL    HW123272   2.816   7.445  11.674  0.7028 -0.3141 -1.9114
 7277SOL    HW223273   2.931   7.494  11.760 -2.4924  1.5884  1.5916
 7278SOL     OW23274   2.846   3.924   9.060  0.3638  0.4868 -0.1529
 7278SOL    HW123275   2.776   3.937   9.123 -0.0277  1.5822 -0.7785
 7278SOL    HW223276   2.863   3.830   9.061 -0.7025  0.2890  0.4474
 7279SOL     OW23277   1.228   1.635  10.039  0.3574  0.7520 -0.1244
 7279SOL    HW123278   1.261   1.552  10.006 -0.6447  0.5675 -0.7231
 7279SOL    HW223279   1.297   1.668  10.097 -0.3682 -1.9098  2.5151
 7280SOL     OW23280   4.595   0.773  11.669  1.0583 -0.5568  0.0889
 7280SOL    HW123281   4.682   0.746  11.639  0.5670 -0.2117 -1.8232
 7280SOL    HW223282   4.545   0.784  11.588 -0.3013  0.8109  1.0568
 7281SOL     OW23283   4.405   0.773  11.438 -0.0822 -0.4127  0.0871
 7281SOL    HW123284   4.312   0.763  11.454 -0.1604 -0.3186 -0.3070
 7281SOL    HW223285   4.417   0.867  11.422 -0.3472 -0.7438 -2.4650
 7282SOL     OW23286   1.912   0.893   8.805 -0.0482  0.5728  0.0661
 7282SOL    HW123287   1.951   0.836   8.739 -0.6587 -1.1582  1.1373
 7282SOL    HW223288   1.940   0.856   8.888 -1.0459  1.4262  0.8060
 7283SOL     OW23289   3.547   7.724  10.149 -0.0535  0.3742  0.3461
 7283SOL    HW123290   3.621   7.737  10.209  0.1431  1.1564 -0.0527
 7283SOL    HW223291   3.587   7.706  10.064 -0.3309 -0.3282  0.3564
 7284SOL     OW23292   3.258   2.286  12.245 -0.0898 -0.1579 -0.4562
 7284SOL    HW123293   3.259   2.379  12.221 -0.3354 -0.5246 -1.9495
 7284SOL    HW223294   3.268   2.239  12.163 -1.5412 -1.4995  0.0758
 7285SOL     OW23295   2.076   1.770   9.370  0.1836  0.0453  0.2495
 7285SOL    HW123296   2.039   1.850   9.408  2.4334  0.3628  2.0134
 7285SOL    HW223297   2.123   1.801   9.292 -2.6454 -0.2993 -1.7324
 7286SOL     OW23298   1.987   7.165  10.749 -0.5474 -0.2211  0.0052
 7286SOL    HW123299   1.912   7.111  10.724 -0.0761 -0.9969  0.2101
 7286SOL    HW223300   1.952   7.228  10.812 -0.7554 -1.5189  1.2449
 7287SOL     OW23301   4.499   0.580   9.525 -0.2821 -0.1379  0.0013
 7287SOL    HW123302   4.515   0.595   9.432  0.6339  0.6528  0.2688
 7287SOL    HW223303   4.579   0.538   9.556 -1.1641 -1.7790  0.1443
 7288SOL     OW23304   3.844   0.484  10.028  0.1801 -0.3547  0.1783
 7288SOL    HW123305   3.917   0.525   9.981 -0.2209 -0.0690 -0.2086
 7288SOL    HW223306   3.796   0.557  10.068  0.7365 -0.6221  1.3749
 7289SOL     OW23307   3.751   1.173  10.639  0.6556 -0.5618 -0.2103
 7289SOL    HW123308   3.795   1.169  10.723 -1.4253 -1.0527  0.9375
 7289SOL    HW223309   3.686   1.102  10.643 -1.5574  1.2866 -0.9431
 7290SOL     OW23310   2.648   1.397  10.357  0.1740 -0.0907  0.0740
 7290SOL    HW123311   2.722   1.455  10.374  0.8934 -0.9969  0.1566
 7290SOL    HW223312   2.596   1.442  10.290  0.5519  0.7706  0.3525
 7291SOL     OW23313   2.968   2.409  10.441  0.4574 -0.3666 -0.4283
 7291SOL    HW123314   3.021   2.451  10.374  0.9612  0.0891  0.2449
 7291SOL    HW223315   2.890   2.465  10.448  1.0263  0.3461  0.3108
 7292SOL     OW23316   2.564   1.125   9.971  0.4827 -0.7484  0.3411
 7292SOL    HW123317   2.610   1.041   9.970 -1.1446 -1.7017 -0.6378
 7292SOL    HW223318   2.589   1.166  10.053  1.5315 -2.0744  0.7207
 7293SOL     OW23319   2.337   0.701   9.269 -0.3721  0.1912 -0.4722
 7293SOL    HW123320   2.265   0.717   9.207 -1.9630  0.1765  1.2953
 7293SOL    HW223321   2.351   0.785   9.311  0.1686  0.0197 -0.3082
 7294SOL     OW23322   2.339   2.300   8.228 -0.4322  0.5701  0.7590
 7294SOL    HW123323   2.248   2.326   8.235 -1.0941 -1.6393  1.0833
 7294SOL    HW223324   2.338   2.221   8.174  1.2127  0.1641  1.2414
 7295SOL     OW23325   2.641   0.742  10.520  0.3057 -0.3942 -0.4061
 7295SOL    HW123326   2.576   0.674  10.503 -1.0474  0.5743  0.6779
 7295SOL    HW223327   2.716   0.717  10.467  0.2937 -3.3546  0.7597
 7296SOL     OW23328   3.005   3.514  10.020 -0.2279 -0.0826  0.0750
 7296SOL    HW123329   2.949   3.496   9.944 -0.7096  0.4668  0.2930
 7296SOL    HW223330   3.086   3.546   9.982 -0.8148  1.1307 -0.1945
 7297SOL     OW23331   3.116   0.290  10.194 -0.0638  0.0988 -0.8491
 7297SOL    HW123332   3.152   0.219  10.141 -1.8041 -0.9143 -0.7547
 7297SOL    HW223333   3.168   0.288  10.274  1.2829  0.3403 -1.6703
 7298SOL     OW23334   4.969   1.604  10.821 -0.0963 -0.2559 -0.4403
 7298SOL    HW123335   4.895   1.658  10.847 -0.5608 -0.7354 -0.7453
 7298SOL    HW223336   5.032   1.666  10.783 -0.8161  0.0243 -1.2065
 7299SOL     OW23337   4.111   0.828   8.201  0.1594 -0.3280 -0.7509
 7299SOL    HW123338   4.060   0.752   8.173  0.5648 -1.1822  0.7218
 7299SOL    HW223339   4.046   0.892   8.230 -0.1759 -1.9375  2.4691
 7300SOL     OW23340   2.634   0.626   9.685  0.1760 -0.4446 -0.5046
 7300SOL    HW123341   2.609   0.611   9.593 -0.4805  1.4321 -0.6644
 7300SOL    HW223342   2.715   0.677   9.679 -1.0506  1.6655 -0.1279
 7301SOL     OW23343   2.820   2.064   9.098 -0.1512 -0.2940  0.1222
 7301SOL    HW123344   2.858   2.037   9.015 -0.9360  0.8881 -0.6439
 7301SOL    HW223345   2.850   2.154   9.110 -0.7233 -0.1723  0.7179
 7302SOL     OW23346   4.800   2.267   7.479  0.1599  0.0253  0.3292
 7302SOL    HW123347   4.755   2.334   7.529 -0.5381  1.0096 -1.5278
 7302SOL    HW223348   4.805   2.302   7.390  0.1523 -2.1925 -0.6227
 7303SOL     OW23349   4.104   1.669  10.229  0.0216  0.2711 -0.5815
 7303SOL    HW123350   4.127   1.701  10.316  0.1849 -0.0688 -0.4972
 7303SOL    HW223351   4.100   1.747  10.175 -0.3151  0.5080 -0.2181
 7304SOL     OW23352   3.664   1.776  10.586  0.2915  0.1555  0.5240
 7304SOL    HW123353   3.570   1.770  10.568  0.5160 -1.7561 -0.2872
 7304SOL    HW223354   3.683   1.869  10.585 -1.2661  0.5025 -1.1252
 7305SOL     OW23355   2.948   1.369   9.446  0.3244  0.1711  0.0741
 7305SOL    HW123356   2.959   1.373   9.351 -1.8191 -1.7399 -0.3431
 7305SOL    HW223357   2.874   1.428   9.464 -1.0157 -1.4238  0.1099
 7306SOL     OW23358   3.087   1.865   9.822 -0.2620 -0.6355  0.2734
 7306SOL    HW123359   3.076   1.920   9.900  1.3576  0.7102 -0.3965
 7306SOL    HW223360   3.065   1.923   9.749  1.8686 -0.7088 -0.4792
 7307SOL     OW23361   2.001   0.323  10.919  0.0911  0.5154  0.1360
 7307SOL    HW123362   1.989   0.412  10.953 -0.1634 -0.2905  2.2661
 7307SOL    HW223363   1.947   0.268  10.975  3.0745 -1.4500  1.3347
 7308SOL     OW23364   1.802   0.781  10.380  0.3964  0.2832 -0.1661
 7308SOL    HW123365   1.795   0.735  10.296  1.6126  0.7468 -0.5456
 7308SOL    HW223366   1.712   0.802  10.404 -0.0435 -0.7865 -0.8279
 7309SOL     OW23367   1.365   0.726   9.601 -0.0263 -0.6255  0.2499
 7309SOL    HW123368   1.402   0.723   9.513 -0.6601  1.3757 -0.1500
 7309SOL    HW223369   1.344   0.819   9.614 -0.7730 -1.0253  2.1684
 7310SOL     OW23370   3.367   1.942  11.353  0.0499 -0.0727 -0.0123
 7310SOL    HW123371   3.334   1.906  11.271  2.4832  0.0633 -1.1105
 7310SOL    HW223372   3.444   1.889  11.374 -0.1362  0.3065  1.8622
 7311SOL     OW23373   4.045   6.498   8.988 -0.1053  0.2574 -0.1855
 7311SOL    HW123374   4.025   6.436   9.057 -0.1023  0.0013 -0.4150
 7311SOL    HW223375   4.082   6.446   8.917  2.0391  0.7851  0.4664
 7312SOL     OW23376   4.075   0.310  11.676  0.5850 -0.4243  0.4757
 7312SOL    HW123377   4.019   0.374  11.631  0.2038 -0.6119  0.6758
 7312SOL    HW223378   4.044   0.225  11.643  1.1828 -0.5027  0.1008
 7313SOL     OW23379   3.636   2.387  11.612  0.0672 -0.1730  0.4277
 7313SOL    HW123380   3.686   2.439  11.548  0.0385  0.5468  0.9778
 7313SOL    HW223381   3.649   2.432  11.695  0.3759 -1.2956  1.0008
 7314SOL     OW23382   4.063   0.652  11.114  0.2804 -0.2954 -0.1654
 7314SOL    HW123383   4.067   0.560  11.087 -0.3845 -0.3486 -0.1136
 7314SOL    HW223384   4.036   0.648  11.206 -2.3403 -0.0108 -0.8428
 7315SOL     OW23385   2.214   3.054   9.059  0.2470  0.2480  0.0525
 7315SOL    HW123386   2.211   3.134   9.007  0.2843 -0.1217 -0.5395
 7315SOL    HW223387   2.131   3.011   9.041 -0.3585  0.7998  1.4449
 7316SOL     OW23388   4.166   0.174   9.997 -0.4837 -0.0164  0.0768
 7316SOL    HW123389   4.092   0.215  10.042 -0.3013  1.0130 -0.5410
 7316SOL    HW223390   4.137   0.083   9.983 -0.8403 -0.1703  1.5750
 7317SOL     OW23391   2.037   1.601   9.126 -0.3918  0.0198  0.1353
 7317SOL    HW123392   2.118   1.618   9.174 -0.0201 -0.6178 -0.2497
 7317SOL    HW223393   1.969   1.647   9.175  0.3231  1.2451  0.0109
 7318SOL     OW23394   3.001   0.514   8.021 -0.2153 -0.1742 -0.1854
 7318SOL    HW123395   2.908   0.517   8.002 -0.9313  0.2513  2.9387
 7318SOL    HW223396   3.040   0.580   7.964 -2.1864  1.3069  0.1075
 7319SOL     OW23397   3.946   2.598  11.067 -0.3886  0.3164  0.0774
 7319SOL    HW123398   3.889   2.527  11.039 -0.5159  0.5668 -0.3166
 7319SOL    HW223399   3.967   2.645  10.986 -0.2429  0.6791  0.3215
 7320SOL     OW23400   2.286   0.303  10.915  0.1850 -0.0561 -0.2671
 7320SOL    HW123401   2.199   0.342  10.926  1.1172  1.7481  1.4825
 7320SOL    HW223402   2.269   0.210  10.904 -1.9862  0.2597 -0.1367
 7321SOL     OW23403   4.289   1.776  11.373 -0.6873  0.3638 -0.2137
 7321SOL    HW123404   4.336   1.736  11.446 -0.0097 -1.0473 -1.3425
 7321SOL    HW223405   4.214   1.820  11.412  1.0166  1.8378  1.5704
 7322SOL     OW23406   3.174   2.198   9.833 -0.1509  0.4618  1.0977
 7322SOL    HW123407   3.268   2.207   9.814 -0.2530  0.4985  0.5892
 7322SOL    HW223408   3.137   2.164   9.752 -0.5497  0.2572  1.3641
 7323SOL     OW23409   3.574   2.147  11.520 -1.0938 -0.4005  0.2562
 7323SOL    HW123410   3.624   2.218  11.559  1.2856 -1.9020  0.1609
 7323SOL    HW223411   3.601   2.146  11.428 -1.4450 -1.1470  0.1495
 7324SOL     OW23412   3.735   7.836  12.190 -0.9259 -0.7645 -0.1882
 7324SOL    HW123413   3.816   7.822  12.239 -1.1922  0.4323  0.6502
 7324SOL    HW223414   3.726   7.758  12.136 -0.2210 -1.7996  1.1222
 7325SOL     OW23415   3.232   2.462   8.698 -0.0842  0.2439 -0.1640
 7325SOL    HW123416   3.169   2.435   8.631  0.7762  0.1574 -0.9650
 7325SOL    HW223417   3.179   2.481   8.775 -0.8858 -2.2335 -0.0225
 7326SOL     OW23418   2.599   2.486   9.519  0.2128 -0.2496 -0.2238
 7326SOL    HW123419   2.575   2.403   9.477  1.3299 -0.6809 -0.0566
 7326SOL    HW223420   2.546   2.490   9.598  0.0996 -0.7834 -0.2687
 7327SOL     OW23421   3.160   1.569   9.906 -0.4938 -0.6350 -0.7424
 7327SOL    HW123422   3.116   1.654   9.900 -0.8116 -0.7048  0.2884
 7327SOL    HW223423   3.144   1.527   9.822  1.3231  1.0775 -2.0256
 7328SOL     OW23424   3.061   7.273   9.541  0.8008  0.5118 -0.1741
 7328SOL    HW123425   3.106   7.263   9.457 -0.1021  2.7805 -1.0222
 7328SOL    HW223426   3.060   7.367   9.557 -0.2566  0.2388  1.7173
 7329SOL     OW23427   2.253   1.446  11.417  0.0273 -0.8429  0.0218
 7329SOL    HW123428   2.269   1.372  11.476  0.1978 -0.4310  0.5022
 7329SOL    HW223429   2.209   1.511  11.471  0.4209 -0.3546 -0.2350
 7330SOL     OW23430   3.834   1.361  10.476 -0.5349  0.5677 -0.7402
 7330SOL    HW123431   3.750   1.387  10.438 -1.6712 -1.6459  0.0762
 7330SOL    HW223432   3.812   1.289  10.535  1.4843  2.1074  2.1233
 7331SOL     OW23433   3.855   7.871   9.001 -0.6647 -0.2601  0.2221
 7331SOL    HW123434   3.838   7.777   9.003 -1.3614 -0.1471  0.1300
 7331SOL    HW223435   3.862   7.892   8.907  2.0279 -0.6242  0.2796
 7332SOL     OW23436   3.994   2.057  10.052  0.7188  0.0077  0.0197
 7332SOL    HW123437   3.955   2.025  10.134  1.0047 -0.6851 -0.1030
 7332SOL    HW223438   3.943   2.134  10.029  0.4460  0.0341  0.6987
 7333SOL     OW23439   3.653   2.419  10.132  0.1083  0.0141 -0.0156
 7333SOL    HW123440   3.715   2.451  10.066 -0.0146  1.4815  0.5394
 7333SOL    HW223441   3.706   2.365  10.191  1.3460  2.6644  1.4880
 7334SOL     OW23442   2.873   1.085   9.724 -0.2503 -0.7648 -0.2636
 7334SOL    HW123443   2.966   1.061   9.724 -0.2323 -0.7223  0.7623
 7334SOL    HW223444   2.857   1.118   9.812 -1.1309 -0.3275 -0.5837
 7335SOL     OW23445   2.431   7.901  10.038 -0.2651 -0.5001 -0.0645
 7335SOL    HW123446   2.522   7.912  10.065 -0.5901  3.3820 -0.0878
 7335SOL    HW223447   2.381   7.905  10.120 -0.5685 -0.5532 -0.2462
 7336SOL     OW23448   2.211   0.177  11.685 -0.0305  0.2543 -0.3339
 7336SOL    HW123449   2.296   0.214  11.662  0.8510 -1.2809  0.2384
 7336SOL    HW223450   2.231   0.111  11.752 -1.8025  0.5520  0.5687
 7337SOL     OW23451   1.518   0.309  10.181  0.0110  0.3692  0.4260
 7337SOL    HW123452   1.503   0.395  10.141 -1.7599 -0.1971 -0.2257
 7337SOL    HW223453   1.434   0.287  10.222 -1.5838 -3.3032 -3.8858
 7338SOL     OW23454   4.355   1.292   0.362  0.3831 -0.0145 -0.1704
 7338SOL    HW123455   4.309   1.349   0.424  0.0673 -0.8315  0.3567
 7338SOL    HW223456   4.285   1.251   0.312  0.5614 -0.8050  0.2253
 7339SOL     OW23457   1.521   0.756  10.358  0.1050  0.1779  0.1702
 7339SOL    HW123458   1.520   0.767  10.263  0.5971 -1.2056 -0.0165
 7339SOL    HW223459   1.515   0.662  10.372  0.5192  0.3202  1.5043
 7340SOL     OW23460   3.128   2.518  10.232  0.1704 -0.0699 -0.4126
 7340SOL    HW123461   3.192   2.458  10.194 -0.0138 -0.3284 -0.3174
 7340SOL    HW223462   3.066   2.534  10.161  0.4205  0.3012 -0.5540
 7341SOL     OW23463   3.634   2.745  11.197  0.1344 -0.4340 -0.2325
 7341SOL    HW123464   3.611   2.789  11.279  0.8773  0.2671 -0.3837
 7341SOL    HW223465   3.704   2.684  11.221  1.2074  0.6390 -0.5301
 7342SOL     OW23466   3.963   1.321   8.315  0.4263  0.0085 -0.1081
 7342SOL    HW123467   4.049   1.345   8.351  0.4753 -0.2036 -0.0809
 7342SOL    HW223468   3.943   1.391   8.253 -0.4739  1.3246  1.6098
 7343SOL     OW23469   2.430   0.064   9.820 -0.2831  0.3332  0.2740
 7343SOL    HW123470   2.404  -0.001   9.885 -1.2129 -0.8989 -1.2581
 7343SOL    HW223471   2.511   0.101   9.854 -0.5774 -0.4783  1.9702
 7344SOL     OW23472   1.258   0.308  10.989 -0.0213  0.0176  0.2670
 7344SOL    HW123473   1.267   0.213  10.993 -1.4927 -0.2162 -0.9497
 7344SOL    HW223474   1.163   0.322  10.986  0.0863  1.6395  2.3151
 7345SOL     OW23475   2.527   1.706   8.739 -0.0333  0.3025 -0.1725
 7345SOL    HW123476   2.498   1.623   8.778  1.0704 -0.5165 -1.0005
 7345SOL    HW223477   2.540   1.685   8.647  0.5726  1.3193 -0.3282
 7346SOL     OW23478   3.517   7.319  12.180 -0.1925  0.5292  0.4080
 7346SOL    HW123479   3.440   7.368  12.208 -1.0090 -0.1992 -0.4762
 7346SOL    HW223480   3.550   7.368  12.104 -0.4905  0.2067  0.0646
 7347SOL     OW23481   2.021   6.722   9.303 -0.0308 -0.0298  0.1206
 7347SOL    HW123482   1.989   6.673   9.379 -1.1677  0.7340  0.1470
 7347SOL    HW223483   2.103   6.677   9.279 -0.2113 -0.9412  1.1222
 7348SOL     OW23484   5.695   0.892   8.333  0.2108  0.1817 -0.2075
 7348SOL    HW123485   5.623   0.931   8.284  0.5394  0.6011 -0.3626
 7348SOL    HW223486   5.706   0.950   8.409 -0.4057 -0.5552  0.4501
 7349SOL     OW23487   2.828   2.338   9.092  0.6497 -0.7238  0.6051
 7349SOL    HW123488   2.870   2.373   9.013  0.4211 -3.3750 -0.8059
 7349SOL    HW223489   2.738   2.371   9.087  0.3143 -1.7685 -0.9043
 7350SOL     OW23490   2.719   2.247  11.144 -0.2945  0.0261 -0.1350
 7350SOL    HW123491   2.697   2.277  11.056  0.2282  0.3216 -0.1708
 7350SOL    HW223492   2.685   2.315  11.202  0.5314  0.5024 -0.1924
 7351SOL     OW23493   3.115   3.795  10.038 -0.1464  0.1239  0.1681
 7351SOL    HW123494   3.146   3.727   9.978  0.3562  1.4283 -1.1204
 7351SOL    HW223495   3.137   3.877   9.993 -1.1295  1.1262  1.4734
 7352SOL     OW23496   3.457   1.306  10.636 -0.6542 -0.1120  0.1907
 7352SOL    HW123497   3.537   1.339  10.596  0.0051  0.2671  1.7689
 7352SOL    HW223498   3.460   1.211  10.622  0.5007 -0.2014  0.9723
 7353SOL     OW23499   4.316   6.876  11.352  0.1469  0.2841 -0.3635
 7353SOL    HW123500   4.291   6.961  11.317 -1.7233 -0.3580 -0.6904
 7353SOL    HW223501   4.235   6.840  11.389  0.8094 -1.4938 -0.5365
 7354SOL     OW23502   4.775   1.322   8.623 -0.0675  0.7212  0.3045
 7354SOL    HW123503   4.738   1.252   8.569 -0.1774  0.1101  1.1474
 7354SOL    HW223504   4.756   1.403   8.575 -1.2122  0.2886  0.0135
 7355SOL     OW23505   3.672   1.103  11.050  0.2405 -1.1146  0.7164
 7355SOL    HW123506   3.603   1.158  11.015  0.8803 -0.8540 -0.1661
 7355SOL    HW223507   3.627   1.024  11.081 -0.3575 -1.3216 -0.6236
 7356SOL     OW23508   3.259   2.566  11.202  0.4108 -1.0231  0.0535
 7356SOL    HW123509   3.301   2.650  11.186  1.8445 -1.7479 -0.1697
 7356SOL    HW223510   3.273   2.550  11.296 -0.4068 -0.7268  0.2264
 7357SOL     OW23511   2.716   1.871   9.460 -0.8415 -0.9521  0.2956
 7357SOL    HW123512   2.654   1.802   9.435  0.2508 -1.7006 -0.4438
 7357SOL    HW223513   2.666   1.952   9.453 -2.1224 -1.6462  1.0726
 7358SOL     OW23514   4.225   0.305   8.830  0.4697 -0.0615  0.0633
 7358SOL    HW123515   4.155   0.312   8.765 -0.7714 -1.1532  1.2353
 7358SOL    HW223516   4.181   0.276   8.910  2.2511 -0.7139  0.8538
 7359SOL     OW23517   3.437   7.503  10.254 -0.8208  0.3679  0.1765
 7359SOL    HW123518   3.471   7.579  10.207  0.1895 -1.6380 -2.5609
 7359SOL    HW223519   3.403   7.445  10.186 -0.4219 -2.1959  2.0060
 7360SOL     OW23520   2.457   1.485   9.953 -0.0286  0.0704  0.7572
 7360SOL    HW123521   2.419   1.550   9.894  0.0544  0.4537  1.1182
 7360SOL    HW223522   2.515   1.433   9.898 -1.3413 -0.7617  0.1087
 7361SOL     OW23523   2.099   1.506   8.714  0.3244 -0.1066  0.5534
 7361SOL    HW123524   2.037   1.434   8.700  1.1247 -0.8882  0.9579
 7361SOL    HW223525   2.131   1.527   8.626  0.5258 -0.6450  0.4966
 7362SOL     OW23526   2.646   2.897   9.576  0.1989  0.5269  0.0799
 7362SOL    HW123527   2.583   2.892   9.504 -0.3356 -0.0234  0.5729
 7362SOL    HW223528   2.654   2.991   9.594 -1.4909  0.5692  0.8474
 7363SOL     OW23529   4.013   0.775  10.738 -0.4614 -0.2562 -0.4764
 7363SOL    HW123530   4.027   0.681  10.751  2.1964  0.1114 -0.1445
 7363SOL    HW223531   3.960   0.802  10.813  1.5298 -0.9635  1.2961
 7364SOL     OW23532   1.442   1.243   8.755  0.6378 -0.1941 -0.8845
 7364SOL    HW123533   1.362   1.226   8.706  0.5129  0.3839 -0.8865
 7364SOL    HW223534   1.476   1.325   8.720  0.2194  0.5513  0.3964
 7365SOL     OW23535   1.027   1.722  10.929 -0.1185 -0.3999  0.4705
 7365SOL    HW123536   1.061   1.782  10.863 -0.6264 -1.1117 -0.4624
 7365SOL    HW223537   0.992   1.778  10.998 -0.8618  0.3931 -0.5259
 7366SOL     OW23538   3.341   1.722  11.593  0.1234  0.4827  0.1024
 7366SOL    HW123539   3.372   1.724  11.503 -0.5586 -0.1352 -0.1497
 7366SOL    HW223540   3.421   1.713  11.645  0.4421 -0.2170 -0.4899
 7367SOL     OW23541   3.117   0.825   8.095 -0.1227  0.3791  0.3684
 7367SOL    HW123542   3.067   0.820   8.013  0.5891  0.1531 -0.0634
 7367SOL    HW223543   3.156   0.912   8.093  1.6222 -0.3745 -0.5878
 7368SOL     OW23544   5.361   7.392  10.702 -0.1506  0.4610 -0.1695
 7368SOL    HW123545   5.290   7.332  10.681 -1.0929  1.6976 -0.6096
 7368SOL    HW223546   5.413   7.398  10.622  0.6036 -0.5903  0.2090
 7369SOL     OW23547   3.483   1.627   9.553  0.4199  0.6094  0.4071
 7369SOL    HW123548   3.534   1.686   9.608 -0.9617  1.6945  0.5725
 7369SOL    HW223549   3.405   1.677   9.530  0.2975 -0.3161 -1.3916
 7370SOL     OW23550   2.494   0.887   9.673  0.0516  0.0699  0.0817
 7370SOL    HW123551   2.404   0.888   9.706  0.1684  0.2640  0.3987
 7370SOL    HW223552   2.522   0.796   9.681 -0.5270 -0.2376 -1.1521
 7371SOL     OW23553   5.386   1.324  11.828  0.1397  0.8464  0.2473
 7371SOL    HW123554   5.367   1.236  11.861 -2.5811  0.3940 -2.1324
 7371SOL    HW223555   5.369   1.382  11.903 -0.0170 -0.4768  1.2768
 7372SOL     OW23556   3.746   0.057   9.195  0.0149  0.0989 -0.1548
 7372SOL    HW123557   3.779  -0.004   9.129  2.2489  1.5411 -0.4594
 7372SOL    HW223558   3.757   0.144   9.156 -0.3891  0.8762  1.3925
 7373SOL     OW23559   1.404   0.522   8.731  0.0529  0.2757 -0.3269
 7373SOL    HW123560   1.356   0.441   8.718  0.2346  0.3600 -1.6064
 7373SOL    HW223561   1.383   0.576   8.655  3.0059 -0.1258 -1.5927
 7374SOL     OW23562   4.381   2.240  11.146  0.1404 -0.7366 -0.0283
 7374SOL    HW123563   4.472   2.223  11.173  0.8043 -0.8013 -2.1408
 7374SOL    HW223564   4.345   2.293  11.217  1.6078 -1.2951  1.1945
 7375SOL     OW23565   2.879   0.049  10.217  0.0943  0.2669 -0.0066
 7375SOL    HW123566   2.875   0.109  10.292 -2.4539  0.3551 -0.1273
 7375SOL    HW223567   2.895   0.105  10.142  0.1147  0.4792  0.1550
 7376SOL     OW23568   5.424   2.039  11.185 -0.1013 -0.2484  0.3321
 7376SOL    HW123569   5.459   2.023  11.097 -0.5087 -1.2777  0.3456
 7376SOL    HW223570   5.357   1.972  11.196 -1.8431  1.4174  0.4472
 7377SOL     OW23571   2.512   3.528   9.746 -0.0064  0.3702  0.0753
 7377SOL    HW123572   2.551   3.615   9.753 -0.1700  0.4700 -0.2170
 7377SOL    HW223573   2.446   3.538   9.677 -0.4791  0.1848  0.4956
 7378SOL     OW23574   2.705   1.788  10.219 -0.2574  0.0916 -0.3919
 7378SOL    HW123575   2.699   1.882  10.233 -0.1120 -0.2131  2.1562
 7378SOL    HW223576   2.792   1.774  10.181 -0.4245  0.9811 -1.1366
 7379SOL     OW23577   2.394   1.137  12.328 -0.6186  0.1678 -0.3108
 7379SOL    HW123578   2.328   1.114  12.263 -1.2787  1.0713  0.0111
 7379SOL    HW223579   2.415   1.055  12.371  0.1018 -0.5185 -1.8841
 7380SOL     OW23580   5.357   1.030  11.891 -0.2515 -0.2743 -0.6513
 7380SOL    HW123581   5.387   1.033  11.982  0.8968 -0.4978 -1.0058
 7380SOL    HW223582   5.414   0.965  11.849 -1.4618 -0.9565 -1.2944
 7381SOL     OW23583   5.269   3.024  10.474 -0.7323 -0.0055  0.0484
 7381SOL    HW123584   5.286   3.079  10.398  1.1834 -0.2060  0.2951
 7381SOL    HW223585   5.247   2.939  10.438  2.3177 -0.7285 -0.3737
 7382SOL     OW23586   1.645   1.225  11.428  0.1009 -0.0984  0.1328
 7382SOL    HW123587   1.703   1.163  11.472 -0.6481 -0.0523  1.2355
 7382SOL    HW223588   1.704   1.287  11.384  0.8664 -0.6003  0.4401
 7383SOL     OW23589   2.997   7.292  10.410 -0.2168  0.8381 -0.3721
 7383SOL    HW123590   2.978   7.203  10.380 -2.4601  1.1332 -0.0298
 7383SOL    HW223591   3.070   7.281  10.471 -0.3385 -0.7500 -0.4467
 7384SOL     OW23592   2.273   1.085  10.256 -0.0509  0.3032 -0.1300
 7384SOL    HW123593   2.276   1.142  10.179 -0.6202  1.0887  0.4073
 7384SOL    HW223594   2.355   1.036  10.253 -0.4915 -0.4032 -1.7607
 7385SOL     OW23595   2.655   3.369   8.181  0.0991 -0.2052 -0.0157
 7385SOL    HW123596   2.730   3.416   8.217  1.3529 -0.7122 -1.8358
 7385SOL    HW223597   2.687   3.279   8.168 -1.4255 -0.9298  0.8973
 7386SOL     OW23598   3.914   1.966  10.293 -0.3455  0.0267  0.2394
 7386SOL    HW123599   3.983   2.017  10.336 -0.1543  0.2463 -0.3263
 7386SOL    HW223600   3.886   1.903  10.360 -1.7260  1.9117  1.5115
 7387SOL     OW23601   4.347   1.474   9.303 -0.5798 -0.8001  0.0538
 7387SOL    HW123602   4.429   1.456   9.348  0.4677  3.1488  0.0910
 7387SOL    HW223603   4.285   1.495   9.373 -0.3505  0.4045 -0.0719
 7388SOL     OW23604   2.252   1.508  10.490 -0.0653  0.0109 -0.2749
 7388SOL    HW123605   2.329   1.515  10.435  0.7142 -1.8682  0.5030
 7388SOL    HW223606   2.219   1.420  10.475 -1.2936  0.3238  0.4002
 7389SOL     OW23607   3.604   0.813  10.559 -0.3412  0.5972  0.3715
 7389SOL    HW123608   3.585   0.817  10.465  1.0033 -0.1263  0.0364
 7389SOL    HW223609   3.619   0.720  10.576  0.5289  0.8574  1.0602
 7390SOL     OW23610   1.482   7.712  10.316 -0.0085 -0.3015  0.6220
 7390SOL    HW123611   1.440   7.796  10.334  0.3920  0.9303 -3.3074
 7390SOL    HW223612   1.410   7.653  10.295 -0.1856 -0.5218  1.7832
 7391SOL     OW23613   3.087   2.313   9.163  0.1766  0.3072 -0.2014
 7391SOL    HW123614   3.112   2.343   9.250 -1.9460 -1.5082  1.1539
 7391SOL    HW223615   2.994   2.335   9.155 -0.6202 -2.6764 -0.4449
 7392SOL     OW23616   3.294   0.637   9.229 -0.1282  0.1779 -0.5281
 7392SOL    HW123617   3.347   0.568   9.267 -2.1960  0.1091  2.5543
 7392SOL    HW223618   3.339   0.718   9.252  0.0153  0.0195 -0.2482
 7393SOL     OW23619   1.204   0.318   8.769  0.1897 -0.5321  0.3424
 7393SOL    HW123620   1.162   0.403   8.783 -2.4399 -1.3055 -1.9332
 7393SOL    HW223621   1.185   0.269   8.849 -0.0607  0.3358  0.8318
 7394SOL     OW23622   3.965   2.397   9.671  0.3961 -0.3530 -0.4659
 7394SOL    HW123623   4.037   2.459   9.681 -0.2388  0.1613  1.0923
 7394SOL    HW223624   3.888   2.443   9.704  0.0765 -2.2818  1.7277
 7395SOL     OW23625   1.953   2.553  11.204  0.3223 -0.1609 -0.3556
 7395SOL    HW123626   1.926   2.644  11.219  1.8671  0.1462  0.8475
 7395SOL    HW223627   1.996   2.555  11.118  1.5769  0.5703  0.2605
 7396SOL     OW23628   3.353   0.316   9.849 -0.1188 -0.0093 -0.0076
 7396SOL    HW123629   3.431   0.328   9.903 -1.0113  1.9312  0.9733
 7396SOL    HW223630   3.311   0.238   9.884  0.3930  0.0321  0.7295
 7397SOL     OW23631   2.186   2.300   9.666  0.0228  0.0210  0.3970
 7397SOL    HW123632   2.142   2.217   9.646  1.9407 -1.7139  2.6582
 7397SOL    HW223633   2.117   2.356   9.701 -0.9889 -1.3891  0.7683
 7398SOL     OW23634   2.901   0.172  10.480  0.4266 -0.0957  0.3813
 7398SOL    HW123635   2.972   0.108  10.490  1.0206  0.5066  0.1179
 7398SOL    HW223636   2.894   0.213  10.565 -0.4083 -0.9611  0.7427
 7399SOL     OW23637   5.160   1.768  10.653  0.7758  0.0987  0.0971
 7399SOL    HW123638   5.115   1.795  10.573  1.8750 -0.9512 -0.9139
 7399SOL    HW223639   5.253   1.778  10.634  1.1149 -1.3857  0.7608
 7400SOL     OW23640   3.635   2.152  11.255  0.1138 -0.2209 -0.5111
 7400SOL    HW123641   3.713   2.200  11.284 -0.0433 -1.4808  2.3711
 7400SOL    HW223642   3.583   2.218  11.209  1.2319  1.6287  0.7213
 7401SOL     OW23643   1.906   6.933  11.647 -0.1513  0.1201 -0.2701
 7401SOL    HW123644   1.924   6.916  11.739 -1.5938 -0.1218 -0.0115
 7401SOL    HW223645   1.865   7.019  11.645  0.1779  0.2755 -0.7393
 7402SOL     OW23646   1.453   7.756   9.764  0.0327  0.0706 -0.2389
 7402SOL    HW123647   1.530   7.705   9.740  3.7523  4.1087  1.8235
 7402SOL    HW223648   1.435   7.810   9.688 -0.4342 -0.4501 -0.5065
 7403SOL     OW23649   5.174   1.472  11.067  0.2323 -0.4514  0.3964
 7403SOL    HW123650   5.083   1.453  11.044  0.5294 -1.5325  0.0458
 7403SOL    HW223651   5.223   1.457  10.986  0.4798  2.4827 -0.1211
 7404SOL     OW23652   2.819   0.810   9.633 -0.1866 -0.0772 -0.1270
 7404SOL    HW123653   2.847   0.799   9.542 -1.4367  0.2856 -0.5795
 7404SOL    HW223654   2.876   0.878   9.668  1.3225 -1.2779 -0.1552
 7405SOL     OW23655   2.865   2.466   9.439  0.6508 -0.8557  0.0795
 7405SOL    HW123656   2.854   2.373   9.458  0.7205 -0.4250  2.4783
 7405SOL    HW223657   2.789   2.508   9.479  2.6225  0.4868  2.7017
 7406SOL     OW23658   1.995   0.583  10.603 -0.6472  0.5095 -0.4771
 7406SOL    HW123659   1.987   0.601  10.697 -0.7525 -0.2492 -0.3253
 7406SOL    HW223660   1.936   0.508  10.589  0.1732 -0.0673 -0.9326
 7407SOL     OW23661   2.217   2.671   9.518 -0.0621  0.1360  0.1489
 7407SOL    HW123662   2.171   2.587   9.511  1.0185 -0.4708  0.0626
 7407SOL    HW223663   2.275   2.672   9.442  2.3437 -0.5682  1.8555
 7408SOL     OW23664   4.815   1.040   9.792 -0.2833 -0.4067  0.5559
 7408SOL    HW123665   4.769   0.961   9.764  2.9245 -1.4657 -2.3583
 7408SOL    HW223666   4.868   1.012   9.867 -2.0139  0.1037  2.0547
 7409SOL     OW23667   3.363   2.447  11.667 -0.4335  0.0199 -0.1917
 7409SOL    HW123668   3.454   2.446  11.636 -0.2031 -0.9316  0.4442
 7409SOL    HW223669   3.346   2.356  11.693 -0.8463  0.6013  1.7279
 7410SOL     OW23670   2.685   0.547  11.191  0.0465  0.0221  0.7705
 7410SOL    HW123671   2.776   0.529  11.166  0.1245  1.2711  0.1314
 7410SOL    HW223672   2.651   0.604  11.122 -1.5984 -1.3401  0.3767
 7411SOL     OW23673   2.889   3.947   9.453  0.3842  0.2526  0.2295
 7411SOL    HW123674   2.871   4.016   9.517 -0.2765  1.9960 -1.7309
 7411SOL    HW223675   2.976   3.914   9.477  0.1023  0.7404  2.0753
 7412SOL     OW23676   3.102   7.262  11.822 -0.8819  0.2446 -0.2415
 7412SOL    HW123677   3.189   7.286  11.790 -1.1217 -1.2482 -2.2262
 7412SOL    HW223678   3.065   7.344  11.854  1.2489  0.8978  0.7266
 7413SOL     OW23679   1.673   6.893   9.350  0.2002 -0.1908 -0.3818
 7413SOL    HW123680   1.626   6.975   9.334 -0.4457 -0.4465  0.1736
 7413SOL    HW223681   1.610   6.825   9.328 -0.0012 -0.5437  1.1855
 7414SOL     OW23682   5.005   7.944   0.218  0.1216 -0.0960  0.0983
 7414SOL    HW123683   5.038   7.920   0.132 -0.2060  1.5723 -0.5347
 7414SOL    HW223684   4.979   7.861   0.258  1.1904 -1.0044 -1.0022
 7415SOL     OW23685   2.489   0.562  10.413 -0.6133  0.4051  0.1280
 7415SOL    HW123686   2.513   0.506  10.340  0.0982  0.9389 -0.0551
 7415SOL    HW223687   2.456   0.502  10.480 -2.8931  0.0331 -1.2296
 7416SOL     OW23688   3.623   1.797   8.982 -0.1315  0.1450  0.2198
 7416SOL    HW123689   3.624   1.759   8.894 -0.4483  3.5101 -1.4181
 7416SOL    HW223690   3.715   1.820   8.999 -0.0301 -0.7520  0.9128
 7417SOL     OW23691   1.929   7.326  10.979 -0.5184  0.2023 -0.1785
 7417SOL    HW123692   1.953   7.333  11.071  1.1586  0.8094 -0.6259
 7417SOL    HW223693   1.971   7.401  10.937 -0.4159 -0.6134 -1.6067
 7418SOL     OW23694   3.321   1.909  12.175  0.2530 -0.4182 -0.3549
 7418SOL    HW123695   3.338   1.984  12.232  1.1138 -0.4358 -0.5699
 7418SOL    HW223696   3.304   1.837  12.236  0.3964 -0.2629 -0.1276
 7419SOL     OW23697   2.984   2.077   9.341 -0.4632  0.2173 -0.3965
 7419SOL    HW123698   2.935   2.061   9.260  0.2723  1.7996 -1.1922
 7419SOL    HW223699   3.072   2.046   9.321 -0.3234  0.4554 -0.1386
 7420SOL     OW23700   5.078   0.894   8.446 -0.0452  0.4322  0.5966
 7420SOL    HW123701   5.167   0.919   8.472 -0.7079  2.3063  1.1645
 7420SOL    HW223702   5.078   0.902   8.351  0.7425 -0.9033  0.4463
 7421SOL     OW23703   2.390   1.818  11.725 -0.2028  0.5813  0.5557
 7421SOL    HW123704   2.317   1.822  11.663  0.5452 -2.3694 -0.7244
 7421SOL    HW223705   2.460   1.869  11.684 -1.3064  3.0352  1.5705
 7422SOL     OW23706   1.135   1.544   9.191 -0.5493 -0.3101 -0.2097
 7422SOL    HW123707   1.191   1.582   9.124 -0.6061 -0.3476 -0.2785
 7422SOL    HW223708   1.192   1.531   9.266 -0.0286 -2.0925 -0.8793
 7423SOL     OW23709   1.657   2.003  10.584 -0.1261 -0.9099  0.0913
 7423SOL    HW123710   1.629   2.032  10.670  0.1453  0.4163 -0.2322
 7423SOL    HW223711   1.753   2.003  10.589 -0.1030 -0.4407 -0.3256
 7424SOL     OW23712   4.120   7.333  10.820 -0.1933  0.2366 -0.1066
 7424SOL    HW123713   4.074   7.278  10.883  0.5118 -0.9099 -0.5543
 7424SOL    HW223714   4.213   7.324  10.843  0.0013  0.4977 -0.7519
 7425SOL     OW23715   2.634   0.130  10.536 -0.2397  0.3640  0.2512
 7425SOL    HW123716   2.597   0.108  10.450  0.7096 -0.0765 -0.0542
 7425SOL    HW223717   2.729   0.126  10.523 -0.0880  0.2030  1.3487
 7426SOL     OW23718   2.935   2.613  11.884 -0.1138 -0.3722  0.0105
 7426SOL    HW123719   2.919   2.576  11.797  0.6454  1.9107 -1.1585
 7426SOL    HW223720   3.030   2.607  11.895  0.1271  1.7469 -0.5160
 7427SOL     OW23721   2.699   7.349   9.838  0.1558  0.0025 -0.1544
 7427SOL    HW123722   2.609   7.324   9.859 -0.0716  0.9345  0.0472
 7427SOL    HW223723   2.740   7.269   9.805 -1.2665 -0.0023 -2.0426
 7428SOL     OW23724   3.837   2.378   8.026  0.5449  0.6599  0.3668
 7428SOL    HW123725   3.897   2.416   7.961  1.1088  0.4436  0.7556
 7428SOL    HW223726   3.855   2.427   8.107  1.6880 -0.8038  1.0276
 7429SOL     OW23727   2.688   7.506   8.418 -0.0960 -0.3788 -0.3377
 7429SOL    HW123728   2.744   7.435   8.452  1.1012  0.4253 -0.5648
 7429SOL    HW223729   2.724   7.524   8.331 -0.4054  0.5021 -0.2843
 7430SOL     OW23730   3.801   1.705  10.378  0.1882 -0.3443  0.3220
 7430SOL    HW123731   3.751   1.727  10.457 -0.7897  3.3697 -1.0929
 7430SOL    HW223732   3.734   1.686  10.312  0.8970 -0.9522 -0.2320
 7431SOL     OW23733   1.488   2.207   8.032  0.4349 -0.1066  0.3588
 7431SOL    HW123734   1.501   2.116   8.059  0.0696 -0.1439  0.4127
 7431SOL    HW223735   1.463   2.201   7.940  0.4981 -0.0553  0.3387
 7432SOL     OW23736   4.416   2.356  11.604  0.1619 -0.1821  0.1133
 7432SOL    HW123737   4.408   2.449  11.625  0.1655  0.0344 -0.8113
 7432SOL    HW223738   4.329   2.320  11.624  0.4473 -0.1870  1.4120
 7433SOL     OW23739   2.579   0.870   8.818  0.0795  0.1320 -0.6320
 7433SOL    HW123740   2.576   0.864   8.722  1.8510 -0.1038 -0.7099
 7433SOL    HW223741   2.622   0.789   8.846 -0.2301  0.2915  0.3490
 7434SOL     OW23742   3.335   7.918   9.379  0.3066 -0.1333  0.0897
 7434SOL    HW123743   3.251   7.915   9.333  0.0963  0.2325  0.4441
 7434SOL    HW223744   3.373   7.831   9.364 -0.3236 -0.4520  0.2877
 7435SOL     OW23745   3.292   0.665  10.590  0.1219  0.2232  0.1063
 7435SOL    HW123746   3.200   0.690  10.576 -0.5325 -0.7836  2.1643
 7435SOL    HW223747   3.320   0.718  10.664  0.7588 -0.4779  0.3757
 7436SOL     OW23748   4.221   2.458  10.005 -0.3065 -0.9274  0.2227
 7436SOL    HW123749   4.196   2.402   9.932 -3.0198  0.5945 -0.1831
 7436SOL    HW223750   4.207   2.404  10.083  1.7196 -2.2591 -0.2554
 7437SOL     OW23751   4.538   1.574  10.729 -0.1011 -0.6123 -0.2874
 7437SOL    HW123752   4.523   1.512  10.800  0.8686 -0.9595 -0.3712
 7437SOL    HW223753   4.511   1.526  10.650  0.5301 -0.8928 -0.3386
 7438SOL     OW23754   3.126   6.989  12.374  0.4614  0.0899 -0.1466
 7438SOL    HW123755   3.060   7.006  12.306  1.1786 -0.9581 -1.1358
 7438SOL    HW223756   3.201   7.043  12.348  1.3931 -1.6624 -1.2266
 7439SOL     OW23757   2.824   7.943   0.893 -0.3748 -0.4764  0.0168
 7439SOL    HW123758   2.861   8.025   0.859 -0.0539 -0.5252  0.2507
 7439SOL    HW223759   2.757   7.920   0.829  0.7146 -0.9457 -0.9907
 7440SOL     OW23760   0.404   7.876   9.542  0.0038  0.0365 -0.1486
 7440SOL    HW123761   0.475   7.940   9.547 -0.4800  0.5722 -0.0387
 7440SOL    HW223762   0.386   7.853   9.634 -0.1657  0.1219 -0.1603
 7441SOL     OW23763   2.401   0.433  12.070 -0.2689 -0.1128  0.5948
 7441SOL    HW123764   2.429   0.523  12.089  0.0518 -0.1188  0.1799
 7441SOL    HW223765   2.432   0.417  11.980 -1.5021 -0.1595  0.1559
 7442SOL     OW23766   5.041   1.539  12.231  0.6778 -0.9629 -0.1669
 7442SOL    HW123767   5.093   1.604  12.185 -0.0164  2.3416  3.1889
 7442SOL    HW223768   5.098   1.508  12.302 -0.6665  0.1181  1.4676
 7443SOL     OW23769   2.846   1.679  10.866 -0.0348  0.2793 -0.3340
 7443SOL    HW123770   2.776   1.659  10.803 -0.3849  1.2613 -0.2889
 7443SOL    HW223771   2.904   1.604  10.863 -0.7626 -0.2772 -0.8509
 7444SOL     OW23772   3.644   0.949  11.965  0.5731 -0.5104 -0.2608
 7444SOL    HW123773   3.609   1.014  12.026 -0.5019 -1.0852 -0.2324
 7444SOL    HW223774   3.738   0.945  11.986  0.4999  0.4031  0.3076
 7445SOL     OW23775   3.680   0.169  11.160  0.2845  0.4226 -0.0349
 7445SOL    HW123776   3.709   0.236  11.221 -0.0040 -0.0130  0.5907
 7445SOL    HW223777   3.588   0.154  11.182 -0.8973  2.6933 -2.8094
 7446SOL     OW23778   3.641   1.385  11.260  0.1587  0.6216  0.1669
 7446SOL    HW123779   3.673   1.448  11.324 -0.2329 -0.8143  1.8678
 7446SOL    HW223780   3.719   1.335  11.234  0.1502  0.5151  0.3434
 7447SOL     OW23781   1.626   2.756   0.978  0.2261 -0.1806 -0.3710
 7447SOL    HW123782   1.532   2.740   0.969  0.2594 -0.1226 -0.8352
 7447SOL    HW223783   1.631   2.841   1.022  0.0616 -0.5051  0.2882
 7448SOL     OW23784   3.542   1.622  10.845  0.1374 -0.1014  0.3366
 7448SOL    HW123785   3.617   1.563  10.849 -0.9769 -1.6971 -0.9878
 7448SOL    HW223786   3.577   1.706  10.875  2.1729 -1.0252  0.7736
 7449SOL     OW23787   3.485   3.182  11.042 -0.1205  0.6322 -0.5612
 7449SOL    HW123788   3.486   3.261  10.988  0.3754  2.1498  1.5492
 7449SOL    HW223789   3.570   3.141  11.025  1.5826  2.9671  1.5429
 7450SOL     OW23790   2.028   1.316   0.973 -0.1185 -0.2508  0.2523
 7450SOL    HW123791   2.045   1.372   1.048 -2.8140 -1.0209  1.5550
 7450SOL    HW223792   2.107   1.263   0.964  1.4382  1.9011  0.6069
 7451SOL     OW23793   1.520   0.916  11.129  0.0689  0.5280  0.1936
 7451SOL    HW123794   1.526   0.870  11.046  0.9374  1.9372 -0.5594
 7451SOL    HW223795   1.601   0.895  11.175  0.1691  0.7641  0.1286
 7452SOL     OW23796   2.358   7.405  11.154 -0.4636  0.2906 -0.2547
 7452SOL    HW123797   2.378   7.468  11.085 -0.7798 -0.9980 -1.5606
 7452SOL    HW223798   2.442   7.362  11.173 -0.1486  1.3730  0.9661
 7453SOL     OW23799   1.282   1.284  12.360 -0.1098  0.0271  0.4321
 7453SOL    HW123800   1.276   1.368  12.314 -1.3694 -0.1546  0.2141
 7453SOL    HW223801   1.314   1.306  12.447  0.0409  0.6744  0.2160
 7454SOL     OW23802   2.635   3.000  11.105 -0.0029 -0.5559 -0.2017
 7454SOL    HW123803   2.688   2.926  11.074  0.7160  0.5876 -1.8152
 7454SOL    HW223804   2.553   2.994  11.056  0.0749 -0.2625 -0.3702
 7455SOL     OW23805   3.102   0.856   9.725  0.2456  0.4551 -0.2780
 7455SOL    HW123806   3.118   0.809   9.807 -0.4918 -0.0358 -0.4068
 7455SOL    HW223807   3.102   0.789   9.658  0.1047  0.7554 -0.5819
 7456SOL     OW23808   3.345   7.612  11.921  0.3638  0.4832 -0.4615
 7456SOL    HW123809   3.384   7.583  11.839  0.8061 -1.7368  0.4449
 7456SOL    HW223810   3.255   7.635  11.899  0.6761  0.6182 -1.6702
 7457SOL     OW23811   3.786   0.982  10.203  0.1285  0.0574  0.7345
 7457SOL    HW123812   3.850   1.048  10.230  2.1047 -1.0670 -0.9163
 7457SOL    HW223813   3.769   1.002  10.111  0.9796 -1.8398  0.1197
 7458SOL     OW23814   3.470   7.478  11.695 -0.2664  0.6322  0.5463
 7458SOL    HW123815   3.456   7.451  11.605  1.8053 -2.6942  1.0425
 7458SOL    HW223816   3.486   7.572  11.690  0.2651  0.4723 -2.5995
 7459SOL     OW23817   3.577   0.695  11.406  0.2835 -0.1879  0.1333
 7459SOL    HW123818   3.642   0.728  11.468  1.4582 -1.6638 -0.2431
 7459SOL    HW223819   3.623   0.626  11.357 -0.0308  1.9576 -3.5864
 7460SOL     OW23820   3.071   1.495  11.154  0.2627 -0.0041 -0.2051
 7460SOL    HW123821   3.019   1.574  11.167  0.6067  0.2876 -0.5779
 7460SOL    HW223822   3.008   1.429  11.124  0.0333  0.2313 -0.2366
 7461SOL     OW23823   2.851   7.146   0.694  0.0536 -0.3984  0.2804
 7461SOL    HW123824   2.895   7.131   0.611 -0.2054 -0.8270  0.2163
 7461SOL    HW223825   2.916   7.191   0.748 -0.0723  0.7083 -0.4537
 7462SOL     OW23826   3.252   1.730   9.512 -0.2265 -0.5920  0.1335
 7462SOL    HW123827   3.168   1.740   9.558  0.6104 -0.3197  1.6644
 7462SOL    HW223828   3.247   1.794   9.441 -1.0797 -0.1397  0.5714
 7463SOL     OW23829   5.920   0.683   0.838  0.3202  0.6144  0.6546
 7463SOL    HW123830   5.846   0.743   0.834  1.4293  1.9778 -0.0374
 7463SOL    HW223831   5.964   0.704   0.920  0.1335  0.0402  0.9035
 7464SOL     OW23832   3.691   2.916  10.845  0.2832  0.7462  0.7158
 7464SOL    HW123833   3.739   2.932  10.927 -2.4081 -1.2944  2.9035
 7464SOL    HW223834   3.708   2.824  10.826 -0.4110  0.7811 -0.1071
 7465SOL     OW23835   3.129   7.697   0.036 -0.3086 -0.4775 -0.0213
 7465SOL    HW123836   3.067   7.768   0.018 -0.3814  0.2475  2.5803
 7465SOL    HW223837   3.073   7.620   0.049 -0.4357 -0.4452 -0.3632
 7466SOL     OW23838   2.451   7.825  11.194 -0.0582  0.4027 -0.2989
 7466SOL    HW123839   2.475   7.901  11.247  0.1439  0.7307 -0.8542
 7466SOL    HW223840   2.504   7.754  11.229 -0.7028  0.3559  0.6414
 7467SOL     OW23841   1.984   1.657  11.551 -0.2838  0.6597  0.1034
 7467SOL    HW123842   1.904   1.618  11.585  0.2205  0.1562  0.7238
 7467SOL    HW223843   2.039   1.671  11.628  0.6651 -0.0157 -0.4311
 7468SOL     OW23844   3.012   0.529  12.359  0.0073 -0.2251  0.7242
 7468SOL    HW123845   2.926   0.528  12.401  0.5647  0.6338  1.9350
 7468SOL    HW223846   3.015   0.447  12.309 -1.2202 -0.6169  1.2536
 7469SOL     OW23847   3.951   7.092   0.643  0.2470 -0.3216 -0.0014
 7469SOL    HW123848   3.871   7.066   0.689 -0.5723  0.1920 -1.0881
 7469SOL    HW223849   3.985   7.010   0.606 -1.5095 -0.1414 -2.1658
 7470SOL     OW23850   4.213   7.633   0.738  0.6870 -0.1584 -0.0388
 7470SOL    HW123851   4.231   7.606   0.828 -0.5546  1.0398  0.6144
 7470SOL    HW223852   4.121   7.659   0.740  0.3673 -1.0232 -1.9024
 7471SOL     OW23853   1.310   7.159  10.989 -0.1587 -0.5915 -0.3160
 7471SOL    HW123854   1.390   7.108  10.975  0.7566  0.3902  1.0928
 7471SOL    HW223855   1.267   7.116  11.064  0.9966  1.0315  1.3773
 7472SOL     OW23856   4.627   7.031  12.244  0.1543  0.3603  0.3788
 7472SOL    HW123857   4.553   7.021  12.184  1.0685  0.4786 -0.8066
 7472SOL    HW223858   4.604   7.107  12.298 -1.3739 -0.6867  1.2561
 7473SOL     OW23859   2.419   6.190  10.115  0.3925  0.2293  0.0511
 7473SOL    HW123860   2.363   6.131  10.166  2.0439 -0.0976  1.5423
 7473SOL    HW223861   2.393   6.172  10.024  0.9960 -3.0742  0.3873
 7474SOL     OW23862   3.102   1.540  11.487 -0.3771 -0.2817  0.1677
 7474SOL    HW123863   3.168   1.608  11.498 -0.9901  0.2858  0.3818
 7474SOL    HW223864   3.047   1.572  11.417 -0.7442 -0.4972  0.3576
 7475SOL     OW23865   2.430   1.976  10.963  0.0277 -0.6385  0.2259
 7475SOL    HW123866   2.389   1.893  10.938  0.2960 -0.9650  0.8635
 7475SOL    HW223867   2.356   2.035  10.979 -0.1603 -0.6852 -0.4373
 7476SOL     OW23868   5.018   0.536   2.134 -0.1420  0.2063 -0.2052
 7476SOL    HW123869   4.925   0.514   2.130  0.1001 -0.8029 -0.3375
 7476SOL    HW223870   5.056   0.497   2.056  0.0191  2.6021 -1.4345
 7477SOL     OW23871   2.775   1.030   1.362  0.4261 -0.1869  1.0259
 7477SOL    HW123872   2.858   1.063   1.329  0.0782 -0.3414 -0.0643
 7477SOL    HW223873   2.783   0.934   1.356  0.0000 -0.1926  0.4498
 7478SOL     OW23874   3.295   0.372   0.776  0.1951  0.0153  0.5854
 7478SOL    HW123875   3.359   0.435   0.809  1.2093 -2.0299  2.8492
 7478SOL    HW223876   3.346   0.293   0.757 -1.1196 -0.4166 -1.4643
 7479SOL     OW23877   3.230   1.879  11.095  0.1487  0.1673 -0.0120
 7479SOL    HW123878   3.140   1.877  11.063  0.7805 -0.5367 -1.8932
 7479SOL    HW223879   3.254   1.786  11.103  0.5426  0.3459  1.0129
 7480SOL     OW23880   4.166   2.173  11.624 -0.0791 -0.3247 -0.1041
 7480SOL    HW123881   4.099   2.235  11.651  1.0262 -0.2612  2.7689
 7480SOL    HW223882   4.117   2.096  11.595 -1.4006  0.3092  0.3814
 7481SOL     OW23883   2.638   7.502  10.969 -0.1197  0.0754 -0.1494
 7481SOL    HW123884   2.706   7.570  10.972 -0.9992  0.9442  0.7797
 7481SOL    HW223885   2.559   7.546  11.000 -0.8466 -1.2384 -0.0789
 7482SOL     OW23886   3.259   1.449  11.986  0.3034 -0.8450 -0.6344
 7482SOL    HW123887   3.277   1.359  11.959 -0.1313 -1.2255  0.3451
 7482SOL    HW223888   3.224   1.491  11.907 -0.0606 -1.6903 -0.9237
 7483SOL     OW23889   2.275   0.971   2.482  0.2124  0.8291 -0.0593
 7483SOL    HW123890   2.309   1.051   2.442  2.4817  1.1729  2.3197
 7483SOL    HW223891   2.216   1.001   2.551 -1.0553  0.3188 -0.8695
 7484SOL     OW23892   1.265   1.545  12.288  0.0792  0.1708 -0.1827
 7484SOL    HW123893   1.217   1.534  12.369 -1.0303 -2.1903 -1.0574
 7484SOL    HW223894   1.212   1.604  12.235  0.0993  0.5892  0.2576
 7485SOL     OW23895   3.970   1.094   0.222  0.2086  0.8310  0.0943
 7485SOL    HW123896   3.878   1.088   0.196 -0.2480  0.7223  1.6720
 7485SOL    HW223897   3.993   1.005   0.250  0.7721  0.8900 -0.1577
 7486SOL     OW23898   2.916   6.624  12.002 -0.7389  0.3830 -0.1958
 7486SOL    HW123899   2.956   6.611  11.916  0.2305 -1.6412  0.4869
 7486SOL    HW223900   2.976   6.683  12.047  0.5699 -1.1630  0.1746
 7487SOL     OW23901   2.392   2.583   0.708 -0.1788  0.1510  0.0036
 7487SOL    HW123902   2.481   2.559   0.735 -0.6830 -1.6262  0.1594
 7487SOL    HW223903   2.406   2.647   0.638  1.2166  0.1507  0.2411
 7488SOL     OW23904   3.555   0.840  11.002 -0.0601 -0.5600  0.4362
 7488SOL    HW123905   3.524   0.845  11.092 -0.0047 -3.2083  0.6785
 7488SOL    HW223906   3.609   0.760  10.999  0.8135  0.0225 -1.6904
 7489SOL     OW23907   3.302   7.288   0.073 -1.0402 -0.5796  0.4212
 7489SOL    HW123908   3.323   7.259  -0.016 -1.5477  0.7704 -0.1607
 7489SOL    HW223909   3.368   7.354   0.093 -0.8831 -0.9277  1.0892
 7490SOL     OW23910   4.329   1.106  11.749 -0.4809  0.3559 -0.0775
 7490SOL    HW123911   4.345   1.054  11.827 -1.4851  3.1475  2.1299
 7490SOL    HW223912   4.235   1.096  11.732 -0.8360  1.8944  0.7996
 7491SOL     OW23913   1.480   6.820  11.955  0.5580  0.0030  0.0104
 7491SOL    HW123914   1.476   6.889  11.889 -0.2528  1.0417  1.0987
 7491SOL    HW223915   1.402   6.767  11.939  0.2342  0.3953  0.2634
 7492SOL     OW23916   4.259   7.666  11.353  0.1361 -0.4338 -0.3362
 7492SOL    HW123917   4.287   7.752  11.383  0.0180  0.0901 -1.6387
 7492SOL    HW223918   4.312   7.651  11.274 -1.0274 -0.7934 -1.0793
 7493SOL     OW23919   3.684   1.288   0.685  0.0490  0.4855  0.7813
 7493SOL    HW123920   3.703   1.240   0.766  0.6083  0.6032  0.7190
 7493SOL    HW223921   3.597   1.257   0.659  0.9189 -1.4865  0.0334
 7494SOL     OW23922   3.192   0.751   1.697  0.3065 -0.2212 -0.3673
 7494SOL    HW123923   3.237   0.759   1.613  0.0388 -0.1446 -0.5042
 7494SOL    HW223924   3.133   0.827   1.700  2.6301  1.6616  1.3056
 7495SOL     OW23925   2.853   1.468  12.084  0.5589  0.1130  0.2201
 7495SOL    HW123926   2.885   1.486  11.995  1.5421 -0.0190  0.5353
 7495SOL    HW223927   2.888   1.382  12.105  0.2394  0.0979  0.6985
 7496SOL     OW23928   1.388   6.830  11.181 -0.3118  0.3371  0.3085
 7496SOL    HW123929   1.357   6.833  11.271 -0.0505 -1.9548  0.5354
 7496SOL    HW223930   1.316   6.865  11.129 -0.5840  1.3902  1.3630
 7497SOL     OW23931   0.565   0.566  10.980  0.2918 -0.2187  0.2232
 7497SOL    HW123932   0.477   0.555  10.942  1.1052 -1.3112 -1.4770
 7497SOL    HW223933   0.550   0.618  11.059 -1.8593 -0.1998 -0.1167
 7498SOL     OW23934   2.679   1.913   0.120  0.0420 -0.2045  0.0258
 7498SOL    HW123935   2.701   1.997   0.080  0.3694 -0.0346  0.5471
 7498SOL    HW223936   2.757   1.890   0.170  0.5936 -1.6206 -1.4194
 7499SOL     OW23937   3.001   5.789  11.775  0.1560  0.1708  0.0214
 7499SOL    HW123938   3.084   5.807  11.819 -0.2474  0.1194  0.8249
 7499SOL    HW223939   2.940   5.770  11.846 -0.5230  0.1133 -0.5648
 7500SOL     OW23940   4.825   2.037   0.905  0.3268 -0.0069 -0.3454
 7500SOL    HW123941   4.833   1.944   0.928  0.9757  0.1633  0.1628
 7500SOL    HW223942   4.738   2.062   0.935 -0.0411 -0.5696 -0.9258
 7501SOL     OW23943   3.455   1.173  11.361  0.0846  0.0201 -0.3711
 7501SOL    HW123944   3.510   1.250  11.377  1.5130 -0.8040 -1.0866
 7501SOL    HW223945   3.394   1.200  11.293  1.1157  0.2946 -1.2094
 7502SOL     OW23946   4.530   1.833  10.658  0.0793  0.0254  0.0118
 7502SOL    HW123947   4.554   1.742  10.640  0.8319  0.0765  0.7193
 7502SOL    HW223948   4.482   1.829  10.741 -2.1982 -0.0395 -1.2178
 7503SOL     OW23949   2.952   2.110  11.675  0.2653  0.6824 -0.0869
 7503SOL    HW123950   2.880   2.108  11.613 -0.0480 -0.1843  0.2899
 7503SOL    HW223951   3.019   2.053  11.637  1.0216  1.9584 -0.7332
 7504SOL     OW23952   4.797   7.522   0.107  0.4641  0.0331 -0.4521
 7504SOL    HW123953   4.806   7.543   0.014  0.2125 -1.2123 -0.7683
 7504SOL    HW223954   4.707   7.545   0.128  0.3203 -0.3123 -0.6878
 7505SOL     OW23955   3.648   0.432  11.792 -0.2205  0.0360  0.0865
 7505SOL    HW123956   3.718   0.434  11.727 -1.7059  2.2429 -1.5812
 7505SOL    HW223957   3.676   0.495  11.859 -0.3152  0.5015 -0.3006
 7506SOL     OW23958   0.999   7.071  10.000 -0.0105  0.4012 -0.1014
 7506SOL    HW123959   0.960   7.083   9.914 -0.1718  1.1046  0.0663
 7506SOL    HW223960   1.059   6.997   9.989  1.0698  1.4010 -1.1973
 7507SOL     OW23961   1.700   2.188  11.837  0.3619 -0.0019  0.0721
 7507SOL    HW123962   1.692   2.136  11.757  0.1596 -0.1518  0.1881
 7507SOL    HW223963   1.625   2.247  11.835 -1.2950 -1.8913  1.5106
 7508SOL     OW23964   3.457   2.066  12.369  0.1769 -0.5004 -0.1457
 7508SOL    HW123965   3.451   2.144  12.424  1.3627  1.0588 -2.0521
 7508SOL    HW223966   3.517   2.008  12.416  0.2792  0.2834  0.7311
 7509SOL     OW23967   1.352   1.135  10.320  0.0627 -1.5083 -0.5118
 7509SOL    HW123968   1.362   1.206  10.384 -0.4808 -1.6696 -0.2484
 7509SOL    HW223969   1.276   1.085  10.350  0.3599 -2.1271 -0.7750
 7510SOL     OW23970   2.655   0.844   0.419 -0.0351  0.2681  0.6354
 7510SOL    HW123971   2.590   0.816   0.483 -0.1533 -2.2075 -0.4551
 7510SOL    HW223972   2.652   0.940   0.422 -3.0536  0.2488  1.2856
 7511SOL     OW23973   3.342   1.267   0.953  0.6309 -0.0235 -0.1978
 7511SOL    HW123974   3.423   1.224   0.979  0.5823 -0.3446 -0.5762
 7511SOL    HW223975   3.290   1.199   0.911  0.1897  0.1936 -0.0163
 7512SOL     OW23976   3.234   0.628  11.041  0.2564  0.3909 -0.0085
 7512SOL    HW123977   3.210   0.720  11.044 -0.3894  0.2042  0.9721
 7512SOL    HW223978   3.266   0.608  11.129  2.7689  0.2711 -0.8731
 7513SOL     OW23979   2.328   7.237  12.072 -0.0321  0.1346  0.2567
 7513SOL    HW123980   2.265   7.175  12.036  1.2007 -0.5592 -0.7873
 7513SOL    HW223981   2.321   7.314  12.015  1.7887 -0.8937 -1.4351
 7514SOL     OW23982   2.841   1.415   0.271  0.2615  0.2142  0.1749
 7514SOL    HW123983   2.847   1.440   0.179 -1.9733 -1.8183 -0.6117
 7514SOL    HW223984   2.784   1.480   0.310 -1.6481 -0.8197 -0.7560
 7515SOL     OW23985   3.335   0.890   1.032 -0.0934  0.1638 -0.1584
 7515SOL    HW123986   3.382   0.956   1.084 -0.2438  0.5444 -0.5036
 7515SOL    HW223987   3.350   0.808   1.079  0.3866  0.3858  0.0862
 7516SOL     OW23988   3.972   0.999  11.448 -0.0167 -1.0377  0.1496
 7516SOL    HW123989   3.998   1.078  11.496 -1.0458 -0.1892 -0.6128
 7516SOL    HW223990   4.023   1.003  11.367  1.1529 -2.0623  0.8000
 7517SOL     OW23991   1.973   0.334  12.094  0.1435  0.2694 -0.2863
 7517SOL    HW123992   2.048   0.393  12.083  1.1708 -0.3480  2.4744
 7517SOL    HW223993   1.935   0.360  12.179 -0.5076 -1.8067  0.1135
 7518SOL     OW23994   1.840   0.291  11.275  0.3016  0.1248 -0.0751
 7518SOL    HW123995   1.764   0.314  11.328  0.3736  0.3711 -0.0803
 7518SOL    HW223996   1.804   0.276  11.187  0.3433  0.8323 -0.2145
 7519SOL     OW23997   2.277   7.755  12.198  0.1709 -0.1235  0.6679
 7519SOL    HW123998   2.353   7.748  12.255  1.1888 -1.3401 -0.7613
 7519SOL    HW223999   2.244   7.665  12.190  1.0178 -0.2963 -1.8472
 7520SOL     OW24000   3.489   0.520  10.509  0.1995 -0.0892 -0.0140
 7520SOL    HW124001   3.411   0.570  10.533  1.6509  1.7343  1.1546
 7520SOL    HW224002   3.491   0.523  10.413 -1.1973 -0.2678 -0.0733
 7521SOL     OW24003   2.340   6.490   0.025  0.2648  0.2280  0.6589
 7521SOL    HW124004   2.274   6.423   0.004  0.5241  0.6688 -2.0055
 7521SOL    HW224005   2.292   6.572   0.022  0.9935  0.6990 -2.6906
 7522SOL     OW24006   2.406   0.889   0.833  0.0119 -0.1555  0.0625
 7522SOL    HW124007   2.495   0.865   0.860 -0.6901 -1.8337  1.0272
 7522SOL    HW224008   2.402   0.865   0.741  0.8042  0.6851 -0.1990
 7523SOL     OW24009   2.919   0.949   2.092  0.3764 -0.1374  0.6709
 7523SOL    HW124010   2.936   1.028   2.041 -1.5490 -0.7290 -1.0358
 7523SOL    HW224011   3.003   0.929   2.134  1.3736  1.7950 -0.2627
 7524SOL     OW24012   2.094   7.963  11.853 -0.4787  0.1113  0.2994
 7524SOL    HW124013   2.153   7.894  11.884  0.6189  0.3763 -1.0805
 7524SOL    HW224014   2.074   7.939  11.763  0.1294  1.7056 -0.2888
 7525SOL     OW24015   2.037   0.835   9.273  0.3572  0.2365 -0.3860
 7525SOL    HW124016   1.960   0.858   9.326  0.4177  0.9616 -0.6027
 7525SOL    HW224017   2.109   0.884   9.314  1.0594 -1.6987  0.8350
 7526SOL     OW24018   3.748   0.278   2.934 -0.1081 -0.5192  0.0765
 7526SOL    HW124019   3.789   0.271   3.020  0.3401  1.5492  0.0678
 7526SOL    HW224020   3.660   0.242   2.947 -0.7559  1.5492  1.9517
 7527SOL     OW24021   4.214   0.391  11.888 -0.0986 -0.0631  0.0023
 7527SOL    HW124022   4.207   0.304  11.926 -1.1111  0.5784  1.3386
 7527SOL    HW224023   4.195   0.378  11.795 -0.3311 -1.2552  0.2039
 7528SOL     OW24024   4.405   2.102  11.422 -0.2811 -0.6470 -0.1389
 7528SOL    HW124025   4.313   2.113  11.445 -0.0670  0.0390  0.3955
 7528SOL    HW224026   4.452   2.162  11.479  0.4871 -0.8621 -0.5311
 7529SOL     OW24027   3.644   7.523  11.412  0.2606  0.3913 -0.5750
 7529SOL    HW124028   3.577   7.588  11.435  0.7819  1.4167 -1.8072
 7529SOL    HW224029   3.726   7.558  11.447  0.2774 -0.6034  0.4669
 7530SOL     OW24030   2.974   0.816  12.343  0.2166 -0.3057 -0.3541
 7530SOL    HW124031   2.883   0.826  12.316 -0.2350 -0.0225  1.2041
 7530SOL    HW224032   2.981   0.724  12.368  0.5889 -0.5228 -1.2009
 7531SOL     OW24033   2.950   1.040   1.034  0.4548 -0.1485 -0.4729
 7531SOL    HW124034   2.858   1.041   1.008  0.1298 -0.9133  0.5819
 7531SOL    HW224035   2.961   1.117   1.090  0.1552 -0.6980  0.3528
 7532SOL     OW24036   4.830   0.447   1.207  0.4625 -0.6279 -0.1400
 7532SOL    HW124037   4.735   0.438   1.202  0.2504  1.3391 -0.5494
 7532SOL    HW224038   4.863   0.402   1.129 -0.1394 -1.1235 -0.1117
 7533SOL     OW24039   2.978   1.839  11.030  0.1630 -0.4428  0.9790
 7533SOL    HW124040   2.939   1.812  10.946  0.6553  2.0477 -0.1243
 7533SOL    HW224041   2.903   1.864  11.084 -0.0049  1.3478 -0.0272
 7534SOL     OW24042   0.836   7.974  11.462  0.8721 -0.1765 -0.2280
 7534SOL    HW124043   0.876   8.026  11.532 -1.0411  0.9687  0.1019
 7534SOL    HW224044   0.742   7.986  11.474  0.4587 -0.6819 -2.4534
 7535SOL     OW24045   2.505   0.083  11.003  0.2063  0.5191  0.5090
 7535SOL    HW124046   2.423   0.034  10.993 -0.6551  1.8695  0.6675
 7535SOL    HW224047   2.512   0.135  10.923  2.7362 -2.0846 -1.1251
 7536SOL     OW24048   3.236   0.489  10.793 -0.1113  0.0699 -0.4720
 7536SOL    HW124049   3.260   0.557  10.729 -0.1461  1.0338  0.5095
 7536SOL    HW224050   3.235   0.535  10.877  1.1012 -1.4294  0.4018
 7537SOL     OW24051   3.301   7.167  12.324  0.5703 -0.7373 -0.1364
 7537SOL    HW124052   3.254   7.177  12.241 -2.5214  1.5200  1.6715
 7537SOL    HW224053   3.389   7.200  12.306 -0.3419  0.7455 -2.2821
 7538SOL     OW24054   3.304   1.602  11.082  0.3550 -0.6657 -0.2810
 7538SOL    HW124055   3.213   1.577  11.099 -0.3179  2.0287  0.6371
 7538SOL    HW224056   3.324   1.562  10.997 -1.5861 -1.5459 -0.3948
 7539SOL     OW24057   3.239   1.004  10.443 -0.0585 -0.0522  0.0250
 7539SOL    HW124058   3.192   0.933  10.398 -1.1260 -0.1381  1.2520
 7539SOL    HW224059   3.293   0.959  10.508  0.4009  0.1755 -0.1909
 7540SOL     OW24060   3.708   0.473   1.093  0.5317 -0.0659  0.5981
 7540SOL    HW124061   3.738   0.531   1.163  1.4050  0.8065 -0.4755
 7540SOL    HW224062   3.768   0.489   1.021 -1.4767  0.4407 -1.0458
 7541SOL     OW24063   5.644   1.458   0.439  0.4594  0.1409 -0.3193
 7541SOL    HW124064   5.600   1.445   0.355 -0.4899  0.4073  0.1161
 7541SOL    HW224065   5.675   1.370   0.464 -0.5473 -0.2154 -0.2663
 7542SOL     OW24066   1.512   0.139   9.377 -0.1035  0.0094 -0.3173
 7542SOL    HW124067   1.469   0.086   9.309  0.5377 -1.9132  0.6984
 7542SOL    HW224068   1.469   0.112   9.458  0.3740  0.9538  0.2579
 7543SOL     OW24069   3.211   1.256  11.547  0.5204  0.9218  0.1126
 7543SOL    HW124070   3.191   1.349  11.542 -1.8512  0.4178 -1.7873
 7543SOL    HW224071   3.306   1.253  11.559  0.9234  3.5897 -1.5217
 7544SOL     OW24072   3.429   7.969  11.854  1.0241 -0.0138  0.5676
 7544SOL    HW124073   3.346   7.983  11.899  0.8484 -1.7711  0.8566
 7544SOL    HW224074   3.476   8.052  11.864 -1.2126  1.5379 -0.8127
 7545SOL     OW24075   5.649   1.829  10.197 -0.5717 -0.0308  0.2797
 7545SOL    HW124076   5.613   1.754  10.150 -0.1162  0.4501 -0.8713
 7545SOL    HW224077   5.664   1.895  10.130  2.6293 -0.2628  0.5815
 7546SOL     OW24078   3.700   7.799  11.891  0.7012 -0.0168 -0.1210
 7546SOL    HW124079   3.767   7.863  11.864 -0.8677  1.6226 -0.3422
 7546SOL    HW224080   3.620   7.851  11.901 -0.2982 -1.7204  1.2440
 7547SOL     OW24081   3.031   0.203  11.526  0.2858 -0.0247 -0.1534
 7547SOL    HW124082   2.977   0.163  11.594 -1.0163  0.2750 -0.9818
 7547SOL    HW224083   3.119   0.207  11.564 -0.5863  1.0162  1.8902
 7548SOL     OW24084   2.660   7.923  10.153  0.1856 -0.1046  0.4787
 7548SOL    HW124085   2.684   7.830  10.156  1.0743  0.0609 -0.8602
 7548SOL    HW224086   2.741   7.969  10.173  0.3906  0.4168 -1.4086
 7549SOL     OW24087   3.462   2.502   0.750 -0.2574  0.2670  0.3567
 7549SOL    HW124088   3.458   2.413   0.714  0.8059  0.8881 -1.4345
 7549SOL    HW224089   3.554   2.516   0.773  0.5299  2.2011 -3.2100
 7550SOL     OW24090   4.416   1.332  11.627 -0.5069 -0.3903 -0.2261
 7550SOL    HW124091   4.509   1.321  11.607 -0.1604 -0.6860  1.4159
 7550SOL    HW224092   4.401   1.274  11.702 -1.6117  0.9093  0.5987
 7551SOL     OW24093   2.608   0.797  11.895  0.6578 -0.5383 -0.0662
 7551SOL    HW124094   2.671   0.726  11.879  0.6622 -0.1802 -1.8013
 7551SOL    HW224095   2.639   0.870  11.841  0.3340  0.6135  1.2555
 7552SOL     OW24096   4.751   1.518   0.354 -0.3719 -0.2682  0.0128
 7552SOL    HW124097   4.802   1.576   0.297 -0.1645 -1.2102 -0.7911
 7552SOL    HW224098   4.709   1.456   0.294 -2.2793  0.3137  0.6826
 7553SOL     OW24099   2.250   1.582   9.800 -0.3556  0.2271 -0.2696
 7553SOL    HW124100   2.180   1.530   9.840  0.9841 -0.1062  1.7672
 7553SOL    HW224101   2.271   1.534   9.719 -3.0607  0.8626 -1.4690
 7554SOL     OW24102   3.977   1.991  11.108 -0.8297  0.0939 -0.2018
 7554SOL    HW124103   3.919   1.974  11.033 -0.6163 -0.0204 -0.3419
 7554SOL    HW224104   4.044   2.050  11.074 -0.3779 -0.4458 -0.2736
 7555SOL     OW24105   1.593   7.899   0.096  0.1998 -0.5837  0.0990
 7555SOL    HW124106   1.563   7.945   0.017  1.6945  0.5486  0.1370
 7555SOL    HW224107   1.524   7.914   0.160 -0.3362 -0.2256 -0.5485
 7556SOL     OW24108   2.951   1.947  10.694 -0.3858  0.1134 -0.5554
 7556SOL    HW124109   2.880   2.009  10.680  0.9352  2.1239  0.9773
 7556SOL    HW224110   2.907   1.863  10.712 -2.3334  1.1575 -0.1804
 7557SOL     OW24111   4.275   2.241  10.734  0.2563 -0.8534  0.8147
 7557SOL    HW124112   4.245   2.295  10.660  1.7044  0.3056  1.0246
 7557SOL    HW224113   4.313   2.163  10.693 -0.3581 -0.9619  0.4301
 7558SOL     OW24114   3.773   0.827  11.576  0.3450 -0.3073  0.1522
 7558SOL    HW124115   3.735   0.905  11.614 -0.9962 -1.0632  0.4209
 7558SOL    HW224116   3.855   0.857  11.537  1.2713  0.7028  2.6771
 7559SOL     OW24117   2.920   0.734   0.486 -0.3858 -0.3772  0.0230
 7559SOL    HW124118   2.933   0.666   0.420  3.6004  0.3040 -0.1347
 7559SOL    HW224119   2.851   0.789   0.450 -0.1454 -1.4829 -2.3525
 7560SOL     OW24120   4.713   2.128  10.497 -0.5898  0.3579 -0.4121
 7560SOL    HW124121   4.731   2.035  10.513  0.2073  0.8420  1.8389
 7560SOL    HW224122   4.773   2.175  10.556 -1.6052  2.2978 -0.8318
 7561SOL     OW24123   2.884   0.667  10.822  0.4657  0.2082  0.2890
 7561SOL    HW124124   2.886   0.672  10.727 -0.0927  1.7650  0.3181
 7561SOL    HW224125   2.894   0.574  10.842 -0.9607 -0.3475 -1.3428
 7562SOL     OW24126   2.291   7.722   0.494  0.6697  0.9261 -0.4829
 7562SOL    HW124127   2.272   7.731   0.401 -0.7095 -1.1078 -0.4615
 7562SOL    HW224128   2.210   7.751   0.538  0.6998  0.3215 -0.0085
 7563SOL     OW24129   2.262   0.726  10.394 -0.1321 -0.2965 -0.1684
 7563SOL    HW124130   2.325   0.654  10.403  1.8339  1.2165 -0.8846
 7563SOL    HW224131   2.313   0.804  10.418 -1.7636  1.0203 -0.8308
 7564SOL     OW24132   2.211   7.204  10.879  0.0929 -0.1898  0.1178
 7564SOL    HW124133   2.276   7.240  10.818 -1.0403  1.5248 -0.1630
 7564SOL    HW224134   2.131   7.195  10.826 -0.3814 -0.5312  0.8763
 7565SOL     OW24135   3.222   2.856  12.096  0.2751  0.6098 -0.6034
 7565SOL    HW124136   3.199   2.926  12.157  0.7429 -0.6130  1.0534
 7565SOL    HW224137   3.308   2.881  12.061  1.7628 -0.3181  2.0438
 7566SOL     OW24138   3.918   2.318  11.193  0.0207  0.6017 -0.3508
 7566SOL    HW124139   3.858   2.363  11.132 -1.2048 -0.4498  0.0294
 7566SOL    HW224140   3.991   2.290  11.138 -0.7782  0.1949 -1.2432
 7567SOL     OW24141   2.151   1.597   0.067  0.3974  0.4394  0.3818
 7567SOL    HW124142   2.202   1.604  -0.014 -1.3180  1.0158 -0.6969
 7567SOL    HW224143   2.138   1.503   0.078 -2.6523  0.3699 -2.2738
 7568SOL     OW24144   3.013   7.477  11.185 -0.1998  0.4185 -0.4630
 7568SOL    HW124145   3.105   7.496  11.167  0.3605 -1.6326  0.0069
 7568SOL    HW224146   3.005   7.487  11.280 -0.2393 -0.2237 -0.3950
 7569SOL     OW24147   2.016   1.300  12.401 -0.3557  0.3767 -0.4287
 7569SOL    HW124148   2.075   1.351  12.345  1.7674 -0.2033  1.1250
 7569SOL    HW224149   1.937   1.287  12.349  1.0345  0.8936 -2.7787
 7570SOL     OW24150   4.697   0.653   0.452 -0.0333  0.1199  0.1444
 7570SOL    HW124151   4.742   0.707   0.517 -0.0886  0.0145  0.2712
 7570SOL    HW224152   4.604   0.672   0.464 -0.1324 -0.7518  0.8761
 7571SOL     OW24153   1.614   3.046   0.597 -0.4681  0.3005 -0.6971
 7571SOL    HW124154   1.670   2.987   0.647  0.5455  0.8901 -1.1066
 7571SOL    HW224155   1.627   3.021   0.506 -2.4791 -0.9156 -0.7118
 7572SOL     OW24156   2.287   3.147  11.803  0.1604  0.0899  0.1998
 7572SOL    HW124157   2.307   3.107  11.887 -0.9557 -0.4444  0.2236
 7572SOL    HW224158   2.352   3.110  11.743 -0.9073 -1.9172  0.1923
 7573SOL     OW24159   2.730   1.649  11.680  0.0164 -0.1048  0.0688
 7573SOL    HW124160   2.710   1.739  11.706 -0.9273 -0.1939 -0.3185
 7573SOL    HW224161   2.810   1.627  11.729 -0.6848  0.3643  1.4722
 7574SOL     OW24162   3.362   1.847   9.803  0.0656 -0.2906 -0.2404
 7574SOL    HW124163   3.268   1.846   9.817  0.2076  1.1592  1.0886
 7574SOL    HW224164   3.374   1.896   9.721 -0.3063  0.2399  0.0182
 7575SOL     OW24165   5.171   1.129  10.866  0.3236 -0.0869 -0.1652
 7575SOL    HW124166   5.267   1.123  10.870  0.4432  1.4011 -0.3541
 7575SOL    HW224167   5.143   1.040  10.846  1.7176 -0.4094 -0.8408
 7576SOL     OW24168   3.717   7.414   0.041 -0.2824 -0.4103 -0.2596
 7576SOL    HW124169   3.769   7.354   0.095 -3.5828 -2.8692  0.5040
 7576SOL    HW224170   3.741   7.393  -0.049  0.8112 -0.6727  0.0804
 7577SOL     OW24171   3.345   0.012  11.581  0.0029 -0.1253  0.5510
 7577SOL    HW124172   3.439   0.011  11.599  0.1701  0.3259 -0.2735
 7577SOL    HW224173   3.315   0.095  11.616  0.1121  0.2188 -0.1670
 7578SOL     OW24174   3.494   0.627  12.238 -0.5418  0.1938  0.5621
 7578SOL    HW124175   3.562   0.561  12.251 -1.0819 -0.4371  0.3066
 7578SOL    HW224176   3.484   0.668  12.324  0.0315  0.1655  0.6442
 7579SOL     OW24177   4.240   0.519   0.343  0.1727 -0.1114 -1.0076
 7579SOL    HW124178   4.212   0.428   0.346 -1.5090  0.3864 -0.9092
 7579SOL    HW224179   4.265   0.540   0.434 -1.6554  0.1673 -0.5382
 7580SOL     OW24180   2.824   6.888  10.525 -0.5530 -0.2822  0.1211
 7580SOL    HW124181   2.824   6.849  10.612 -0.7494  3.4673  2.0072
 7580SOL    HW224182   2.889   6.958  10.530 -4.0259  3.3445 -0.9579
 7581SOL     OW24183   3.851   0.495  11.599  0.5107  0.5491 -0.2540
 7581SOL    HW124184   3.829   0.485  11.506 -2.3028  0.6206  0.3362
 7581SOL    HW224185   3.830   0.586  11.619 -0.0349  0.2197  0.7074
 7582SOL     OW24186   4.276   7.931   1.636  0.2801 -0.0876  0.3176
 7582SOL    HW124187   4.197   7.984   1.645  0.5290  0.0974  1.5811
 7582SOL    HW224188   4.339   7.972   1.694  1.2296 -0.3992 -0.4674
 7583SOL     OW24189   5.045   0.870  11.829  0.6253 -0.1282  0.0326
 7583SOL    HW124190   5.043   0.962  11.857 -0.5033  0.3762 -1.5473
 7583SOL    HW224191   5.107   0.869  11.755  2.2842 -1.1016  1.3620
 7584SOL     OW24192   2.445   1.108  10.700 -0.2971 -0.4834  0.1094
 7584SOL    HW124193   2.371   1.105  10.761  1.4238  0.2160  2.3995
 7584SOL    HW224194   2.477   1.198  10.706  0.7480 -0.7719 -0.8147
 7585SOL     OW24195   3.473   1.241  11.640  0.0059 -0.0691 -0.3314
 7585SOL    HW124196   3.503   1.332  11.634 -0.2648  0.0612  0.1908
 7585SOL    HW224197   3.552   1.189  11.637  0.2574  0.2451  0.5949
 7586SOL     OW24198   3.334   0.832  10.794 -0.0510  0.4488 -0.5170
 7586SOL    HW124199   3.399   0.841  10.863  0.9338 -0.2510 -1.3296
 7586SOL    HW224200   3.275   0.906  10.806  1.6326  1.8366 -0.5542
 7587SOL     OW24201   2.842   7.884  10.781 -0.4957  0.4532  0.7196
 7587SOL    HW124202   2.891   7.820  10.729 -2.0471  0.0267 -0.2943
 7587SOL    HW224203   2.826   7.841  10.864 -1.6863 -0.5993 -0.0204
 7588SOL     OW24204   2.976   1.202  12.198 -0.0213  0.0782  0.4500
 7588SOL    HW124205   2.936   1.139  12.257  0.2145  0.5324  1.1091
 7588SOL    HW224206   3.071   1.187  12.207  0.0725 -2.8190 -3.0719
 7589SOL     OW24207   3.839   2.586  12.273 -0.5067 -0.0485 -0.5256
 7589SOL    HW124208   3.852   2.646  12.347  0.3567 -0.1580 -0.5868
 7589SOL    HW224209   3.924   2.544  12.260 -0.7136 -0.2034 -1.4397
 7590SOL     OW24210   2.280   0.243   1.544 -0.4062  0.4035 -0.1377
 7590SOL    HW124211   2.197   0.234   1.498 -0.6034  1.7584 -0.0871
 7590SOL    HW224212   2.272   0.187   1.621 -0.1631 -1.7053 -1.5866
 7591SOL     OW24213   1.391   1.290   1.397  0.1194  0.5235 -0.1759
 7591SOL    HW124214   1.444   1.369   1.397 -0.2214  0.9501 -3.9249
 7591SOL    HW224215   1.449   1.222   1.430  1.9924  1.5454 -1.2274
 7592SOL     OW24216   1.787   3.512   1.063 -0.3019 -0.1083 -0.0350
 7592SOL    HW124217   1.721   3.568   1.103 -0.4780 -1.7822  2.2140
 7592SOL    HW224218   1.862   3.515   1.123  1.2016  0.6894 -1.8372
 7593SOL     OW24219   2.059   2.905   0.454  0.8008  0.4663  0.0884
 7593SOL    HW124220   1.971   2.940   0.468  0.6465  0.1462 -0.0654
 7593SOL    HW224221   2.050   2.847   0.378  0.7602 -0.9336  1.1210
 7594SOL     OW24222   3.258   1.612   1.364 -0.0176 -0.4382  0.0385
 7594SOL    HW124223   3.188   1.606   1.430  0.5793 -1.0977  0.6233
 7594SOL    HW224224   3.302   1.695   1.384 -0.1317 -0.4071  0.1637
 7595SOL     OW24225   2.674   4.755  12.376  0.2056 -0.7469  0.5824
 7595SOL    HW124226   2.699   4.800  12.457 -2.0779 -1.6512  1.8538
 7595SOL    HW224227   2.631   4.823  12.324 -0.0620 -0.6161  0.9674
 7596SOL     OW24228   3.865   3.847   1.677 -0.5728 -0.1957  0.1881
 7596SOL    HW124229   3.780   3.855   1.633  0.5178  0.7659 -1.8857
 7596SOL    HW224230   3.920   3.799   1.615  1.0288  1.1682  0.4729
 7597SOL     OW24231   2.511   2.148   0.695 -0.1788 -0.0349  0.0914
 7597SOL    HW124232   2.449   2.111   0.758 -2.0029 -0.6953 -1.9595
 7597SOL    HW224233   2.495   2.099   0.615  0.4745  2.2365 -1.5131
 7598SOL     OW24234   1.416   5.185  12.458 -0.3895 -0.4522  0.1953
 7598SOL    HW124235   1.440   5.254  12.396 -2.0551  1.6692  1.7334
 7598SOL    HW224236   1.410   5.230  12.543 -0.8812 -2.6643  1.4197
 7599SOL     OW24237   4.597   2.084   0.716 -0.0128  0.3262 -0.1306
 7599SOL    HW124238   4.629   2.123   0.797 -0.6324  0.0523  0.2586
 7599SOL    HW224239   4.538   2.014   0.745  1.9745 -1.7294 -0.7731
 7600SOL     OW24240   0.686   3.613   0.175 -0.5301 -0.0924 -0.2541
 7600SOL    HW124241   0.758   3.624   0.113 -1.4834  1.7864 -1.1209
 7600SOL    HW224242   0.609   3.594   0.120 -0.7582 -2.0024  0.6472
 7601SOL     OW24243   1.421   4.295  12.456  0.2497 -0.3822 -0.0264
 7601SOL    HW124244   1.370   4.322  12.380 -0.3734 -1.2072  0.0802
 7601SOL    HW224245   1.364   4.233  12.502  0.6728 -0.0021  1.0374
 7602SOL     OW24246   1.800   0.752   2.153 -0.3130 -0.0655 -0.2400
 7602SOL    HW124247   1.885   0.742   2.112  0.0228  1.0026  0.1370
 7602SOL    HW224248   1.806   0.836   2.200 -1.4108 -0.1921  0.1684
 7603SOL     OW24249   2.547   1.421   1.542 -0.0857 -0.1364 -0.3957
 7603SOL    HW124250   2.465   1.376   1.565  0.2552 -0.0707  1.0200
 7603SOL    HW224251   2.574   1.380   1.460 -0.8712 -1.0640 -0.2157
 7604SOL     OW24252   1.513   3.963  12.400 -0.0672 -0.3946  0.3058
 7604SOL    HW124253   1.460   3.886  12.384 -0.3254 -0.8995  3.0556
 7604SOL    HW224254   1.453   4.026  12.440  0.0673  1.4316 -2.1304
 7605SOL     OW24255   4.912   3.295   1.941  0.3779 -0.3423  0.1814
 7605SOL    HW124256   4.952   3.211   1.962  0.5897 -0.3526 -0.2561
 7605SOL    HW224257   4.979   3.360   1.962  0.0141 -0.2296  1.0673
 7606SOL     OW24258   0.518   3.021   1.321  0.0030  0.3947  0.0811
 7606SOL    HW124259   0.566   3.098   1.352 -0.8670  0.6485  0.8311
 7606SOL    HW224260   0.529   2.956   1.391  0.7611 -0.1984 -0.5611
 7607SOL     OW24261   2.728   3.162   1.878 -0.2393  0.3991  0.3487
 7607SOL    HW124262   2.658   3.120   1.828  0.1675  0.6234 -0.4288
 7607SOL    HW224263   2.809   3.126   1.842  0.1787  2.4473 -0.9731
 7608SOL     OW24264   2.926   3.419   2.572  0.4633  0.4034 -0.2657
 7608SOL    HW124265   3.003   3.380   2.614 -1.4825 -0.1188  3.2009
 7608SOL    HW224266   2.943   3.513   2.573  1.1836  0.2791  0.1718
 7609SOL     OW24267   2.482   2.112   1.203  0.2355 -0.3342 -0.6604
 7609SOL    HW124268   2.560   2.167   1.207  0.9844 -1.4325  1.2694
 7609SOL    HW224269   2.414   2.163   1.248  0.4814 -0.2946 -0.3285
 7610SOL     OW24270   4.052   2.834   2.918  0.6397 -0.0855  0.0695
 7610SOL    HW124271   4.074   2.780   2.842 -0.9502  1.1176 -1.2987
 7610SOL    HW224272   4.137   2.863   2.952  1.3777  0.3923 -2.0316
 7611SOL     OW24273   0.858   1.003  11.890 -0.1016 -0.2787 -0.3693
 7611SOL    HW124274   0.930   0.948  11.859 -0.3824 -0.0103 -1.5552
 7611SOL    HW224275   0.864   1.082  11.837 -1.4029 -0.3483 -0.6484
 7612SOL     OW24276   3.237   2.499  11.457  0.7167  0.3985 -0.1090
 7612SOL    HW124277   3.293   2.485  11.534  1.2666  0.4154 -0.5024
 7612SOL    HW224278   3.159   2.447  11.475  1.6315 -1.1224 -0.3672
 7613SOL     OW24279   0.623   3.971   1.911  0.3292 -0.0795  0.3448
 7613SOL    HW124280   0.551   3.917   1.943 -0.1835 -0.4373 -1.3038
 7613SOL    HW224281   0.662   3.919   1.840  2.0731  0.2109  1.0304
 7614SOL     OW24282   4.399   4.106   0.634  0.2769  0.1956  0.2084
 7614SOL    HW124283   4.393   4.075   0.543 -0.6385  0.4846  0.1635
 7614SOL    HW224284   4.409   4.201   0.626  0.9485  0.1483  0.4007
 7615SOL     OW24285   2.459   3.701  11.562  0.2883  0.0301  0.6531
 7615SOL    HW124286   2.506   3.721  11.643 -0.1862 -0.7731  1.1356
 7615SOL    HW224287   2.442   3.607  11.566 -1.0111  0.2305  0.3067
 7616SOL     OW24288   1.002   3.908   0.816 -0.5304 -0.0070 -0.0097
 7616SOL    HW124289   1.003   3.885   0.723  1.6675  0.1241 -0.0641
 7616SOL    HW224290   1.001   3.823   0.861 -0.4015 -0.0960 -0.1707
 7617SOL     OW24291   2.820   4.503  12.017 -0.5237  0.2686  0.3017
 7617SOL    HW124292   2.744   4.456  12.052  1.1530 -1.6349  1.6141
 7617SOL    HW224293   2.895   4.464  12.061  1.2076  2.6317 -0.3428
 7618SOL     OW24294   2.756   4.318  12.413 -0.4284 -0.3156 -0.2285
 7618SOL    HW124295   2.849   4.298  12.409  0.0738  1.8501 -2.7898
 7618SOL    HW224296   2.748   4.382  12.484 -0.0242 -0.7352  0.1964
 7619SOL     OW24297   3.363   1.004   2.344  0.0762 -0.4519 -0.1149
 7619SOL    HW124298   3.363   1.095   2.375  0.1963 -0.4662 -0.0703
 7619SOL    HW224299   3.443   0.967   2.382 -0.1269 -0.6580  0.1125
 7620SOL     OW24300   0.808   4.194   1.413  0.3905  0.3009 -0.1175
 7620SOL    HW124301   0.717   4.167   1.428 -0.0623  0.9526 -1.5746
 7620SOL    HW224302   0.816   4.277   1.460  0.1684  0.3553 -0.1755
 7621SOL     OW24303   3.805   2.888  12.212  0.1572  0.5443  0.5031
 7621SOL    HW124304   3.813   2.859  12.121  1.8929  0.9879  0.4774
 7621SOL    HW224305   3.753   2.819  12.255  1.2088 -0.8209 -0.3348
 7622SOL     OW24306   2.116   3.653   1.479 -0.0672 -0.4275  0.2989
 7622SOL    HW124307   2.125   3.744   1.506 -0.3604 -0.3927  0.2844
 7622SOL    HW224308   2.040   3.620   1.527 -0.7210 -0.3045 -0.6142
 7623SOL     OW24309   0.882   6.791   2.325  0.5306 -0.1167 -0.0349
 7623SOL    HW124310   0.940   6.782   2.249 -0.5513 -0.9310 -0.8053
 7623SOL    HW224311   0.826   6.865   2.303 -0.2879 -0.8277 -0.3951
 7624SOL     OW24312   1.544   2.897   3.680  0.1136  0.1112 -0.0370
 7624SOL    HW124313   1.495   2.956   3.737  0.1057  1.0059 -0.9407
 7624SOL    HW224314   1.545   2.941   3.595 -1.4478 -1.9704 -1.2495
 7625SOL     OW24315   3.794   2.491   0.763 -0.0488 -0.1426 -0.0100
 7625SOL    HW124316   3.886   2.476   0.738  0.0737 -0.4856  0.6351
 7625SOL    HW224317   3.784   2.586   0.761  0.1113 -0.1328 -0.8031
 7626SOL     OW24318   2.689   2.114   0.894  0.7191  0.7644 -0.0114
 7626SOL    HW124319   2.628   2.126   0.821 -1.0287  2.9460  1.6628
 7626SOL    HW224320   2.670   2.026   0.927 -0.0392  0.6110 -0.8063
 7627SOL     OW24321   2.328   2.233   1.401 -0.4037 -0.3563 -1.0990
 7627SOL    HW124322   2.263   2.264   1.339 -1.8071 -0.8792  0.0643
 7627SOL    HW224323   2.293   2.150   1.433  1.1174 -0.9388 -0.8582
 7628SOL     OW24324   2.856   4.390   0.434 -0.4672 -0.0332 -0.2615
 7628SOL    HW124325   2.898   4.355   0.355 -0.5778 -0.9799  0.0901
 7628SOL    HW224326   2.780   4.438   0.400 -0.1803  0.0681 -0.7721
 7629SOL     OW24327   2.680   3.057   1.413  0.0260  0.8499 -0.0725
 7629SOL    HW124328   2.611   3.055   1.346 -0.6859  1.9428  0.5975
 7629SOL    HW224329   2.639   3.099   1.489  1.6130  2.0757  0.1536
 7630SOL     OW24330   3.050   3.149   2.736 -0.7249 -0.4535  0.6533
 7630SOL    HW124331   3.061   3.152   2.831  3.1122  2.6523  0.3644
 7630SOL    HW224332   3.135   3.120   2.703 -2.2187 -2.3198 -1.9214
 7631SOL     OW24333   2.907   3.174   1.336 -0.4572 -0.3551  0.1814
 7631SOL    HW124334   2.835   3.126   1.377 -1.1971 -0.8272 -1.5795
 7631SOL    HW224335   2.959   3.108   1.291 -0.9353  0.3361 -1.4699
 7632SOL     OW24336   2.845   1.390   0.799 -0.2493 -0.3462  0.0382
 7632SOL    HW124337   2.926   1.440   0.799  2.0531 -3.6894 -2.4273
 7632SOL    HW224338   2.804   1.411   0.715 -0.9892 -0.1693  0.4310
 7633SOL     OW24339   2.898   3.283   2.256  0.0778  0.5186 -0.0563
 7633SOL    HW124340   2.893   3.220   2.328 -0.3134  1.3683  0.6935
 7633SOL    HW224341   2.909   3.368   2.300 -1.0998  1.1638 -0.9385
 7634SOL     OW24342   1.290   2.260   0.374 -0.2134 -0.0141  0.4869
 7634SOL    HW124343   1.258   2.212   0.450  0.2463 -1.0485  0.0460
 7634SOL    HW224344   1.288   2.197   0.302 -0.6141  0.9318 -0.3695
 7635SOL     OW24345   1.049   4.037   0.250 -0.1398 -0.0160  0.5774
 7635SOL    HW124346   0.976   3.986   0.215  1.0556 -0.0169 -2.2138
 7635SOL    HW224347   1.024   4.128   0.234  0.2708 -0.0021 -0.0170
 7636SOL     OW24348   2.302   1.235  11.574 -0.0353 -0.0612 -0.3381
 7636SOL    HW124349   2.279   1.234  11.667  1.2961  1.4214  0.0553
 7636SOL    HW224350   2.397   1.244  11.573  0.0500 -0.7684 -1.8671
 7637SOL     OW24351   3.269   3.304   2.088 -0.0850 -0.3637  0.3704
 7637SOL    HW124352   3.201   3.258   2.039 -0.6025  0.8672 -0.0924
 7637SOL    HW224353   3.293   3.243   2.158 -0.3045 -1.5901 -0.5735
 7638SOL     OW24354   2.203   4.454  12.391  0.1143 -0.4643 -0.0251
 7638SOL    HW124355   2.156   4.452  12.475 -0.8119 -0.6315 -0.5373
 7638SOL    HW224356   2.296   4.455  12.416 -0.1135 -1.7350  0.9938
 7639SOL     OW24357   1.625   0.560   2.024 -0.4439  0.2384  0.3412
 7639SOL    HW124358   1.607   0.593   1.936  1.2282  0.6108  0.1005
 7639SOL    HW224359   1.647   0.638   2.074 -0.3236 -0.0856  0.7986
 7640SOL     OW24360   3.897   6.444   1.224  0.0331  0.0694 -0.1576
 7640SOL    HW124361   3.852   6.514   1.271 -0.0813 -0.2375  0.2007
 7640SOL    HW224362   3.912   6.479   1.136 -1.7424 -0.1474 -0.5890
 7641SOL     OW24363   2.705   2.400   0.159 -0.1087 -0.3561  0.3510
 7641SOL    HW124364   2.644   2.417   0.087  0.4479  1.4946  0.2578
 7641SOL    HW224365   2.667   2.445   0.234  0.7148  0.1320  0.4913
 7642SOL     OW24366   2.664   3.309   2.085 -0.3099 -0.0209 -0.2188
 7642SOL    HW124367   2.696   3.263   2.008 -2.2040  0.2198 -1.2094
 7642SOL    HW224368   2.737   3.306   2.147 -0.4999 -5.1538  0.1849
 7643SOL     OW24369   2.405   3.046  12.038 -0.1614  0.0115  0.1736
 7643SOL    HW124370   2.445   2.983  12.098 -0.5257 -0.4439 -0.0555
 7643SOL    HW224371   2.477   3.106  12.015 -0.3359  1.0840  2.1730
 7644SOL     OW24372   3.394   2.654  12.295  0.6444  0.0505  0.4036
 7644SOL    HW124373   3.390   2.731  12.352  0.0206 -0.2614  0.7944
 7644SOL    HW224374   3.307   2.649  12.256  0.3993 -0.9339  1.0251
 7645SOL     OW24375   2.753   4.110   0.558  0.0775 -0.4138  0.6274
 7645SOL    HW124376   2.820   4.056   0.601  0.2213  0.7773  1.9907
 7645SOL    HW224377   2.754   4.193   0.607 -0.2251  0.7943 -1.2965
 7646SOL     OW24378   2.479   3.872   1.253 -0.1400 -0.0043  0.2523
 7646SOL    HW124379   2.478   3.920   1.336  0.3788  1.1847 -0.3938
 7646SOL    HW224380   2.551   3.911   1.204  1.0817 -2.2556  0.1144
 7647SOL     OW24381   2.020   4.908   0.200  0.3637 -0.0669  0.1537
 7647SOL    HW124382   2.077   4.984   0.212  0.8758  0.2192 -3.0122
 7647SOL    HW224383   1.969   4.902   0.280  1.7087  2.4090  1.2897
 7648SOL     OW24384   1.480   1.080   2.347 -0.3157  0.5688  0.1243
 7648SOL    HW124385   1.538   1.053   2.417 -1.7991  0.9228  1.5573
 7648SOL    HW224386   1.460   0.999   2.299  1.3808  0.4657 -0.4601
 7649SOL     OW24387   1.812   1.779  10.877 -0.0187  0.0410  0.1635
 7649SOL    HW124388   1.754   1.763  10.952 -1.0686 -0.5472 -0.7461
 7649SOL    HW224389   1.790   1.709  10.815  1.7996 -0.3069 -0.1473
 7650SOL     OW24390   2.065   2.446  12.342 -0.1790 -0.4962 -0.5937
 7650SOL    HW124391   1.980   2.415  12.373 -0.3486  0.4665 -0.0658
 7650SOL    HW224392   2.047   2.533  12.306  0.4813 -0.5361 -1.0371
 7651SOL     OW24393   2.458   3.920  11.382  0.5348 -0.0497  0.5099
 7651SOL    HW124394   2.445   3.847  11.442 -0.3579 -0.7834 -0.5409
 7651SOL    HW224395   2.522   3.977  11.426  0.3700 -0.8749  1.8497
 7652SOL     OW24396   1.921   3.391   0.584 -0.0559 -0.0520 -0.0911
 7652SOL    HW124397   1.875   3.426   0.660 -0.1131  0.0974 -0.1936
 7652SOL    HW224398   1.967   3.467   0.548 -0.0000 -0.1306 -0.1835
 7653SOL     OW24399   5.285   3.832   0.581 -0.4920  0.0664  0.2155
 7653SOL    HW124400   5.293   3.760   0.519  0.3362  0.2491  0.0970
 7653SOL    HW224401   5.368   3.879   0.574 -0.5012  0.2627  1.2434
 7654SOL     OW24402   2.924   2.524   1.224 -0.9044  0.2370  0.0575
 7654SOL    HW124403   2.982   2.452   1.200  1.0801  1.6147  0.4499
 7654SOL    HW224404   2.904   2.509   1.317  0.1135  0.5244  0.3457
 7655SOL     OW24405   3.817   0.876   3.534 -0.0062 -0.0012 -0.5391
 7655SOL    HW124406   3.798   0.847   3.623  0.9796 -0.4903 -0.4778
 7655SOL    HW224407   3.884   0.815   3.502  0.9188  1.2205 -0.9943
 7656SOL     OW24408   2.824   0.626  11.824 -0.0182  0.2128  0.0641
 7656SOL    HW124409   2.872   0.547  11.799 -2.0511 -1.0675  0.0013
 7656SOL    HW224410   2.893   0.689  11.848  1.6522 -1.7122  0.6215
 7657SOL     OW24411   2.111   4.944   0.933  0.3010 -0.2235 -0.1241
 7657SOL    HW124412   2.034   4.998   0.952  0.4319 -0.3704  0.8664
 7657SOL    HW224413   2.134   4.966   0.842 -0.6426  0.1413 -0.2865
 7658SOL     OW24414   4.104   3.103   2.348 -0.1076 -0.0870  0.1675
 7658SOL    HW124415   4.090   3.192   2.315  0.5072 -1.0101 -2.9783
 7658SOL    HW224416   4.184   3.109   2.400 -0.2764  1.2628  0.3137
 7659SOL     OW24417   3.694   1.385   1.270 -0.1190 -0.1521  0.1727
 7659SOL    HW124418   3.748   1.459   1.245  0.4381 -0.8222 -0.6777
 7659SOL    HW224419   3.605   1.413   1.255  0.0392  0.6142  0.6217
 7660SOL     OW24420   1.952   3.389   1.902  0.3263 -0.2332 -0.1073
 7660SOL    HW124421   1.999   3.468   1.875 -0.2860 -0.0222 -0.5836
 7660SOL    HW224422   1.995   3.318   1.855  1.0469 -0.2301  0.5191
 7661SOL     OW24423   1.532   1.281   2.156  0.0618  0.6077  0.0184
 7661SOL    HW124424   1.525   1.353   2.218  3.1562  1.1454 -0.0972
 7661SOL    HW224425   1.533   1.202   2.210 -1.0321  0.7960  0.3280
 7662SOL     OW24426   2.661   3.665  12.286  0.2708  0.2437  0.2730
 7662SOL    HW124427   2.710   3.745  12.268  0.1504  0.4713  0.9065
 7662SOL    HW224428   2.676   3.649  12.380  1.6341 -1.3815 -0.1737
 7663SOL     OW24429   2.923   2.803   0.027  0.1312 -0.0354 -0.1218
 7663SOL    HW124430   2.921   2.720  -0.020 -0.3166  0.1157 -0.3716
 7663SOL    HW224431   3.008   2.802   0.073  0.1454 -0.6103 -0.1470
 7664SOL     OW24432   1.085   1.617   0.772 -0.6682 -0.7772 -0.1093
 7664SOL    HW124433   1.096   1.525   0.797  1.4139 -0.7773 -0.8062
 7664SOL    HW224434   1.146   1.629   0.699 -0.3188  1.3450  0.4714
 7665SOL     OW24435   3.096   1.808   0.242 -0.2843  0.2427 -0.2019
 7665SOL    HW124436   3.108   1.752   0.319  0.3109  0.3389 -0.2197
 7665SOL    HW224437   3.183   1.815   0.203 -1.1230 -2.7676 -3.0189
 7666SOL     OW24438   2.835   3.181   3.023  0.2267 -0.4279 -0.2215
 7666SOL    HW124439   2.863   3.132   3.100 -2.0808  0.2276  1.1349
 7666SOL    HW224440   2.879   3.266   3.032 -0.9530  0.0901  1.1158
 7667SOL     OW24441   3.730   5.390  12.484  0.0820  0.2734 -0.8858
 7667SOL    HW124442   3.815   5.421  12.516 -0.7956  1.5860  0.2823
 7667SOL    HW224443   3.749   5.304  12.447  1.7276  0.0478  0.3488
 7668SOL     OW24444   0.825   2.304   1.251 -0.6862 -0.0691 -0.3425
 7668SOL    HW124445   0.762   2.249   1.203 -1.2000  0.7493 -0.6200
 7668SOL    HW224446   0.910   2.270   1.225 -0.9733 -0.0368 -1.3642
 7669SOL     OW24447   2.800   3.904  12.264  0.8637 -0.7587 -0.0156
 7669SOL    HW124448   2.755   3.958  12.329  0.0823 -1.1115 -0.2437
 7669SOL    HW224449   2.780   3.947  12.180 -0.5792 -1.8976 -0.3002
 7670SOL     OW24450   4.262   5.031   0.187 -0.1657 -0.4668 -0.6908
 7670SOL    HW124451   4.239   5.061   0.275  2.4736 -1.3586  0.3984
 7670SOL    HW224452   4.271   5.110   0.136 -0.4552  0.1424  0.1708
 7671SOL     OW24453   3.104   3.387   1.116  0.1752  0.1137 -0.3821
 7671SOL    HW124454   3.114   3.480   1.132  0.6037 -0.2446  1.7630
 7671SOL    HW224455   3.129   3.345   1.199  0.8499 -1.9543 -1.5413
 7672SOL     OW24456   1.633   2.574   2.210 -0.4323 -0.0954  0.4825
 7672SOL    HW124457   1.572   2.575   2.284  0.0070  0.9616  0.8561
 7672SOL    HW224458   1.620   2.659   2.168  1.5993  0.6671  1.2719
 7673SOL     OW24459   2.279   4.396   0.772 -0.1592 -0.0694 -0.0490
 7673SOL    HW124460   2.239   4.421   0.689  0.2242  0.8103  0.0240
 7673SOL    HW224461   2.374   4.398   0.755 -0.0988 -0.6963  0.1822
 7674SOL     OW24462   5.102   1.994   0.395 -0.0759  0.1830 -0.1132
 7674SOL    HW124463   5.078   1.906   0.426  1.0381  0.1946  0.8745
 7674SOL    HW224464   5.139   1.979   0.308  1.1791 -0.5057  0.5102
 7675SOL     OW24465   2.374   2.722   0.936  0.6370  0.1245  0.1634
 7675SOL    HW124466   2.362   2.795   0.876 -1.5640  0.9278  1.4658
 7675SOL    HW224467   2.363   2.644   0.881 -2.8163  0.8243 -0.3687
 7676SOL     OW24468   4.773   0.923   1.901 -0.2687  0.3646 -0.2833
 7676SOL    HW124469   4.836   0.896   1.968 -0.7259  1.0277  0.4357
 7676SOL    HW224470   4.784   0.860   1.830  1.0173  0.3074 -0.0582
 7677SOL     OW24471   3.424   3.550   0.646  0.0370  0.3632 -0.4520
 7677SOL    HW124472   3.378   3.474   0.681 -0.1611  0.6743 -0.0230
 7677SOL    HW224473   3.384   3.625   0.691  0.7827  0.6593 -0.2653
 7678SOL     OW24474   3.715   3.770   0.627 -0.2570 -0.0112  0.0996
 7678SOL    HW124475   3.707   3.756   0.721  3.6207 -1.5838  0.4157
 7678SOL    HW224476   3.793   3.826   0.618 -0.9831  0.7350 -2.1681
 7679SOL     OW24477   2.646   3.578  11.727  0.0391  0.1015 -0.1412
 7679SOL    HW124478   2.724   3.527  11.704  1.2136  0.7963  2.0116
 7679SOL    HW224479   2.573   3.520  11.707  1.2366 -1.7528  0.5427
 7680SOL     OW24480   1.920   3.512  10.686 -0.0146 -0.1504  0.5742
 7680SOL    HW124481   1.969   3.554  10.615 -0.8121 -0.7031 -0.3178
 7680SOL    HW224482   1.870   3.443  10.643 -0.6373 -0.3883  1.6541
 7681SOL     OW24483   3.182   1.637  11.789 -0.2654  0.2094 -0.2165
 7681SOL    HW124484   3.161   1.723  11.827 -0.4510  0.8139 -1.6292
 7681SOL    HW224485   3.220   1.657  11.704  0.4280 -1.1036 -0.2372
 7682SOL     OW24486   0.958   3.739   2.046  0.8078 -0.0912 -0.0358
 7682SOL    HW124487   0.988   3.727   2.136  0.0883 -0.1188  0.2024
 7682SOL    HW224488   0.968   3.833   2.029 -1.8959  0.4811  1.1202
 7683SOL     OW24489   2.793   3.308  12.288 -0.0971 -0.2550 -0.3873
 7683SOL    HW124490   2.853   3.359  12.343 -2.7414  0.1855  2.4100
 7683SOL    HW224491   2.820   3.217  12.300 -0.0521 -0.0871  1.0334
 7684SOL     OW24492   3.276   4.732   2.774 -0.0663 -0.9338 -0.6908
 7684SOL    HW124493   3.249   4.648   2.811 -4.2880  0.8235  0.8392
 7684SOL    HW224494   3.326   4.774   2.844 -1.7730 -0.5312  0.3564
 7685SOL     OW24495   1.155   2.442   1.370 -0.5942  0.0501 -0.0624
 7685SOL    HW124496   1.205   2.398   1.301 -1.0083  0.2501 -0.5018
 7685SOL    HW224497   1.222   2.480   1.427 -0.2379 -0.8638  0.1471
 7686SOL     OW24498   3.689   4.021   1.039 -0.3983  0.7192 -0.3774
 7686SOL    HW124499   3.662   4.104   1.077 -1.2707  0.5213 -0.5461
 7686SOL    HW224500   3.705   4.040   0.946 -1.1507  0.5931 -0.5416
 7687SOL     OW24501   2.192   4.183   2.370  0.1354  0.0592  0.3226
 7687SOL    HW124502   2.216   4.108   2.423 -1.3856 -0.5576  0.2076
 7687SOL    HW224503   2.239   4.172   2.288 -0.2379 -0.8905  0.2296
 7688SOL     OW24504   3.303   2.183   0.895  0.0615 -0.3093  0.2016
 7688SOL    HW124505   3.313   2.278   0.902  1.2948 -0.5040  1.6777
 7688SOL    HW224506   3.213   2.170   0.868  0.3737  1.3217 -1.8934
 7689SOL     OW24507   2.796   1.732   1.185 -0.3774  0.2062 -0.0615
 7689SOL    HW124508   2.863   1.738   1.117  0.1802  0.3848  0.4960
 7689SOL    HW224509   2.838   1.682   1.255 -0.5394  1.0216  0.6303
 7690SOL     OW24510   2.450   0.825   1.683  0.7147  0.2512 -0.6710
 7690SOL    HW124511   2.500   0.748   1.711  0.4321  0.8104  1.5633
 7690SOL    HW224512   2.359   0.802   1.703  0.4811  0.6248 -1.3181
 7691SOL     OW24513   2.419   0.824   0.565  0.0965 -0.0121 -0.7417
 7691SOL    HW124514   2.332   0.827   0.526 -0.2123  1.7619 -0.0357
 7691SOL    HW224515   2.443   0.732   0.564 -2.4118 -0.7716  0.3872
 7692SOL     OW24516   1.851   2.590   0.915  0.3941  0.3086 -0.0671
 7692SOL    HW124517   1.770   2.617   0.958  1.1267 -0.2812  1.8447
 7692SOL    HW224518   1.916   2.590   0.986  1.4023 -1.9976 -0.8814
 7693SOL     OW24519   2.310   1.247   2.374  0.5888  0.1729  0.1818
 7693SOL    HW124520   2.364   1.276   2.300 -0.7018  0.8626 -0.5292
 7693SOL    HW224521   2.328   1.310   2.443  1.5120 -0.2490  0.3457
 7694SOL     OW24522   3.274   3.508   0.391  0.2225 -0.1868 -0.0977
 7694SOL    HW124523   3.207   3.572   0.366  0.5759  0.5846  0.8490
 7694SOL    HW224524   3.326   3.553   0.458  1.7686 -0.7260 -0.8925
 7695SOL     OW24525   3.285   3.211  11.893  0.9614 -0.1912 -0.0206
 7695SOL    HW124526   3.311   3.255  11.813  0.1677  1.0477  0.3780
 7695SOL    HW224527   3.194   3.184  11.877  0.8144  0.0194  0.4446
 7696SOL     OW24528   3.920   1.862   1.305  0.4706  0.0852 -0.2655
 7696SOL    HW124529   3.947   1.874   1.396 -0.8935 -0.5050  0.2431
 7696SOL    HW224530   3.905   1.951   1.273  0.0433  0.2639  0.3990
 7697SOL     OW24531   2.605   1.075  12.177 -0.2323  0.0855  0.5137
 7697SOL    HW124532   2.533   1.119  12.222 -0.3771 -0.8779  1.2417
 7697SOL    HW224533   2.682   1.093  12.232  0.3021  1.8816 -0.7308
 7698SOL     OW24534   1.998   3.165   1.734 -0.1371 -0.4085 -0.1157
 7698SOL    HW124535   2.029   3.148   1.645 -2.2225  0.4362 -1.0842
 7698SOL    HW224536   1.947   3.086   1.756  0.3254 -0.5890  0.3142
 7699SOL     OW24537   3.307   4.367   2.448 -0.5740 -0.2652 -0.2558
 7699SOL    HW124538   3.348   4.317   2.378 -0.3296 -2.2516  1.2245
 7699SOL    HW224539   3.376   4.377   2.514 -0.6474  2.0048 -0.4513
 7700SOL     OW24540   4.840   7.872   2.969  0.2418 -0.0797 -0.1279
 7700SOL    HW124541   4.772   7.897   2.906 -0.7971 -0.0250  0.9833
 7700SOL    HW224542   4.865   7.954   3.011  0.8789 -0.1278 -0.4042
 7701SOL     OW24543   1.345   0.275   1.435 -0.2329 -0.0771 -0.3086
 7701SOL    HW124544   1.439   0.285   1.423 -0.1050  2.5154  1.9258
 7701SOL    HW224545   1.306   0.321   1.361  0.2488  0.0952 -0.4576
 7702SOL     OW24546   3.076   3.656   0.289  0.3764 -0.3094  0.2350
 7702SOL    HW124547   3.016   3.646   0.215  0.9826  1.7069 -0.5793
 7702SOL    HW224548   3.021   3.684   0.362 -0.6106 -4.4221  1.3212
 7703SOL     OW24549   1.537   4.209  12.127  0.2569  0.4558 -0.2098
 7703SOL    HW124550   1.487   4.127  12.125  0.1205  0.4811  1.4221
 7703SOL    HW224551   1.617   4.189  12.078 -0.4404 -0.1714 -1.1469
 7704SOL     OW24552   2.708   3.346   1.164  0.1238 -0.6796 -0.7789
 7704SOL    HW124553   2.775   3.293   1.208 -0.9970 -2.3448 -1.0220
 7704SOL    HW224554   2.649   3.373   1.234  1.3323  1.3845 -0.4452
 7705SOL     OW24555   0.707   2.575   1.818  0.9144 -0.5842  0.4030
 7705SOL    HW124556   0.669   2.555   1.732 -1.2538  1.8144  0.6640
 7705SOL    HW224557   0.801   2.581   1.802  0.4756  1.4720 -2.2928
 7706SOL     OW24558   3.384   3.442   1.527 -0.7020 -0.4613  0.2369
 7706SOL    HW124559   3.464   3.487   1.498 -0.1155 -2.0364 -0.6680
 7706SOL    HW224560   3.380   3.460   1.621 -0.2087  1.0294  0.0043
 7707SOL     OW24561   1.326   1.711   0.542 -0.9969  0.3864 -0.4492
 7707SOL    HW124562   1.321   1.781   0.477 -0.4537  1.2044  0.3817
 7707SOL    HW224563   1.414   1.718   0.579 -1.0865 -0.4569 -0.0355
 7708SOL     OW24564   4.245   1.744   2.330 -0.2952  0.2159  0.7947
 7708SOL    HW124565   4.279   1.708   2.248 -1.6302 -0.9293  0.7111
 7708SOL    HW224566   4.246   1.839   2.318  0.0174  0.0779 -0.3324
 7709SOL     OW24567   2.656   0.844   0.951 -0.5921 -0.2355 -0.4739
 7709SOL    HW124568   2.663   0.940   0.952  1.7241 -0.3522 -0.3769
 7709SOL    HW224569   2.641   0.821   1.043  0.3842 -0.0082 -0.2388
 7710SOL     OW24570   2.286   2.811   0.218 -0.3734  0.3036  0.4735
 7710SOL    HW124571   2.316   2.870   0.149  0.9647  0.1357  0.8872
 7710SOL    HW224572   2.244   2.739   0.171  0.3866  0.2648 -0.1626
 7711SOL     OW24573   3.011   1.523   3.174  0.0806  0.3096  0.5108
 7711SOL    HW124574   3.104   1.542   3.184 -0.2189  1.2087  1.7778
 7711SOL    HW224575   2.993   1.454   3.237  0.1935 -1.0069 -0.8471
 7712SOL     OW24576   4.806   3.522   1.479 -0.1422 -0.0269 -0.0399
 7712SOL    HW124577   4.734   3.558   1.531 -1.9455 -4.5693  1.0898
 7712SOL    HW224578   4.871   3.496   1.543  1.9315  2.5338 -0.9471
 7713SOL     OW24579   4.777   4.437   0.857  0.3500 -0.1170  0.0232
 7713SOL    HW124580   4.736   4.402   0.936  1.0555 -1.3282 -0.1199
 7713SOL    HW224581   4.760   4.370   0.790  1.4381 -0.0351 -0.3472
 7714SOL     OW24582   1.801   4.096  12.075  0.3098  0.0427  0.3093
 7714SOL    HW124583   1.893   4.077  12.055  0.5465  2.3308 -1.1143
 7714SOL    HW224584   1.752   4.046  12.010  0.6533  0.2366 -0.1054
 7715SOL     OW24585   3.908   2.799  11.884 -0.0748 -0.1218  0.0240
 7715SOL    HW124586   3.969   2.836  11.948 -0.1961 -1.2772  0.8475
 7715SOL    HW224587   3.963   2.772  11.811  0.4816 -1.3237  0.8384
 7716SOL     OW24588   3.971   2.083  11.374  0.0894  0.2853 -0.1593
 7716SOL    HW124589   3.971   2.175  11.349  1.2852  0.0359 -1.1785
 7716SOL    HW224590   3.987   2.035  11.293  2.0629 -0.6537  0.6974
 7717SOL     OW24591   0.670   4.027   0.654 -0.3876  0.2694 -0.1957
 7717SOL    HW124592   0.674   3.938   0.689  0.1207 -0.7070 -2.5405
 7717SOL    HW224593   0.760   4.059   0.656 -0.1036 -0.3225 -1.7310
 7718SOL     OW24594   2.045   1.902   1.089  0.1125 -0.7402 -0.4642
 7718SOL    HW124595   2.034   1.986   1.045 -0.9288 -1.3319 -1.3696
 7718SOL    HW224596   2.137   1.879   1.074 -0.1492 -0.8059 -2.1565
 7719SOL     OW24597   3.702   3.260   1.423 -0.5159  0.1278  0.7580
 7719SOL    HW124598   3.744   3.185   1.464 -1.3514 -0.3739  0.7249
 7719SOL    HW224599   3.680   3.318   1.496  0.6323  0.6155  0.7327
 7720SOL     OW24600   2.649   1.893   2.738  0.3478 -0.2748 -0.1804
 7720SOL    HW124601   2.736   1.905   2.775  0.6979  1.4013 -1.4297
 7720SOL    HW224602   2.613   1.818   2.785  1.0704  1.1317  2.9146
 7721SOL     OW24603   2.674   1.867   2.154 -0.0650  0.0891  0.3752
 7721SOL    HW124604   2.757   1.914   2.160 -0.0118 -0.1663  2.3909
 7721SOL    HW224605   2.658   1.858   2.060  2.6804 -0.7679 -0.1063
 7722SOL     OW24606   2.399   3.323   0.905  0.0456 -0.1249 -0.0442
 7722SOL    HW124607   2.309   3.323   0.872 -0.6339 -1.7544  1.6563
 7722SOL    HW224608   2.399   3.389   0.974  0.5062  0.7362 -0.8505
 7723SOL     OW24609   3.913   3.805  12.083 -0.0600  0.1926  0.6081
 7723SOL    HW124610   3.989   3.861  12.098 -1.4971  1.9617  1.6673
 7723SOL    HW224611   3.886   3.824  11.993 -0.3435  0.9902  0.8525
 7724SOL     OW24612   3.639   2.564   1.928  0.1933  0.0083 -0.2943
 7724SOL    HW124613   3.572   2.618   1.886  0.0944  0.4400  0.4089
 7724SOL    HW224614   3.693   2.534   1.855  0.7875  1.7921 -0.6531
 7725SOL     OW24615   1.275   1.192   2.004  0.0609  0.2295  0.1786
 7725SOL    HW124616   1.230   1.225   1.927 -0.7906  0.2683  0.6845
 7725SOL    HW224617   1.322   1.269   2.039  0.2085  0.2789 -0.1245
 7726SOL     OW24618   2.203   3.021   2.710 -0.7178 -0.4368  0.0448
 7726SOL    HW124619   2.204   3.097   2.652 -0.4755 -0.3019  0.2239
 7726SOL    HW224620   2.110   3.003   2.725 -0.7784  0.0630  0.3097
 7727SOL     OW24621   1.705   2.424   1.237  0.8224 -0.7001  0.6061
 7727SOL    HW124622   1.721   2.476   1.315 -1.0364  1.9054 -0.5803
 7727SOL    HW224623   1.775   2.447   1.177 -0.0657  0.6612  0.0372
 7728SOL     OW24624   2.458   1.615   1.964 -0.0517 -0.1743 -0.2437
 7728SOL    HW124625   2.468   1.621   1.869  2.8541 -1.9206 -0.1360
 7728SOL    HW224626   2.542   1.643   1.999 -1.7475  2.7032  2.0602
 7729SOL     OW24627   1.471   3.675  12.061  0.9132  0.0746 -1.2295
 7729SOL    HW124628   1.556   3.717  12.070  2.6684 -3.4663  0.8368
 7729SOL    HW224629   1.421   3.705  12.137  1.2486  0.2753 -1.0874
 7730SOL     OW24630   2.338   4.913   1.199 -0.4281  0.2977  0.5884
 7730SOL    HW124631   2.242   4.905   1.203 -0.4370 -0.3504 -0.4870
 7730SOL    HW224632   2.370   4.823   1.205  0.0387  0.3875 -0.3227
 7731SOL     OW24633   2.950   3.358   0.910  0.2393 -0.0536 -0.3451
 7731SOL    HW124634   2.861   3.350   0.946  0.7729 -1.9031  0.7026
 7731SOL    HW224635   3.006   3.368   0.986  0.8908  2.2865 -1.0526
 7732SOL     OW24636   3.845   2.905   1.333 -0.0411 -0.0301  0.4383
 7732SOL    HW124637   3.752   2.881   1.336 -0.4428  0.6938 -2.8885
 7732SOL    HW224638   3.857   2.964   1.408 -1.6248 -1.8859  2.2839
 7733SOL     OW24639   2.553   1.686   1.074  0.6210 -0.1736 -0.2848
 7733SOL    HW124640   2.567   1.695   0.980  1.2432  1.5756 -0.0670
 7733SOL    HW224641   2.636   1.716   1.113 -0.1534  0.6025  0.8350
 7734SOL     OW24642   1.262   3.757   0.571  0.3928  0.0095 -0.1991
 7734SOL    HW124643   1.256   3.840   0.525  0.3481  0.0939 -0.0433
 7734SOL    HW224644   1.279   3.692   0.503  0.2219  0.1187 -0.3447
 7735SOL     OW24645   2.936   2.789   0.806  0.2787 -1.0248  0.5686
 7735SOL    HW124646   3.027   2.782   0.777 -0.1776 -1.0414 -0.9587
 7735SOL    HW224647   2.909   2.698   0.821  0.0808 -1.1521 -0.4683
 7736SOL     OW24648   5.086   4.336   0.936 -0.0647  0.1970  0.5682
 7736SOL    HW124649   4.996   4.362   0.956  0.2658  0.4640  1.7892
 7736SOL    HW224650   5.077   4.262   0.876 -1.1312 -0.6508  1.7171
 7737SOL     OW24651   1.769   4.900  11.713  0.1961  0.1094 -0.0311
 7737SOL    HW124652   1.688   4.860  11.681 -0.0392  1.4824 -1.2915
 7737SOL    HW224653   1.833   4.829  11.714 -0.0304 -0.2526 -2.7950
 7738SOL     OW24654   3.316   2.866   0.445  0.4168  0.5554 -0.1337
 7738SOL    HW124655   3.380   2.815   0.494  0.4527  0.1308 -0.6120
 7738SOL    HW224656   3.302   2.944   0.498  0.8804  0.3718  0.2694
 7739SOL     OW24657   3.363   1.333  12.381  0.5633 -0.3017 -0.1859
 7739SOL    HW124658   3.418   1.404  12.348  1.9515  0.0449  2.5851
 7739SOL    HW224659   3.292   1.376  12.427  0.1037 -0.7591 -0.4494
 7740SOL     OW24660   4.504   3.477  12.265 -0.1746 -0.0338  0.1425
 7740SOL    HW124661   4.502   3.509  12.175  0.5904 -1.7653 -0.5480
 7740SOL    HW224662   4.413   3.484  12.295 -0.6822 -0.4759 -1.1850
 7741SOL     OW24663   3.497   2.897  12.025  0.0415  0.0184 -0.5593
 7741SOL    HW124664   3.513   2.903  11.930 -1.9309 -0.4749 -0.9621
 7741SOL    HW224665   3.551   2.824  12.054  1.3436  0.7144 -1.1078
 7742SOL     OW24666   4.102   2.055   0.850  0.0615  0.3670 -0.1998
 7742SOL    HW124667   4.180   2.106   0.870 -0.5341  0.7709  1.2033
 7742SOL    HW224668   4.107   2.040   0.756  0.5765  2.4980 -0.5692
 7743SOL     OW24669   2.507   3.912   1.537  0.5383 -0.3453 -0.0958
 7743SOL    HW124670   2.497   4.007   1.543 -0.3928 -0.3513 -1.2170
 7743SOL    HW224671   2.473   3.879   1.621 -1.5837  0.1828 -0.6757
 7744SOL     OW24672   2.462   4.552   3.669 -0.3858  0.3324  0.5136
 7744SOL    HW124673   2.448   4.647   3.674 -1.3302  0.1725  1.5280
 7744SOL    HW224674   2.488   4.528   3.758  2.5090 -0.0180 -0.3336
 7745SOL     OW24675   2.436   1.918   0.243 -0.4608  0.3189 -0.1055
 7745SOL    HW124676   2.374   1.936   0.172 -2.0725 -3.5114  0.1328
 7745SOL    HW224677   2.522   1.932   0.203 -1.3031 -1.5991 -2.9276
 7746SOL     OW24678   2.457   3.012   1.229 -0.0553  0.1168  0.1917
 7746SOL    HW124679   2.385   3.042   1.173  0.5549 -0.2129 -0.7947
 7746SOL    HW224680   2.524   2.982   1.168 -0.1581 -2.1715  1.1099
 7747SOL     OW24681   3.763   3.509  11.897  0.4299  0.6743 -0.6855
 7747SOL    HW124682   3.693   3.561  11.856  0.1701  0.2951 -0.7312
 7747SOL    HW224683   3.772   3.546  11.984  1.4923  1.9693 -1.3113
 7748SOL     OW24684   3.302   1.069   0.318 -0.2691 -0.6414  0.1496
 7748SOL    HW124685   3.222   1.030   0.282 -0.8154 -0.5063  1.1847
 7748SOL    HW224686   3.373   1.027   0.270 -0.9821  0.4895 -2.0362
 7749SOL     OW24687   3.475   2.755   0.645  0.2056  0.0824  0.1842
 7749SOL    HW124688   3.478   2.662   0.663  0.5242 -0.3252 -1.7742
 7749SOL    HW224689   3.562   2.788   0.671  1.5034 -0.9116 -2.6092
 7750SOL     OW24690   3.624   1.753   1.365  0.9822 -1.3203  0.4416
 7750SOL    HW124691   3.700   1.699   1.342  1.7405  0.2781 -0.9723
 7750SOL    HW224692   3.592   1.786   1.281  0.1412 -0.0949  1.2126
 7751SOL     OW24693   3.796   3.182   0.231 -0.1527 -0.0540  0.3352
 7751SOL    HW124694   3.813   3.277   0.234 -0.2566 -0.0521  0.9566
 7751SOL    HW224695   3.830   3.149   0.314 -1.0088 -0.4151  0.5562
 7752SOL     OW24696   2.942   3.719   0.878 -0.8759 -0.2975 -0.1961
 7752SOL    HW124697   2.895   3.759   0.952 -2.0505  0.9349 -1.5358
 7752SOL    HW224698   2.966   3.632   0.909 -3.0404 -0.5399  0.9769
 7753SOL     OW24699   4.183   2.598  12.392 -0.6789 -0.4535 -0.0402
 7753SOL    HW124700   4.129   2.675  12.375 -2.1494 -1.2997  0.6034
 7753SOL    HW224701   4.242   2.592  12.316  2.1856  3.4350  1.5523
 7754SOL     OW24702   4.145   1.358  11.692  0.4920 -0.0320  0.0529
 7754SOL    HW124703   4.230   1.376  11.652  0.8556  0.9624  1.2061
 7754SOL    HW224704   4.086   1.344  11.618  1.5207 -0.0895 -0.7748
 7755SOL     OW24705   2.669   3.260   3.304  0.5080 -0.2012  0.2505
 7755SOL    HW124706   2.626   3.338   3.338  0.4553  0.3786 -1.1083
 7755SOL    HW224707   2.627   3.243   3.220  1.1377 -1.1693  0.1026
 7756SOL     OW24708   1.889   3.075  12.363  0.2199 -0.1657  0.1043
 7756SOL    HW124709   1.822   3.120  12.311  2.4022  2.8319 -0.3714
 7756SOL    HW224710   1.850   3.065  12.449 -1.6680 -0.7063 -0.7607
 7757SOL     OW24711   2.171   2.189   0.482 -0.2246  0.0524 -0.1702
 7757SOL    HW124712   2.183   2.112   0.538 -1.2858 -0.2553 -0.3356
 7757SOL    HW224713   2.257   2.206   0.445  0.0281 -1.0568 -0.1173
 7758SOL     OW24714   2.907   1.935   2.849 -0.1643  0.6390 -0.0205
 7758SOL    HW124715   2.900   1.877   2.924  2.5770 -0.3874 -0.4535
 7758SOL    HW224716   2.989   1.983   2.863  1.3310 -0.7491 -3.0331
 7759SOL     OW24717   3.586   4.076   0.285 -0.0769 -0.1788 -0.2978
 7759SOL    HW124718   3.578   4.129   0.206  1.4923 -0.4973 -0.6912
 7759SOL    HW224719   3.651   4.009   0.263 -0.6381 -1.1282  0.8137
 7760SOL     OW24720   4.649   2.675   0.139 -0.0614  0.4885  0.2290
 7760SOL    HW124721   4.691   2.695   0.056  0.8700 -1.1754  0.2557
 7760SOL    HW224722   4.644   2.579   0.141 -2.3986  0.5617  0.9641
 7761SOL     OW24723   3.808   3.895  12.404  0.1220  0.6283 -0.2088
 7761SOL    HW124724   3.726   3.880  12.357  0.9010  0.8366 -1.7145
 7761SOL    HW224725   3.829   3.986  12.386  0.4043  0.7322  0.6306
 7762SOL     OW24726   1.388   4.125   3.568 -0.4135  0.0471  0.1282
 7762SOL    HW124727   1.356   4.084   3.488 -0.2399  0.3177 -0.0799
 7762SOL    HW224728   1.309   4.152   3.615 -0.5233 -0.3260  0.1640
 7763SOL     OW24729   3.422   2.413   1.334 -0.0208 -0.2716  0.0330
 7763SOL    HW124730   3.438   2.485   1.273  0.6965 -0.5979 -0.1752
 7763SOL    HW224731   3.457   2.335   1.290  0.9634 -0.4305  1.0594
 7764SOL     OW24732   2.209   1.076   2.917 -0.1737 -0.2277  0.5493
 7764SOL    HW124733   2.232   1.138   2.987  0.8918 -0.4274  0.4037
 7764SOL    HW224734   2.179   0.998   2.964  2.7312 -1.2340  0.9464
 7765SOL     OW24735   3.509   2.927  11.763 -0.3775 -0.5621 -0.2152
 7765SOL    HW124736   3.534   2.842  11.725 -0.8254 -0.1133 -1.5748
 7765SOL    HW224737   3.477   2.978  11.689  0.8817  1.1895  0.3645
 7766SOL     OW24738   2.329   4.568   0.164 -0.1304 -0.0394  0.3637
 7766SOL    HW124739   2.363   4.485   0.200 -0.4697 -0.5358 -0.4388
 7766SOL    HW224740   2.351   4.565   0.071 -0.8836  0.3934  0.1643
 7767SOL     OW24741   1.473   2.881   1.838 -0.3337  0.0752  1.0951
 7767SOL    HW124742   1.539   2.837   1.783 -0.1468 -0.1963  1.5302
 7767SOL    HW224743   1.456   2.819   1.909 -2.6887 -0.8388 -0.1480
 7768SOL     OW24744   4.007   1.512   1.035  0.2234 -0.2076 -0.0573
 7768SOL    HW124745   4.048   1.448   0.976 -0.1604 -0.1126 -0.4296
 7768SOL    HW224746   4.000   1.592   0.983  2.1564  0.6600  0.8831
 7769SOL     OW24747   4.567   1.559   2.743 -0.0930 -0.2176 -0.1067
 7769SOL    HW124748   4.519   1.642   2.737  1.0000  0.4237 -0.1932
 7769SOL    HW224749   4.619   1.555   2.664  1.0144 -0.2390  0.6013
 7770SOL     OW24750   5.528   4.543   0.039  0.4586  0.3948  0.2345
 7770SOL    HW124751   5.600   4.556  -0.022  0.3899  1.7336  0.4041
 7770SOL    HW224752   5.456   4.595   0.003 -0.7197 -1.5427 -0.3570
 7771SOL     OW24753   2.283   2.596   1.357 -0.4200 -0.2288 -0.3625
 7771SOL    HW124754   2.350   2.641   1.305  0.4250 -1.9650 -0.8484
 7771SOL    HW224755   2.219   2.565   1.293  0.7720 -2.6219 -0.5201
 7772SOL     OW24756   6.173   2.971   2.372 -0.2172 -0.1245  0.0663
 7772SOL    HW124757   6.217   3.055   2.361 -0.0361  0.2932  3.2091
 7772SOL    HW224758   6.223   2.910   2.316  1.8210  1.1440  0.4145
 7773SOL     OW24759   2.928   2.238   0.913  0.0232 -0.0754 -0.4195
 7773SOL    HW124760   2.841   2.201   0.901  0.6235 -1.8182  0.1991
 7773SOL    HW224761   2.979   2.166   0.951  1.9128  0.6629 -1.4347
 7774SOL     OW24762   2.912   2.959   2.051 -0.1132 -0.2577  0.3111
 7774SOL    HW124763   2.963   2.959   2.132  0.0385 -1.7215  0.2443
 7774SOL    HW224764   2.843   2.895   2.067  0.3911 -1.1588 -0.9877
 7775SOL     OW24765   2.703   2.978   2.362  0.2021  0.1015  0.0186
 7775SOL    HW124766   2.787   3.016   2.386  0.7736  0.5127 -2.3599
 7775SOL    HW224767   2.641   3.016   2.425  1.2139  2.8321 -0.4908
 7776SOL     OW24768   3.784   2.460   1.461 -0.2786 -0.3960  0.0728
 7776SOL    HW124769   3.764   2.384   1.406 -0.1430 -0.8366  0.6188
 7776SOL    HW224770   3.821   2.524   1.401  0.3038 -1.0487 -0.2741
 7777SOL     OW24771   2.938   3.054   0.112 -0.2391 -0.2647 -0.3300
 7777SOL    HW124772   2.928   2.962   0.086 -2.1583 -0.9102  2.2564
 7777SOL    HW224773   2.947   3.102   0.030 -0.7209 -2.5998 -1.8402
 7778SOL     OW24774   2.694   3.278   1.625 -0.2957  0.3200  0.1873
 7778SOL    HW124775   2.737   3.269   1.710 -0.1192  1.1622  0.2010
 7778SOL    HW224776   2.753   3.332   1.573  0.5549 -1.8202 -1.1896
 7779SOL     OW24777   2.182   0.229   2.021 -0.4836  0.0461  0.1226
 7779SOL    HW124778   2.233   0.149   2.020 -1.4979 -0.6217 -0.4635
 7779SOL    HW224779   2.091   0.200   2.022 -0.8723  1.1829 -0.0760
 7780SOL     OW24780   5.581   3.915  11.251 -0.1150  0.2618  0.7325
 7780SOL    HW124781   5.645   3.845  11.236 -3.1590 -2.2256 -2.2239
 7780SOL    HW224782   5.585   3.967  11.170 -3.3762 -1.5297 -0.7667
 7781SOL     OW24783   5.832   4.151   0.362 -0.1016  0.0695 -0.0029
 7781SOL    HW124784   5.822   4.133   0.268  0.0272  1.2160 -0.2485
 7781SOL    HW224785   5.831   4.064   0.403 -1.0557 -0.4084 -0.9762
 7782SOL     OW24786   2.636   4.281   1.171 -0.1000  0.1057 -0.4362
 7782SOL    HW124787   2.566   4.231   1.129 -0.3020  1.5031 -1.9239
 7782SOL    HW224788   2.697   4.301   1.099  0.1709  1.5920  0.1660
 7783SOL     OW24789   3.097   2.992   2.255 -0.3280 -0.3412 -0.1134
 7783SOL    HW124790   3.047   3.027   2.329  1.1339  0.2220  0.6419
 7783SOL    HW224791   3.178   3.042   2.255  1.0912 -2.5362 -0.0778
 7784SOL     OW24792   3.116   4.616   0.666  0.3395  0.0575 -0.2374
 7784SOL    HW124793   3.160   4.610   0.581  1.0197  0.7943  0.0560
 7784SOL    HW224794   3.031   4.657   0.647  0.1954 -0.4230 -0.6532
 7785SOL     OW24795   2.609   0.524   1.449 -0.4448 -0.4224 -1.1539
 7785SOL    HW124796   2.534   0.501   1.393 -0.9520 -2.4124  0.1933
 7785SOL    HW224797   2.682   0.475   1.412 -0.7094 -1.4864 -0.3271
 7786SOL     OW24798   1.626   2.501  12.012 -0.4011  0.2151 -0.3499
 7786SOL    HW124799   1.646   2.576  11.955  0.3983 -0.0942 -0.4887
 7786SOL    HW224800   1.710   2.459  12.027 -0.8158 -0.5643 -0.1332
 7787SOL     OW24801   4.630   1.380   1.554  0.0491 -0.0844  0.0571
 7787SOL    HW124802   4.714   1.383   1.600 -0.5071  0.1353  1.0893
 7787SOL    HW224803   4.586   1.461   1.578 -0.3228 -0.0417 -0.7503
 7788SOL     OW24804   1.401   0.178   1.133 -0.1291 -0.2731  0.0892
 7788SOL    HW124805   1.403   0.083   1.136 -1.0310 -0.2776  1.4124
 7788SOL    HW224806   1.481   0.202   1.085  0.8625 -1.6569  0.9581
 7789SOL     OW24807   2.316   4.266   1.899 -0.4843  0.5325  0.7194
 7789SOL    HW124808   2.362   4.183   1.913  0.6044  0.5518 -2.1235
 7789SOL    HW224809   2.359   4.327   1.959  0.9430 -0.2218  0.5031
 7790SOL     OW24810   2.638   1.261   2.952  0.5450  0.1135  0.8083
 7790SOL    HW124811   2.608   1.343   2.913  0.4303  0.1621  0.9989
 7790SOL    HW224812   2.598   1.193   2.899  0.4522  0.1800  0.7926
 7791SOL     OW24813   3.575   0.773   1.442 -0.4799  0.3497  0.2715
 7791SOL    HW124814   3.604   0.740   1.527 -2.4007 -2.2395  0.0373
 7791SOL    HW224815   3.519   0.848   1.463  0.6402  0.9641  1.1347
 7792SOL     OW24816   2.931   2.612  12.263  0.7693 -0.2906 -0.1268
 7792SOL    HW124817   2.897   2.527  12.289  0.9164 -0.0413  0.9596
 7792SOL    HW224818   3.023   2.596  12.242  0.8953 -0.3542  0.4399
 7793SOL     OW24819   1.992   4.354   1.658  0.2764 -0.2318  0.1578
 7793SOL    HW124820   1.926   4.296   1.620  0.1111  0.0857 -0.0454
 7793SOL    HW224821   2.071   4.338   1.607  0.1722 -0.1217 -0.0390
 7794SOL     OW24822   3.681   1.975   1.546  0.5392  0.2740  0.0265
 7794SOL    HW124823   3.636   1.944   1.624  0.2370  2.3508  0.7372
 7794SOL    HW224824   3.653   1.915   1.477  1.2358 -1.9419  1.5747
 7795SOL     OW24825   3.315   1.975   0.169 -0.1438 -0.4697  0.2735
 7795SOL    HW124826   3.363   2.009   0.094 -1.2472  0.2045 -0.1493
 7795SOL    HW224827   3.264   2.049   0.201 -0.7081 -1.0900  0.8492
 7796SOL     OW24828   4.698   7.964   2.596  0.0201 -0.6097  0.6438
 7796SOL    HW124829   4.724   7.872   2.597 -4.0260 -1.9909 -0.6832
 7796SOL    HW224830   4.651   7.975   2.514 -0.3522  2.4481  1.1523
 7797SOL     OW24831   1.140   3.190   0.415 -0.2513  0.7459  0.1939
 7797SOL    HW124832   1.168   3.165   0.327 -0.4102 -0.0272  0.3551
 7797SOL    HW224833   1.217   3.176   0.470  0.3078  2.6195 -0.0368
 7798SOL     OW24834   3.736   3.595  12.178 -0.0344  0.2465 -0.2392
 7798SOL    HW124835   3.664   3.657  12.188 -0.1765 -0.0970  1.1470
 7798SOL    HW224836   3.813   3.650  12.161 -0.6566  0.5930 -2.1004
 7799SOL     OW24837   1.643   3.314   0.706 -0.3426  0.4173 -0.1195
 7799SOL    HW124838   1.645   3.221   0.685 -0.2499  0.4960 -0.4587
 7799SOL    HW224839   1.652   3.317   0.802  0.5406  0.1081 -0.1837
 7800SOL     OW24840   1.462   1.762   3.950 -0.7298  0.3394 -0.4352
 7800SOL    HW124841   1.555   1.748   3.936 -0.7390 -1.2682  0.7993
 7800SOL    HW224842   1.418   1.710   3.882 -0.7162 -0.8499  0.4381
 7801SOL     OW24843   2.058   1.606   2.437  0.2153  0.3106  0.5737
 7801SOL    HW124844   2.060   1.621   2.342 -0.5727  0.3841  0.5637
 7801SOL    HW224845   2.009   1.680   2.472 -2.3298 -1.3419  0.7000
 7802SOL     OW24846   2.924   3.696   2.602  0.5001 -0.0285 -0.0297
 7802SOL    HW124847   2.929   3.781   2.560 -2.5877  0.1201 -0.2811
 7802SOL    HW224848   2.956   3.712   2.691 -3.0972  2.3260  1.0453
 7803SOL     OW24849   3.547   2.493   1.587 -0.9119  0.5924 -0.0900
 7803SOL    HW124850   3.635   2.467   1.560 -0.5378  1.0535  0.6509
 7803SOL    HW224851   3.491   2.473   1.511  0.1108  1.9809 -1.2775
 7804SOL     OW24852   2.940   3.524  12.417 -0.0195  0.1806  0.2614
 7804SOL    HW124853   2.959   3.614  12.389  1.4516 -0.8232 -2.3030
 7804SOL    HW224854   3.020   3.494  12.460 -0.5692  0.1088  1.2804
 7805SOL     OW24855   2.010   3.631   0.497  0.1321  0.4165  0.3103
 7805SOL    HW124856   2.100   3.612   0.470 -1.0075 -1.7528 -2.3722
 7805SOL    HW224857   1.981   3.699   0.436 -1.5635 -2.5183 -2.4184
 7806SOL     OW24858   3.917   1.089   1.461 -0.1122 -0.0996  0.6375
 7806SOL    HW124859   3.991   1.039   1.496  0.8134  2.3784  2.5786
 7806SOL    HW224860   3.850   1.082   1.529 -0.7422 -0.3462 -0.0022
 7807SOL     OW24861   2.614   2.903   4.383 -0.1377  0.7875 -0.1409
 7807SOL    HW124862   2.663   2.827   4.354  0.5835  0.8273  0.9234
 7807SOL    HW224863   2.608   2.893   4.478 -0.3769  1.8485 -0.0278
 7808SOL     OW24864   2.354   3.713   3.369 -0.0139  0.3636  0.5714
 7808SOL    HW124865   2.342   3.625   3.333 -2.4027 -0.0024  2.0645
 7808SOL    HW224866   2.447   3.718   3.389  0.4334 -1.2927 -0.8239
 7809SOL     OW24867   3.178   1.205   5.288  0.0689  0.6451 -0.0572
 7809SOL    HW124868   3.105   1.237   5.234 -0.2011 -0.3998 -0.3199
 7809SOL    HW224869   3.225   1.144   5.231  0.4076  0.3488  0.5349
 7810SOL     OW24870   1.822   2.896   3.775  0.4614  0.5751 -0.6049
 7810SOL    HW124871   1.753   2.872   3.712 -0.4731  0.8675  0.2733
 7810SOL    HW224872   1.785   2.970   3.823  0.9472  0.0502  0.6096
 7811SOL     OW24873   2.891   1.711   3.056  0.8213 -0.8199 -0.3229
 7811SOL    HW124874   2.941   1.632   3.076  1.2163 -0.7562 -1.0181
 7811SOL    HW224875   2.914   1.773   3.126  0.5171 -1.3097  0.2167
 7812SOL     OW24876   2.555   2.565   2.832  0.0316 -0.2501 -0.0357
 7812SOL    HW124877   2.535   2.533   2.919  0.5359 -0.6411 -0.0590
 7812SOL    HW224878   2.631   2.622   2.844  1.1007 -1.5598 -0.4328
 7813SOL     OW24879   3.756   0.725   4.151 -0.0709 -0.0760  0.7558
 7813SOL    HW124880   3.788   0.785   4.084  1.3787  0.2871  1.7300
 7813SOL    HW224881   3.809   0.743   4.228 -0.4017 -1.7902  1.4473
 7814SOL     OW24882   2.121   1.923   2.070  0.6214  0.0153  0.0598
 7814SOL    HW124883   2.027   1.943   2.068  0.4295 -0.8277 -1.6314
 7814SOL    HW224884   2.143   1.917   2.163 -0.4509  2.5959  0.5626
 7815SOL     OW24885   3.043   1.974   5.242 -0.2602 -0.2486  0.0446
 7815SOL    HW124886   3.063   2.010   5.156 -0.5747  1.5051  0.6639
 7815SOL    HW224887   2.953   1.942   5.235 -1.3329  2.4197  0.4131
 7816SOL     OW24888   3.333   2.207   3.095  0.5263  0.4431 -0.7701
 7816SOL    HW124889   3.277   2.147   3.145 -1.0585  1.0136 -1.7771
 7816SOL    HW224890   3.409   2.221   3.151  0.3850 -1.5499  0.0095
 7817SOL     OW24891   1.693   2.717   1.923 -0.0654  0.7743 -0.3499
 7817SOL    HW124892   1.677   2.691   1.832 -0.2126 -0.1979 -0.0526
 7817SOL    HW224893   1.738   2.642   1.962 -1.6997  0.3857  0.9022
 7818SOL     OW24894   3.742   2.779   3.447  0.3381  0.2244 -0.3215
 7818SOL    HW124895   3.786   2.801   3.529  0.8588  1.0455 -0.8020
 7818SOL    HW224896   3.711   2.863   3.414 -1.5847 -0.3345 -0.0244
 7819SOL     OW24897   2.654   2.463   2.530 -0.2761  0.1179  0.1301
 7819SOL    HW124898   2.724   2.528   2.535 -0.2475  0.0414  0.8746
 7819SOL    HW224899   2.652   2.437   2.438 -0.4252  1.3173 -0.2320
 7820SOL     OW24900   4.377   2.540   2.441  0.5038  0.0216  0.0266
 7820SOL    HW124901   4.283   2.523   2.445  0.2303  1.5133  0.6401
 7820SOL    HW224902   4.390   2.588   2.358  1.0388 -1.7526 -0.9749
 7821SOL     OW24903   2.853   3.799   1.139 -0.2725 -0.0896  0.0096
 7821SOL    HW124904   2.860   3.713   1.181 -0.8284  0.3720  1.0898
 7821SOL    HW224905   2.937   3.841   1.156  0.0650 -0.4840 -0.6745
 7822SOL     OW24906   2.992   1.811   3.959  0.1479 -0.7417 -0.4639
 7822SOL    HW124907   3.043   1.830   4.038 -1.8061 -0.4964  0.7969
 7822SOL    HW224908   2.938   1.736   3.982 -0.8973 -0.2854 -1.3381
 7823SOL     OW24909   3.096   5.300   2.439  0.4844  0.0252  0.2925
 7823SOL    HW124910   3.190   5.297   2.424  0.8493 -1.5872  2.3482
 7823SOL    HW224911   3.062   5.219   2.400  0.1953 -0.0772  0.7387
 7824SOL     OW24912   3.933   4.553   1.277  0.0052  0.3730  0.3659
 7824SOL    HW124913   3.883   4.534   1.198 -0.4618 -0.4379  0.8464
 7824SOL    HW224914   3.957   4.645   1.268  1.8205 -0.2024 -1.7539
 7825SOL     OW24915   1.141   2.778   3.535 -0.1916 -0.1403  0.3189
 7825SOL    HW124916   1.081   2.852   3.534  0.7855  0.6722  0.1044
 7825SOL    HW224917   1.194   2.791   3.614  1.5622  0.7328 -0.9279
 7826SOL     OW24918   2.640   4.320   4.471  0.2436 -0.0334 -0.5688
 7826SOL    HW124919   2.598   4.259   4.532 -0.3379  0.2113 -0.7178
 7826SOL    HW224920   2.724   4.340   4.512 -0.4524  0.7172  0.5470
 7827SOL     OW24921   2.946   3.031   3.245 -0.2030 -0.2010  0.8812
 7827SOL    HW124922   2.936   2.949   3.294  2.4095 -0.2441  1.4670
 7827SOL    HW224923   2.975   3.094   3.310 -0.6494  0.8043  0.1241
 7828SOL     OW24924   4.085   3.994   2.239  0.2680  0.3175  0.6769
 7828SOL    HW124925   4.040   3.910   2.227  1.5148 -0.3239  0.3180
 7828SOL    HW224926   4.088   4.006   2.334  0.0209  0.0024  0.7281
 7829SOL     OW24927   1.198   4.415   1.797 -0.3296  0.2970  0.4961
 7829SOL    HW124928   1.283   4.372   1.810  1.0150  2.4295 -0.6557
 7829SOL    HW224929   1.134   4.344   1.803  1.6522 -1.6832 -0.2860
 7830SOL     OW24930   4.963   4.306   0.586 -0.4895 -0.1245  0.4208
 7830SOL    HW124931   5.007   4.258   0.655 -1.6593  1.5318  2.4313
 7830SOL    HW224932   4.870   4.288   0.599 -1.1002  3.1746  1.8751
 7831SOL     OW24933   3.023   1.624   4.696  0.1082 -0.3924  0.0476
 7831SOL    HW124934   3.022   1.700   4.637 -0.6201 -0.8281 -0.5126
 7831SOL    HW224935   3.051   1.660   4.780  2.4110  0.0352 -0.8213
 7832SOL     OW24936   3.000   2.564   4.017 -0.3810  0.0590  0.7063
 7832SOL    HW124937   3.033   2.608   4.096 -0.0046 -0.2459  0.7215
 7832SOL    HW224938   2.916   2.527   4.042 -0.7880  0.9206  0.6465
 7833SOL     OW24939   2.940   3.630   1.919  0.9573 -0.3729 -0.0905
 7833SOL    HW124940   2.849   3.646   1.895  0.5951 -1.1500  0.6932
 7833SOL    HW224941   2.950   3.673   2.004  0.7759 -1.7916  0.6861
 7834SOL     OW24942   2.045   1.869   3.000  0.1791  0.3817 -0.2630
 7834SOL    HW124943   2.107   1.907   3.063 -1.3762  2.4990  0.1101
 7834SOL    HW224944   2.061   1.775   3.004  0.8744  0.5295  2.5464
 7835SOL     OW24945   2.874   2.566   1.948  0.4776 -0.0855 -0.1585
 7835SOL    HW124946   2.886   2.499   2.016  0.6330 -1.2117 -1.2609
 7835SOL    HW224947   2.888   2.649   1.994  0.7066 -0.8218  1.1582
 7836SOL     OW24948   2.750   4.309   2.580  0.0476 -0.1698 -0.5963
 7836SOL    HW124949   2.750   4.399   2.610  0.1019  0.2290 -1.7385
 7836SOL    HW224950   2.794   4.260   2.650 -1.0783  0.4682  0.5913
 7837SOL     OW24951   2.157   2.627   3.483 -0.4138  0.2559 -0.3065
 7837SOL    HW124952   2.138   2.720   3.470 -1.3446  0.0792 -0.2812
 7837SOL    HW224953   2.201   2.622   3.568  0.3738  0.7530 -0.6703
 7838SOL     OW24954   2.817   1.256   4.426 -0.0026  0.4949  0.4055
 7838SOL    HW124955   2.887   1.271   4.490  0.4371 -0.9925  0.3021
 7838SOL    HW224956   2.862   1.229   4.346 -0.5845  1.7353 -0.3720
 7839SOL     OW24957   2.992   2.985   4.842  0.1534  0.1435 -0.6535
 7839SOL    HW124958   3.041   3.067   4.829 -0.7735  0.8104 -0.0965
 7839SOL    HW224959   2.989   2.945   4.756 -1.7316  2.0786 -1.6023
 7840SOL     OW24960   2.821   3.766   3.007  0.3027  0.5283  0.0513
 7840SOL    HW124961   2.764   3.723   3.071 -0.4029 -1.6527 -1.8729
 7840SOL    HW224962   2.761   3.794   2.937  1.4227 -1.0517 -1.6239
 7841SOL     OW24963   2.838   3.953   2.484  0.3067 -0.5258  0.0339
 7841SOL    HW124964   2.929   3.982   2.478  0.4304 -0.8319  0.3756
 7841SOL    HW224965   2.804   3.964   2.396  0.2122  1.0874  0.2404
 7842SOL     OW24966   1.080   1.809   3.221 -0.0915 -0.0477 -0.5060
 7842SOL    HW124967   1.168   1.828   3.254  0.4428  0.5728 -2.1899
 7842SOL    HW224968   1.029   1.790   3.299  1.5901 -0.6801  0.5008
 7843SOL     OW24969   2.111   3.162   3.389  0.8480 -0.6999 -0.2675
 7843SOL    HW124970   2.123   3.152   3.295 -0.2511  0.3831 -0.5494
 7843SOL    HW224971   2.047   3.233   3.398 -0.0930 -1.6612  1.2442
 7844SOL     OW24972   2.731   1.587   3.691 -0.3586  0.2602  0.0227
 7844SOL    HW124973   2.809   1.534   3.673 -0.7216 -0.9353  1.7042
 7844SOL    HW224974   2.752   1.674   3.655  1.3551 -0.2899 -0.3938
 7845SOL     OW24975   4.077   2.846   4.418 -0.3506  0.7884 -0.1330
 7845SOL    HW124976   4.131   2.911   4.463 -2.1457  1.6499  0.9173
 7845SOL    HW224977   4.093   2.861   4.325  1.7588  0.4859  0.1483
 7846SOL     OW24978   2.333   2.470   2.299  0.0883  0.0619  0.5918
 7846SOL    HW124979   2.388   2.452   2.222 -0.2073  0.5102  0.2708
 7846SOL    HW224980   2.299   2.558   2.284 -1.4279 -0.5366  0.3619
 7847SOL     OW24981   2.636   1.333   4.018 -0.2577  0.0146 -0.0946
 7847SOL    HW124982   2.608   1.258   3.965 -0.5723 -0.2094  0.3872
 7847SOL    HW224983   2.560   1.392   4.019  0.2844  0.7768 -1.2239
 7848SOL     OW24984   4.088   2.835   2.425  0.0548 -0.6637 -0.3390
 7848SOL    HW124985   4.007   2.814   2.472 -0.4662 -0.0825 -0.9383
 7848SOL    HW224986   4.085   2.931   2.416  0.1656 -0.7515 -1.4738
 7849SOL     OW24987   1.151   3.375   4.695 -0.6064  0.4236  0.7269
 7849SOL    HW124988   1.078   3.317   4.716 -0.1428 -0.6215 -0.4234
 7849SOL    HW224989   1.109   3.455   4.663 -1.2579 -0.2377 -0.1173
 7850SOL     OW24990   3.838   2.466   2.771  0.2405 -0.0966  0.3730
 7850SOL    HW124991   3.808   2.410   2.699 -1.0633 -1.0172  1.5842
 7850SOL    HW224992   3.782   2.544   2.766  0.5665  0.1212  0.0356
 7851SOL     OW24993   4.010   1.942   2.149  0.2129  0.0925  0.0841
 7851SOL    HW124994   4.077   1.985   2.202  1.2497 -0.9757 -0.3117
 7851SOL    HW224995   3.963   2.014   2.107  0.8084  0.8805  0.7360
 7852SOL     OW24996   1.922   2.557   2.083 -0.6007 -0.0569 -0.5422
 7852SOL    HW124997   1.917   2.560   2.179 -3.6654  1.5739 -0.6114
 7852SOL    HW224998   1.957   2.470   2.064  0.3172 -0.3548  2.0265
 7853SOL     OW24999   2.707   3.187   3.564  0.4973 -1.0473 -0.5347
 7853SOL    HW125000   2.693   3.191   3.470  1.1995  0.6579 -0.6030
 7853SOL    HW225001   2.802   3.191   3.574  0.3902 -0.1843  0.2689
 7854SOL     OW25002   3.264   2.475   0.936 -0.1382  0.1174 -0.0667
 7854SOL    HW125003   3.323   2.503   0.865  0.9101 -1.0613  0.2979
 7854SOL    HW225004   3.298   2.520   1.013 -0.0725 -0.1107  0.0378
 7855SOL     OW25005   2.145   4.671   0.567  0.3009 -0.7078  0.0405
 7855SOL    HW125006   2.189   4.703   0.489 -2.4277 -0.1738 -1.4319
 7855SOL    HW225007   2.119   4.582   0.546 -1.1421 -0.2998 -0.0438
 7856SOL     OW25008   3.568   4.840   0.739  0.4373  0.5134  0.1768
 7856SOL    HW125009   3.487   4.791   0.750  1.2877 -0.6861  1.4998
 7856SOL    HW225010   3.554   4.921   0.787 -0.3995  0.8960 -0.6672
 7857SOL     OW25011   1.328   2.931   3.453 -0.4305  0.3248  0.6470
 7857SOL    HW125012   1.243   2.891   3.473 -0.0183 -0.2811  1.2392
 7857SOL    HW225013   1.367   2.872   3.388 -0.5806  0.7657  0.1483
 7858SOL     OW25014   3.217   1.406   4.447 -0.3369  0.0335 -0.3204
 7858SOL    HW125015   3.143   1.382   4.503 -1.6094  3.6549 -0.1277
 7858SOL    HW225016   3.176   1.446   4.370  1.4305 -0.3796 -1.5183
 7859SOL     OW25017   2.748   3.953   1.975 -0.0533  0.3151 -0.1512
 7859SOL    HW125018   2.842   3.946   1.991  0.1756  0.8027 -1.1606
 7859SOL    HW225019   2.724   3.871   1.933 -0.2394 -0.1176  0.7824
 7860SOL     OW25020   0.541   3.915   2.981 -0.1191 -0.1656  0.4050
 7860SOL    HW125021   0.573   3.915   3.071  0.3199  1.5064  0.2934
 7860SOL    HW225022   0.620   3.918   2.927 -0.3878 -0.1554  0.0072
 7861SOL     OW25023   4.042   3.501   1.899 -0.0926 -0.1006 -0.0019
 7861SOL    HW125024   4.133   3.479   1.920 -0.6722 -1.1312  1.6505
 7861SOL    HW225025   4.036   3.490   1.804  1.5397  0.1749 -0.1669
 7862SOL     OW25026   4.765   2.507   3.181  0.1332  0.5220 -0.0664
 7862SOL    HW125027   4.708   2.559   3.237 -4.2080 -1.2210 -2.3589
 7862SOL    HW225028   4.820   2.571   3.136 -2.1264  2.7558  0.1364
 7863SOL     OW25029   2.829   2.185   1.763 -0.8189 -0.4729  0.1566
 7863SOL    HW125030   2.870   2.269   1.744  0.0100 -0.8730  0.0858
 7863SOL    HW225031   2.772   2.169   1.688  1.4215 -1.4128 -1.4782
 7864SOL     OW25032   2.103   2.083   2.781  0.3971  0.2716  0.0898
 7864SOL    HW125033   2.142   2.055   2.698  3.1151 -1.3932  1.7821
 7864SOL    HW225034   2.080   2.001   2.825 -2.1009  1.1583  0.5561
 7865SOL     OW25035   0.966   4.711   1.169 -0.1686  0.3828  0.5965
 7865SOL    HW125036   0.986   4.690   1.260  0.6575  1.1559  0.6112
 7865SOL    HW225037   1.028   4.658   1.118  1.4796  2.1662  0.6142
 7866SOL     OW25038   1.336   1.893   3.291 -0.3660 -0.6234  0.3702
 7866SOL    HW125039   1.402   1.930   3.233 -1.4215 -1.2355 -1.3046
 7866SOL    HW225040   1.283   1.967   3.318  0.1764 -0.3227  0.6237
 7867SOL     OW25041   2.258   3.447   3.757 -0.0590  0.6211  0.2857
 7867SOL    HW125042   2.228   3.502   3.830  0.1407  0.4880  0.4716
 7867SOL    HW225043   2.330   3.396   3.794 -1.1944 -0.8632  0.5559
 7868SOL     OW25044   2.274   1.970   2.624  0.2805  0.3807  0.2302
 7868SOL    HW125045   2.279   1.885   2.667 -0.4712  0.7264  1.0551
 7868SOL    HW225046   2.261   1.950   2.531  0.6333 -0.3972  0.3476
 7869SOL     OW25047   3.193   2.720   3.336 -0.1172  0.0051 -0.1048
 7869SOL    HW125048   3.224   2.739   3.247 -0.1596 -0.1897 -0.1623
 7869SOL    HW225049   3.253   2.768   3.393 -1.3278  1.8441 -0.2889
 7870SOL     OW25050   3.253   1.435   2.484 -0.3637  0.0705 -0.4061
 7870SOL    HW125051   3.264   1.354   2.434  1.3756  0.5001 -0.7725
 7870SOL    HW225052   3.211   1.496   2.422 -0.0170 -0.0001 -0.7124
 7871SOL     OW25053   2.121   3.340   0.383  0.3403  0.4373  0.2173
 7871SOL    HW125054   2.047   3.321   0.325  1.1575 -0.8756 -0.4439
 7871SOL    HW225055   2.088   3.323   0.471 -0.5428  1.2263  0.0536
 7872SOL     OW25056   2.493   0.657   2.042 -0.8563  0.0867 -0.0764
 7872SOL    HW125057   2.525   0.744   2.066  0.5800 -0.4169 -0.0578
 7872SOL    HW225058   2.524   0.644   1.953 -0.7248 -0.5571  0.0605
 7873SOL     OW25059   2.433   2.609   1.920 -0.6540 -0.0508 -0.3708
 7873SOL    HW125060   2.449   2.541   1.986  1.2059  1.0222  0.3803
 7873SOL    HW225061   2.385   2.564   1.850  0.7309 -2.1986 -0.0411
 7874SOL     OW25062   2.872   2.219   3.004 -0.1184 -0.0086 -0.4413
 7874SOL    HW125063   2.937   2.179   3.061  0.8464 -0.5465 -1.8572
 7874SOL    HW225064   2.789   2.208   3.050  0.3060 -2.4557 -0.1294
 7875SOL     OW25065   1.797   3.480   3.951  0.4921  1.0485  0.3498
 7875SOL    HW125066   1.714   3.434   3.938  2.2782 -1.7208 -2.4059
 7875SOL    HW225067   1.792   3.512   4.042 -3.6488  1.3532  0.2014
 7876SOL     OW25068   2.584   2.732   1.536 -0.1576  0.4983  0.2299
 7876SOL    HW125069   2.620   2.647   1.511 -0.3274  0.5326 -0.1359
 7876SOL    HW225070   2.619   2.794   1.472 -0.5320  0.5992  0.1170
 7877SOL     OW25071   2.841   1.695   2.512  0.3982  0.1257 -0.6766
 7877SOL    HW125072   2.746   1.679   2.510  0.6139 -1.4485  0.3692
 7877SOL    HW225073   2.871   1.654   2.593  1.6043  2.9892  0.4546
 7878SOL     OW25074   2.553   4.081   4.580  0.4815  0.1600  0.2454
 7878SOL    HW125075   2.468   4.038   4.581  0.8662 -0.6329 -0.0284
 7878SOL    HW225076   2.615   4.012   4.606  1.0147  0.7763  0.6423
 7879SOL     OW25077   1.749   2.466   4.404 -0.3590  0.3165 -0.9605
 7879SOL    HW125078   1.759   2.483   4.311  1.0584  0.9061 -0.7251
 7879SOL    HW225079   1.802   2.388   4.420  1.1059  1.3952 -0.3129
 7880SOL     OW25080   2.347   2.894   1.456 -0.0307 -0.1454  0.0585
 7880SOL    HW125081   2.391   2.921   1.376 -0.8209  0.4659 -0.1840
 7880SOL    HW225082   2.387   2.810   1.478 -2.0115 -2.0540 -2.8455
 7881SOL     OW25083   1.902   2.648   3.689  0.1207  0.6805 -0.0420
 7881SOL    HW125084   1.958   2.665   3.613  1.1133 -1.6585  0.0835
 7881SOL    HW225085   1.915   2.724   3.746  2.8609  0.4598 -0.2277
 7882SOL     OW25086   4.873   2.513   4.278 -0.2405 -0.1056 -0.1931
 7882SOL    HW125087   4.903   2.501   4.368 -0.8751 -0.3975 -0.0185
 7882SOL    HW225088   4.796   2.570   4.286  0.2179  0.5979 -0.6322
 7883SOL     OW25089   3.586   3.696   2.297 -0.0971 -0.0159 -0.0318
 7883SOL    HW125090   3.637   3.633   2.246 -0.5745  0.3939 -1.0334
 7883SOL    HW225091   3.511   3.646   2.328 -0.0332 -0.1558 -0.0999
 7884SOL     OW25092   4.238   1.980   1.662  0.0282  0.0200 -0.0193
 7884SOL    HW125093   4.281   1.984   1.747  0.8799  1.1150 -0.4717
 7884SOL    HW225094   4.162   1.925   1.676  0.6742 -0.5958  1.2201
 7885SOL     OW25095   3.106   4.532   2.097  0.3073 -0.2180  0.3468
 7885SOL    HW125096   3.167   4.509   2.167  0.6625 -1.0901 -0.2378
 7885SOL    HW225097   3.161   4.568   2.027  0.1469 -0.8805 -0.1289
 7886SOL     OW25098   3.772   2.529   3.126  0.8872 -0.3515 -0.0441
 7886SOL    HW125099   3.859   2.501   3.099  0.4194 -0.9886 -0.9533
 7886SOL    HW225100   3.775   2.625   3.121  2.4934 -0.1117  3.0648
 7887SOL     OW25101   0.550   2.531   3.873  0.0161 -0.3443 -0.2962
 7887SOL    HW125102   0.472   2.506   3.922  0.1453  0.5402  0.3788
 7887SOL    HW225103   0.611   2.565   3.939  0.0597  1.2141 -1.0809
 7888SOL     OW25104   3.468   3.855   5.006  0.0963 -0.1365 -0.0797
 7888SOL    HW125105   3.535   3.790   5.027 -0.6497 -0.9934 -0.2741
 7888SOL    HW225106   3.487   3.928   5.065  0.9618 -0.5213  0.1404
 7889SOL     OW25107   3.456   1.256   5.043 -0.6097  0.3629 -0.6510
 7889SOL    HW125108   3.447   1.349   5.023 -0.8765  0.6071  0.5046
 7889SOL    HW225109   3.411   1.245   5.127 -0.0677 -0.6900 -0.4729
 7890SOL     OW25110   3.020   3.264   3.388  0.4024  0.3613  0.8255
 7890SOL    HW125111   2.943   3.312   3.356 -0.3973 -0.4885  1.4299
 7890SOL    HW225112   3.003   3.253   3.482  0.5530 -1.1046  0.6989
 7891SOL     OW25113   2.908   2.064   2.289  0.2313 -0.0140  0.0394
 7891SOL    HW125114   2.896   2.032   2.379  0.9355  1.6346  0.7610
 7891SOL    HW225115   2.865   2.150   2.288  0.7485  0.2539 -1.0278
 7892SOL     OW25116   2.795   7.853   3.115  0.7497  0.3554 -1.2753
 7892SOL    HW125117   2.755   7.775   3.075  0.9619  0.2547 -1.2932
 7892SOL    HW225118   2.849   7.818   3.186  0.9763  0.4732 -1.3888
 7893SOL     OW25119   2.078   2.670   2.659 -0.6299 -0.5887 -0.2021
 7893SOL    HW125120   2.073   2.580   2.627 -2.7345  0.1770 -2.3062
 7893SOL    HW225121   2.003   2.678   2.718 -0.1078 -0.3552  0.4391
 7894SOL     OW25122   3.289   2.697   3.051 -0.1338 -0.2396  0.2551
 7894SOL    HW125123   3.269   2.716   2.960  1.4301 -0.2908 -0.1331
 7894SOL    HW225124   3.335   2.775   3.082  0.2555 -0.6300  0.6799
 7895SOL     OW25125   1.033   4.347   5.486 -0.2615  0.0163 -0.0303
 7895SOL    HW125126   1.058   4.389   5.568  0.9677  0.7973 -0.7705
 7895SOL    HW225127   1.064   4.256   5.495  0.2765  0.2205  0.1949
 7896SOL     OW25128   2.334   1.961   4.637 -0.1921  0.7836  0.3471
 7896SOL    HW125129   2.323   2.000   4.550  2.1530  0.2323 -0.2690
 7896SOL    HW225130   2.395   2.019   4.682  0.2933 -0.0693  0.8256
 7897SOL     OW25131   2.134   3.562   1.791  0.5552  0.5618  0.0221
 7897SOL    HW125132   2.160   3.650   1.816  1.7873  0.6923 -1.5155
 7897SOL    HW225133   2.165   3.553   1.701  0.3045 -1.3843  0.0855
 7898SOL     OW25134   2.798   1.587   4.024  0.0760  0.1206 -0.3763
 7898SOL    HW125135   2.750   1.519   4.072  1.4271  1.2615  2.7977
 7898SOL    HW225136   2.771   1.574   3.933 -1.5687 -3.0921  0.4039
 7899SOL     OW25137   3.496   1.219   3.220 -0.0743 -0.1516 -0.0577
 7899SOL    HW125138   3.527   1.248   3.134  0.3900  0.8722  0.4367
 7899SOL    HW225139   3.547   1.140   3.239  0.4088  0.0808 -0.3658
 7900SOL     OW25140   5.076   3.114   2.104 -0.1556  0.4532 -0.0585
 7900SOL    HW125141   5.163   3.132   2.068 -0.7828  1.9344 -0.8952
 7900SOL    HW225142   5.074   3.161   2.187 -0.1355  0.3624 -0.0064
 7901SOL     OW25143   3.786   2.799   3.112 -0.7633  0.1013 -0.3805
 7901SOL    HW125144   3.834   2.859   3.055  1.8971 -2.0434 -0.5977
 7901SOL    HW225145   3.787   2.843   3.198  0.6467  0.6698 -0.6461
 7902SOL     OW25146   3.584   2.814   1.075  0.3355  0.0371 -0.0342
 7902SOL    HW125147   3.660   2.792   1.022  0.8471  0.7643  0.3839
 7902SOL    HW225148   3.533   2.873   1.021  0.1237 -0.3488 -0.2634
 7903SOL     OW25149   3.692   2.114   2.244 -0.0443 -0.4726  0.4954
 7903SOL    HW125150   3.598   2.102   2.259 -0.4260  0.9691 -0.5027
 7903SOL    HW225151   3.734   2.046   2.297 -1.6625 -1.4611  0.5778
 7904SOL     OW25152   1.742   3.769   4.137 -0.1360  0.1491  0.5354
 7904SOL    HW125153   1.715   3.744   4.225  0.2683  0.6544  0.8093
 7904SOL    HW225154   1.824   3.721   4.123 -0.0860  0.2396  0.5193
 7905SOL     OW25155   3.045   0.614   4.405  0.1140 -0.0578  0.2296
 7905SOL    HW125156   3.015   0.695   4.445  1.2191 -0.8609  2.8975
 7905SOL    HW225157   3.097   0.641   4.330 -1.8168  1.5534 -0.5975
 7906SOL     OW25158   2.734   0.962   4.469 -0.7069 -0.3586  0.1765
 7906SOL    HW125159   2.719   0.893   4.534 -0.6948  0.3560  0.9540
 7906SOL    HW225160   2.829   0.974   4.468 -0.7369 -0.1225  0.2784
 7907SOL     OW25161   2.656   3.903   4.998 -0.0827 -0.2872 -0.4706
 7907SOL    HW125162   2.600   3.828   4.978  1.2519 -1.3561 -0.3765
 7907SOL    HW225163   2.737   3.885   4.951 -0.0487  1.5793 -1.1938
 7908SOL     OW25164   1.227   4.417   5.248  0.4234  0.3346 -0.3266
 7908SOL    HW125165   1.162   4.363   5.202  0.6613 -1.2842  1.1499
 7908SOL    HW225166   1.304   4.415   5.191  0.5641 -1.2604 -0.1414
 7909SOL     OW25167   3.860   4.744   2.035 -0.1803 -0.1485 -0.2875
 7909SOL    HW125168   3.898   4.801   1.969 -2.4347  0.7713 -0.9005
 7909SOL    HW225169   3.917   4.753   2.111  1.9271 -0.4921 -1.7419
 7910SOL     OW25170   2.860   3.274   3.912 -0.3529 -0.1853 -0.8108
 7910SOL    HW125171   2.831   3.259   4.002 -0.4083  0.7701 -0.6627
 7910SOL    HW225172   2.952   3.299   3.920 -0.2658 -0.4287 -1.0473
 7911SOL     OW25173   1.327   2.491   4.061  1.1345  0.0348 -0.4294
 7911SOL    HW125174   1.392   2.536   4.007  1.3219  0.1758 -0.0894
 7911SOL    HW225175   1.356   2.507   4.151  2.2661 -2.2860 -0.2996
 7912SOL     OW25176   2.228   2.223   2.307  0.1929 -0.0424 -0.1097
 7912SOL    HW125177   2.270   2.309   2.310 -0.5238  0.3016  2.5356
 7912SOL    HW225178   2.301   2.160   2.310  0.7082  0.4062 -1.8985
 7913SOL     OW25179   2.874   3.391   4.625  0.4347 -0.4673  0.3826
 7913SOL    HW125180   2.907   3.478   4.607  1.8632 -0.5595  2.2904
 7913SOL    HW225181   2.925   3.333   4.568  1.1338 -0.2710  0.8060
 7914SOL     OW25182   2.522   2.709   4.647  0.0926  0.4113 -0.0132
 7914SOL    HW125183   2.572   2.773   4.697 -0.3229  1.1924 -0.5771
 7914SOL    HW225184   2.563   2.625   4.667  1.0008  0.9206  0.2858
 7915SOL     OW25185   2.734   2.648   4.330 -0.2095  0.1442  0.3628
 7915SOL    HW125186   2.725   2.574   4.270 -0.7435  0.8433 -0.4466
 7915SOL    HW225187   2.805   2.623   4.389  1.5814  0.1669 -1.6776
 7916SOL     OW25188   4.694   3.633   2.070  0.0557  0.5131 -0.6655
 7916SOL    HW125189   4.690   3.545   2.034 -1.4191 -0.0566  0.7899
 7916SOL    HW225190   4.607   3.669   2.056  0.2580  1.2592 -0.0786
 7917SOL     OW25191   2.010   2.398   1.798 -0.3257 -0.1495 -0.0358
 7917SOL    HW125192   2.011   2.476   1.742 -0.6359  0.3495  0.6483
 7917SOL    HW225193   2.086   2.407   1.854 -0.1335 -0.5488 -0.2253
 7918SOL     OW25194   2.872   2.783   3.352 -0.4008 -0.4418 -0.2407
 7918SOL    HW125195   2.949   2.769   3.407 -0.5049  0.1651  0.0628
 7918SOL    HW225196   2.814   2.838   3.405 -1.3426 -1.4441 -0.2029
 7919SOL     OW25197   2.495   4.886   4.691  0.1023 -0.1644  0.7489
 7919SOL    HW125198   2.506   4.851   4.603  0.4825 -0.7349  1.0154
 7919SOL    HW225199   2.460   4.974   4.678  0.1448 -0.2497  0.0316
 7920SOL     OW25200   3.596   3.854   1.244  0.0212 -0.0300 -0.1138
 7920SOL    HW125201   3.677   3.893   1.211  0.6808  0.0900  1.5682
 7920SOL    HW225202   3.544   3.837   1.165  1.4913  0.2874 -1.1936
 7921SOL     OW25203   4.340   2.997   0.597  0.6758 -0.0982 -0.0621
 7921SOL    HW125204   4.321   2.962   0.510 -0.0469 -1.1764  0.5176
 7921SOL    HW225205   4.414   3.057   0.583  0.1018  0.3025 -1.5216
 7922SOL     OW25206   2.277   3.431   2.130  0.4894 -0.4849  0.0132
 7922SOL    HW125207   2.340   3.481   2.079 -0.3993 -0.3664 -1.0054
 7922SOL    HW225208   2.312   3.342   2.131  0.4197 -0.5350 -1.0098
 7923SOL     OW25209   2.160   2.515   3.233  0.1294  0.4403  0.4158
 7923SOL    HW125210   2.168   2.548   3.322  0.6661 -0.4025  0.6970
 7923SOL    HW225211   2.076   2.547   3.202 -1.0133 -0.9341  1.9503
 7924SOL     OW25212   2.943   2.344   4.252  0.6555 -0.6212  0.1285
 7924SOL    HW125213   2.872   2.380   4.200  0.1871  0.2286  1.3133
 7924SOL    HW225214   2.969   2.265   4.205 -1.5549 -1.3657  0.0507
 7925SOL     OW25215   3.700   1.924   2.993  0.2889 -0.2060 -0.4658
 7925SOL    HW125216   3.762   1.987   3.031 -0.8791 -0.4540  2.0314
 7925SOL    HW225217   3.629   1.978   2.959 -0.3329 -0.0820  0.9579
 7926SOL     OW25218   3.974   1.516   3.992  0.3205 -0.3395  0.2070
 7926SOL    HW125219   3.898   1.569   4.016  0.5911 -0.2528  0.8852
 7926SOL    HW225220   4.049   1.574   4.007  0.4569  0.1588 -2.0167
 7927SOL     OW25221   1.407   2.430   3.637  0.1416  0.1779  0.3891
 7927SOL    HW125222   1.485   2.484   3.639 -1.0135  2.0030 -1.0645
 7927SOL    HW225223   1.434   2.350   3.591  0.9085  1.2779 -1.1710
 7928SOL     OW25224   1.652   3.557   2.603 -0.0485 -0.1221 -0.1744
 7928SOL    HW125225   1.721   3.504   2.643  1.3178  1.3306 -0.4850
 7928SOL    HW225226   1.571   3.510   2.622  1.0562 -2.1302 -0.1814
 7929SOL     OW25227   2.515   2.615   4.061 -0.0012  0.1802 -0.6576
 7929SOL    HW125228   2.489   2.708   4.060 -1.6340 -0.1780  1.1534
 7929SOL    HW225229   2.497   2.587   4.151  0.6118 -1.8801 -1.1323
 7930SOL     OW25230   2.708   2.944   4.660  0.2979 -0.2040 -0.4146
 7930SOL    HW125231   2.729   3.019   4.716 -1.2492 -1.0927  1.4622
 7930SOL    HW225232   2.789   2.926   4.612  0.9782  2.0519 -0.2241
 7931SOL     OW25233   2.377   3.448   2.550 -0.3336 -0.3105 -0.6521
 7931SOL    HW125234   2.469   3.468   2.538  0.2135 -0.6453  2.1338
 7931SOL    HW225235   2.331   3.527   2.522  0.8138  0.0210 -1.6724
 7932SOL     OW25236   3.321   2.963   3.168  0.5225  0.0359  0.0876
 7932SOL    HW125237   3.296   3.013   3.246 -1.8340  1.8412 -1.6792
 7932SOL    HW225238   3.367   3.026   3.113  1.0301 -0.8494 -0.5167
 7933SOL     OW25239   1.155   1.105   3.907 -0.6612  0.1714 -0.4948
 7933SOL    HW125240   1.146   1.102   4.002 -1.8697  0.4289 -0.5853
 7933SOL    HW225241   1.132   1.017   3.878 -3.1761  0.8272 -0.7267
 7934SOL     OW25242   0.910   1.368   3.014  0.4531  0.3951  0.6100
 7934SOL    HW125243   0.973   1.439   3.005 -0.1768  0.7290 -2.3659
 7934SOL    HW225244   0.825   1.409   2.999 -0.2496 -0.4971  1.9295
 7935SOL     OW25245   3.122   1.835   2.016  0.0738  0.4356  0.0597
 7935SOL    HW125246   3.129   1.927   2.044 -0.9226 -0.0047  1.9008
 7935SOL    HW225247   3.050   1.836   1.953  0.3862  0.9930 -0.2995
 7936SOL     OW25248   2.140   3.602   4.797 -0.5961  0.4799 -0.2442
 7936SOL    HW125249   2.079   3.639   4.861  2.0487  2.0212  1.5542
 7936SOL    HW225250   2.180   3.528   4.842 -1.1891 -0.6373 -1.4800
 7937SOL     OW25251   3.802   2.949   1.892  0.0965 -0.4566  0.1824
 7937SOL    HW125252   3.868   3.010   1.926 -2.2524  1.5433  1.5023
 7937SOL    HW225253   3.770   2.903   1.969 -2.0900  0.8273  0.1358
 7938SOL     OW25254   4.541   2.865   2.279  0.2136  0.4306  0.1716
 7938SOL    HW125255   4.517   2.953   2.309 -0.4150  0.8231 -1.3433
 7938SOL    HW225256   4.458   2.826   2.251  0.6991 -0.0252 -0.6791
 7939SOL     OW25257   3.561   1.898   1.782 -0.3266  0.2516  0.6679
 7939SOL    HW125258   3.602   1.851   1.854  1.7915  2.2895  0.9147
 7939SOL    HW225259   3.491   1.948   1.823  0.2086  0.6067  1.1773
 7940SOL     OW25260   2.437   4.340   1.347  0.0048 -0.3088  0.4565
 7940SOL    HW125261   2.394   4.410   1.297 -1.1906 -1.6103 -0.4214
 7940SOL    HW225262   2.522   4.328   1.303 -0.1621 -0.0295  0.0522
 7941SOL     OW25263   3.950   2.844   5.114  0.4238 -0.6948 -0.4733
 7941SOL    HW125264   4.039   2.879   5.116 -0.1520  0.8208  0.3066
 7941SOL    HW225265   3.898   2.910   5.159 -0.9867 -1.8900 -0.3002
 7942SOL     OW25266   2.307   3.562   4.026 -0.1438  0.4302  0.6444
 7942SOL    HW125267   2.290   3.594   4.115  1.2098  1.4121  0.5866
 7942SOL    HW225268   2.377   3.498   4.037 -2.2545 -2.0339  0.6507
 7943SOL     OW25269   1.731   4.931   2.828  0.0166 -0.1125 -0.2609
 7943SOL    HW125270   1.689   4.977   2.901 -1.6146 -0.7428 -0.7552
 7943SOL    HW225271   1.761   4.848   2.865 -0.7943 -0.4239 -0.2850
 7944SOL     OW25272   1.961   4.104   4.002  0.0701 -0.0939 -0.7674
 7944SOL    HW125273   1.872   4.077   4.024  0.3496 -1.2369 -0.9505
 7944SOL    HW225274   2.006   4.022   3.979  1.2589  0.4116 -0.3446
 7945SOL     OW25275   3.639   1.740   3.312  0.0121  0.2280 -0.6872
 7945SOL    HW125276   3.588   1.662   3.335 -0.6541  0.7366 -0.4099
 7945SOL    HW225277   3.597   1.773   3.233  1.4617 -0.7498 -1.9134
 7946SOL     OW25278   5.983   1.035   0.955 -0.3359 -0.2837 -0.2846
 7946SOL    HW125279   6.060   0.999   0.911 -0.6095  0.3059 -1.2680
 7946SOL    HW225280   6.009   1.039   1.047  0.5581 -0.7430 -0.5013
 7947SOL     OW25281   2.297   2.133   2.014  0.2784  0.1547  0.1165
 7947SOL    HW125282   2.341   2.090   1.940 -2.0992 -0.6183 -0.9451
 7947SOL    HW225283   2.218   2.082   2.027 -1.9391  3.2298 -0.1643
 7948SOL     OW25284   2.249   3.666   4.268  0.3255 -0.1013  0.3460
 7948SOL    HW125285   2.191   3.680   4.343 -0.9102 -0.5837 -0.4728
 7948SOL    HW225286   2.337   3.680   4.302 -0.1670 -0.7749  1.9889
 7949SOL     OW25287   4.568   3.132   2.063  0.5006  0.0021 -0.2214
 7949SOL    HW125288   4.484   3.100   2.095  0.1077  1.6589  0.5088
 7949SOL    HW225289   4.625   3.132   2.139  1.7861 -2.8164 -1.0590
 7950SOL     OW25290   4.060   2.083   3.979 -0.6122 -0.4491  0.1060
 7950SOL    HW125291   4.112   2.151   3.937  0.6752 -1.9422 -0.8456
 7950SOL    HW225292   4.005   2.130   4.041 -1.3074  1.6811 -1.9558
 7951SOL     OW25293   1.606   4.614  11.719 -0.3699 -0.0565 -0.1203
 7951SOL    HW125294   1.587   4.566  11.799 -0.6275 -0.8279 -0.6277
 7951SOL    HW225295   1.692   4.582  11.692 -0.7206 -0.5508 -0.6788
 7952SOL     OW25296   4.300   0.515   3.685  0.1749 -0.7931  0.0806
 7952SOL    HW125297   4.264   0.427   3.687 -2.2930  0.1296 -0.1153
 7952SOL    HW225298   4.224   0.572   3.672  1.3636  1.5448  2.3749
 7953SOL     OW25299   1.544   2.384   4.944  0.1460  0.2360 -0.2368
 7953SOL    HW125300   1.551   2.459   4.885 -2.1681 -1.4485 -2.9071
 7953SOL    HW225301   1.452   2.381   4.969  0.1314 -1.7779 -0.3524
 7954SOL     OW25302   4.115   2.819   1.998 -0.0421  0.2860 -0.4029
 7954SOL    HW125303   4.198   2.772   2.005 -0.8377 -0.9284  2.2080
 7954SOL    HW225304   4.051   2.750   1.977 -0.8975  0.5602  1.2026
 7955SOL     OW25305   4.193   1.736   2.816  0.4858  0.2401  0.1984
 7955SOL    HW125306   4.172   1.828   2.832 -0.4483  0.1005 -0.1659
 7955SOL    HW225307   4.147   1.688   2.884 -1.4326 -0.1540 -1.2741
 7956SOL     OW25308   2.677   3.717   1.862  0.0774 -0.5703  0.5909
 7956SOL    HW125309   2.634   3.736   1.779  0.1061 -0.1896  0.6607
 7956SOL    HW225310   2.606   3.690   1.920 -0.0108 -0.3620  0.5820
 7957SOL     OW25311   3.776   3.939   0.174  0.3523  0.3034  0.0107
 7957SOL    HW125312   3.853   3.994   0.192 -0.5432  1.5257  0.2305
 7957SOL    HW225313   3.779   3.923   0.080  0.2294  1.3596 -0.1796
 7958SOL     OW25314   2.772   2.987   3.828  0.3659 -0.6396  0.1973
 7958SOL    HW125315   2.865   2.982   3.808  0.1334  1.3380 -1.8567
 7958SOL    HW225316   2.767   3.050   3.900  0.6217 -0.8325  0.3853
 7959SOL     OW25317   3.980   2.985   3.193 -0.5712  0.1178 -0.3405
 7959SOL    HW125318   4.017   3.015   3.110 -1.0319  1.2118 -0.1632
 7959SOL    HW225319   3.956   3.065   3.239 -0.5578 -0.4891  0.7451
 7960SOL     OW25320   3.604   4.111   2.769 -0.1551 -0.7388 -0.3164
 7960SOL    HW125321   3.664   4.041   2.792  0.4066 -0.7183 -1.5939
 7960SOL    HW225322   3.517   4.076   2.786  0.1968 -0.9076  1.1999
 7961SOL     OW25323   2.602   3.251   4.708 -0.0976 -0.6565 -0.1088
 7961SOL    HW125324   2.578   3.340   4.731  0.6096  0.1375 -2.1704
 7961SOL    HW225325   2.666   3.261   4.637  0.3701 -2.7937 -0.0608
 7962SOL     OW25326   2.958   3.062   2.488 -0.7564  0.3437  0.0573
 7962SOL    HW125327   2.981   2.977   2.525  0.9061  0.0250 -1.5415
 7962SOL    HW225328   2.973   3.125   2.559  2.1044 -0.2520  0.0908
 7963SOL     OW25329   4.864   1.092   3.949 -0.7581  0.4289 -0.0361
 7963SOL    HW125330   4.833   1.002   3.952 -1.5969  0.7361  1.1462
 7963SOL    HW225331   4.862   1.115   3.856  0.2278 -1.0094 -0.4500
 7964SOL     OW25332   2.235   3.784  12.085 -0.1339  0.3904 -0.4235
 7964SOL    HW125333   2.263   3.752  12.171 -0.7959 -0.3703 -0.4833
 7964SOL    HW225334   2.187   3.711  12.046  2.6004 -0.3988 -2.6872
 7965SOL     OW25335   3.548   1.923   4.144  0.0844  0.0323  0.3657
 7965SOL    HW125336   3.483   1.988   4.117 -0.3383 -0.4377  0.2332
 7965SOL    HW225337   3.578   1.953   4.229  0.3310  0.7216  0.0436
 7966SOL     OW25338   0.765   0.872   3.364  0.2219 -0.3737  0.2830
 7966SOL    HW125339   0.708   0.935   3.320  1.3097  0.2335 -0.3016
 7966SOL    HW225340   0.705   0.815   3.412 -0.8213  0.7148  0.3233
 7967SOL     OW25341   2.122   2.835   2.993  0.4985 -0.6395  0.4287
 7967SOL    HW125342   2.053   2.868   2.936  0.9076 -0.4587  0.0285
 7967SOL    HW225343   2.077   2.778   3.055  0.1899 -1.9233 -0.9096
 7968SOL     OW25344   2.928   1.944   4.310  0.0979  0.5330 -0.3612
 7968SOL    HW125345   2.955   1.856   4.285 -1.2302  0.1948 -0.7153
 7968SOL    HW225346   2.988   2.002   4.264 -0.1506 -0.1573 -1.5903
 7969SOL     OW25347   2.311   3.722   2.598 -0.7553  0.4948 -0.2547
 7969SOL    HW125348   2.301   3.810   2.561 -1.9053  0.2063 -0.6627
 7969SOL    HW225349   2.403   3.699   2.581 -0.5161  1.5107 -0.3707
 7970SOL     OW25350   4.528   2.013   1.614 -0.5452  0.1790 -0.1736
 7970SOL    HW125351   4.434   2.001   1.628 -0.8794  0.7308 -1.7720
 7970SOL    HW225352   4.554   2.071   1.685 -0.8734 -1.8779  1.7431
 7971SOL     OW25353   3.798   3.319   2.319  0.1520 -0.3544  0.9242
 7971SOL    HW125354   3.731   3.375   2.358  1.6364  1.1009  1.4992
 7971SOL    HW225355   3.853   3.379   2.269 -0.0538 -1.7917 -1.1309
 7972SOL     OW25356   3.834   2.194   3.052 -0.2198 -0.1175  0.2411
 7972SOL    HW125357   3.915   2.176   3.101 -0.9380 -0.4721  1.3352
 7972SOL    HW225358   3.834   2.289   3.041 -0.2900  0.0458  1.4317
 7973SOL     OW25359   3.188   1.146   5.555 -0.5635  0.4600 -0.1971
 7973SOL    HW125360   3.213   1.201   5.481 -1.3033 -0.3125 -1.0498
 7973SOL    HW225361   3.251   1.167   5.624  0.5692  0.6897 -1.2745
 7974SOL     OW25362   1.801   2.360   5.086 -0.3468 -0.1488 -0.1303
 7974SOL    HW125363   1.871   2.423   5.074 -0.1799 -0.2233  0.4219
 7974SOL    HW225364   1.732   2.388   5.025 -1.4324  2.2339  2.0177
 7975SOL     OW25365   1.844   2.151   2.069 -0.7861 -0.9173 -0.3103
 7975SOL    HW125366   1.812   2.226   2.119 -0.6624 -0.6768 -0.5949
 7975SOL    HW225367   1.785   2.079   2.094 -1.0512 -0.6708 -0.2245
 7976SOL     OW25368   3.156   4.105   1.510  0.7411 -0.2690  0.1935
 7976SOL    HW125369   3.072   4.078   1.546  0.2200 -0.1388 -0.8876
 7976SOL    HW225370   3.201   4.148   1.583  0.3110 -1.2765  1.0710
 7977SOL     OW25371   0.794   3.341   3.992  0.4239  0.2823 -0.1755
 7977SOL    HW125372   0.851   3.308   3.922  0.0945  1.8121 -1.2300
 7977SOL    HW225373   0.705   3.322   3.962  0.2863  0.7767 -0.1044
 7978SOL     OW25374   3.361   3.933   2.738  0.0687 -0.5855  0.2494
 7978SOL    HW125375   3.405   3.862   2.691  0.3490 -0.5201  0.4103
 7978SOL    HW225376   3.327   3.891   2.817  2.7009  0.0012  1.7941
 7979SOL     OW25377   2.236   3.389   4.918  0.2231 -0.0712 -0.3664
 7979SOL    HW125378   2.191   3.306   4.902  1.2174 -0.3965 -1.7187
 7979SOL    HW225379   2.240   3.396   5.013  0.6641 -1.9034 -0.1966
 7980SOL     OW25380   3.660   2.358   0.998  0.1515  0.1588  0.2560
 7980SOL    HW125381   3.741   2.348   1.048  0.3499 -1.0310 -0.2683
 7980SOL    HW225382   3.683   2.416   0.926  0.9663 -1.3260 -0.7289
 7981SOL     OW25383   2.962   4.197   2.308 -0.4056 -0.2299  0.2128
 7981SOL    HW125384   3.031   4.135   2.330 -0.5578 -0.1076  1.0648
 7981SOL    HW225385   2.890   4.143   2.276  0.6091 -0.2683 -2.2289
 7982SOL     OW25386   1.598   0.705   2.865 -0.4409  0.6639  0.2960
 7982SOL    HW125387   1.682   0.673   2.832  0.5293  1.7186  1.6635
 7982SOL    HW225388   1.586   0.790   2.821 -1.6725 -0.2190 -1.2046
 7983SOL     OW25389   3.031   3.208   1.996  0.4964 -0.0625  0.0047
 7983SOL    HW125390   2.980   3.127   1.995 -1.5822  1.1811 -1.1021
 7983SOL    HW225391   3.001   3.254   2.074  2.0303 -0.4951  0.9046
 7984SOL     OW25392   0.908   4.365   5.237  0.0038  0.0002  0.1010
 7984SOL    HW125393   0.940   4.369   5.327 -1.5584 -3.8063  1.0121
 7984SOL    HW225394   0.970   4.308   5.192 -0.5054 -0.0237 -0.5862
 7985SOL     OW25395   2.161   3.881   2.324  0.1014  0.1052 -0.2574
 7985SOL    HW125396   2.164   3.814   2.255  1.4041  0.6412 -0.7550
 7985SOL    HW225397   2.068   3.899   2.335 -0.1724 -0.4027 -1.4969
 7986SOL     OW25398   3.239   1.191   3.443 -0.2954  0.4527 -0.1116
 7986SOL    HW125399   3.189   1.130   3.389 -2.3303  1.4897  0.5131
 7986SOL    HW225400   3.251   1.268   3.388 -2.5071  1.5742  0.8572
 7987SOL     OW25401   4.000   1.751   2.585  0.6710  0.5100  0.2124
 7987SOL    HW125402   4.094   1.744   2.597  1.0607  1.7128 -1.8242
 7987SOL    HW225403   3.977   1.835   2.625  0.7248  0.9498 -0.6769
 7988SOL     OW25404   3.122   1.179   2.339  0.0181  0.3279 -0.1438
 7988SOL    HW125405   3.027   1.185   2.328  0.1408  0.8146 -1.1096
 7988SOL    HW225406   3.154   1.158   2.251  0.7801 -0.2171  0.2538
 7989SOL     OW25407   3.411   1.168   3.649 -0.4448 -0.1458 -0.0808
 7989SOL    HW125408   3.350   1.183   3.576 -0.7228 -0.0941  0.1634
 7989SOL    HW225409   3.358   1.176   3.727 -0.4401 -1.6023  0.0869
 7990SOL     OW25410   3.812   5.147   2.440  0.1306  0.2164 -0.1228
 7990SOL    HW125411   3.736   5.173   2.493 -1.5455 -2.7139 -0.8641
 7990SOL    HW225412   3.779   5.077   2.384  3.0815 -0.1870 -1.5344
 7991SOL     OW25413   3.031   0.986   4.514  0.0849 -0.2402  0.3084
 7991SOL    HW125414   3.123   0.961   4.507  0.0825 -0.6645  1.5218
 7991SOL    HW225415   3.022   1.022   4.603 -0.9198 -0.2331  0.2192
 7992SOL     OW25416   2.588   0.555   3.508  0.0249 -0.3802  0.4561
 7992SOL    HW125417   2.529   0.530   3.437  0.3711 -0.8512  0.3300
 7992SOL    HW225418   2.556   0.640   3.537  0.0214 -0.0775 -0.4140
 7993SOL     OW25419   3.416   2.891   2.454  0.0356 -0.6031  0.2206
 7993SOL    HW125420   3.508   2.914   2.453  0.3056 -1.3753  2.1384
 7993SOL    HW225421   3.402   2.842   2.373  0.8316  1.1050 -0.9899
 7994SOL     OW25422   3.308   2.424   4.202  0.0053 -0.4853 -0.1379
 7994SOL    HW125423   3.366   2.448   4.274  0.0271 -2.1582  0.4255
 7994SOL    HW225424   3.221   2.453   4.230  0.2901  0.5098 -0.2538
 7995SOL     OW25425   1.678   1.316   1.949 -0.3302  0.4886 -0.2415
 7995SOL    HW125426   1.621   1.311   2.026  1.7591 -0.9647  1.3185
 7995SOL    HW225427   1.756   1.362   1.981  0.8074 -0.6241 -1.3377
 7996SOL     OW25428   4.070   1.133   3.263 -0.6786 -0.1794 -0.0270
 7996SOL    HW125429   4.003   1.072   3.234 -1.0292 -0.3192  1.0161
 7996SOL    HW225430   4.129   1.142   3.188 -1.0599 -1.1786 -0.4689
 7997SOL     OW25431   2.728   1.897   1.783 -0.4221 -0.0142  0.3885
 7997SOL    HW125432   2.822   1.878   1.779  0.0256  1.9443  0.3712
 7997SOL    HW225433   2.687   1.827   1.733  0.9806 -1.2158  0.8642
 7998SOL     OW25434   0.824   2.886   1.794  0.7471  0.7595 -0.0848
 7998SOL    HW125435   0.760   2.892   1.865 -0.4441  1.0082 -1.1538
 7998SOL    HW225436   0.885   2.818   1.822 -1.3036 -1.1679 -0.0634
 7999SOL     OW25437   4.088   2.582   1.553 -0.0809  0.1084  0.1707
 7999SOL    HW125438   4.035   2.609   1.629 -0.9050  0.3062 -0.4633
 7999SOL    HW225439   4.179   2.597   1.581 -0.3505 -0.1461  1.2419
 8000SOL     OW25440   2.125   2.491   5.676 -0.4228  0.2026  0.2304
 8000SOL    HW125441   2.178   2.439   5.615  0.1937 -0.9785  1.7100
 8000SOL    HW225442   2.039   2.450   5.675 -0.5308  0.4289 -0.1143
 8001SOL     OW25443   0.923   3.594   4.957 -0.5565  0.2119 -0.2053
 8001SOL    HW125444   0.844   3.557   4.915 -0.5541  0.6291 -0.5878
 8001SOL    HW225445   0.898   3.683   4.981 -0.7493 -0.2111  1.2480
 8002SOL     OW25446   1.240   2.454   2.683 -0.6409  0.0752  0.4261
 8002SOL    HW125447   1.332   2.433   2.699 -0.2447  0.7243 -0.9118
 8002SOL    HW225448   1.196   2.370   2.684  0.1579 -0.3625 -0.1164
 8003SOL     OW25449   2.397   2.802   5.399 -1.0468 -0.1512 -0.1008
 8003SOL    HW125450   2.464   2.734   5.404 -1.8048 -0.9611 -0.6683
 8003SOL    HW225451   2.343   2.789   5.477 -1.9288 -1.0117 -0.8346
 8004SOL     OW25452   3.405   3.767   3.852 -0.4164  0.0554 -0.0499
 8004SOL    HW125453   3.343   3.699   3.876  0.8869 -2.2229 -2.6185
 8004SOL    HW225454   3.465   3.773   3.927  0.4112 -2.9040 -0.3460
 8005SOL     OW25455   4.785   2.141   6.997 -0.0524 -0.5262 -0.0451
 8005SOL    HW125456   4.743   2.055   6.995 -0.0305 -0.5397  0.1013
 8005SOL    HW225457   4.764   2.177   7.083  3.3433 -2.0754  1.6212
 8006SOL     OW25458   1.877   1.162   1.397  0.4740 -0.1245  0.2042
 8006SOL    HW125459   1.809   1.219   1.433  0.8750  0.5995 -0.1776
 8006SOL    HW225460   1.954   1.180   1.452  1.1605  1.1548 -1.1015
 8007SOL     OW25461   2.691   2.470   4.678 -0.0038 -0.2751 -0.3256
 8007SOL    HW125462   2.746   2.489   4.754 -1.2894 -0.4117  0.6732
 8007SOL    HW225463   2.704   2.377   4.661 -1.3541 -0.7774  1.1384
 8008SOL     OW25464   2.976   3.145   6.392 -0.7262 -0.2090 -0.4497
 8008SOL    HW125465   3.047   3.147   6.328 -0.8847  0.2790 -0.6103
 8008SOL    HW225466   3.001   3.210   6.457 -0.7610 -0.4241 -0.2181
 8009SOL     OW25467   2.077   0.970   4.658  0.0807 -0.0244  0.4331
 8009SOL    HW125468   2.117   1.054   4.683  0.8087  0.1653 -1.2420
 8009SOL    HW225469   2.007   0.994   4.598  0.0480 -0.5867  0.2403
 8010SOL     OW25470   2.133   2.721   5.251 -0.1272 -0.4456  0.0365
 8010SOL    HW125471   2.196   2.772   5.301 -0.8318  0.6680 -0.1720
 8010SOL    HW225472   2.053   2.723   5.304  0.0694 -2.0962  0.4481
 8011SOL     OW25473   2.795   3.065   5.553  0.1716 -0.1664  0.3241
 8011SOL    HW125474   2.801   3.154   5.518 -2.4000  0.2941  0.8600
 8011SOL    HW225475   2.804   3.009   5.476  0.8419  0.5628 -0.1555
 8012SOL     OW25476   2.350   1.730   5.737  0.1312 -0.2950  0.1255
 8012SOL    HW125477   2.412   1.747   5.808 -1.1330  1.0903  0.9548
 8012SOL    HW225478   2.335   1.635   5.741  1.1684 -0.4555  0.7525
 8013SOL     OW25479   3.647   1.480   4.216 -0.4054  0.5941  0.3224
 8013SOL    HW125480   3.574   1.437   4.261  0.0810 -1.9927 -1.1553
 8013SOL    HW225481   3.606   1.541   4.155 -1.2046  0.7515  0.9961
 8014SOL     OW25482   2.603   4.750   5.368  0.2560 -0.1953 -0.4522
 8014SOL    HW125483   2.652   4.725   5.290 -0.0065 -0.9263 -0.3930
 8014SOL    HW225484   2.667   4.749   5.439 -0.0218 -2.2498 -0.1657
 8015SOL     OW25485   3.288   3.208   7.158  0.1239 -0.1397 -0.3039
 8015SOL    HW125486   3.270   3.181   7.068  1.2324 -1.7300 -0.0792
 8015SOL    HW225487   3.367   3.262   7.151 -0.3773  0.6110 -0.3783
 8016SOL     OW25488   2.214   3.773   3.587  0.0421 -0.1740  0.0823
 8016SOL    HW125489   2.267   3.750   3.663  0.1428  1.1966  0.4485
 8016SOL    HW225490   2.265   3.743   3.512  0.6981 -0.0882  0.4899
 8017SOL     OW25491   3.135   3.089   4.111 -0.4768  0.5969  0.0431
 8017SOL    HW125492   3.210   3.135   4.149 -1.3454  1.2282  1.0442
 8017SOL    HW225493   3.062   3.151   4.119 -1.5730 -0.7570  0.9897
 8018SOL     OW25494   1.238   4.725   5.561  0.0942  0.5167 -0.0061
 8018SOL    HW125495   1.179   4.733   5.486  0.0156 -1.1015 -0.1406
 8018SOL    HW225496   1.197   4.778   5.629 -2.3151 -1.6707  0.3713
 8019SOL     OW25497   2.007   3.993   5.218 -0.0414  0.7008  0.8598
 8019SOL    HW125498   2.025   4.020   5.128 -1.0274  3.9874  1.5258
 8019SOL    HW225499   2.091   3.960   5.250  1.0522  2.0721 -0.4529
 8020SOL     OW25500   3.810   1.805   4.527  0.4863 -0.0442  0.3243
 8020SOL    HW125501   3.800   1.893   4.491  3.6744  0.5025  0.4877
 8020SOL    HW225502   3.840   1.752   4.453  1.2444 -0.3219  0.8165
 8021SOL     OW25503   0.955   3.577   4.099 -0.4680  0.5488  0.1400
 8021SOL    HW125504   0.982   3.580   4.007 -0.1525  0.2929  0.2245
 8021SOL    HW225505   0.887   3.645   4.106  0.0622  1.1120 -0.0946
 8022SOL     OW25506   3.972   4.067   4.183  0.5310 -0.2519  0.6172
 8022SOL    HW125507   4.030   4.139   4.161  1.6005 -1.8636 -2.3334
 8022SOL    HW225508   4.028   3.989   4.184 -1.2066 -1.6063 -0.4170
 8023SOL     OW25509   7.817   4.440   3.310 -0.5196 -0.3800  0.3471
 8023SOL    HW125510   7.851   4.389   3.236 -0.8972 -0.6839  0.3795
 8023SOL    HW225511   7.894   4.459   3.364 -0.2203 -0.0482 -0.1866
 8024SOL     OW25512   3.576   2.921   4.432 -0.4588 -0.7696  0.2384
 8024SOL    HW125513   3.558   3.010   4.462  1.1991 -1.0149  2.1932
 8024SOL    HW225514   3.591   2.930   4.338 -0.2523  1.0432  0.4148
 8025SOL     OW25515   2.257   2.714   5.609  0.1040  0.3401 -0.0119
 8025SOL    HW125516   2.234   2.762   5.689 -0.3496  0.8292 -0.4222
 8025SOL    HW225517   2.216   2.628   5.619 -1.3547  0.9500 -0.4079
 8026SOL     OW25518   2.394   4.030   4.252  0.2433  0.0582  0.0635
 8026SOL    HW125519   2.421   3.939   4.265  0.7035 -0.0591 -1.5845
 8026SOL    HW225520   2.470   4.072   4.211 -0.2688  0.9861  0.0460
 8027SOL     OW25521   2.031   3.881   4.913 -0.8837 -0.2387 -0.2687
 8027SOL    HW125522   2.087   3.932   4.855 -0.9243 -0.4956 -0.5366
 8027SOL    HW225523   2.088   3.812   4.947 -0.8975 -0.1766 -0.1230
 8028SOL     OW25524   3.022   0.182   2.914 -0.2399  0.1116  0.0964
 8028SOL    HW125525   3.084   0.151   2.980 -0.1684  0.0843  0.0169
 8028SOL    HW225526   2.992   0.103   2.868 -1.5502 -0.0533  1.1773
 8029SOL     OW25527   2.428   1.512   4.005 -0.1714  0.2303  0.0276
 8029SOL    HW125528   2.456   1.566   3.932  2.3057 -0.8322  0.0787
 8029SOL    HW225529   2.363   1.565   4.051 -1.1987  1.2558 -2.4250
 8030SOL     OW25530   3.701   2.741   5.092  0.6422 -0.0878  0.0083
 8030SOL    HW125531   3.796   2.754   5.096  0.7136  0.2297 -1.7831
 8030SOL    HW225532   3.667   2.824   5.057 -0.5204  0.4446  2.1991
 8031SOL     OW25533   0.078   2.659   4.762 -0.0849  0.2625  0.4358
 8031SOL    HW125534   0.036   2.729   4.811  0.2795  0.3972  0.5563
 8031SOL    HW225535   0.013   2.633   4.697 -0.5360  0.1469  0.9268
 8032SOL     OW25536   2.435   4.107   5.458 -0.2004  0.1019  0.0201
 8032SOL    HW125537   2.526   4.087   5.480 -0.1345  1.7694  1.5029
 8032SOL    HW225538   2.428   4.086   5.365  0.9427 -2.5440  0.4320
 8033SOL     OW25539   3.665   3.656   4.388 -0.3167 -0.7794 -0.3424
 8033SOL    HW125540   3.691   3.610   4.307 -1.6545 -1.4584 -0.4084
 8033SOL    HW225541   3.723   3.620   4.455  0.6355 -0.3999 -0.9287
 8034SOL     OW25542   3.369   1.977   4.883  0.0668  0.4590  0.3591
 8034SOL    HW125543   3.415   2.050   4.924  0.5986  0.4645 -0.2333
 8034SOL    HW225544   3.302   2.018   4.829 -0.4555  0.4595  0.9885
 8035SOL     OW25545   3.397   2.513   3.598 -0.0873 -0.7495  0.3573
 8035SOL    HW125546   3.380   2.470   3.681 -0.5355 -2.9422 -0.7905
 8035SOL    HW225547   3.470   2.463   3.559 -1.0870 -0.9913 -1.3347
 8036SOL     OW25548   2.862   3.015   5.085 -0.1468 -0.2557 -0.2607
 8036SOL    HW125549   2.897   2.975   5.005  1.0217 -0.2068  0.2064
 8036SOL    HW225550   2.938   3.057   5.127 -0.7814 -0.0640  0.7436
 8037SOL     OW25551   1.763   1.527   4.572 -0.3873 -0.5441  0.1228
 8037SOL    HW125552   1.775   1.439   4.536 -3.0419 -0.6420 -0.7412
 8037SOL    HW225553   1.679   1.523   4.617 -0.6132  1.5599 -0.0141
 8038SOL     OW25554   1.896   2.996   6.289  0.3607 -0.0911  0.2979
 8038SOL    HW125555   1.966   3.052   6.323 -0.9031  1.2256  0.8187
 8038SOL    HW225556   1.934   2.908   6.289  1.4286  0.3093  2.2859
 8039SOL     OW25557   1.181   3.171   6.631 -0.8059  0.7542 -0.7010
 8039SOL    HW125558   1.223   3.096   6.588 -0.2979  0.7434 -0.2002
 8039SOL    HW225559   1.143   3.134   6.711  0.4547  1.2174  0.1524
 8040SOL     OW25560   2.564   1.749   5.917 -0.5738 -0.1054  0.4732
 8040SOL    HW125561   2.600   1.802   5.846 -1.9104 -0.6456 -0.6564
 8040SOL    HW225562   2.640   1.707   5.956  0.4359  1.9852  0.8812
 8041SOL     OW25563   3.861   2.716   5.939  0.2307  0.6868 -0.0628
 8041SOL    HW125564   3.916   2.714   5.861  0.0318  1.0417 -0.2114
 8041SOL    HW225565   3.880   2.799   5.981  0.0763  0.6526  0.0789
 8042SOL     OW25566   2.717   4.693   4.755  0.2745 -0.3984  0.0464
 8042SOL    HW125567   2.761   4.673   4.672  0.1143 -1.4520  0.2091
 8042SOL    HW225568   2.639   4.742   4.729  0.2306 -0.7167 -0.4280
 8043SOL     OW25569   0.958   2.905   6.122  0.1192  0.4535 -0.0250
 8043SOL    HW125570   0.974   2.834   6.061  0.4763  2.8792 -2.9907
 8043SOL    HW225571   1.038   2.957   6.121  0.4793  0.1906  3.2621
 8044SOL     OW25572   2.336   1.677   3.634  0.3011 -0.0367 -0.4857
 8044SOL    HW125573   2.316   1.641   3.548 -0.7437 -0.6482 -0.0181
 8044SOL    HW225574   2.261   1.734   3.655  1.1835  1.1717 -0.5395
 8045SOL     OW25575   3.412   1.353   5.510  1.0937  0.4366  0.0200
 8045SOL    HW125576   3.454   1.315   5.588  0.0968  1.0251  0.8738
 8045SOL    HW225577   3.458   1.435   5.495  1.1701  0.4087  0.1003
 8046SOL     OW25578   4.810   1.282   4.361  0.5337 -0.0772 -0.2894
 8046SOL    HW125579   4.727   1.330   4.367  1.0670  0.6809  1.3264
 8046SOL    HW225580   4.840   1.273   4.451  0.7945 -2.9106 -0.5473
 8047SOL     OW25581   2.246   2.358   4.082  0.4892  0.4730 -0.3634
 8047SOL    HW125582   2.321   2.358   4.023 -0.7392 -1.3520 -2.0179
 8047SOL    HW225583   2.210   2.447   4.074  1.1644  0.6854 -1.2731
 8048SOL     OW25584   3.392   3.558   4.444  0.1339 -0.1691 -0.5950
 8048SOL    HW125585   3.479   3.598   4.443 -0.1861  0.5202 -0.9099
 8048SOL    HW225586   3.365   3.557   4.352 -0.7493  0.8560 -0.3614
 8049SOL     OW25587   1.905   2.942   4.095  0.0195 -0.1831  0.1051
 8049SOL    HW125588   1.934   3.016   4.041  1.1886 -0.5864  0.1370
 8049SOL    HW225589   1.949   2.866   4.056  0.7371 -0.5163  1.4965
 8050SOL     OW25590   4.439   2.953   5.246  0.0913 -0.0461 -0.5863
 8050SOL    HW125591   4.431   2.997   5.161  2.8451  2.9810  0.4971
 8050SOL    HW225592   4.412   3.020   5.310  0.1469 -1.5020  1.0232
 8051SOL     OW25593   7.869   2.790   7.121 -0.5009 -0.0145  0.1422
 8051SOL    HW125594   7.890   2.704   7.085 -1.5097 -0.7020  1.1592
 8051SOL    HW225595   7.834   2.839   7.046 -0.7554 -0.7825 -0.2517
 8052SOL     OW25596   3.108   3.073   5.210 -0.3840  0.3685 -0.9136
 8052SOL    HW125597   3.178   3.117   5.162 -0.3599  0.6428 -0.6274
 8052SOL    HW225598   3.126   3.091   5.302  0.2508 -1.1528 -0.7045
 8053SOL     OW25599   0.835   4.006   6.638 -0.1337  0.6588 -0.6284
 8053SOL    HW125600   0.895   3.999   6.564  1.4576  2.1851  0.4458
 8053SOL    HW225601   0.854   3.929   6.691 -1.1077 -0.3121 -1.6439
 8054SOL     OW25602   2.810   4.301   3.735  0.0293 -0.2122  0.0375
 8054SOL    HW125603   2.851   4.219   3.709  1.5919  0.2471  0.9435
 8054SOL    HW225604   2.881   4.354   3.770 -1.1404  1.1062  0.5250
 8055SOL     OW25605   2.440   1.613   5.452 -0.6096  0.0225 -0.3116
 8055SOL    HW125606   2.385   1.688   5.472  1.6566  1.6876  0.0752
 8055SOL    HW225607   2.513   1.649   5.402  1.3261 -1.6308  1.1339
 8056SOL     OW25608   1.463   4.828   4.817 -0.5141  0.5195 -0.1351
 8056SOL    HW125609   1.499   4.807   4.731 -0.2281  1.9015 -0.3729
 8056SOL    HW225610   1.519   4.780   4.878 -0.2990  0.0692 -0.6750
 8057SOL     OW25611   3.164   6.343   5.399  0.3296  0.0653  0.1648
 8057SOL    HW125612   3.175   6.438   5.403 -0.6307  0.2301 -0.5638
 8057SOL    HW225613   3.084   6.326   5.450 -0.6712 -0.0840 -1.3856
 8058SOL     OW25614   2.266   2.090   6.166 -0.0472  0.1690 -0.1756
 8058SOL    HW125615   2.285   2.158   6.231 -0.1567  0.4982 -0.4894
 8058SOL    HW225616   2.341   2.030   6.172 -0.1324  0.1080  0.3661
 8059SOL     OW25617   2.464   4.597   6.824 -0.3418 -0.4427 -0.1776
 8059SOL    HW125618   2.555   4.568   6.832 -0.3399  0.1142  2.6689
 8059SOL    HW225619   2.425   4.581   6.910 -2.2922  1.4621 -0.6079
 8060SOL     OW25620   3.706   2.975   4.814  0.2742 -0.2955  0.1886
 8060SOL    HW125621   3.700   3.032   4.891  1.2145  0.5234 -0.3201
 8060SOL    HW225622   3.780   3.010   4.763 -0.4082 -0.7344 -1.1575
 8061SOL     OW25623   2.610   3.343   5.271  0.1414  0.1676 -0.2314
 8061SOL    HW125624   2.561   3.381   5.198 -0.1709  0.8621  0.3347
 8061SOL    HW225625   2.702   3.351   5.245 -0.0229 -1.6342 -1.5438
 8062SOL     OW25626   1.702   1.312   1.569  0.0472 -0.7612  0.1396
 8062SOL    HW125627   1.616   1.344   1.596  1.1574  1.4747  1.3087
 8062SOL    HW225628   1.764   1.373   1.609  2.1300 -1.3181 -2.0147
 8063SOL     OW25629   3.482   2.337   5.378 -0.3153  0.1949 -0.9101
 8063SOL    HW125630   3.547   2.316   5.445 -1.0008 -1.2927 -0.6870
 8063SOL    HW225631   3.526   2.402   5.323  0.5277  0.9015  0.5317
 8064SOL     OW25632   1.024   2.884   3.950  0.1331 -0.1835 -0.3272
 8064SOL    HW125633   1.000   2.798   3.915  0.3175  0.5006 -2.2362
 8064SOL    HW225634   0.942   2.921   3.983  0.3758 -1.8841  2.5218
 8065SOL     OW25635   3.186   1.350   5.860 -0.0448  0.0430 -0.0835
 8065SOL    HW125636   3.230   1.322   5.940  2.1751 -0.1223 -1.2762
 8065SOL    HW225637   3.135   1.274   5.832  1.1998 -0.7950 -0.1429
 8066SOL     OW25638   3.142   2.665   4.671 -0.1054 -0.7629 -0.1641
 8066SOL    HW125639   3.224   2.683   4.625  0.6274 -1.5137  0.7960
 8066SOL    HW225640   3.085   2.738   4.648  1.6223  1.0613  0.9665
 8067SOL     OW25641   2.706   2.558   5.699 -0.2696 -0.2627  0.7261
 8067SOL    HW125642   2.796   2.527   5.690 -0.5520 -1.4979  1.9228
 8067SOL    HW225643   2.693   2.615   5.623  1.2498 -0.7159  0.0925
 8068SOL     OW25644   2.616   4.086   3.813  0.6161  0.6279  0.4546
 8068SOL    HW125645   2.654   4.171   3.791  0.2294  0.6315 -0.2532
 8068SOL    HW225646   2.679   4.022   3.781  0.0141  0.6329 -0.7779
 8069SOL     OW25647   3.177   1.480   5.565  0.3978  0.3304  0.1610
 8069SOL    HW125648   3.197   1.464   5.658  0.7506  2.4419  0.5080
 8069SOL    HW225649   3.255   1.452   5.518 -0.6284 -3.0130  0.1423
 8070SOL     OW25650   3.130   1.444   4.198  0.4218  0.5350 -0.1652
 8070SOL    HW125651   3.158   1.453   4.107 -0.2958  1.4959 -0.3132
 8070SOL    HW225652   3.076   1.365   4.199 -0.6546  1.2271 -0.8829
 8071SOL     OW25653   4.612   2.064   6.717  0.0854  0.0116 -0.3700
 8071SOL    HW125654   4.655   2.015   6.787 -0.8538 -2.6778 -1.4935
 8071SOL    HW225655   4.651   2.029   6.637 -2.0497 -0.4389 -1.3064
 8072SOL     OW25656   4.079   1.749   5.921  0.3056  0.2498  0.3201
 8072SOL    HW125657   3.993   1.779   5.951  0.5203  0.8869  0.3230
 8072SOL    HW225658   4.141   1.792   5.981  0.7311  1.3431 -0.8552
 8073SOL     OW25659   2.090   3.909   3.363 -0.2003 -0.1054 -0.2495
 8073SOL    HW125660   2.004   3.934   3.398 -0.3131 -1.0099  0.1390
 8073SOL    HW225661   2.137   3.873   3.438  0.4112  0.1120 -0.5282
 8074SOL     OW25662   4.132   2.897   5.410  0.0903 -0.0312 -0.0189
 8074SOL    HW125663   4.058   2.927   5.358  0.8094  0.7270 -0.6551
 8074SOL    HW225664   4.198   2.967   5.399  0.7358 -0.4840  0.8570
 8075SOL     OW25665   3.105   3.446   4.373  0.0759 -0.1743  0.1722
 8075SOL    HW125666   3.182   3.390   4.358 -0.0583 -0.3367  0.0903
 8075SOL    HW225667   3.142   3.530   4.401  0.4494  0.6147 -2.3946
 8076SOL     OW25668   1.417   1.918   2.913  0.4240  0.3919  0.1065
 8076SOL    HW125669   1.484   1.964   2.862  0.1337 -0.7232 -1.3255
 8076SOL    HW225670   1.376   1.986   2.966  0.4917  1.6776 -1.4238
 8077SOL     OW25671   0.923   3.334   5.038 -0.0316 -0.2436  0.0085
 8077SOL    HW125672   0.926   3.423   5.002  0.7511 -0.3614 -0.2286
 8077SOL    HW225673   0.890   3.280   4.966  1.2576 -0.4321 -0.4668
 8078SOL     OW25674   3.839   0.818   4.419 -0.6973  0.4275 -0.1215
 8078SOL    HW125675   3.896   0.862   4.356 -0.2811  2.3506  1.4855
 8078SOL    HW225676   3.884   0.829   4.503 -2.5805  0.4817  0.9340
 8079SOL     OW25677   2.477   3.458   5.045 -0.0393 -0.3918 -0.9989
 8079SOL    HW125678   2.552   3.503   5.005 -0.0532 -1.4375 -2.2568
 8079SOL    HW225679   2.430   3.420   4.971 -2.1461  0.7002 -0.2885
 8080SOL     OW25680   4.753   2.335   7.229 -0.4271  0.1685  0.7481
 8080SOL    HW125681   4.815   2.395   7.187  0.5659 -0.5424  1.1402
 8080SOL    HW225682   4.667   2.373   7.212  0.1176  1.2301  0.2448
 8081SOL     OW25683   1.878   5.193   5.692  0.0810 -0.0550  0.4309
 8081SOL    HW125684   1.914   5.106   5.677  2.1512  0.8723 -0.3319
 8081SOL    HW225685   1.901   5.213   5.783  1.8216  0.6414 -0.1352
 8082SOL     OW25686   4.623   2.232   4.618 -0.6734 -0.1917  0.0670
 8082SOL    HW125687   4.635   2.151   4.570 -1.3743  0.3448 -1.0653
 8082SOL    HW225688   4.537   2.264   4.590 -0.7415  0.5564  1.0699
 8083SOL     OW25689   4.700   0.474   3.948 -0.2473 -0.5115  0.3311
 8083SOL    HW125690   4.744   0.461   4.032  1.3905 -3.0277 -0.7899
 8083SOL    HW225691   4.675   0.386   3.921  2.8714 -0.4511 -3.5856
 8084SOL     OW25692   1.890   4.569   4.376  0.2811 -0.2703  0.2003
 8084SOL    HW125693   1.979   4.535   4.380  1.1347  1.7948  0.0032
 8084SOL    HW225694   1.885   4.632   4.447  0.2737  2.3662 -1.9644
 8085SOL     OW25695   4.112   3.422   4.627 -0.6495  0.9778 -0.0014
 8085SOL    HW125696   4.116   3.355   4.559  1.0343  0.6888  0.3488
 8085SOL    HW225697   4.173   3.490   4.599  1.3637  0.0835  1.9667
 8086SOL     OW25698   2.461   2.890   4.142  0.1680 -0.5586 -0.2292
 8086SOL    HW125699   2.523   2.907   4.213  0.7196 -0.7384 -0.6617
 8086SOL    HW225700   2.376   2.883   4.186 -0.0880  2.8610  0.0401
 8087SOL     OW25701   3.463   0.607   5.416  0.3451 -0.2332  0.2290
 8087SOL    HW125702   3.517   0.685   5.430  1.3182 -0.7379 -0.5405
 8087SOL    HW225703   3.520   0.534   5.441 -0.3749 -0.7266  0.4518
 8088SOL     OW25704   3.049   2.201   3.216 -0.1061 -0.3453 -0.6750
 8088SOL    HW125705   3.064   2.290   3.183 -0.3556 -0.3062 -0.6865
 8088SOL    HW225706   3.116   2.189   3.283 -0.0888 -0.1369 -0.6530
 8089SOL     OW25707   1.104   3.170   6.310 -0.1796 -0.3076 -0.5248
 8089SOL    HW125708   1.156   3.245   6.340 -0.1668  0.2080 -1.7722
 8089SOL    HW225709   1.013   3.194   6.329 -0.1718 -0.0003 -0.8776
 8090SOL     OW25710   3.997   2.500   5.238 -0.1871 -0.0388 -0.1709
 8090SOL    HW125711   4.071   2.522   5.295 -1.6737  1.1315  1.3890
 8090SOL    HW225712   4.025   2.528   5.151  0.9900  0.9101  0.4873
 8091SOL     OW25713   2.532   2.011   5.156  0.3580 -0.1166  0.2343
 8091SOL    HW125714   2.478   2.089   5.169  0.6585  0.1934 -0.3620
 8091SOL    HW225715   2.471   1.938   5.169  0.3095  0.1749  1.8688
 8092SOL     OW25716   0.815   3.647   5.588 -0.4043 -0.2592  0.1552
 8092SOL    HW125717   0.759   3.709   5.636  1.0524  0.5177  0.9116
 8092SOL    HW225718   0.775   3.642   5.501 -2.2552 -0.5584  0.9704
 8093SOL     OW25719   3.765   1.318   3.648  0.1493 -0.2072  0.1265
 8093SOL    HW125720   3.773   1.248   3.582 -0.4203 -0.2240  0.0718
 8093SOL    HW225721   3.813   1.391   3.611  1.1181 -0.7049  0.3725
 8094SOL     OW25722   1.139   2.666   5.064  0.3815  0.6208  0.2988
 8094SOL    HW125723   1.055   2.624   5.047  0.8303  0.4317 -1.6413
 8094SOL    HW225724   1.131   2.754   5.027  1.3634  0.2349 -0.9147
 8095SOL     OW25725   2.331   3.680   6.301  0.2890  0.2733  0.2022
 8095SOL    HW125726   2.283   3.640   6.228  0.8881  1.1834 -0.7146
 8095SOL    HW225727   2.363   3.605   6.351  1.8874 -0.5073 -1.8049
 8096SOL     OW25728   7.871   2.011   5.138  0.1146  0.1195 -0.1465
 8096SOL    HW125729   7.877   1.995   5.044  1.6931 -1.6342  0.1900
 8096SOL    HW225730   7.962   2.022   5.166 -0.2352 -0.5926  1.3580
 8097SOL     OW25731   2.607   4.145   5.092  0.3446  0.4753  0.0644
 8097SOL    HW125732   2.579   4.172   5.005 -2.0243 -0.4183  0.4985
 8097SOL    HW225733   2.620   4.051   5.086  1.8213  0.6234  0.3133
 8098SOL     OW25734   2.704   1.928   7.123  0.0954  0.2646  0.4442
 8098SOL    HW125735   2.737   1.852   7.075 -1.7961 -1.6730  2.0180
 8098SOL    HW225736   2.767   1.943   7.192  0.6104  0.3209 -0.0312
 8099SOL     OW25737   2.445   3.477   4.727 -0.4815  0.4665  0.1859
 8099SOL    HW125738   2.369   3.437   4.769  0.2147 -0.4884  0.5553
 8099SOL    HW225739   2.422   3.479   4.634 -0.4068 -1.1260  0.1072
 8100SOL     OW25740   2.228   0.720   6.144 -0.2116  0.9305  0.4491
 8100SOL    HW125741   2.142   0.725   6.186 -0.5971 -0.8480 -0.0571
 8100SOL    HW225742   2.214   0.666   6.066  1.4468  0.2188  0.5973
 8101SOL     OW25743   4.321   2.699   3.803 -0.1461 -0.1482 -0.1593
 8101SOL    HW125744   4.361   2.689   3.889  2.3643  3.1181 -0.7465
 8101SOL    HW225745   4.237   2.741   3.820 -0.1630 -0.5195  0.7396
 8102SOL     OW25746   2.361   4.022   5.142 -0.7482 -0.3600 -0.2048
 8102SOL    HW125747   2.451   4.051   5.154 -0.7430 -0.2623 -0.4896
 8102SOL    HW225748   2.317   4.096   5.101 -2.1717  1.6047  4.1852
 8103SOL     OW25749   3.672   3.019   3.329 -0.1503 -0.0385 -0.6618
 8103SOL    HW125750   3.610   3.092   3.317 -0.1369  0.1143  0.1780
 8103SOL    HW225751   3.757   3.062   3.332 -0.2920  0.1946  2.1280
 8104SOL     OW25752   3.705   1.582   5.218  0.6160 -0.3703  0.0492
 8104SOL    HW125753   3.780   1.637   5.242  0.9355 -0.0728 -1.5014
 8104SOL    HW225754   3.735   1.535   5.140 -0.9267  0.0043 -0.7999
 8105SOL     OW25755   4.203   1.703   7.089 -0.2657 -0.2832  0.7141
 8105SOL    HW125756   4.296   1.707   7.113 -0.3818  1.1264  1.0453
 8105SOL    HW225757   4.173   1.794   7.095 -1.2548 -0.4474 -1.0379
 8106SOL     OW25758   0.970   2.778   5.412 -0.2927 -0.8984  0.2261
 8106SOL    HW125759   0.927   2.789   5.496  1.7270  1.1041  1.1031
 8106SOL    HW225760   1.008   2.689   5.416 -1.3346 -1.3337  0.8431
 8107SOL     OW25761   3.369   1.732   5.593 -0.3297  0.3236  0.3306
 8107SOL    HW125762   3.338   1.691   5.674  0.4228 -0.5023  0.2291
 8107SOL    HW225763   3.291   1.743   5.540 -0.9200  1.3558  1.3537
 8108SOL     OW25764   2.707   1.814   6.352  0.1470  0.0347 -0.1884
 8108SOL    HW125765   2.777   1.849   6.298  0.3340 -2.0184 -1.3954
 8108SOL    HW225766   2.731   1.839   6.441  1.1528  1.3628 -0.7951
 8109SOL     OW25767   2.654   2.677   5.455  0.0582  0.1686  0.2676
 8109SOL    HW125768   2.654   2.627   5.374  3.0607 -0.9262  0.8161
 8109SOL    HW225769   2.713   2.751   5.437 -0.0925  0.5035  1.1144
 8110SOL     OW25770   3.598   1.693   3.738  0.5324  0.4037 -0.4590
 8110SOL    HW125771   3.676   1.696   3.682 -0.0549  3.0327 -1.2937
 8110SOL    HW225772   3.542   1.627   3.697  2.1290 -1.3296 -0.0120
 8111SOL     OW25773   1.551   2.127   4.156  0.0250 -0.4210 -0.8847
 8111SOL    HW125774   1.539   2.165   4.243 -1.1069 -0.0947 -1.1729
 8111SOL    HW225775   1.625   2.067   4.167  1.4114  1.2944 -0.2447
 8112SOL     OW25776   3.396   2.601   5.632 -0.2987 -0.2905  0.0683
 8112SOL    HW125777   3.399   2.555   5.716 -1.4269  1.9965  1.4420
 8112SOL    HW225778   3.303   2.620   5.619  0.2422  3.4605  0.7366
 8113SOL     OW25779   4.491   0.406   5.235  0.5145 -0.2172  0.0904
 8113SOL    HW125780   4.400   0.435   5.245  1.2462  1.8839  1.4981
 8113SOL    HW225781   4.490   0.313   5.256 -1.1177  0.0697  1.4614
 8114SOL     OW25782   3.732   2.709   4.708 -0.6902  0.2552  0.1430
 8114SOL    HW125783   3.774   2.753   4.634 -1.5314  0.2111 -0.3755
 8114SOL    HW225784   3.718   2.779   4.772 -3.1575  1.1007 -1.1705
 8115SOL     OW25785   4.018   2.355   3.536 -0.0881  0.1747 -0.2373
 8115SOL    HW125786   4.021   2.323   3.627  3.0396  1.6532  0.3092
 8115SOL    HW225787   3.926   2.379   3.522 -0.8752 -1.1061  2.1274
 8116SOL     OW25788   4.840   0.980   4.252  0.2041 -0.4458  0.7945
 8116SOL    HW125789   4.821   1.065   4.214 -2.4475 -1.0789  0.4889
 8116SOL    HW225790   4.928   0.959   4.222  0.1289  1.2929 -0.7958
 8117SOL     OW25791   2.971   2.860   4.572 -0.2758 -0.0631 -0.0881
 8117SOL    HW125792   2.986   2.945   4.530  0.3750  0.1397  0.5289
 8117SOL    HW225793   2.946   2.802   4.500  1.2555  0.1620 -0.8458
 8118SOL     OW25794   4.304   3.526   5.338  0.2875 -0.2389 -0.1337
 8118SOL    HW125795   4.355   3.606   5.323 -0.2416  0.4798  1.6304
 8118SOL    HW225796   4.291   3.489   5.251  1.0193  1.3060 -0.9354
 8119SOL     OW25797   5.553   1.913   5.966 -0.1685  0.6189  0.4719
 8119SOL    HW125798   5.600   1.904   6.048 -1.2480  1.1211  1.1608
 8119SOL    HW225799   5.528   2.005   5.961 -0.3705  0.5374 -0.2798
 8120SOL     OW25800   4.029   2.154   4.536 -0.0150 -0.2698  0.2252
 8120SOL    HW125801   4.047   2.075   4.587 -0.5228 -0.8259 -0.4391
 8120SOL    HW225802   3.942   2.182   4.566 -0.2327 -0.4921 -0.1908
 8121SOL     OW25803   2.754   4.506   4.944 -0.3607  0.4667  0.5295
 8121SOL    HW125804   2.752   4.565   4.869 -0.1803  0.0425  0.1864
 8121SOL    HW225805   2.847   4.491   4.961 -0.3536 -1.7135 -0.9953
 8122SOL     OW25806   2.879   1.958   6.194 -0.4946 -0.1939  0.0283
 8122SOL    HW125807   2.961   2.006   6.208 -0.3656 -0.2087 -0.6377
 8122SOL    HW225808   2.812   2.027   6.188 -0.6285 -0.2096  1.1561
 8123SOL     OW25809   2.016   1.300   2.300  0.2256  0.6531 -0.4016
 8123SOL    HW125810   2.027   1.242   2.224 -0.5061  1.3018 -1.0182
 8123SOL    HW225811   2.085   1.273   2.360 -0.4868 -1.3176 -0.3747
 8124SOL     OW25812   2.338   1.582   4.407  0.1755  0.2217  0.0622
 8124SOL    HW125813   2.300   1.588   4.319  0.7353 -0.8511 -0.2756
 8124SOL    HW225814   2.287   1.515   4.451 -0.0381  0.6861  0.5282
 8125SOL     OW25815   1.896   0.918   2.969 -0.0726  0.4166 -0.0519
 8125SOL    HW125816   1.905   1.008   2.939 -0.4750  0.8038  0.9373
 8125SOL    HW225817   1.867   0.869   2.892  0.0681  1.1448 -0.5737
 8126SOL     OW25818   3.472   2.452   7.901  0.1662  0.1936  0.4556
 8126SOL    HW125819   3.529   2.486   7.970  2.2213 -0.5994 -0.7574
 8126SOL    HW225820   3.507   2.490   7.820 -2.1037  0.9979 -0.2265
 8127SOL     OW25821   2.910   2.262   3.636  0.0502  0.0036 -0.0761
 8127SOL    HW125822   2.873   2.257   3.547  0.5840 -0.0571 -0.2953
 8127SOL    HW225823   2.971   2.336   3.632  1.2477 -0.9748 -0.1981
 8128SOL     OW25824   1.968   3.494   4.603  1.1930  0.0134 -0.5257
 8128SOL    HW125825   1.998   3.403   4.599  0.7911 -0.1384 -0.1238
 8128SOL    HW225826   2.027   3.536   4.666  0.8344 -0.1823 -0.0552
 8129SOL     OW25827   3.309   4.185   3.510  0.1780 -0.0808 -0.5909
 8129SOL    HW125828   3.332   4.101   3.549  0.5081 -0.1591 -0.9436
 8129SOL    HW225829   3.280   4.163   3.421  2.6190  0.3766 -1.5644
 8130SOL     OW25830   2.431   3.404   5.716  0.0327 -0.2019 -0.6187
 8130SOL    HW125831   2.467   3.490   5.696  3.1713 -0.9926  0.8643
 8130SOL    HW225832   2.381   3.417   5.797  0.6080  0.2473 -0.3219
 8131SOL     OW25833   2.033   3.568   5.085  0.2896  0.5147 -0.0867
 8131SOL    HW125834   2.100   3.589   5.150  2.1760 -1.3524 -1.3020
 8131SOL    HW225835   2.012   3.476   5.100 -2.7905  1.2629  0.8491
 8132SOL     OW25836   2.205   2.017   7.179 -0.3358 -0.3578  0.8043
 8132SOL    HW125837   2.192   2.053   7.266  1.0321 -0.1089  0.9360
 8132SOL    HW225838   2.298   1.995   7.176 -0.3610 -0.3794 -0.5869
 8133SOL     OW25839   3.329   3.427   4.678 -0.1694 -0.0294  0.2018
 8133SOL    HW125840   3.361   3.503   4.728  0.8520  0.0728 -0.5812
 8133SOL    HW225841   3.351   3.447   4.587 -0.6477 -0.8919 -0.1112
 8134SOL     OW25842   2.513   7.978   4.262  0.0009 -0.9693  0.3105
 8134SOL    HW125843   2.568   8.004   4.189 -2.4980 -0.3321 -1.4702
 8134SOL    HW225844   2.573   7.971   4.336  2.2153  1.0553 -1.1527
 8135SOL     OW25845   3.176   2.874   4.271  0.4816  0.1552  0.0140
 8135SOL    HW125846   3.232   2.923   4.331  1.7473 -0.3893 -0.6816
 8135SOL    HW225847   3.133   2.942   4.217  0.3619  0.5795  0.6378
 8136SOL     OW25848   2.127   3.205   6.597  0.0881  0.2238  0.0589
 8136SOL    HW125849   2.074   3.149   6.654  1.9290 -1.1030  0.5235
 8136SOL    HW225850   2.149   3.280   6.651  1.9088 -1.0742  1.2121
 8137SOL     OW25851   3.346   2.814   5.318  0.1104 -0.8647  0.0299
 8137SOL    HW125852   3.421   2.769   5.358  0.3201  0.4335  1.1879
 8137SOL    HW225853   3.384   2.869   5.250  0.2782 -0.0404  0.7616
 8138SOL     OW25854   2.998   3.099   4.445 -0.1072 -0.2402  0.3186
 8138SOL    HW125855   2.989   3.135   4.357  0.4083  0.2603  0.4704
 8138SOL    HW225856   3.092   3.086   4.457 -0.1687 -0.2741  0.8060
 8139SOL     OW25857   3.872   1.361   3.255 -0.1363 -0.7346  0.2960
 8139SOL    HW125858   3.943   1.424   3.243 -1.1258  0.7203  1.7536
 8139SOL    HW225859   3.917   1.278   3.274  1.1772 -0.0023  0.5321
 8140SOL     OW25860   3.532   0.068   4.410  0.2737 -0.3834 -0.4297
 8140SOL    HW125861   3.492   0.146   4.373  1.2919 -0.5023 -1.8777
 8140SOL    HW225862   3.569   0.098   4.494  1.0599  0.8387 -1.1683
 8141SOL     OW25863   2.867   3.332   5.184  0.6728  0.5105 -0.2712
 8141SOL    HW125864   2.874   3.327   5.089  0.6691 -1.2700 -0.2010
 8141SOL    HW225865   2.941   3.280   5.216 -0.0807 -0.0003  0.6734
 8142SOL     OW25866   3.389   2.059   4.531  0.5253  0.0352 -0.3531
 8142SOL    HW125867   3.327   2.128   4.507 -0.0406 -0.3048  0.1158
 8142SOL    HW225868   3.433   2.093   4.610  1.1562  0.4045 -0.8551
 8143SOL     OW25869   3.599   3.768   4.051  0.3154  0.1775  0.4127
 8143SOL    HW125870   3.653   3.845   4.034 -0.2044  0.6700  0.9332
 8143SOL    HW225871   3.630   3.735   4.135  1.4577 -1.0111 -0.4178
 8144SOL     OW25872   4.268   3.176   5.325  0.0292 -0.3557  0.2103
 8144SOL    HW125873   4.335   3.245   5.332  1.2576 -1.6838  3.2896
 8144SOL    HW225874   4.186   3.224   5.318  1.0161  1.3941 -0.1228
 8145SOL     OW25875   1.350   3.968   4.799  0.0275 -0.0886  0.7379
 8145SOL    HW125876   1.375   3.976   4.707 -1.4555  2.3105  0.4555
 8145SOL    HW225877   1.298   3.887   4.803  0.1609 -0.2526 -0.5232
 8146SOL     OW25878   1.551   3.302   6.044  0.2996 -0.1415 -0.1532
 8146SOL    HW125879   1.645   3.294   6.060  0.0782  0.3306  1.5827
 8146SOL    HW225880   1.544   3.369   5.975  1.2512 -0.9204 -1.0380
 8147SOL     OW25881   5.308   2.356   3.710  0.5020  0.2275 -0.2718
 8147SOL    HW125882   5.346   2.354   3.622  0.5013 -0.9755 -0.2598
 8147SOL    HW225883   5.238   2.291   3.708 -0.9208  1.6802  0.0177
 8148SOL     OW25884   4.398   2.904   4.665 -0.1729  0.2179  0.2199
 8148SOL    HW125885   4.355   2.982   4.629  0.8440  1.9467  2.4719
 8148SOL    HW225886   4.460   2.939   4.729  0.6737 -2.4596  0.9849
 8149SOL     OW25887   2.335   4.033   3.823 -0.1029 -0.1285  0.0253
 8149SOL    HW125888   2.318   4.117   3.864  0.0922  0.1496 -0.4441
 8149SOL    HW225889   2.429   4.035   3.802 -0.1040 -0.4442 -0.0244
 8150SOL     OW25890   3.362   2.974   4.772  0.3010  0.6402 -0.1172
 8150SOL    HW125891   3.299   3.039   4.804 -0.6975 -0.5632  0.4635
 8150SOL    HW225892   3.445   3.021   4.768 -0.0757  1.5647  1.7680
 8151SOL     OW25893   2.677   1.670   5.305 -0.8527 -0.0792  0.4847
 8151SOL    HW125894   2.711   1.745   5.354 -0.6823 -0.4373  0.9232
 8151SOL    HW225895   2.701   1.687   5.214 -1.6969  0.9002  0.4238
 8152SOL     OW25896   3.656   2.523   3.358  0.3460  0.5603  0.2760
 8152SOL    HW125897   3.684   2.514   3.266 -0.3156  0.3866  0.0850
 8152SOL    HW225898   3.704   2.599   3.390  0.2812  0.8705 -0.3422
 8153SOL     OW25899   3.642   3.644   5.090  0.3278  0.1238  0.1408
 8153SOL    HW125900   3.567   3.588   5.073  0.2716  0.4137 -0.6008
 8153SOL    HW225901   3.704   3.588   5.136  0.4658 -0.7065 -1.0071
 8154SOL     OW25902   3.870   3.354   4.369  0.2033  0.8834 -0.1510
 8154SOL    HW125903   3.951   3.303   4.366 -0.9657 -1.0396 -1.1310
 8154SOL    HW225904   3.825   3.324   4.448  0.2964  1.7329  0.2340
 8155SOL     OW25905   0.194   1.482   4.914 -0.5734  0.4479  0.2895
 8155SOL    HW125906   0.101   1.458   4.915 -0.3460 -0.5108 -0.5241
 8155SOL    HW225907   0.218   1.483   4.821 -0.1028  2.1064  0.3877
 8156SOL     OW25908   3.688   1.612   4.680  0.3386 -0.1041  0.3002
 8156SOL    HW125909   3.697   1.647   4.769  0.3891  0.9329 -0.0896
 8156SOL    HW225910   3.734   1.676   4.625  0.0497 -0.5740 -0.5002
 8157SOL     OW25911   4.215   2.727   4.755  0.2402 -0.0038 -0.1130
 8157SOL    HW125912   4.272   2.788   4.710 -0.3618  1.1007  0.5898
 8157SOL    HW225913   4.157   2.692   4.687 -1.2794  2.3386 -0.1146
 8158SOL     OW25914   0.046   3.240   5.844  0.1533  0.1268 -0.5063
 8158SOL    HW125915   0.033   3.219   5.752  0.8330 -0.7109 -0.4216
 8158SOL    HW225916   0.138   3.218   5.861 -0.3677 -1.2934  0.7572
 8159SOL     OW25917   2.800   4.352   3.007  0.2325  0.1449 -0.0283
 8159SOL    HW125918   2.865   4.283   3.019  0.9055  0.9150  0.8402
 8159SOL    HW225919   2.830   4.424   3.062 -0.0189  1.4459 -1.5334
 8160SOL     OW25920   3.946   2.240   4.164  0.2583  1.0433  0.6002
 8160SOL    HW125921   3.984   2.316   4.208 -0.7833  0.6914  2.1613
 8160SOL    HW225922   3.855   2.239   4.192  0.5110 -1.4138  1.5375
 8161SOL     OW25923   0.897   4.703   3.608  0.0427 -0.4563 -0.5492
 8161SOL    HW125924   0.951   4.760   3.554 -0.7740  0.6132 -0.2664
 8161SOL    HW225925   0.958   4.663   3.671  0.2501  2.5643  1.3639
 8162SOL     OW25926   3.526   2.121   2.900 -0.5933  0.0098 -0.1535
 8162SOL    HW125927   3.442   2.136   2.944  0.6546  0.6288  2.1789
 8162SOL    HW225928   3.574   2.202   2.913  1.0372 -0.9689  0.0985
 8163SOL     OW25929   2.955   2.768   3.092  0.3228  0.0472 -0.1239
 8163SOL    HW125930   3.048   2.746   3.093 -0.2206 -2.9939 -1.8510
 8163SOL    HW225931   2.926   2.758   3.183  1.2446 -1.5095  0.0342
 8164SOL     OW25932   2.094   1.462   6.490  0.7304  0.6257 -0.8945
 8164SOL    HW125933   2.018   1.446   6.434 -0.2428 -1.5835  0.8941
 8164SOL    HW225934   2.157   1.395   6.465  0.9701  0.7066 -0.5247
 8165SOL     OW25935   2.781   2.331   5.274  0.3079  0.1446  0.4986
 8165SOL    HW125936   2.876   2.344   5.265 -0.0959  2.5122 -1.8220
 8165SOL    HW225937   2.756   2.285   5.194 -0.7620  1.8721 -0.2208
 8166SOL     OW25938   2.190   4.003   5.570  0.1501 -0.5996 -0.7051
 8166SOL    HW125939   2.141   4.084   5.584  0.1494 -0.8635  1.0702
 8166SOL    HW225940   2.277   4.032   5.542 -0.0425 -0.0061 -0.6971
 8167SOL     OW25941   3.847   2.530   5.659  0.3797  0.2450  0.1664
 8167SOL    HW125942   3.784   2.589   5.701  0.2949  1.1077 -1.1249
 8167SOL    HW225943   3.810   2.512   5.573  1.3981 -0.0468 -0.2236
 8168SOL     OW25944   1.745   1.799   3.895  0.0634  0.1479 -0.2135
 8168SOL    HW125945   1.837   1.784   3.873  0.4311  1.2442  0.4616
 8168SOL    HW225946   1.738   1.894   3.905 -0.7581 -0.0328  1.3198
 8169SOL     OW25947   3.755   3.324   5.078  0.4218  0.6060 -0.1730
 8169SOL    HW125948   3.671   3.365   5.098  0.2941  1.0138 -1.4993
 8169SOL    HW225949   3.817   3.367   5.137 -0.4027 -0.2461  1.3753
 8170SOL     OW25950   3.772   1.362   4.599 -0.4369 -0.0138  0.7802
 8170SOL    HW125951   3.697   1.344   4.543 -0.4910 -1.4317  1.2709
 8170SOL    HW225952   3.739   1.425   4.664 -0.3095  1.8200 -0.8541
 8171SOL     OW25953   2.562   3.577   4.166  0.1720 -0.3126 -0.5859
 8171SOL    HW125954   2.587   3.616   4.082  3.4995 -2.2904 -0.6982
 8171SOL    HW225955   2.565   3.649   4.228  0.2361  0.7004 -1.7276
 8172SOL     OW25956   1.007   2.633   5.712 -0.3123 -0.3427 -0.1710
 8172SOL    HW125957   1.024   2.695   5.783 -2.4439  0.4483 -0.2894
 8172SOL    HW225958   1.094   2.602   5.687  1.0286  3.4486 -0.8850
 8173SOL     OW25959   3.122   2.064   4.697  0.0996 -0.5776 -0.4673
 8173SOL    HW125960   3.157   2.125   4.632  1.1958 -0.9366 -0.2210
 8173SOL    HW225961   3.082   1.994   4.645 -2.8799  1.1885 -0.8128
 8174SOL     OW25962   7.709   2.993   4.206 -0.2606  0.4617  0.0489
 8174SOL    HW125963   7.654   3.049   4.152 -2.1159  0.0692  1.4581
 8174SOL    HW225964   7.777   3.052   4.240 -0.1123  1.0730 -1.2659
 8175SOL     OW25965   4.323   2.728   5.381 -0.0862 -0.6365  0.4833
 8175SOL    HW125966   4.366   2.792   5.324  0.1415 -0.2244  1.0970
 8175SOL    HW225967   4.242   2.771   5.408 -0.3651 -0.9775  0.1739
 8176SOL     OW25968   4.241   2.288   3.973 -0.0948  0.3321 -0.5148
 8176SOL    HW125969   4.312   2.316   3.916  0.2648 -0.4229 -0.4437
 8176SOL    HW225970   4.284   2.270   4.057 -0.0647 -1.7350 -0.9177
 8177SOL     OW25971   2.268   2.961   6.060  0.2133  0.3678 -0.2402
 8177SOL    HW125972   2.239   2.923   6.142  0.4227 -2.6507 -1.4319
 8177SOL    HW225973   2.347   3.010   6.083  2.3896 -3.3322  0.9994
 8178SOL     OW25974   5.240   1.624   6.841 -0.2585  0.5533  0.1464
 8178SOL    HW125975   5.293   1.622   6.921  0.7308 -0.9387 -0.5017
 8178SOL    HW225976   5.276   1.697   6.790 -0.8073  1.4263  0.9800
 8179SOL     OW25977   2.623   2.748   6.402 -0.3917 -0.2273 -0.4461
 8179SOL    HW125978   2.696   2.808   6.392 -0.2655 -0.4634 -0.9711
 8179SOL    HW225979   2.646   2.672   6.349  0.1435 -1.4056  1.3876
 8180SOL     OW25980   1.563   2.965   5.514 -0.1980  0.6293 -0.5294
 8180SOL    HW125981   1.516   3.043   5.485 -1.2043 -0.2980 -1.4920
 8180SOL    HW225982   1.647   2.970   5.469  0.4427  2.0128  0.7605
 8181SOL     OW25983   3.356   2.736   3.861 -0.4347  0.1003  0.5302
 8181SOL    HW125984   3.440   2.751   3.817 -0.1183 -1.2535  0.6179
 8181SOL    HW225985   3.371   2.765   3.951 -0.4508  1.0109  0.2415
 8182SOL     OW25986   4.140   2.582   6.074  0.3916  0.1314 -0.1913
 8182SOL    HW125987   4.072   2.559   6.011  0.1652 -0.6067  0.3099
 8182SOL    HW225988   4.194   2.646   6.028  1.1354 -1.4993 -1.7385
 8183SOL     OW25989   0.890   1.095   3.497  0.0314 -0.2871  0.2082
 8183SOL    HW125990   0.855   1.008   3.477 -0.7992  0.0646  0.0776
 8183SOL    HW225991   0.920   1.129   3.413 -1.8381  0.4858 -0.1951
 8184SOL     OW25992   3.907   4.014   5.117  0.4814 -0.4654  0.4876
 8184SOL    HW125993   3.865   4.096   5.145  1.2399  0.6331 -1.4085
 8184SOL    HW225994   3.994   4.041   5.087  0.2491 -1.7240 -1.4702
 8185SOL     OW25995   2.280   3.562   5.234 -0.1901 -0.0946  0.2613
 8185SOL    HW125996   2.254   3.524   5.318 -0.6813  0.9786  0.6236
 8185SOL    HW225997   2.320   3.490   5.186  0.1618 -0.7192  1.4423
 8186SOL     OW25998   2.549   2.332   4.237  0.2046 -0.2708  0.0207
 8186SOL    HW125999   2.543   2.237   4.228  1.1318 -0.5406  1.8413
 8186SOL    HW226000   2.525   2.349   4.328  0.0293  1.2494 -0.2884
 8187SOL     OW26001   1.272   1.682   6.330 -0.6996 -0.1508  0.2011
 8187SOL    HW126002   1.281   1.665   6.236 -0.8863 -0.8571  0.3002
 8187SOL    HW226003   1.212   1.757   6.335 -0.3437  0.1709 -0.2498
 8188SOL     OW26004   3.756   2.764   4.054 -0.0476 -0.3865  0.2266
 8188SOL    HW126005   3.852   2.771   4.060  0.0166 -1.4576  0.7246
 8188SOL    HW226006   3.724   2.820   4.125  0.1921  0.1882 -0.1089
 8189SOL     OW26007   3.600   1.872   5.596 -0.3102  0.5270  0.1751
 8189SOL    HW126008   3.519   1.824   5.579  0.4916 -0.8764  0.1501
 8189SOL    HW226009   3.581   1.925   5.673 -0.5301 -1.6209  1.6781
 8190SOL     OW26010   2.894   2.495   4.885 -0.0977  0.3270 -0.2086
 8190SOL    HW126011   2.954   2.474   4.813 -0.3838  1.6150 -0.8583
 8190SOL    HW226012   2.947   2.544   4.948 -0.1276  0.2374 -0.1138
 8191SOL     OW26013   1.363   1.670   6.060  0.3866 -0.1535 -0.2874
 8191SOL    HW126014   1.341   1.637   5.973  0.7980 -0.4274 -0.2914
 8191SOL    HW226015   1.413   1.750   6.043  0.7991 -0.4134 -0.3148
 8192SOL     OW26016   4.059   2.622   4.994  0.8026 -0.1901  0.0954
 8192SOL    HW126017   4.004   2.682   5.044  1.0453  0.2875 -0.2026
 8192SOL    HW226018   4.095   2.676   4.924  0.8699 -0.7371 -0.2899
 8193SOL     OW26019   2.045   2.314   5.211 -0.8078 -0.0929 -0.2998
 8193SOL    HW126020   2.116   2.367   5.175 -0.1684 -1.6887 -1.5306
 8193SOL    HW226021   1.965   2.358   5.182 -0.3138  0.5220 -0.7543
 8194SOL     OW26022   3.021   0.917   6.067 -0.2056 -0.2375  0.0358
 8194SOL    HW126023   3.015   0.930   6.162  0.1027 -2.1196  0.3704
 8194SOL    HW226024   3.042   0.824   6.058  1.3048  0.2321 -1.8464
 8195SOL     OW26025   2.100   2.851   5.007  0.6609  0.3697 -0.2168
 8195SOL    HW126026   2.176   2.879   4.956  0.7267  1.7004  0.5654
 8195SOL    HW226027   2.137   2.801   5.080  0.6842 -0.1401 -0.5767
 8196SOL     OW26028   2.752   2.475   4.122 -0.3814 -0.5802  0.5560
 8196SOL    HW126029   2.696   2.400   4.141 -0.8564 -0.0472  1.3111
 8196SOL    HW226030   2.695   2.537   4.077 -0.3561 -0.1103  1.1586
 8197SOL     OW26031   2.463   2.011   3.847 -0.0810 -0.0761  1.1981
 8197SOL    HW126032   2.520   2.051   3.781 -1.6218  0.0226 -0.1359
 8197SOL    HW226033   2.459   1.919   3.823  0.7943 -0.4195  2.2787
 8198SOL     OW26034   3.037   0.602   4.067 -0.0504  0.0793 -0.2139
 8198SOL    HW126035   3.058   0.510   4.048 -1.3141 -0.4523  0.8035
 8198SOL    HW226036   3.043   0.646   3.983  1.0636 -0.8251 -0.6368
 8199SOL     OW26037   3.957   1.282   3.876 -0.1436  0.0308  0.9231
 8199SOL    HW126038   3.993   1.366   3.906  3.0746  1.0937 -4.4734
 8199SOL    HW226039   3.890   1.307   3.812 -0.8402 -1.6392  0.9649
 8200SOL     OW26040   3.025   2.404   5.202  0.0809  0.0196  0.3756
 8200SOL    HW126041   3.110   2.399   5.245  0.8631 -0.8699 -1.1803
 8200SOL    HW226042   3.028   2.486   5.152  0.4338 -0.4789 -0.4443
 8201SOL     OW26043   2.628   3.862   2.837 -0.2497 -0.2113 -0.2395
 8201SOL    HW126044   2.556   3.816   2.882  0.1887 -1.1129 -0.4345
 8201SOL    HW226045   2.610   3.955   2.852 -1.1076 -0.4437  0.2555
 8202SOL     OW26046   0.714   2.874   5.556  0.0894  0.3082  0.0028
 8202SOL    HW126047   0.695   2.809   5.623 -0.3998 -1.8137 -2.0309
 8202SOL    HW226048   0.661   2.950   5.580 -1.0943 -0.8680  1.2999
 8203SOL     OW26049   2.245   0.739   7.361 -0.0062  0.0554 -0.2507
 8203SOL    HW126050   2.256   0.739   7.266 -1.8376 -0.8841 -0.5090
 8203SOL    HW226051   2.319   0.687   7.393 -0.7569 -1.8622 -1.4208
 8204SOL     OW26052   0.484   0.886   5.390 -0.1387 -0.3010  0.2014
 8204SOL    HW126053   0.549   0.947   5.356  0.0382 -0.0769  0.9118
 8204SOL    HW226054   0.470   0.915   5.481 -1.0881 -0.4599  0.1147
 8205SOL     OW26055   2.525   3.923   7.456  0.0203 -0.3524  0.3045
 8205SOL    HW126056   2.572   3.857   7.405 -0.5188 -0.7046  0.2590
 8205SOL    HW226057   2.550   4.006   7.416 -0.3502 -0.6179 -0.4989
 8206SOL     OW26058   4.962   1.324   6.265 -0.4792  0.2321 -0.4177
 8206SOL    HW126059   4.878   1.348   6.225 -0.9885 -1.8333 -0.7064
 8206SOL    HW226060   4.974   1.233   6.241  2.5765  0.8173 -1.5726
 8207SOL     OW26061   2.484   3.928   6.694 -0.3961 -0.0230  0.3398
 8207SOL    HW126062   2.555   3.877   6.655  0.3802  0.8934  0.5272
 8207SOL    HW226063   2.431   3.955   6.619  0.5304  0.8940 -0.0006
 8208SOL     OW26064   2.866   3.200   7.288  0.2051  0.2487 -0.2263
 8208SOL    HW126065   2.915   3.135   7.236 -0.0837 -0.5598  0.4838
 8208SOL    HW226066   2.927   3.225   7.357 -0.0141  0.0209  0.0506
 8209SOL     OW26067   2.962   2.605   6.863 -0.4212 -0.7201 -0.2196
 8209SOL    HW126068   2.969   2.663   6.788 -2.3001  1.0351  0.8735
 8209SOL    HW226069   2.943   2.519   6.825  0.9767 -0.3804 -1.8013
 8210SOL     OW26070   3.198   3.135   6.222  0.0710 -0.4358  0.7293
 8210SOL    HW126071   3.218   3.088   6.303  1.5584  1.3407  1.4611
 8210SOL    HW226072   3.275   3.121   6.167  0.1608  0.4382  0.6249
 8211SOL     OW26073   2.064   3.133   8.230  0.3832  0.0587 -0.2205
 8211SOL    HW126074   2.079   3.170   8.317  1.8217 -0.0226 -0.4028
 8211SOL    HW226075   2.096   3.201   8.170 -0.9091  0.2599 -0.7119
 8212SOL     OW26076   1.782   3.871   5.993  1.2188  0.3299  0.6082
 8212SOL    HW126077   1.772   3.918   5.911  0.4829 -0.5511  0.1716
 8212SOL    HW226078   1.839   3.797   5.972  0.0875 -0.5540  0.6042
 8213SOL     OW26079   4.227   7.563   6.463  0.3371 -0.3729  0.0843
 8213SOL    HW126080   4.318   7.544   6.441  0.3644 -0.9815  0.6830
 8213SOL    HW226081   4.187   7.477   6.476 -0.1867 -0.0938  0.3544
 8214SOL     OW26082   4.260   0.963   6.869  0.6313 -0.2087 -0.4756
 8214SOL    HW126083   4.252   0.912   6.950  0.1385 -1.8563 -1.4973
 8214SOL    HW226084   4.186   1.023   6.870 -1.1346 -2.2537 -1.0149
 8215SOL     OW26085   2.004   4.200   5.629  0.4550 -0.1319  0.1608
 8215SOL    HW126086   2.006   4.294   5.613  1.4088 -0.1135  0.3193
 8215SOL    HW226087   1.958   4.164   5.554  0.4239  0.4269 -0.0924
 8216SOL     OW26088   3.097   3.705   6.841 -0.1725 -0.2547  0.5709
 8216SOL    HW126089   3.160   3.636   6.824  2.1859  1.4574  1.7290
 8216SOL    HW226090   3.089   3.752   6.758  0.7932  0.0117  0.6145
 8217SOL     OW26091   3.141   3.067   6.726 -0.3715  0.2145 -0.4795
 8217SOL    HW126092   3.093   3.127   6.668 -1.2309  0.3941  0.3971
 8217SOL    HW226093   3.173   3.123   6.797  0.0457 -0.1318 -0.3931
 8218SOL     OW26094   2.517   2.463   8.028 -0.4829 -0.6299  0.1124
 8218SOL    HW126095   2.583   2.466   7.959 -0.3518  0.2778  0.2673
 8218SOL    HW226096   2.567   2.447   8.108 -0.3826  0.5272  0.2969
 8219SOL     OW26097   2.642   4.996   7.158  0.4170  0.4948 -0.3865
 8219SOL    HW126098   2.633   4.906   7.189 -0.4879  1.1121  1.2675
 8219SOL    HW226099   2.735   5.007   7.141  0.3902 -1.0955 -1.7746
 8220SOL     OW26100   3.113   3.473   7.062  0.8360  0.2455 -0.1758
 8220SOL    HW126101   3.171   3.499   6.990  0.1945 -1.2472 -1.2808
 8220SOL    HW226102   3.168   3.418   7.117  0.7948 -0.2420 -0.6138
 8221SOL     OW26103   2.082   1.041   6.948  0.0005  0.7702 -0.3063
 8221SOL    HW126104   2.004   1.088   6.979  0.1287  1.8326 -1.5004
 8221SOL    HW226105   2.100   1.079   6.862  2.6559  1.5751  0.4912
 8222SOL     OW26106   0.834   2.902   7.164  0.5681  0.2298 -0.0997
 8222SOL    HW126107   0.818   2.810   7.186  0.4252  0.9744  3.6875
 8222SOL    HW226108   0.898   2.899   7.093  0.9672 -2.8074  0.2450
 8223SOL     OW26109   2.477   3.487   6.646 -0.4237 -0.3276  0.2789
 8223SOL    HW126110   2.392   3.532   6.646 -0.4460 -0.3668  0.0865
 8223SOL    HW226111   2.493   3.465   6.738 -1.8645 -2.6456  0.0757
 8224SOL     OW26112   4.568   0.938   7.232  0.2224 -0.6049  0.0977
 8224SOL    HW126113   4.528   0.860   7.270  0.3664 -0.2237  1.0492
 8224SOL    HW226114   4.531   1.011   7.281  1.2911 -0.1803  0.2882
 8225SOL     OW26115   3.158   1.787   6.260 -0.1637 -0.2090  0.2872
 8225SOL    HW126116   3.233   1.818   6.310 -0.8788  0.0180  1.2591
 8225SOL    HW226117   3.187   1.787   6.169  1.3508 -1.1672  0.7427
 8226SOL     OW26118   1.662   1.427   4.986  0.3709 -0.3646  0.0025
 8226SOL    HW126119   1.726   1.494   4.965  0.7121 -1.3456 -2.3495
 8226SOL    HW226120   1.620   1.459   5.067  0.4098  2.7202 -1.0543
 8227SOL     OW26121   2.388   4.126   5.829 -0.0742  0.5700  0.1870
 8227SOL    HW126122   2.477   4.161   5.831  0.4710 -0.2494 -3.2962
 8227SOL    HW226123   2.398   4.036   5.800 -2.0677  0.9099 -1.8472
 8228SOL     OW26124   3.732   1.363   7.669  0.6838 -0.1767  0.0657
 8228SOL    HW126125   3.655   1.396   7.715  0.9005 -0.8386  0.9176
 8228SOL    HW226126   3.798   1.352   7.737  1.3008 -0.3326 -0.5428
 8229SOL     OW26127   2.657   1.365   7.254  0.0827 -0.5101  0.4795
 8229SOL    HW126128   2.751   1.355   7.268 -0.1076 -0.9622  1.5201
 8229SOL    HW226129   2.634   1.298   7.190  0.3207 -0.9764  0.8816
 8230SOL     OW26130   2.960   0.207   7.101  0.1426  0.1841 -0.1652
 8230SOL    HW126131   2.983   0.216   7.193 -0.3114 -2.0411  0.2351
 8230SOL    HW226132   3.018   0.268   7.056  0.5145  1.1763  1.5651
 8231SOL     OW26133   2.008   2.528   5.017  0.3660 -0.2253  0.0648
 8231SOL    HW126134   2.071   2.492   4.954  0.5375 -1.9573  1.1562
 8231SOL    HW226135   2.055   2.598   5.061  0.8622 -0.2006 -0.4981
 8232SOL     OW26136   3.857   4.059   7.516 -0.4191  0.0877 -0.5301
 8232SOL    HW126137   3.778   4.111   7.533  0.1229  0.7338  0.0798
 8232SOL    HW226138   3.928   4.123   7.516  0.7859 -0.9212  3.6572
 8233SOL     OW26139   1.644   3.349   8.373 -0.4776  0.1363  0.0682
 8233SOL    HW126140   1.656   3.293   8.450 -0.4243 -0.0109 -0.0465
 8233SOL    HW226141   1.667   3.437   8.403  1.4074 -0.1945 -0.2757
 8234SOL     OW26142   4.516   2.211   7.800 -0.2873 -0.3504  0.8294
 8234SOL    HW126143   4.528   2.285   7.740 -1.5073  0.3007  1.3693
 8234SOL    HW226144   4.422   2.197   7.802 -0.0703 -2.0954  0.5568
 8235SOL     OW26145   2.798   2.593   6.166  0.1004  0.0483  0.3765
 8235SOL    HW126146   2.863   2.631   6.106 -0.2020  0.4388  0.2873
 8235SOL    HW226147   2.743   2.538   6.110 -0.2966  0.5600  0.2535
 8236SOL     OW26148   4.606   2.912   6.987  0.2253 -0.8682 -0.1361
 8236SOL    HW126149   4.612   2.831   6.936  0.6436 -0.4965 -0.7010
 8236SOL    HW226150   4.596   2.883   7.077  1.4416 -1.5712 -0.2007
 8237SOL     OW26151   1.491   2.246   9.786  0.0442  0.8781  0.3866
 8237SOL    HW126152   1.575   2.200   9.784 -0.3409  0.1350  1.0139
 8237SOL    HW226153   1.431   2.191   9.736 -1.2792 -1.1229  3.8391
 8238SOL     OW26154   2.065   2.678   7.305  0.1796  0.3543  0.5767
 8238SOL    HW126155   1.991   2.733   7.277  0.3673 -0.2267 -1.2098
 8238SOL    HW226156   2.142   2.725   7.274  0.4750  0.2112  1.0926
 8239SOL     OW26157   4.099   3.083   6.622  0.1636  0.1570 -0.3476
 8239SOL    HW126158   4.076   3.140   6.695 -1.1425  1.5954 -1.8187
 8239SOL    HW226159   4.180   3.121   6.586  0.1196  0.1909 -0.4115
 8240SOL     OW26160   2.851   2.893   6.340  0.1141 -0.4313 -0.1836
 8240SOL    HW126161   2.913   2.875   6.270  0.8750  1.4744 -0.0554
 8240SOL    HW226162   2.865   2.985   6.362 -1.9191 -0.2623  0.6862
 8241SOL     OW26163   1.402   3.383   7.148  0.0307 -0.2204  0.1817
 8241SOL    HW126164   1.444   3.443   7.086  0.5744 -0.8555 -0.0720
 8241SOL    HW226165   1.439   3.297   7.127 -1.4797 -0.8156 -0.1107
 8242SOL     OW26166   3.325   2.099   7.028 -0.1835 -0.5736 -0.2063
 8242SOL    HW126167   3.262   2.033   7.056  0.0535  0.1715  2.3599
 8242SOL    HW226168   3.282   2.144   6.955 -2.3161 -0.6380  0.9256
 8243SOL     OW26169   5.258   3.717   4.044 -0.3017  0.4752 -0.0022
 8243SOL    HW126170   5.266   3.622   4.055 -0.5693  0.4701  0.1608
 8243SOL    HW226171   5.179   3.740   4.092 -1.8904  0.3773 -2.3796
 8244SOL     OW26172   3.752   3.238   7.746 -0.1992 -0.6009  0.0431
 8244SOL    HW126173   3.750   3.308   7.681  0.7063 -0.3444  0.2637
 8244SOL    HW226174   3.711   3.276   7.823  0.8897 -0.0441  0.3817
 8245SOL     OW26175   3.506   3.339   5.939 -0.9418 -0.0852  0.0433
 8245SOL    HW126176   3.599   3.359   5.948 -0.0096 -2.2620 -3.0779
 8245SOL    HW226177   3.501   3.244   5.947 -2.5760 -0.1930 -1.5635
 8246SOL     OW26178   1.636   2.046   7.600  0.6981 -0.8333 -0.3147
 8246SOL    HW126179   1.730   2.038   7.611  0.7668 -1.4860 -1.2792
 8246SOL    HW226180   1.624   2.125   7.547  0.6543 -0.4647  0.2257
 8247SOL     OW26181   4.527   2.411   7.621  0.3816  0.0908  0.2300
 8247SOL    HW126182   4.476   2.437   7.544 -0.5812 -0.2158  0.7570
 8247SOL    HW226183   4.600   2.473   7.623  0.6059 -0.0983 -1.1161
 8248SOL     OW26184   2.571   3.295   5.941 -0.6186  0.8603 -0.3859
 8248SOL    HW126185   2.615   3.374   5.972 -2.1595  1.2487  0.9566
 8248SOL    HW226186   2.544   3.317   5.852  1.3061  0.8290 -1.0097
 8249SOL     OW26187   2.099   2.364   6.277  0.3354 -0.1866 -0.0236
 8249SOL    HW126188   2.193   2.368   6.295  0.6199  0.0274 -1.4564
 8249SOL    HW226189   2.091   2.391   6.186 -0.9124 -2.0480 -0.5178
 8250SOL     OW26190   4.042   3.004   7.513  0.6733 -0.3052 -0.0565
 8250SOL    HW126191   4.051   3.041   7.600  2.4200  1.1496 -0.7971
 8250SOL    HW226192   4.099   3.057   7.458 -1.2151 -0.4615 -2.3281
 8251SOL     OW26193   2.654   4.276   5.799 -0.3143  0.7319 -0.1367
 8251SOL    HW126194   2.655   4.253   5.892  2.3555 -0.2680 -0.3351
 8251SOL    HW226195   2.714   4.350   5.792 -0.0638  0.4426 -1.1247
 8252SOL     OW26196   3.098   1.076   5.840  0.2498  0.0113 -0.0175
 8252SOL    HW126197   3.048   1.032   5.908 -1.0203  0.0261 -0.9190
 8252SOL    HW226198   3.115   1.009   5.774  0.3913  0.3027 -0.2819
 8253SOL     OW26199   1.696   2.564   8.433 -0.3379 -0.3484 -0.1632
 8253SOL    HW126200   1.629   2.626   8.460 -0.7950 -0.5222 -0.8592
 8253SOL    HW226201   1.654   2.513   8.363  0.3885 -0.7199 -0.3348
 8254SOL     OW26202   3.935   1.789   6.989 -0.4645 -0.7358  0.1211
 8254SOL    HW126203   3.895   1.820   6.908  0.2942 -1.4675 -0.5537
 8254SOL    HW226204   4.013   1.844   6.999  0.2178 -1.5684 -0.4280
 8255SOL     OW26205   3.620   2.236   7.939  0.1314 -0.4137 -0.5369
 8255SOL    HW126206   3.682   2.302   7.971  0.0403 -0.5800 -0.0052
 8255SOL    HW226207   3.539   2.284   7.924 -0.4980 -0.6982  1.6234
 8256SOL     OW26208   3.143   2.433   5.901 -0.3655  0.1781  0.6961
 8256SOL    HW126209   3.235   2.428   5.928 -0.4291  0.6355  1.0151
 8256SOL    HW226210   3.102   2.488   5.968 -1.1605 -1.1110  1.3169
 8257SOL     OW26211   3.978   2.175   7.090 -0.1325  0.3991 -0.6555
 8257SOL    HW126212   3.894   2.197   7.051 -0.3295  1.8181  0.4539
 8257SOL    HW226213   4.005   2.255   7.135  1.3454 -0.3265 -0.1775
 8258SOL     OW26214   3.032   2.309   8.603  0.1048 -0.3529 -0.3823
 8258SOL    HW126215   2.959   2.295   8.663  0.0797  2.3279  0.3647
 8258SOL    HW226216   3.103   2.254   8.638 -0.6898 -0.7944  0.5757
 8259SOL     OW26217   1.361   3.767   7.211 -0.0004 -0.4496 -0.4368
 8259SOL    HW126218   1.316   3.723   7.283 -0.7442  0.2115 -0.4859
 8259SOL    HW226219   1.435   3.709   7.190  0.3233 -0.5722  0.9499
 8260SOL     OW26220   2.758   3.497   6.102 -0.2901  0.5215 -0.0336
 8260SOL    HW126221   2.725   3.440   6.172 -2.2091  1.7749  0.1535
 8260SOL    HW226222   2.846   3.463   6.084 -0.7916 -1.5792  1.0453
 8261SOL     OW26223   3.345   2.590   7.639 -0.1327  0.4520  0.1102
 8261SOL    HW126224   3.331   2.660   7.575 -1.8095  0.5983  0.5860
 8261SOL    HW226225   3.377   2.634   7.717  0.1132  0.5039 -0.0172
 8262SOL     OW26226   4.006   1.510   5.793 -0.6637  0.2354 -0.3308
 8262SOL    HW126227   3.933   1.527   5.734 -1.8269 -1.1836  0.6136
 8262SOL    HW226228   4.029   1.596   5.828 -1.3930  0.8082 -1.2034
 8263SOL     OW26229   2.649   0.905   7.557  0.0069  0.1993  0.3885
 8263SOL    HW126230   2.670   0.992   7.591  1.0077 -0.6971  2.2437
 8263SOL    HW226231   2.726   0.852   7.579 -0.6455 -1.1894 -0.5574
 8264SOL     OW26232   3.481   1.907   7.697  0.2854 -0.3437  0.4748
 8264SOL    HW126233   3.402   1.864   7.664 -0.3224  0.4849  0.8099
 8264SOL    HW226234   3.448   1.985   7.742  1.3479  0.5372 -0.2182
 8265SOL     OW26235   2.728   3.130   6.633 -0.1101 -0.0605 -0.2195
 8265SOL    HW126236   2.818   3.158   6.615  0.5141 -1.9542 -0.2371
 8265SOL    HW226237   2.737   3.054   6.690 -1.7858  0.6742  1.1228
 8266SOL     OW26238   3.588   2.288   6.592  0.0715 -0.0118  0.4541
 8266SOL    HW126239   3.566   2.201   6.626  0.5071 -0.7217 -0.9791
 8266SOL    HW226240   3.675   2.306   6.628  1.6216 -1.8351 -2.0543
 8267SOL     OW26241   3.030   1.928   7.655  0.0339  0.1118 -0.3883
 8267SOL    HW126242   2.951   1.965   7.693  0.2211 -0.5471  0.6994
 8267SOL    HW226243   3.081   2.003   7.625  0.0037  0.6769  0.9356
 8268SOL     OW26244   3.413   1.516   5.026 -0.0101 -0.2848 -0.0898
 8268SOL    HW126245   3.322   1.519   5.057 -0.5386 -1.2954 -1.4709
 8268SOL    HW226246   3.414   1.573   4.949  0.1314 -1.4676 -0.9942
 8269SOL     OW26247   3.567   2.770   5.498 -0.5311 -0.5156  0.1425
 8269SOL    HW126248   3.523   2.704   5.551 -1.0142  1.1387  1.9153
 8269SOL    HW226249   3.650   2.786   5.542 -1.3994  1.6620  1.1465
 8270SOL     OW26250   2.622   1.147   6.808 -0.0501 -0.2063  0.0933
 8270SOL    HW126251   2.703   1.101   6.786 -0.5669 -1.0757 -0.0205
 8270SOL    HW226252   2.619   1.221   6.747  0.8574  0.0753  0.3688
 8271SOL     OW26253   3.081   3.003   7.318 -0.0094  0.0659 -0.0469
 8271SOL    HW126254   3.087   3.086   7.365 -0.9372 -0.1255  0.4297
 8271SOL    HW226255   3.166   2.993   7.276 -0.3216  1.9196 -1.2168
 8272SOL     OW26256   2.389   1.462   8.479 -0.0039 -0.0127  0.5488
 8272SOL    HW126257   2.411   1.385   8.531 -0.7050  0.7421  2.0370
 8272SOL    HW226258   2.368   1.428   8.392  0.8468 -1.3558  0.8452
 8273SOL     OW26259   2.054   3.304   5.192  0.0018 -0.0936  0.0498
 8273SOL    HW126260   2.018   3.232   5.140  0.2877  1.0055 -1.7577
 8273SOL    HW226261   2.132   3.268   5.234  0.2144 -0.7948 -0.9376
 8274SOL     OW26262   3.251   3.357   5.881  0.0963 -0.0513 -0.4847
 8274SOL    HW126263   3.258   3.262   5.872 -1.1418 -0.3543  1.2483
 8274SOL    HW226264   3.340   3.385   5.905  0.9681 -0.4432 -2.9459
 8275SOL     OW26265   1.792   1.163   6.655 -0.5578 -0.4334  0.2385
 8275SOL    HW126266   1.764   1.085   6.703  0.1055 -0.7032  0.1964
 8275SOL    HW226267   1.857   1.130   6.593 -1.6744 -0.1432 -1.1043
 8276SOL     OW26268   2.053   1.794   5.212  0.1599 -0.1687 -0.2915
 8276SOL    HW126269   2.086   1.878   5.243 -2.4210  1.1654 -0.8822
 8276SOL    HW226270   2.001   1.816   5.134  0.5165 -2.5003 -1.2717
 8277SOL     OW26271   2.722   1.868   6.662 -0.2648 -0.0662 -0.2160
 8277SOL    HW126272   2.665   1.806   6.706  0.0274 -0.6579 -0.6539
 8277SOL    HW226273   2.801   1.871   6.715  0.2347 -1.0586 -0.8722
 8278SOL     OW26274   1.978   3.259   7.642  0.3873 -0.3770  0.2171
 8278SOL    HW126275   2.002   3.338   7.692  1.1603 -0.9445  0.7565
 8278SOL    HW226276   2.015   3.274   7.555 -2.2484  1.2993 -0.7347
 8279SOL     OW26277   2.492   2.930   6.642  0.3112  0.2284  0.2928
 8279SOL    HW126278   2.525   2.877   6.570  1.3401  2.1138 -0.7043
 8279SOL    HW226279   2.570   2.958   6.689 -0.1417  1.4905  0.3240
 8280SOL     OW26280   3.301   1.744   7.586  0.3287 -0.0681 -1.0261
 8280SOL    HW126281   3.257   1.773   7.505 -1.3777 -1.1879 -0.5469
 8280SOL    HW226282   3.348   1.664   7.561  0.1302 -0.1935 -0.9963
 8281SOL     OW26283   4.652   2.955   5.865 -0.3624 -0.3567 -0.3694
 8281SOL    HW126284   4.589   3.020   5.835  0.4617  0.2619 -0.8270
 8281SOL    HW226285   4.718   2.953   5.795  0.9724  0.2188  0.8155
 8282SOL     OW26286   2.574   4.155   6.498 -0.4388  0.0310  0.1446
 8282SOL    HW126287   2.521   4.076   6.485  0.6715 -0.3508 -2.9957
 8282SOL    HW226288   2.657   4.122   6.534  0.4126 -0.4971 -2.1204
 8283SOL     OW26289   2.179   2.451   6.028 -0.5879  0.2112 -0.0717
 8283SOL    HW126290   2.212   2.372   5.984 -1.2732  0.7367 -1.5865
 8283SOL    HW226291   2.208   2.523   5.972 -0.3571  1.0297  1.0577
 8284SOL     OW26292   3.772   1.439   4.995 -0.4002 -0.5119  0.2938
 8284SOL    HW126293   3.774   1.505   4.925  1.7000  0.6917  1.3617
 8284SOL    HW226294   3.773   1.355   4.950  0.2908  0.2308 -1.1338
 8285SOL     OW26295   3.481   1.045   6.262 -0.7137 -0.4389  0.6536
 8285SOL    HW126296   3.508   1.082   6.178  1.1372 -0.9754  0.9588
 8285SOL    HW226297   3.549   1.072   6.323 -0.0313 -3.0715  1.1845
 8286SOL     OW26298   3.919   7.950   6.583  0.1745 -0.3382  0.0721
 8286SOL    HW126299   3.834   7.915   6.611 -0.4344 -0.7218 -2.0700
 8286SOL    HW226300   3.949   7.889   6.515  0.9855  1.1543 -0.9547
 8287SOL     OW26301   3.818   4.089   6.975  0.7478  0.1414 -0.4077
 8287SOL    HW126302   3.876   4.044   6.913 -0.3150 -2.9570  0.6897
 8287SOL    HW226303   3.867   4.090   7.057  0.0005 -0.7620  0.0510
 8288SOL     OW26304   2.785   3.649   8.595  0.0011  0.3118 -0.1251
 8288SOL    HW126305   2.756   3.726   8.546 -0.7721  1.6424  2.2750
 8288SOL    HW226306   2.718   3.582   8.577 -0.9154  1.1637  0.0374
 8289SOL     OW26307   3.214   2.139   8.735  0.6692  0.4432  0.3533
 8289SOL    HW126308   3.263   2.131   8.653  1.7766  1.2208  0.9073
 8289SOL    HW226309   3.278   2.119   8.804  0.2951  1.6915  1.1112
 8290SOL     OW26310   3.415   3.127   7.487  0.1772 -0.0122 -0.4345
 8290SOL    HW126311   3.502   3.132   7.446 -0.4010  0.5033 -1.6563
 8290SOL    HW226312   3.403   3.212   7.528  0.9387 -0.6782  1.2721
 8291SOL     OW26313   3.532   2.942   8.247 -0.1072  0.4011  0.2561
 8291SOL    HW126314   3.598   2.971   8.184  0.4885 -0.1417  0.6168
 8291SOL    HW226315   3.474   3.018   8.258 -1.1648  0.0047 -2.1251
 8292SOL     OW26316   2.117   3.566   8.864 -0.3421  0.5526  0.4980
 8292SOL    HW126317   2.105   3.660   8.876  2.3602  0.9892  0.4295
 8292SOL    HW226318   2.162   3.559   8.779 -0.5819 -0.8076  0.4693
 8293SOL     OW26319   3.355   1.304   7.140  0.0606  0.4182  0.2773
 8293SOL    HW126320   3.393   1.248   7.073  0.0011  0.1989  0.4248
 8293SOL    HW226321   3.285   1.251   7.178 -0.3287  0.7817  0.0707
 8294SOL     OW26322   1.345   2.449   6.526  0.1687  0.2071 -0.0944
 8294SOL    HW126323   1.431   2.424   6.491 -0.5726 -0.9836 -1.1596
 8294SOL    HW226324   1.350   2.425   6.619  1.5847  1.8583  0.3137
 8295SOL     OW26325   1.148   2.000   7.275 -0.0322 -0.1309 -0.4655
 8295SOL    HW126326   1.123   1.945   7.200 -1.5738  1.9469 -1.5772
 8295SOL    HW226327   1.155   2.088   7.239  1.7082  0.5680  1.3881
 8296SOL     OW26328   2.697   2.924   7.265  0.0033 -0.4683 -0.1326
 8296SOL    HW126329   2.685   2.974   7.184  0.9011  3.0357  1.6887
 8296SOL    HW226330   2.776   2.872   7.250  1.4772  1.8091 -0.9037
 8297SOL     OW26331   2.833   3.154   6.121 -0.2403  0.2658  0.2681
 8297SOL    HW126332   2.878   3.232   6.088  0.1636  0.3706  1.0252
 8297SOL    HW226333   2.854   3.153   6.215 -1.0510 -0.2111  0.4514
 8298SOL     OW26334   2.794   1.906   5.142 -0.1479 -0.2798  0.0770
 8298SOL    HW126335   2.786   1.847   5.067 -0.1159 -1.0805  0.6954
 8298SOL    HW226336   2.715   1.959   5.139  0.2123  0.2389 -0.9719
 8299SOL     OW26337   2.475   2.955   8.597 -0.0270  0.0077 -0.1114
 8299SOL    HW126338   2.526   3.035   8.612 -0.4441  0.0394  1.2803
 8299SOL    HW226339   2.407   2.981   8.535  0.8132  0.3131 -0.9152
 8300SOL     OW26340   2.675   3.402   7.278  0.2626 -0.1810  0.0255
 8300SOL    HW126341   2.730   3.465   7.230 -1.2110  0.2612 -1.1623
 8300SOL    HW226342   2.731   3.325   7.287  0.9289  0.0441 -1.6656
 8301SOL     OW26343   1.442   2.382   7.105 -0.0009  0.1705 -0.0838
 8301SOL    HW126344   1.451   2.476   7.092  1.0664  0.0363 -0.4274
 8301SOL    HW226345   1.387   2.373   7.182 -0.8276  1.0662 -0.5527
 8302SOL     OW26346   3.750   2.084   7.370  0.7646 -0.2174 -0.0681
 8302SOL    HW126347   3.790   2.089   7.457 -0.0561 -2.2811  0.4875
 8302SOL    HW226348   3.824   2.087   7.310  1.3699  0.9094  0.7011
 8303SOL     OW26349   1.888   2.112   7.801 -0.4201  0.3474 -0.0324
 8303SOL    HW126350   1.844   2.066   7.872  0.4263 -0.4287  0.0130
 8303SOL    HW226351   1.979   2.120   7.830  0.5163 -2.0678 -1.9175
 8304SOL     OW26352   3.131   2.948   8.389  0.5384 -0.7633 -0.6698
 8304SOL    HW126353   3.071   2.961   8.462  1.3083 -1.4122  0.1079
 8304SOL    HW226354   3.206   3.005   8.409  0.5504 -0.5880 -1.1999
 8305SOL     OW26355   2.840   2.893   5.354 -0.7496 -0.1617 -0.0140
 8305SOL    HW126356   2.917   2.843   5.329 -1.5085 -2.0051  1.1644
 8305SOL    HW226357   2.826   2.954   5.281  1.8168  0.2723 -0.2211
 8306SOL     OW26358   3.252   1.166   6.490  0.0251  0.1139  0.5343
 8306SOL    HW126359   3.332   1.116   6.507 -0.1050  0.3590  1.9601
 8306SOL    HW226360   3.250   1.175   6.395  1.1688 -0.7524  0.4006
 8307SOL     OW26361   2.829   1.338   6.637  0.3465  0.1670 -0.3690
 8307SOL    HW126362   2.808   1.385   6.717  1.4452  0.2498 -0.1145
 8307SOL    HW226363   2.823   1.404   6.567  2.6703  0.9368  0.0810
 8308SOL     OW26364   2.747   3.127   8.425 -0.1944 -0.7007 -0.0834
 8308SOL    HW126365   2.799   3.206   8.412 -0.3121 -0.2097  2.0423
 8308SOL    HW226366   2.730   3.095   8.337  0.5328  1.1908 -0.9727
 8309SOL     OW26367   1.550   3.423   5.056  0.5289  0.0580  0.5100
 8309SOL    HW126368   1.524   3.417   4.964  1.1508 -0.2200  0.3530
 8309SOL    HW226369   1.571   3.515   5.069  1.4942 -0.0953  0.0860
 8310SOL     OW26370   3.178   2.781   6.690 -0.0899  0.7324  0.5559
 8310SOL    HW126371   3.166   2.868   6.727  1.2107  0.8410  0.7912
 8310SOL    HW226372   3.234   2.736   6.753  0.9654  0.4310 -0.5529
 8311SOL     OW26373   2.350   2.587   6.553 -0.4053 -0.3685 -0.0604
 8311SOL    HW126374   2.442   2.606   6.572 -0.3183 -0.9065  0.0485
 8311SOL    HW226375   2.348   2.567   6.460 -0.4212 -0.3239 -0.0698
 8312SOL     OW26376   4.112   1.454   6.509  0.9051  0.4098  0.2500
 8312SOL    HW126377   4.147   1.376   6.467 -1.6070 -1.0152  0.6297
 8312SOL    HW226378   4.129   1.525   6.447  2.2212 -0.6121 -0.6072
 8313SOL     OW26379   2.943   2.852   5.786 -0.1604 -0.2956 -0.4438
 8313SOL    HW126380   2.887   2.913   5.737 -0.6326  1.5351  2.1678
 8313SOL    HW226381   2.895   2.836   5.867  1.6802 -1.2268  0.5238
 8314SOL     OW26382   1.989   3.985   7.514 -0.1701  0.3754  0.1572
 8314SOL    HW126383   1.982   3.965   7.421 -0.6661  1.6222 -0.0891
 8314SOL    HW226384   2.020   4.075   7.517  0.8786  0.0076  1.2215
 8315SOL     OW26385   3.090   3.092   8.145 -0.3507 -0.3939 -0.0564
 8315SOL    HW126386   3.128   3.039   8.076 -1.0657 -1.4945  0.3623
 8315SOL    HW226387   3.079   3.032   8.219 -0.9773  0.3884  0.5155
 8316SOL     OW26388   3.294   2.538   4.853  0.0710 -0.5726 -0.2322
 8316SOL    HW126389   3.389   2.535   4.843  0.3575 -0.7942  2.0519
 8316SOL    HW226390   3.265   2.608   4.795  1.6892 -0.1207 -0.5228
 8317SOL     OW26391   4.361   3.156   6.549 -0.5192  0.1980  0.0399
 8317SOL    HW126392   4.409   3.121   6.624  0.3303  1.0766 -0.0644
 8317SOL    HW226393   4.430   3.193   6.492 -1.1278 -0.5373 -1.2192
 8318SOL     OW26394   3.750   2.530   5.395  0.1544  0.0173 -0.2115
 8318SOL    HW126395   3.834   2.516   5.351  0.2597 -2.3881  0.5776
 8318SOL    HW226396   3.706   2.597   5.343  2.0435  0.4315 -1.3704
 8319SOL     OW26397   1.426   2.780   7.803  0.4686 -0.0971  0.5101
 8319SOL    HW126398   1.516   2.804   7.780  0.1760  0.8677  0.3464
 8319SOL    HW226399   1.371   2.838   7.751 -0.2269  0.7695  2.1252
 8320SOL     OW26400   3.270   2.176   7.272 -0.2805  0.0223 -0.0055
 8320SOL    HW126401   3.347   2.171   7.329  0.3049  0.2172 -0.7542
 8320SOL    HW226402   3.304   2.157   7.184 -1.3695 -1.4759 -0.1399
 8321SOL     OW26403   3.401   2.123   5.658 -0.3400 -0.0545 -0.2977
 8321SOL    HW126404   3.390   2.036   5.695  0.9580  0.2316  0.8318
 8321SOL    HW226405   3.340   2.126   5.584 -2.2542 -1.0049  1.1849
 8322SOL     OW26406   3.287   1.340   6.799 -0.2877 -0.0412 -0.0661
 8322SOL    HW126407   3.302   1.393   6.721  1.0527  1.9134  1.3871
 8322SOL    HW226408   3.373   1.305   6.821 -1.0505 -2.4269 -0.6555
 8323SOL     OW26409   1.644   2.084   6.820  0.3870  0.5101 -0.6722
 8323SOL    HW126410   1.726   2.045   6.790  1.0854 -1.5813  3.2583
 8323SOL    HW226411   1.576   2.024   6.790  0.6398  0.5001 -1.2257
 8324SOL     OW26412   2.393   4.261   6.696  0.1260  0.4404  0.4932
 8324SOL    HW126413   2.465   4.298   6.748  0.3538  0.0515  0.4566
 8324SOL    HW226414   2.435   4.228   6.617 -0.2694  1.3785 -0.1272
 8325SOL     OW26415   1.635   4.278   5.407  0.1104  0.5211 -0.4749
 8325SOL    HW126416   1.702   4.210   5.403 -0.1103  0.3543 -1.4840
 8325SOL    HW226417   1.685   4.360   5.412  0.3996  0.2840  2.2576
 8326SOL     OW26418   1.869   1.980   5.614 -0.2182 -0.0552  0.1522
 8326SOL    HW126419   1.838   1.999   5.703 -0.2455 -0.9566  0.3448
 8326SOL    HW226420   1.792   1.993   5.559 -0.3226  0.0505  0.3205
 8327SOL     OW26421   2.310   3.380   7.083 -0.3714 -0.3323  0.2938
 8327SOL    HW126422   2.331   3.300   7.131  0.6673 -0.3862 -0.2240
 8327SOL    HW226423   2.393   3.427   7.078 -0.9802  0.8162  0.6408
 8328SOL     OW26424   2.030   3.452   7.836  0.2001  0.2626 -0.3315
 8328SOL    HW126425   2.020   3.541   7.871  0.8224 -0.3548  1.5534
 8328SOL    HW226426   1.986   3.396   7.900  1.4750 -0.9529 -0.4592
 8329SOL     OW26427   3.434   2.693   6.828  0.1719  0.1113  0.0568
 8329SOL    HW126428   3.475   2.611   6.857  1.4514  1.0194  0.9218
 8329SOL    HW226429   3.461   2.758   6.893 -1.9722  0.9617  0.1781
 8330SOL     OW26430   3.325   2.606   6.025 -0.5181 -0.9924  0.3071
 8330SOL    HW126431   3.261   2.677   6.012 -0.5420 -1.4012 -2.3394
 8330SOL    HW226432   3.391   2.644   6.083 -0.2102  1.5037 -1.4791
 8331SOL     OW26433   3.362   1.917   6.403  0.1561 -0.1739 -0.5609
 8331SOL    HW126434   3.407   2.001   6.401 -1.5209  0.7768 -0.5823
 8331SOL    HW226435   3.428   1.855   6.435  1.0031  1.4360  1.0159
 8332SOL     OW26436   1.781   1.974   7.170 -0.0204 -0.5072 -0.0635
 8332SOL    HW126437   1.859   1.959   7.117  0.0905 -0.1424 -0.0071
 8332SOL    HW226438   1.813   2.018   7.249 -0.3667  0.2933 -0.3572
 8333SOL     OW26439   1.161   2.906   4.727 -0.0858 -0.3071 -0.3726
 8333SOL    HW126440   1.074   2.866   4.722  0.5228 -1.7070 -0.3904
 8333SOL    HW226441   1.168   2.938   4.817 -0.4420 -0.6259 -0.2284
 8334SOL     OW26442   3.608   3.618   7.095 -0.6863  0.1766  0.1239
 8334SOL    HW126443   3.681   3.656   7.047 -0.8551 -0.8719 -1.0026
 8334SOL    HW226444   3.542   3.687   7.097  0.2749  1.1193  1.0974
 8335SOL     OW26445   3.127   1.519   5.292  0.0306 -0.2855 -0.2547
 8335SOL    HW126446   3.160   1.460   5.360  3.2189 -0.2732 -1.6264
 8335SOL    HW226447   3.144   1.607   5.326  0.5414 -0.2672 -0.5447
 8336SOL     OW26448   3.291   1.028   8.045  0.1435 -1.2619 -0.2399
 8336SOL    HW126449   3.313   1.071   7.962 -0.1537 -1.0816 -0.2253
 8336SOL    HW226450   3.331   1.084   8.111 -1.4468 -0.1891 -0.1263
 8337SOL     OW26451   3.451   3.544   7.364  0.2982  0.1707  0.5713
 8337SOL    HW126452   3.522   3.573   7.422  0.1359  0.1022  0.8075
 8337SOL    HW226453   3.495   3.505   7.289  0.5444  1.6174 -0.0680
 8338SOL     OW26454   3.082   3.580   5.670 -0.1491 -0.6917 -0.0384
 8338SOL    HW126455   3.033   3.631   5.605  0.5040 -1.4623 -1.1619
 8338SOL    HW226456   3.166   3.626   5.679  0.9534 -2.1725 -1.9940
 8339SOL     OW26457   3.212   3.206   7.864  0.0000 -0.0061  0.2623
 8339SOL    HW126458   3.237   3.291   7.827  0.1709 -0.6557 -1.1907
 8339SOL    HW226459   3.263   3.199   7.944  4.1914 -0.9962 -2.1870
 8340SOL     OW26460   2.457   2.780   7.397 -0.1337  0.3762 -0.3906
 8340SOL    HW126461   2.410   2.853   7.439 -0.6868 -0.1780 -0.0082
 8340SOL    HW226462   2.549   2.807   7.397 -0.1648  0.5452  0.8852
 8341SOL     OW26463   3.943   0.799   5.691  0.2501 -0.1440  0.4132
 8341SOL    HW126464   4.016   0.737   5.697  1.0147  0.5613 -1.0052
 8341SOL    HW226465   3.866   0.749   5.717  0.3988 -2.5203 -2.9899
 8342SOL     OW26466   3.461   3.074   5.916  0.1106 -0.3389 -0.1762
 8342SOL    HW126467   3.374   3.094   5.882 -0.3937  0.3074  1.4029
 8342SOL    HW226468   3.488   2.996   5.868  0.0861  1.2785 -3.0739
 8343SOL     OW26469   2.381   2.301   6.380 -0.1586  0.3672  0.2366
 8343SOL    HW126470   2.384   2.254   6.463  0.5786  0.8055  0.4647
 8343SOL    HW226471   2.473   2.317   6.358 -0.3538  0.4786 -0.5338
 8344SOL     OW26472   3.574   2.323   6.055 -0.1729  0.1603 -0.3571
 8344SOL    HW126473   3.601   2.409   6.086  0.9308 -0.9107  1.8697
 8344SOL    HW226474   3.482   2.317   6.081  0.5031 -0.3852  2.2040
 8345SOL     OW26475   1.678   2.987   5.158  0.3505  0.1110 -0.1888
 8345SOL    HW126476   1.656   3.001   5.066 -1.8823  1.7659  0.5026
 8345SOL    HW226477   1.680   3.075   5.196 -1.2068 -0.6513  1.8244
 8346SOL     OW26478   2.602   2.518   5.226 -0.4662 -0.4686  0.1247
 8346SOL    HW126479   2.621   2.541   5.135 -1.4813 -1.9203 -0.5064
 8346SOL    HW226480   2.668   2.452   5.248 -0.4994 -0.4519  0.2727
 8347SOL     OW26481   3.916   2.706   8.444  0.0961  0.0088 -0.1216
 8347SOL    HW126482   3.823   2.726   8.434 -0.2235 -0.4916  1.4986
 8347SOL    HW226483   3.960   2.780   8.403 -1.0492  1.6939  1.4625
 8348SOL     OW26484   2.445   2.115   7.417  0.0687  0.0475 -0.1379
 8348SOL    HW126485   2.462   2.063   7.338 -0.0216 -1.5834  0.8817
 8348SOL    HW226486   2.356   2.149   7.404 -1.0310 -2.4385  0.4039
 8349SOL     OW26487   2.967   3.374   5.813  0.4153  0.6849  0.2741
 8349SOL    HW126488   3.021   3.311   5.861  0.1398  0.0815 -0.1986
 8349SOL    HW226489   3.028   3.442   5.786  1.0647 -0.2671 -0.7308
 8350SOL     OW26490   2.875   3.862   7.662 -0.4694 -1.0240  0.5648
 8350SOL    HW126491   2.944   3.820   7.714  0.5999 -1.0672 -0.8267
 8350SOL    HW226492   2.912   3.868   7.574 -1.2358  1.3512  0.3501
 8351SOL     OW26493   1.795   3.963   4.771  0.0567  0.1119 -0.4493
 8351SOL    HW126494   1.821   4.055   4.772  1.6284 -0.1914  3.3572
 8351SOL    HW226495   1.874   3.915   4.795 -1.5663 -1.8289  1.3795
 8352SOL     OW26496   2.939   3.399   7.570  0.5427  0.1824 -0.1601
 8352SOL    HW126497   2.982   3.479   7.540 -1.2444  0.7356 -1.4199
 8352SOL    HW226498   2.996   3.328   7.541  1.6247  0.9512  0.0478
 8353SOL     OW26499   1.204   2.337   5.727 -0.3436 -0.0383  0.1190
 8353SOL    HW126500   1.168   2.265   5.675  0.1335 -0.5725  0.5176
 8353SOL    HW226501   1.264   2.382   5.667  0.4018 -0.8074  0.2682
 8354SOL     OW26502   2.954   0.848   8.318  0.0354  0.0649 -0.5371
 8354SOL    HW126503   3.012   0.836   8.242  0.5984 -2.2342  0.1877
 8354SOL    HW226504   2.991   0.791   8.385 -2.9228 -1.3279  0.0433
 8355SOL     OW26505   1.330   2.478   6.798  0.6172 -0.8107  0.0841
 8355SOL    HW126506   1.246   2.524   6.797  0.4593 -1.0806  0.4850
 8355SOL    HW226507   1.310   2.394   6.840  1.0143 -1.0174 -0.1401
 8356SOL     OW26508   4.112   1.663   6.328  0.2113  0.3011 -0.0594
 8356SOL    HW126509   4.155   1.670   6.243  0.7594 -0.1157  0.1774
 8356SOL    HW226510   4.148   1.735   6.379  0.2986  0.2196 -0.0053
 8357SOL     OW26511   2.324   2.409   7.016  0.4352  0.6174 -0.3743
 8357SOL    HW126512   2.289   2.323   7.036 -1.3736  1.0191 -1.5512
 8357SOL    HW226513   2.393   2.393   6.951 -0.3167  0.0906 -1.0615
 8358SOL     OW26514   1.761   2.401   7.716  0.2807 -0.0324 -0.1310
 8358SOL    HW126515   1.808   2.477   7.683  1.5444 -1.0520 -0.8001
 8358SOL    HW226516   1.829   2.335   7.729 -0.7371 -0.9538  0.7233
 8359SOL     OW26517   2.818   1.103   7.089 -0.0976 -0.3415  0.0977
 8359SOL    HW126518   2.722   1.106   7.089 -0.1896 -0.3907 -2.5558
 8359SOL    HW226519   2.839   1.026   7.036  1.4475 -1.0058  1.6119
 8360SOL     OW26520   1.245   2.607   7.171 -0.1883 -0.2082  0.1963
 8360SOL    HW126521   1.337   2.630   7.158  0.1283 -1.5182 -0.0631
 8360SOL    HW226522   1.198   2.664   7.111  0.4620  0.4225  0.2727
 8361SOL     OW26523   1.668   2.899   7.755  0.1039 -0.2470  0.2443
 8361SOL    HW126524   1.667   2.821   7.699 -1.3242  0.3589 -0.6319
 8361SOL    HW226525   1.727   2.960   7.711 -2.0587  0.7558 -1.4487
 8362SOL     OW26526   2.747   0.725   6.169 -0.0442 -1.1375 -0.4064
 8362SOL    HW126527   2.678   0.667   6.200 -0.5348  0.3041  1.3669
 8362SOL    HW226528   2.827   0.671   6.173 -0.7319 -2.1840 -0.4672
 8363SOL     OW26529   3.475   2.563   5.139  0.4204  0.3101  0.4357
 8363SOL    HW126530   3.528   2.639   5.116  1.3643  0.1550  1.9648
 8363SOL    HW226531   3.388   2.583   5.102  0.5673  2.2386  1.0050
 8364SOL     OW26532   0.598   3.789   7.950 -0.2613 -0.3185 -0.2783
 8364SOL    HW126533   0.643   3.868   7.980 -0.5898 -0.1445 -0.2470
 8364SOL    HW226534   0.667   3.723   7.947 -0.1162 -0.2037  0.3495
 8365SOL     OW26535   2.973   2.373   7.536 -0.2300  0.3864  0.5233
 8365SOL    HW126536   2.892   2.409   7.500 -0.0313 -1.2353 -1.7811
 8365SOL    HW226537   3.040   2.439   7.513 -0.3313 -0.0076 -1.0329
 8366SOL     OW26538   2.976   3.293   6.623 -0.6648  0.7112  0.0982
 8366SOL    HW126539   3.053   3.317   6.675  0.5895 -1.3630 -0.6932
 8366SOL    HW226540   2.914   3.365   6.638  0.3499  1.1121  2.9131
 8367SOL     OW26541   0.498   2.518   8.986 -0.2425 -0.6751  0.4656
 8367SOL    HW126542   0.444   2.522   8.908 -0.8311  1.0676  0.9204
 8367SOL    HW226543   0.531   2.427   8.988  1.3384 -0.3292 -2.7963
 8368SOL     OW26544   3.573   2.496   4.792 -0.0815  0.1483 -0.1323
 8368SOL    HW126545   3.626   2.492   4.871  0.1117 -0.4584 -0.2948
 8368SOL    HW226546   3.619   2.558   4.736 -0.6038  1.1565  0.5045
 8369SOL     OW26547   3.456   0.495   3.689 -0.2450  0.1274  0.0894
 8369SOL    HW126548   3.430   0.553   3.760  0.7044  1.8243 -0.8748
 8369SOL    HW226549   3.512   0.550   3.633  2.1546 -2.1652  0.0193
 8370SOL     OW26550   3.552   0.923   5.012 -0.3181 -0.4381  0.1384
 8370SOL    HW126551   3.562   1.001   4.958  0.0998 -0.6110 -0.0386
 8370SOL    HW226552   3.557   0.850   4.950  2.3111 -0.7522  0.6187
 8371SOL     OW26553   1.273   1.606   7.988  0.0612 -0.0494  0.2054
 8371SOL    HW126554   1.227   1.659   8.054  0.4292  0.8090 -0.2093
 8371SOL    HW226555   1.204   1.580   7.926 -0.0797  0.1509  0.2779
 8372SOL     OW26556   3.031   2.792   7.973 -0.0695 -0.3012  0.3616
 8372SOL    HW126557   3.116   2.822   8.005 -0.5103  0.8960  0.4504
 8372SOL    HW226558   3.026   2.828   7.884 -1.4210  1.6188  1.1428
 8373SOL     OW26559   1.789   3.600   6.488  0.0755 -0.4619  0.1479
 8373SOL    HW126560   1.697   3.624   6.478  0.5494  0.7958 -1.8501
 8373SOL    HW226561   1.824   3.666   6.549 -0.3129 -0.9304  0.8952
 8374SOL     OW26562   2.357   2.618   7.595 -0.2233  0.3817 -0.5944
 8374SOL    HW126563   2.438   2.572   7.616 -0.9434 -0.3998  0.6184
 8374SOL    HW226564   2.378   2.672   7.519  0.7122 -1.8309 -1.9894
 8375SOL     OW26565   3.380   7.990   5.414  0.5491 -0.0696  0.9408
 8375SOL    HW126566   3.287   7.966   5.405  0.4676  0.7569 -0.8763
 8375SOL    HW226567   3.388   8.072   5.365  2.1942  0.0215  1.3116
 8376SOL     OW26568   2.408   3.781   7.175 -0.0022  0.7729 -0.1331
 8376SOL    HW126569   2.379   3.800   7.085 -2.5292  0.2071  0.4813
 8376SOL    HW226570   2.499   3.753   7.165  0.0617  1.5630 -2.4071
 8377SOL     OW26571   3.143   1.632   8.598 -0.2430 -0.0686 -0.1380
 8377SOL    HW126572   3.056   1.621   8.637  0.0412  1.3086  0.9515
 8377SOL    HW226573   3.131   1.697   8.530  0.2264  1.5237  1.2299
 8378SOL     OW26574   1.768   3.296   6.725  0.3018  0.2299 -0.0889
 8378SOL    HW126575   1.719   3.218   6.698 -0.7135  0.8252  0.0128
 8378SOL    HW226576   1.796   3.277   6.814 -2.3661  1.0672  1.0268
 8379SOL     OW26577   3.250   3.155   9.168 -1.0795 -0.0238  0.2133
 8379SOL    HW126578   3.190   3.088   9.135 -1.7287  1.1096 -0.9627
 8379SOL    HW226579   3.226   3.235   9.122  1.2999  0.4956 -0.2818
 8380SOL     OW26580   3.863   2.971   5.983 -1.1982 -0.3676  0.1019
 8380SOL    HW126581   3.815   3.031   6.039 -0.3381 -0.5477  1.0586
 8380SOL    HW226582   3.821   2.980   5.897 -1.8102  0.7447  0.4953
 8381SOL     OW26583   3.403   0.273   7.138 -0.4730 -0.4243 -0.0120
 8381SOL    HW126584   3.362   0.225   7.209  2.4477 -3.1733  0.0197
 8381SOL    HW226585   3.446   0.347   7.180 -2.6860  0.8063  0.2979
 8382SOL     OW26586   2.891   4.237   6.992  0.0296  0.4593  0.2906
 8382SOL    HW126587   2.920   4.160   7.039  1.0027  1.0818  0.7411
 8382SOL    HW226588   2.968   4.294   6.988  0.4159 -0.0889 -3.2132
 8383SOL     OW26589   2.989   4.119   5.413 -0.8665  0.0065  0.0582
 8383SOL    HW126590   2.975   4.050   5.349  0.7515 -0.4394  0.1436
 8383SOL    HW226591   3.078   4.105   5.445  0.3280  3.2870 -1.3526
 8384SOL     OW26592   3.346   1.879   7.274 -0.5937  0.7275 -0.6244
 8384SOL    HW126593   3.265   1.845   7.311 -0.7981  1.7895 -0.0523
 8384SOL    HW226594   3.357   1.965   7.315  1.3109  0.2268  0.0434
 8385SOL     OW26595   4.983   1.533   6.857  0.2791 -0.1783 -0.1793
 8385SOL    HW126596   4.964   1.590   6.931  0.2889  0.2060 -0.4657
 8385SOL    HW226597   5.071   1.558   6.829  1.2310 -1.9127  1.1024
 8386SOL     OW26598   4.133   1.531   4.633  0.0049  0.2302 -0.6993
 8386SOL    HW126599   4.045   1.561   4.654 -0.9340 -1.6880 -1.6631
 8386SOL    HW226600   4.145   1.550   4.540 -0.1515 -1.1416 -1.0332
 8387SOL     OW26601   2.944   3.456   8.122  0.0694 -0.1809 -0.0655
 8387SOL    HW126602   2.903   3.443   8.037 -1.5573  1.1747  0.4343
 8387SOL    HW226603   2.998   3.534   8.111 -0.9377  0.6026  0.3608
 8388SOL     OW26604   5.588   2.881   7.976 -0.4468 -0.1974 -0.7384
 8388SOL    HW126605   5.493   2.894   7.975 -0.6556 -1.5252 -0.7066
 8388SOL    HW226606   5.601   2.797   7.931  0.5929 -0.6765  0.3767
 8389SOL     OW26607   2.140   0.972   7.649 -0.0043  0.1082 -0.3922
 8389SOL    HW126608   2.107   1.003   7.565  0.5279  0.2450 -0.5546
 8389SOL    HW226609   2.213   0.914   7.626 -0.3005 -0.4072 -0.0533
 8390SOL     OW26610   2.616   0.463   6.709 -0.1881  0.3558  0.3186
 8390SOL    HW126611   2.709   0.459   6.730 -0.0099 -2.8507 -0.5638
 8390SOL    HW226612   2.613   0.508   6.624  0.3753  1.5469  0.8977
 8391SOL     OW26613   2.587   3.117   6.413 -0.7356 -0.0787 -0.0193
 8391SOL    HW126614   2.515   3.158   6.461 -1.6351 -0.5273 -0.9427
 8391SOL    HW226615   2.661   3.119   6.474 -0.5201  3.4300 -0.2011
 8392SOL     OW26616   1.161   4.970   5.389 -0.4019 -0.2553 -0.3303
 8392SOL    HW126617   1.114   4.892   5.360 -0.9568  0.1712 -0.5892
 8392SOL    HW226618   1.141   5.036   5.323  2.2023 -0.6031 -1.5997
 8393SOL     OW26619   2.512   4.155   7.676 -0.1236 -0.1422 -0.3872
 8393SOL    HW126620   2.495   4.237   7.631 -0.7836  0.5710  1.1021
 8393SOL    HW226621   2.607   4.143   7.670 -0.0829  0.4648 -1.0518
 8394SOL     OW26622   2.060   3.118  10.428 -0.1009 -0.2002 -0.1249
 8394SOL    HW126623   2.151   3.112  10.399 -0.0212 -0.3317  0.1448
 8394SOL    HW226624   2.064   3.167  10.511 -0.1476 -1.1593  0.4584
 8395SOL     OW26625   3.313   2.934   7.207  0.5418 -0.1534 -0.0658
 8395SOL    HW126626   3.342   2.893   7.126  1.6304 -0.6073  0.5339
 8395SOL    HW226627   3.355   3.020   7.207  1.5527 -0.6194  0.5653
 8396SOL     OW26628   2.448   0.630   4.218  0.5322 -0.0478 -0.4585
 8396SOL    HW126629   2.370   0.683   4.234  0.8073 -0.2367  1.8139
 8396SOL    HW226630   2.420   0.540   4.233  1.2572 -0.0782  0.9374
 8397SOL     OW26631   1.785   3.892   7.125 -0.0788 -0.7861  0.1499
 8397SOL    HW126632   1.774   3.844   7.043  0.6152 -0.7630  0.0404
 8397SOL    HW226633   1.880   3.893   7.140 -0.0429  0.8544 -0.0394
 8398SOL     OW26634   4.848   1.152   8.860 -0.0565  0.0035 -0.2998
 8398SOL    HW126635   4.836   1.061   8.835  0.8691  0.1079 -1.1859
 8398SOL    HW226636   4.787   1.201   8.806 -1.2763 -0.1476  0.8792
 8399SOL     OW26637   1.704   2.841   8.340  0.4151  0.0502 -0.6512
 8399SOL    HW126638   1.708   2.857   8.246  0.1388 -0.4491 -0.7501
 8399SOL    HW226639   1.702   2.746   8.348 -0.9390  0.1009 -0.2026
 8400SOL     OW26640   2.644   2.752   8.283  0.1236  0.4726 -0.1391
 8400SOL    HW126641   2.727   2.793   8.256 -0.2815  1.8179  0.5607
 8400SOL    HW226642   2.590   2.752   8.204  0.6193  0.0136 -0.4847
 8401SOL     OW26643   1.045   2.634   8.709  0.0775  0.0881 -0.3878
 8401SOL    HW126644   0.968   2.671   8.666 -1.5063 -1.1556  1.1879
 8401SOL    HW226645   1.064   2.554   8.659 -1.3747 -1.0263  0.7626
 8402SOL     OW26646   2.917   3.190   9.197  0.3017 -0.1859  0.3676
 8402SOL    HW126647   2.954   3.157   9.115  1.6576 -0.5335  1.0875
 8402SOL    HW226648   2.894   3.110   9.246 -1.3385  0.0154  0.0043
 8403SOL     OW26649   2.056   2.653  10.265 -0.5336 -0.4477  0.1709
 8403SOL    HW126650   2.008   2.736  10.259  0.8382  0.2706 -2.2996
 8403SOL    HW226651   1.999   2.589  10.222 -0.6726 -0.3045  0.1400
 8404SOL     OW26652   2.787   3.450   9.252  0.3931 -0.1131  0.0619
 8404SOL    HW126653   2.839   3.380   9.212  1.5559  0.6620  0.1589
 8404SOL    HW226654   2.851   3.519   9.272 -0.6386  0.7634  0.4482
 8405SOL     OW26655   2.969   2.689   8.800  0.3834 -0.7375  0.2891
 8405SOL    HW126656   2.967   2.594   8.805 -0.6124 -0.7269  0.2694
 8405SOL    HW226657   2.880   2.714   8.776  0.6738  0.1910  0.1234
 8406SOL     OW26658   4.200   2.364  10.517  0.5305 -0.0865  0.4942
 8406SOL    HW126659   4.286   2.398  10.493  0.2670 -0.6481 -1.4634
 8406SOL    HW226660   4.138   2.430  10.484  0.1709 -0.5159  0.2873
 8407SOL     OW26661   3.438   1.669   8.316  0.4167  0.2659  0.3943
 8407SOL    HW126662   3.495   1.735   8.275 -0.4712  0.0405 -1.3088
 8407SOL    HW226663   3.350   1.704   8.304  0.0320 -0.6145  0.6548
 8408SOL     OW26664   2.568   2.221   7.807 -0.1442 -0.3797  0.0608
 8408SOL    HW126665   2.654   2.181   7.796  0.9366  0.4014  4.1056
 8408SOL    HW226666   2.584   2.315   7.802 -0.4862 -0.1915  1.6741
 8409SOL     OW26667   2.071   3.836   8.969 -0.0964  0.6463 -0.3658
 8409SOL    HW126668   2.003   3.889   9.010  0.3311  1.7782 -1.0717
 8409SOL    HW226669   2.139   3.899   8.944  0.7796 -0.3391 -0.5221
 8410SOL     OW26670   1.219   4.093   9.131 -0.4940  0.1043  0.0771
 8410SOL    HW126671   1.175   4.177   9.146 -1.0302  0.2008 -1.7404
 8410SOL    HW226672   1.273   4.080   9.209  0.7331  2.8633 -0.1669
 8411SOL     OW26673   2.900   4.637   8.054 -0.2036 -0.2152 -0.2966
 8411SOL    HW126674   2.930   4.705   7.992 -1.6023  0.7448  0.0297
 8411SOL    HW226675   2.848   4.578   8.000  1.5001 -1.4299 -0.7017
 8412SOL     OW26676   1.585   2.002   5.547  0.5769  0.4647  0.0360
 8412SOL    HW126677   1.537   1.943   5.605 -1.2997  2.0747  0.2372
 8412SOL    HW226678   1.580   2.088   5.590  0.1436  1.4762 -1.9173
 8413SOL     OW26679   2.622   7.610   9.943  0.4701 -0.2193 -0.6058
 8413SOL    HW126680   2.527   7.613   9.935  0.5051 -0.6447 -1.2630
 8413SOL    HW226681   2.647   7.529   9.899  1.1325 -0.1539 -0.3648
 8414SOL     OW26682   2.530   2.366   6.827 -0.1912 -0.3940  0.0558
 8414SOL    HW126683   2.546   2.452   6.788  0.7479 -0.1031  1.0529
 8414SOL    HW226684   2.541   2.305   6.754  2.7680  0.0334 -0.0016
 8415SOL     OW26685   4.388   3.037   8.373 -0.2042  0.1572 -0.0304
 8415SOL    HW126686   4.303   3.075   8.351 -0.1908  0.4701  0.4311
 8415SOL    HW226687   4.385   3.024   8.468 -0.1440 -0.8607 -0.1627
 8416SOL     OW26688   7.962   3.075   7.742 -0.0128  0.1222 -0.5518
 8416SOL    HW126689   7.957   3.170   7.738  0.9257  0.1452 -3.8583
 8416SOL    HW226690   8.048   3.056   7.780 -0.5773  0.4854  1.0219
 8417SOL     OW26691   3.625   3.654   7.563  0.0674 -0.0245  0.2168
 8417SOL    HW126692   3.585   3.729   7.607 -1.1438 -1.3499  1.4762
 8417SOL    HW226693   3.712   3.647   7.601  0.1471  0.6663  0.1680
 8418SOL     OW26694   3.349   2.611   7.232 -0.0789 -0.3562 -0.2424
 8418SOL    HW126695   3.281   2.605   7.166 -2.5942 -0.5587  2.1602
 8418SOL    HW226696   3.365   2.705   7.242 -0.8368 -0.2344 -0.0984
 8419SOL     OW26697   1.430   3.393   8.815  0.2607 -0.0822  0.4349
 8419SOL    HW126698   1.496   3.452   8.777 -0.2909  0.4168  0.2306
 8419SOL    HW226699   1.419   3.424   8.904  0.5693 -0.4025  0.5873
 8420SOL     OW26700   1.934   1.718   5.551  0.2421  0.1981  0.1798
 8420SOL    HW126701   1.908   1.807   5.575 -2.7480 -0.6490  0.4919
 8420SOL    HW226702   1.967   1.680   5.632 -1.0557  0.2072  0.7328
 8421SOL     OW26703   3.771   2.970   8.940 -0.3471  0.1153 -0.4703
 8421SOL    HW126704   3.809   3.037   8.883  0.4474 -1.8246 -2.3516
 8421SOL    HW226705   3.847   2.925   8.978 -0.8722  0.4108  1.0262
 8422SOL     OW26706   1.870   2.275   8.740 -0.1776  0.0215  0.6786
 8422SOL    HW126707   1.798   2.332   8.711  0.5525  0.0262 -1.2716
 8422SOL    HW226708   1.926   2.333   8.792 -1.2439  0.1718  1.6897
 8423SOL     OW26709   1.949   4.306   8.893 -0.0053 -0.6095 -0.1296
 8423SOL    HW126710   1.973   4.251   8.967 -1.8494 -1.2155  0.0720
 8423SOL    HW226711   2.014   4.377   8.893  1.6527 -2.0663  0.3823
 8424SOL     OW26712   3.765   3.605   7.318  0.2647  0.1938 -0.2514
 8424SOL    HW126713   3.703   3.597   7.245 -0.4305 -1.1381  0.4547
 8424SOL    HW226714   3.774   3.700   7.331  0.2212  0.4582 -1.8949
 8425SOL     OW26715   2.101   3.826   7.709  0.6605 -0.1572 -0.0219
 8425SOL    HW126716   2.196   3.837   7.707  0.5465  1.3501  1.0325
 8425SOL    HW226717   2.068   3.886   7.642  0.4951 -2.4582 -2.1839
 8426SOL     OW26718   0.594   2.943  10.778 -0.1501  0.3445 -0.0108
 8426SOL    HW126719   0.640   2.878  10.725  0.8903 -0.3510  1.6935
 8426SOL    HW226720   0.630   2.933  10.866 -3.2372  0.0997  1.3407
 8427SOL     OW26721   1.213   2.301   8.081  0.3598 -0.1410 -0.0091
 8427SOL    HW126722   1.306   2.278   8.075  0.8294  1.5927  0.0614
 8427SOL    HW226723   1.192   2.293   8.175  0.1450 -1.4369 -0.1362
 8428SOL     OW26724   4.073   1.170   6.985 -0.2078  0.1153  0.4968
 8428SOL    HW126725   4.113   1.212   6.909  0.6512 -2.1560 -0.4139
 8428SOL    HW226726   4.041   1.242   7.039  2.3547  1.9398 -0.2667
 8429SOL     OW26727   3.699   3.205   7.432  0.7489 -0.1617 -0.3043
 8429SOL    HW126728   3.704   3.187   7.338 -0.8109  0.0637 -0.4548
 8429SOL    HW226729   3.740   3.291   7.441  1.7314 -0.5743 -0.6244
 8430SOL     OW26730   1.755   2.332   9.220  0.8641 -0.0216  0.5145
 8430SOL    HW126731   1.753   2.320   9.315 -1.0228  1.5660  0.7534
 8430SOL    HW226732   1.679   2.284   9.188  0.1550  1.3103  0.1167
 8431SOL     OW26733   2.374   2.638   9.301  0.5333 -0.3291  0.0231
 8431SOL    HW126734   2.377   2.633   9.206  1.5435  0.8470 -0.0359
 8431SOL    HW226735   2.462   2.611   9.329 -0.0529 -1.6326  0.6933
 8432SOL     OW26736   4.188   1.572   9.547  0.0386  0.6150 -0.2532
 8432SOL    HW126737   4.198   1.667   9.542 -2.6274  1.0433  0.6907
 8432SOL    HW226738   4.102   1.555   9.508  0.3327 -1.4012 -0.1505
 8433SOL     OW26739   4.431   1.766   7.917 -0.3038 -0.2905 -0.0697
 8433SOL    HW126740   4.390   1.696   7.968 -1.6333 -0.0068 -0.6874
 8433SOL    HW226741   4.362   1.832   7.909 -0.0290 -0.1677 -1.8903
 8434SOL     OW26742   2.638   1.941   7.655 -0.0611 -0.6522  0.4623
 8434SOL    HW126743   2.564   1.979   7.702  0.3174 -1.2907  1.6087
 8434SOL    HW226744   2.624   1.846   7.660  0.4006 -0.7540 -0.0344
 8435SOL     OW26745   3.170   2.835   9.912 -0.1249  0.3163  0.2047
 8435SOL    HW126746   3.148   2.783   9.835 -0.3646  0.5417  0.1214
 8435SOL    HW226747   3.092   2.888   9.929 -0.6749 -0.8471  1.5212
 8436SOL     OW26748   1.482   5.177   9.416  0.5000 -0.1055  0.1615
 8436SOL    HW126749   1.527   5.261   9.432 -1.7337  1.1330  0.4213
 8436SOL    HW226750   1.511   5.121   9.488 -0.0621  1.3978  1.6510
 8437SOL     OW26751   2.927   7.530   7.439  0.3495  0.6939  0.9434
 8437SOL    HW126752   2.944   7.625   7.437 -0.1507  0.7981  1.4871
 8437SOL    HW226753   2.833   7.523   7.453  0.1633  0.1137 -0.4338
 8438SOL     OW26754   4.837   2.885   9.214  0.0107  0.5053  0.6859
 8438SOL    HW126755   4.845   2.892   9.119 -0.3221 -1.7944  0.4499
 8438SOL    HW226756   4.746   2.907   9.233  0.0334  0.7916  0.4681
 8439SOL     OW26757   3.964   2.768   8.691  0.4732 -0.1653 -0.6285
 8439SOL    HW126758   3.962   2.740   8.599  0.7936  0.6262 -0.8794
 8439SOL    HW226759   3.873   2.791   8.711  0.3389 -0.6635 -0.6352
 8440SOL     OW26760   1.549   0.762   8.277 -0.2928 -0.1392 -0.1406
 8440SOL    HW126761   1.634   0.767   8.321  0.3450 -0.6141 -1.2518
 8440SOL    HW226762   1.519   0.672   8.292  0.2501 -0.5182 -1.1909
 8441SOL     OW26763   1.090   6.177   7.991  0.1221 -0.2053  0.0972
 8441SOL    HW126764   1.163   6.232   8.020  0.2771 -0.5026  0.2657
 8441SOL    HW226765   1.076   6.203   7.900 -0.1330  0.4718  0.3152
 8442SOL     OW26766   1.992   5.378   7.772 -0.5260  0.4748 -0.4662
 8442SOL    HW126767   1.953   5.375   7.859  0.1226 -0.0507 -0.1898
 8442SOL    HW226768   1.927   5.337   7.715  0.2392 -1.8154  0.2285
 8443SOL     OW26769   1.467   3.673   9.402 -0.3911 -0.2313 -0.3821
 8443SOL    HW126770   1.423   3.687   9.486  0.4827 -0.0426  0.0599
 8443SOL    HW226771   1.556   3.704   9.416  0.3842 -2.1553 -0.7310
 8444SOL     OW26772   2.072   3.702   7.953  0.0489  0.5225  0.2984
 8444SOL    HW126773   2.062   3.744   7.868 -1.1929  0.2713  0.3087
 8444SOL    HW226774   2.165   3.712   7.973  0.0976  1.8274 -0.4360
 8445SOL     OW26775   0.774   3.084   6.767  0.5120 -0.6312 -0.0404
 8445SOL    HW126776   0.861   3.049   6.786  0.9678  1.0523  1.2533
 8445SOL    HW226777   0.789   3.178   6.752 -0.9801 -0.4588 -0.5863
 8446SOL     OW26778   2.879   2.364   6.736 -0.3498  0.8266 -0.1621
 8446SOL    HW126779   2.809   2.300   6.746 -0.7523  1.1209 -1.0025
 8446SOL    HW226780   2.908   2.355   6.645  1.3235  0.0946  0.4026
 8447SOL     OW26781   0.483   2.233   8.400  0.4521  0.7371  0.0470
 8447SOL    HW126782   0.491   2.138   8.407  1.1761  0.7581 -0.4257
 8447SOL    HW226783   0.422   2.247   8.328  0.9805  0.6308 -0.4302
 8448SOL     OW26784   1.067   1.755   8.119  0.0644 -0.7626  0.3334
 8448SOL    HW126785   1.081   1.777   8.211  0.1102 -0.0023  0.1512
 8448SOL    HW226786   1.085   1.836   8.071 -1.7897 -0.5964 -0.1826
 8449SOL     OW26787   3.963   3.945   8.042  0.0942  0.0618  0.2620
 8449SOL    HW126788   3.932   4.028   8.079 -0.3183 -0.5364  1.3102
 8449SOL    HW226789   3.946   3.881   8.111  1.3275 -0.7270 -0.1295
 8450SOL     OW26790   2.488   3.352   9.139  0.4550  0.3121 -0.0618
 8450SOL    HW126791   2.485   3.420   9.072  0.9855 -1.4474 -1.9895
 8450SOL    HW226792   2.580   3.350   9.166  0.6377 -0.2130 -0.6844
 8451SOL     OW26793   2.847   0.359   9.349 -0.6508  0.1091 -0.3752
 8451SOL    HW126794   2.834   0.290   9.283 -0.6976 -1.1840  0.9320
 8451SOL    HW226795   2.782   0.340   9.416 -0.0763  0.9287  0.4292
 8452SOL     OW26796   0.722   4.018   8.071  0.7132 -0.1360  0.1992
 8452SOL    HW126797   0.815   4.038   8.072  0.3656  1.8048 -1.0318
 8452SOL    HW226798   0.685   4.071   8.141  0.5815 -1.4608  1.1789
 8453SOL     OW26799   3.338   3.087   8.478  0.0238 -0.0585  0.2378
 8453SOL    HW126800   3.370   3.066   8.565  1.5439  0.0554 -0.2719
 8453SOL    HW226801   3.368   3.177   8.462  0.3002 -0.2937 -0.6378
 8454SOL     OW26802   1.518   3.136   7.094 -0.1436 -0.2453 -0.6923
 8454SOL    HW126803   1.597   3.177   7.060 -0.2080  0.7313  0.2841
 8454SOL    HW226804   1.464   3.120   7.016  0.3195  0.5983 -1.2015
 8455SOL     OW26805   3.268   1.910   9.096 -0.0120 -0.1135 -0.3102
 8455SOL    HW126806   3.312   1.973   9.039 -0.7209  1.5347  0.8950
 8455SOL    HW226807   3.297   1.824   9.063  1.2727  0.8150 -1.7641
 8456SOL     OW26808   3.270   1.154   8.607  1.0130  0.5185 -1.0284
 8456SOL    HW126809   3.275   1.236   8.658 -2.9437  1.1318 -1.2781
 8456SOL    HW226810   3.271   1.085   8.673  1.8326  0.9086 -0.6138
 8457SOL     OW26811   3.426   2.623   8.621 -0.2781  0.1493  0.3119
 8457SOL    HW126812   3.377   2.679   8.561 -0.0880 -0.2801 -0.2504
 8457SOL    HW226813   3.370   2.546   8.633  0.3189 -0.4378 -0.4957
 8458SOL     OW26814   2.633   5.730   9.318 -0.1437  0.0223 -0.7663
 8458SOL    HW126815   2.557   5.676   9.294 -1.2860  1.0402  0.4399
 8458SOL    HW226816   2.608   5.819   9.293 -0.0878  0.6273  1.1701
 8459SOL     OW26817   0.046   1.355   9.528 -0.5659 -0.6921  0.0876
 8459SOL    HW126818   0.012   1.377   9.615 -1.1478 -1.5695  0.0994
 8459SOL    HW226819   0.136   1.387   9.529 -0.3130 -1.3450  1.3081
 8460SOL     OW26820   2.214   3.754   9.245 -0.0195  0.0751  0.8236
 8460SOL    HW126821   2.132   3.710   9.222 -0.3551 -0.3982  2.7959
 8460SOL    HW226822   2.275   3.726   9.177 -1.4375  0.3715 -0.6449
 8461SOL     OW26823   4.228   1.150   7.706 -0.3174 -0.4945  0.1513
 8461SOL    HW126824   4.212   1.167   7.613  0.0550 -1.5677 -0.1205
 8461SOL    HW226825   4.256   1.234   7.741  1.4519 -0.4845 -1.1310
 8462SOL     OW26826   2.898   2.742   9.644 -0.1582  0.0266  0.8958
 8462SOL    HW126827   2.902   2.831   9.679 -2.1025  0.2971  0.5174
 8462SOL    HW226828   2.805   2.728   9.625  0.4132 -1.1841 -1.3349
 8463SOL     OW26829   3.336   2.801   7.470  0.3128  0.4376 -0.5991
 8463SOL    HW126830   3.288   2.838   7.396  0.3078  1.2732 -0.1823
 8463SOL    HW226831   3.325   2.864   7.540 -0.3982 -0.7542  0.4049
 8464SOL     OW26832   4.664   1.890   7.900  0.7931 -0.6805 -0.0838
 8464SOL    HW126833   4.656   1.985   7.906  1.7440 -0.6865  3.9159
 8464SOL    HW226834   4.575   1.857   7.912  0.7750 -0.2889  0.9116
 8465SOL     OW26835   1.100   3.021   9.713 -0.2342 -0.6239  0.1361
 8465SOL    HW126836   1.116   3.059   9.799  1.2906 -1.0622  0.0840
 8465SOL    HW226837   1.179   3.042   9.663 -1.1135 -0.3148 -1.1903
 8466SOL     OW26838   3.973   1.390   9.028  0.2954 -0.3009  0.5716
 8466SOL    HW126839   3.908   1.374   8.960 -1.3859  2.0200  1.5091
 8466SOL    HW226840   3.926   1.372   9.110  1.8069 -1.5246  1.2270
 8467SOL     OW26841   1.116   4.435   8.495 -0.1658 -0.4638 -0.7341
 8467SOL    HW126842   1.137   4.481   8.576  0.3193  0.4402 -1.3567
 8467SOL    HW226843   1.192   4.448   8.439 -0.5270 -1.0069 -1.3731
 8468SOL     OW26844   2.775   2.265   8.745 -0.4170 -0.3777  0.1144
 8468SOL    HW126845   2.727   2.345   8.722 -2.2642 -1.2179  0.7985
 8468SOL    HW226846   2.711   2.214   8.795  1.1519 -1.7105  0.8111
 8469SOL     OW26847   1.845   2.312   8.035  0.2109  0.0203  0.0988
 8469SOL    HW126848   1.812   2.383   7.980  0.0411  0.3190  0.5817
 8469SOL    HW226849   1.797   2.234   8.005  1.4161 -0.1940 -1.4052
 8470SOL     OW26850   3.033   2.941   8.794 -0.7753 -0.4069 -0.0704
 8470SOL    HW126851   2.989   2.972   8.715 -0.5732  1.0067  0.3457
 8470SOL    HW226852   3.014   2.847   8.797  0.0529 -0.6992 -2.3196
 8471SOL     OW26853   2.308   3.598   7.552 -0.5768 -0.2249 -0.3196
 8471SOL    HW126854   2.310   3.663   7.622  0.7636  0.2413 -0.7598
 8471SOL    HW226855   2.356   3.523   7.587 -0.6872 -0.3409 -0.4158
 8472SOL     OW26856   4.716   2.060   8.677  0.3245 -0.3612  0.1147
 8472SOL    HW126857   4.653   2.063   8.748  0.7259 -1.0334  0.5152
 8472SOL    HW226858   4.780   1.994   8.704  1.0934  0.1651 -0.3714
 8473SOL     OW26859   3.923   2.543   7.800  0.3803  0.4427  0.6108
 8473SOL    HW126860   3.829   2.562   7.799  0.4703  1.0301  1.5325
 8473SOL    HW226861   3.963   2.622   7.764  0.5689  0.6186  1.1921
 8474SOL     OW26862   3.004   3.166   6.996 -0.3142  0.3655  0.3041
 8474SOL    HW126863   2.930   3.215   6.960  1.2637  1.2780 -1.9297
 8474SOL    HW226864   3.081   3.217   6.970  1.3977 -2.8320 -1.4335
 8475SOL     OW26865   3.129   3.281   7.404  0.1246  0.8462  0.1063
 8475SOL    HW126866   3.197   3.285   7.471  1.0571  0.4596 -0.7796
 8475SOL    HW226867   3.178   3.279   7.321 -0.9305 -0.2564 -0.5286
 8476SOL     OW26868   7.727   0.580   8.723 -0.3865  0.0014  0.3978
 8476SOL    HW126869   7.731   0.559   8.630 -1.0388 -0.5073  0.4851
 8476SOL    HW226870   7.647   0.540   8.754 -0.1060  0.0535  1.2169
 8477SOL     OW26871   2.281   2.498   8.733  0.0467 -0.0994  0.6824
 8477SOL    HW126872   2.222   2.425   8.751 -0.5935 -0.6475 -2.9169
 8477SOL    HW226873   2.238   2.547   8.663  1.8026  2.1042  1.0510
 8478SOL     OW26874   2.771   1.723   9.158  0.6668 -0.2150  0.4244
 8478SOL    HW126875   2.764   1.736   9.252  0.1767 -0.6029  0.4427
 8478SOL    HW226876   2.865   1.733   9.140  0.5635  1.4181  0.7074
 8479SOL     OW26877   4.226   3.089   9.415  0.5516  0.3423 -0.0835
 8479SOL    HW126878   4.225   3.084   9.319 -0.4024 -1.1267 -0.0404
 8479SOL    HW226879   4.196   3.177   9.435 -0.5175  0.2544 -1.1489
 8480SOL     OW26880   2.953   2.923   7.756  0.3411 -0.1464  0.2641
 8480SOL    HW126881   2.928   3.010   7.786 -0.0963 -0.8170  1.9727
 8480SOL    HW226882   3.031   2.937   7.703 -1.2592  1.5567 -1.8176
 8481SOL     OW26883   2.692   3.149   8.684 -0.1710 -0.6160 -0.4362
 8481SOL    HW126884   2.723   3.123   8.598 -0.3489 -0.1302 -0.6531
 8481SOL    HW226885   2.763   3.203   8.720  0.0163 -1.0399 -0.1686
 8482SOL     OW26886   3.066   3.650   7.558 -0.3067  0.3561 -0.1976
 8482SOL    HW126887   3.127   3.607   7.618 -1.8761 -0.1187  1.1498
 8482SOL    HW226888   3.096   3.741   7.554  1.1909 -0.1419 -0.5554
 8483SOL     OW26889   3.359   3.538   8.806  0.2958 -0.3916 -0.4797
 8483SOL    HW126890   3.434   3.567   8.754  0.6486  1.9233  1.1947
 8483SOL    HW226891   3.283   3.577   8.763  0.3092 -0.6397 -0.7318
 8484SOL     OW26892   1.460   3.406   9.459  0.0791  0.3615  1.4350
 8484SOL    HW126893   1.441   3.497   9.436 -0.4100 -0.6054 -2.7640
 8484SOL    HW226894   1.552   3.395   9.436 -0.3131 -0.5681  0.2060
 8485SOL     OW26895   1.138   4.698  10.209  0.0667  0.6732 -0.2281
 8485SOL    HW126896   1.199   4.753  10.258 -0.1344  1.7931 -1.2033
 8485SOL    HW226897   1.157   4.609  10.239  0.4792  1.2450  1.2892
 8486SOL     OW26898   2.453   2.285   9.321 -0.3199  0.3585  0.4526
 8486SOL    HW126899   2.360   2.305   9.312  0.2722  3.1371 -0.5285
 8486SOL    HW226900   2.485   2.277   9.231  0.6766  1.0939  0.7242
 8487SOL     OW26901   0.739   1.781   9.296  0.0028  0.1637 -0.2341
 8487SOL    HW126902   0.653   1.771   9.254 -1.2173  0.3066  2.0498
 8487SOL    HW226903   0.728   1.855   9.356  1.5976 -0.0890  0.4234
 8488SOL     OW26904   2.381   3.147   9.240  0.3456  0.1829  0.0450
 8488SOL    HW126905   2.321   3.116   9.171 -0.0620 -0.2524  0.5860
 8488SOL    HW226906   2.422   3.225   9.203  0.4331 -0.2742 -0.8541
 8489SOL     OW26907   1.708   4.353   8.800  0.2503  0.2701 -0.0056
 8489SOL    HW126908   1.678   4.415   8.866 -0.3959 -1.4148  1.3636
 8489SOL    HW226909   1.799   4.335   8.823 -0.0243 -0.4451  0.5695
 8490SOL     OW26910   2.233   4.091   7.940  0.2436 -0.5561  0.3818
 8490SOL    HW126911   2.258   4.112   7.850  0.7373  1.7343  0.9932
 8490SOL    HW226912   2.260   4.000   7.951  0.8937 -0.6544 -1.5385
 8491SOL     OW26913   2.375   0.784   7.668 -0.0106 -0.6234  0.5046
 8491SOL    HW126914   2.405   0.808   7.581  0.6273 -2.5156  0.1401
 8491SOL    HW226915   2.448   0.808   7.726 -0.0811 -0.1529  0.3996
 8492SOL     OW26916   3.891   1.854   8.981 -0.0772 -0.3204  0.1909
 8492SOL    HW126917   3.964   1.862   9.042  0.5088 -2.5879 -0.1079
 8492SOL    HW226918   3.932   1.856   8.894 -0.6218  0.4368 -0.0591
 8493SOL     OW26919   2.551   3.572   8.446  0.2116 -0.2923 -0.5052
 8493SOL    HW126920   2.538   3.622   8.366  2.4108 -0.0479 -0.7662
 8493SOL    HW226921   2.495   3.494   8.435 -0.1777  0.1537 -1.8653
 8494SOL     OW26922   2.390   1.301   7.689 -0.0701 -0.2103  0.3802
 8494SOL    HW126923   2.388   1.376   7.631 -0.4298 -0.0991  0.5365
 8494SOL    HW226924   2.356   1.228   7.637  1.9918 -0.6968 -0.3762
 8495SOL     OW26925   3.908   3.056   9.310  0.2200  0.0413 -0.0566
 8495SOL    HW126926   3.857   3.092   9.238  2.8903  1.8572 -1.2144
 8495SOL    HW226927   3.958   2.985   9.271  0.9121  0.3595  0.2237
 8496SOL     OW26928   3.505   2.138   8.503  0.1101 -0.0366  1.0242
 8496SOL    HW126929   3.502   2.044   8.520  0.1049 -0.2241  0.0486
 8496SOL    HW226930   3.573   2.172   8.562  1.2434 -0.9115  0.2617
 8497SOL     OW26931   3.400   2.546   9.470 -0.3427 -0.2865 -0.2082
 8497SOL    HW126932   3.379   2.602   9.395  0.0714  0.3294  0.1294
 8497SOL    HW226933   3.389   2.602   9.546  2.2286  0.0396  0.0097
 8498SOL     OW26934   3.711   1.638  11.343 -0.5046 -0.2474  0.2737
 8498SOL    HW126935   3.725   1.704  11.275  2.6273 -1.8631 -0.8346
 8498SOL    HW226936   3.783   1.651  11.405 -0.8475 -1.5454  0.9717
 8499SOL     OW26937   1.835   3.662   9.594  0.0184 -0.1469  0.3641
 8499SOL    HW126938   1.811   3.581   9.549 -1.0166  0.6453 -0.5765
 8499SOL    HW226939   1.769   3.725   9.565  0.6013  0.9404  1.3512
 8500SOL     OW26940   0.687   1.664   7.604  0.4018 -0.7539  0.9647
 8500SOL    HW126941   0.694   1.735   7.540 -1.1139 -0.0304  1.5513
 8500SOL    HW226942   0.594   1.642   7.606  0.8871 -3.1037  0.4787
 8501SOL     OW26943   1.206   3.884   7.023  0.2308 -0.5416 -0.3083
 8501SOL    HW126944   1.237   3.969   6.991 -0.2027 -1.1286 -2.4525
 8501SOL    HW226945   1.279   3.849   7.074  0.1258  1.4309  1.3126
 8502SOL     OW26946   4.076   2.592   7.502 -0.1760  0.1063 -0.0176
 8502SOL    HW126947   4.099   2.684   7.515 -0.3613  0.3215 -1.0518
 8502SOL    HW226948   3.980   2.591   7.509 -0.1224 -0.1339  0.6839
 8503SOL     OW26949   2.992   1.570   8.021 -0.3492  0.4314  0.0267
 8503SOL    HW126950   2.917   1.627   8.004 -1.4783 -0.3689  1.9779
 8503SOL    HW226951   3.065   1.613   7.976 -1.5433  2.3624 -0.2066
 8504SOL     OW26952   7.727   2.511   8.958  0.5188  0.1299  0.1059
 8504SOL    HW126953   7.821   2.494   8.969  0.2837 -1.5985 -0.2033
 8504SOL    HW226954   7.710   2.589   9.010  1.8518 -0.4013  1.4085
 8505SOL     OW26955   1.105   1.666   9.648  0.0030  0.0629  0.2408
 8505SOL    HW126956   1.100   1.571   9.651  1.2134 -0.0054  0.5582
 8505SOL    HW226957   1.059   1.690   9.567 -1.4622 -0.6755  0.8130
 8506SOL     OW26958   3.963   1.753   7.361 -0.7767 -0.0528 -0.6110
 8506SOL    HW126959   3.944   1.745   7.454 -0.9427 -1.0741 -0.7220
 8506SOL    HW226960   4.051   1.791   7.358  0.5865 -2.8748  0.0585
 8507SOL     OW26961   0.583   0.907   8.341  0.1052  0.7306 -0.0965
 8507SOL    HW126962   0.502   0.855   8.348 -0.6427  1.9834  0.8906
 8507SOL    HW226963   0.631   0.865   8.269 -2.1630  0.9221 -1.8686
 8508SOL     OW26964   3.839   2.600   7.404 -0.5769 -0.5455 -0.0632
 8508SOL    HW126965   3.749   2.632   7.411 -0.4472 -0.1152 -0.3159
 8508SOL    HW226966   3.889   2.677   7.377 -0.2197 -0.9101 -0.4455
 8509SOL     OW26967   3.095   2.133   8.243 -0.3268 -0.4090  0.1247
 8509SOL    HW126968   3.178   2.180   8.255 -0.8199  0.4244  0.4288
 8509SOL    HW226969   3.099   2.098   8.155  1.1750 -2.0868  0.8051
 8510SOL     OW26970   1.275   2.341  10.332  0.5939  0.0419 -0.4622
 8510SOL    HW126971   1.346   2.278  10.341 -0.9451 -1.5744  1.1199
 8510SOL    HW226972   1.229   2.315  10.252  0.7859  0.0402 -0.5728
 8511SOL     OW26973   2.925   1.104   9.157 -0.1738 -0.1985  0.6603
 8511SOL    HW126974   3.000   1.117   9.214 -0.8612 -0.7398  1.7206
 8511SOL    HW226975   2.878   1.030   9.195 -0.8664 -0.3169 -0.3830
 8512SOL     OW26976   1.932   2.897   8.533  0.2486  0.1680 -0.0925
 8512SOL    HW126977   1.879   2.926   8.607  0.4300 -0.6673  0.3812
 8512SOL    HW226978   1.870   2.887   8.460  0.1648  1.5868 -0.2402
 8513SOL     OW26979   2.598   4.772   7.999  0.1964  0.6577  0.1357
 8513SOL    HW126980   2.522   4.782   7.942 -0.6714  0.9158  1.3087
 8513SOL    HW226981   2.657   4.843   7.975  1.2902 -1.0005 -2.5506
 8514SOL     OW26982   3.158   3.694   8.721  0.3638  0.1212  0.5977
 8514SOL    HW126983   3.086   3.698   8.785 -0.4154  0.4989 -0.2771
 8514SOL    HW226984   3.115   3.675   8.638  1.0950  1.7532 -0.2054
 8515SOL     OW26985   3.333   3.350   7.583  0.3833 -0.2423 -0.2413
 8515SOL    HW126986   3.391   3.403   7.528 -0.0210 -0.1771 -0.6016
 8515SOL    HW226987   3.322   3.403   7.662  0.2542  0.0573 -0.4593
 8516SOL     OW26988   2.324   1.397   8.182  0.3642 -0.4081  0.1012
 8516SOL    HW126989   2.358   1.361   8.100  0.0935 -2.0775  0.6911
 8516SOL    HW226990   2.229   1.383   8.178 -0.0135  1.8601 -0.3907
 8517SOL     OW26991   1.454   3.136   8.336  0.2971 -0.5430  0.6012
 8517SOL    HW126992   1.534   3.187   8.328 -1.1935  1.9549  0.4075
 8517SOL    HW226993   1.416   3.139   8.248 -0.5002 -0.7580  0.9277
 8518SOL     OW26994   1.947   1.644   8.877 -0.1722  0.3540 -0.5431
 8518SOL    HW126995   1.989   1.596   8.805 -1.2974 -0.6915 -0.5319
 8518SOL    HW226996   1.995   1.615   8.955 -0.8145 -0.7581 -0.5412
 8519SOL     OW26997   0.818   1.957   7.180 -0.1245  0.0914  0.2350
 8519SOL    HW126998   0.893   1.955   7.121  0.3376 -0.1337  0.8187
 8519SOL    HW226999   0.816   2.046   7.214 -2.0042  1.0618 -2.1174
 8520SOL     OW27000   2.029   4.578   9.330 -0.2866  0.0249 -0.4402
 8520SOL    HW127001   2.043   4.666   9.365 -1.5213 -0.4166  1.2900
 8520SOL    HW227002   2.104   4.527   9.363 -1.7672 -0.5504  2.3515
 8521SOL     OW27003   1.709   4.085   8.716  0.0699  0.2595 -0.3741
 8521SOL    HW127004   1.618   4.055   8.716  0.1469  0.0244 -0.6360
 8521SOL    HW227005   1.703   4.177   8.741 -0.1445 -0.0374  0.7150
 8522SOL     OW27006   0.187   1.757   8.761  0.4856  0.4009 -0.1818
 8522SOL    HW127007   0.142   1.785   8.681 -0.1783 -0.2063 -0.0292
 8522SOL    HW227008   0.263   1.708   8.730  0.0905 -0.0508 -0.4491
 8523SOL     OW27009   1.892   2.009   6.790  0.3527  0.3154  0.4327
 8523SOL    HW127010   1.928   2.096   6.775 -0.3247  0.5840  0.3188
 8523SOL    HW227011   1.933   1.980   6.872 -0.0035  1.0669  0.8862
 8524SOL     OW27012   1.592   1.780   7.518  0.3315 -0.0750 -0.0667
 8524SOL    HW127013   1.615   1.866   7.552 -0.5126 -0.5354  1.8026
 8524SOL    HW227014   1.636   1.718   7.576 -0.8333 -0.9078 -0.0271
 8525SOL     OW27015   3.091   3.168   8.923  0.2025  0.0664  0.5118
 8525SOL    HW127016   3.060   3.087   8.882 -2.0116  2.3866 -2.9246
 8525SOL    HW227017   3.176   3.184   8.883 -1.2039  1.4279 -2.2368
 8526SOL     OW27018   1.321   2.979   8.540 -0.0250 -0.1261 -0.3917
 8526SOL    HW127019   1.245   3.028   8.572  0.6798  1.5118 -1.1455
 8526SOL    HW227020   1.357   3.033   8.469 -0.3511 -2.6367 -2.6545
 8527SOL     OW27021   4.710   3.212   9.334 -0.0209 -0.3577 -0.1508
 8527SOL    HW127022   4.805   3.210   9.322 -0.1452  0.5645 -1.4433
 8527SOL    HW227023   4.678   3.274   9.268 -1.3023  1.1711  1.7868
 8528SOL     OW27024   2.294   3.582   8.651 -0.4239 -0.2044  0.1428
 8528SOL    HW127025   2.365   3.519   8.639 -1.7316 -1.6436 -0.3644
 8528SOL    HW227026   2.338   3.663   8.679  1.2487 -1.5794  1.7767
 8529SOL     OW27027   2.929   2.834   7.466 -0.3382 -0.1680 -0.7082
 8529SOL    HW127028   2.970   2.895   7.405  0.4271 -0.5515 -0.6030
 8529SOL    HW227029   2.992   2.761   7.471 -0.9440 -0.6755 -0.3666
 8530SOL     OW27030   2.857   4.315   8.169 -0.2190 -0.2181  0.3120
 8530SOL    HW127031   2.815   4.349   8.248  1.8342 -1.9676  2.2959
 8530SOL    HW227032   2.946   4.349   8.174  0.4703 -1.8681 -0.2237
 8531SOL     OW27033   3.675   2.778   8.417  0.9599 -0.3374  0.1908
 8531SOL    HW127034   3.625   2.837   8.360  1.8625  0.3441  0.0753
 8531SOL    HW227035   3.655   2.809   8.505  0.9817 -0.2198  0.1554
 8532SOL     OW27036   3.152   4.074   8.407  0.1321 -0.3425 -0.1884
 8532SOL    HW127037   3.143   4.016   8.331 -0.0552 -0.3558 -0.1566
 8532SOL    HW227038   3.246   4.091   8.413  0.5617 -2.6794  1.2788
 8533SOL     OW27039   2.933   3.668   9.345 -0.0118  0.4435  0.1932
 8533SOL    HW127040   2.955   3.644   9.435 -0.3312 -0.3325  0.0740
 8533SOL    HW227041   2.911   3.761   9.350  1.0747  0.6870  0.7075
 8534SOL     OW27042   2.985   2.560   8.489 -0.7012 -0.2682  0.4460
 8534SOL    HW127043   2.992   2.484   8.548 -0.4489 -0.6434 -0.0578
 8534SOL    HW227044   2.991   2.522   8.401  1.6875  0.5454  0.1939
 8535SOL     OW27045   3.412   2.259   9.408 -0.5552  0.1307 -0.2128
 8535SOL    HW127046   3.385   2.224   9.323  0.3076  1.2034 -0.9504
 8535SOL    HW227047   3.402   2.354   9.400 -2.0850  0.1549  1.4776
 8536SOL     OW27048   2.664   4.171   8.387  0.2096  0.3976  0.5265
 8536SOL    HW127049   2.673   4.264   8.366  0.6353  0.2599  0.0795
 8536SOL    HW227050   2.684   4.126   8.305 -1.1569 -0.0541  0.4270
 8537SOL     OW27051   1.933   3.672   9.257  0.4618  0.1445  0.3818
 8537SOL    HW127052   1.884   3.753   9.238  1.0425  0.6983  1.1969
 8537SOL    HW227053   1.911   3.614   9.184  1.6816  1.7609 -1.3791
 8538SOL     OW27054   1.776   3.263   8.613  0.3609 -0.1986  0.2053
 8538SOL    HW127055   1.747   3.336   8.668 -1.8895  0.5991 -1.9147
 8538SOL    HW227056   1.766   3.186   8.669 -0.8041  0.6957  1.2872
 8539SOL     OW27057   3.332   3.795   7.366 -0.6085 -0.0839  0.3576
 8539SOL    HW127058   3.408   3.852   7.359 -0.8304  0.5963  2.5400
 8539SOL    HW227059   3.368   3.709   7.385 -0.3553  0.0483  0.4771
 8540SOL     OW27060   3.023   3.620   8.482  0.3888  0.3017 -0.1790
 8540SOL    HW127061   2.931   3.622   8.506  0.8622 -1.3456  2.1802
 8540SOL    HW227062   3.032   3.687   8.414 -2.3140  1.2210  0.2460
 8541SOL     OW27063   2.381   3.295   7.631 -0.1466  0.3317 -0.4074
 8541SOL    HW127064   2.476   3.302   7.633 -0.0242 -0.7889 -1.3364
 8541SOL    HW227065   2.363   3.230   7.564 -1.5171 -0.3917  0.6131
 8542SOL     OW27066   2.409   3.857   7.694  0.5620 -0.1350 -0.3128
 8542SOL    HW127067   2.489   3.804   7.701  0.8805  0.1716 -1.4436
 8542SOL    HW227068   2.428   3.921   7.626 -0.5098  0.2011 -0.3202
 8543SOL     OW27069   1.684   4.124   8.299 -0.1572 -0.2313 -0.4613
 8543SOL    HW127070   1.601   4.118   8.345  0.2569 -1.7232  0.1496
 8543SOL    HW227071   1.737   4.184   8.352 -0.0889 -1.0276  0.3936
 8544SOL     OW27072   3.646   2.575   7.700 -0.2734  0.3734  0.0590
 8544SOL    HW127073   3.659   2.660   7.741  1.7130  0.5158 -0.7387
 8544SOL    HW227074   3.615   2.596   7.612  2.6013  0.5175 -1.0530
 8545SOL     OW27075   2.486   2.010   6.920  0.0995 -0.0405  0.0725
 8545SOL    HW127076   2.464   2.080   6.857 -0.4369  0.3256  0.6533
 8545SOL    HW227077   2.569   2.038   6.959  0.9902 -0.7882 -1.2055
 8546SOL     OW27078   2.875   3.720   8.208 -0.0635  0.6339 -0.2888
 8546SOL    HW127079   2.826   3.729   8.126 -0.4409 -0.9913 -0.2759
 8546SOL    HW227080   2.812   3.746   8.276 -0.5917 -0.3974 -0.3558
 8547SOL     OW27081   3.358   1.470   8.491  0.0282 -0.0432  0.4068
 8547SOL    HW127082   3.375   1.541   8.429 -0.1144  0.9689  1.4980
 8547SOL    HW227083   3.287   1.503   8.546  1.3926 -0.1069  2.3149
 8548SOL     OW27084   3.515   1.013   7.177 -0.4372 -0.1720 -0.1358
 8548SOL    HW127085   3.423   1.030   7.198 -0.1539  0.0359  1.0035
 8548SOL    HW227086   3.512   0.936   7.120 -1.4600  1.2852 -2.1844
 8549SOL     OW27087   3.734   3.994   7.797  0.3734 -0.3971  0.0353
 8549SOL    HW127088   3.692   4.071   7.757  0.6576 -0.9432 -1.3749
 8549SOL    HW227089   3.697   3.990   7.885 -0.3547  0.8134 -0.1848
 8550SOL     OW27090   2.582   2.583  11.045 -0.0642 -0.8284  0.6012
 8550SOL    HW127091   2.497   2.611  11.080  0.4390 -1.4650  2.4224
 8550SOL    HW227092   2.560   2.538  10.963 -1.5874 -1.7353  1.4682
 8551SOL     OW27093   3.180   2.495   8.049  0.4221 -0.1332  0.0301
 8551SOL    HW127094   3.192   2.549   7.970 -0.4804 -2.5682 -1.8789
 8551SOL    HW227095   3.266   2.457   8.065  0.3107 -0.6735 -0.6127
 8552SOL     OW27096   3.707   2.582   8.231  0.3019  0.5285  0.5758
 8552SOL    HW127097   3.676   2.620   8.314  0.4811 -0.0714  0.9186
 8552SOL    HW227098   3.769   2.647   8.198  0.0500  0.8875  0.7883
 8553SOL     OW27099   4.039   2.231   8.519  0.0756  0.3420 -0.4264
 8553SOL    HW127100   4.031   2.302   8.455 -0.3514  1.8222  1.2048
 8553SOL    HW227101   4.125   2.193   8.502  0.0661  0.8407 -1.7173
 8554SOL     OW27102   0.366   3.419   8.913 -0.9358  0.2026 -0.3660
 8554SOL    HW127103   0.429   3.358   8.952 -1.1133  0.2435 -0.0099
 8554SOL    HW227104   0.285   3.404   8.962 -0.4274  2.2839  1.2801
 8555SOL     OW27105   1.707   0.875   6.506 -0.2566  0.2220  0.0979
 8555SOL    HW127106   1.786   0.911   6.548 -1.8841  1.5827  2.2719
 8555SOL    HW227107   1.638   0.938   6.529 -2.1934 -1.4856 -0.7566
 8556SOL     OW27108   0.496   5.241   8.477  0.4400  0.0377 -0.9296
 8556SOL    HW127109   0.459   5.302   8.542 -1.8965 -0.0252 -2.0871
 8556SOL    HW227110   0.477   5.155   8.512 -0.4526  0.0043 -1.4695
 8557SOL     OW27111   0.652   2.736   8.025 -0.2285 -0.5742  0.3995
 8557SOL    HW127112   0.657   2.678   8.102 -0.1408  0.2275  1.0045
 8557SOL    HW227113   0.679   2.822   8.058 -2.4455  0.3120  0.0359
 8558SOL     OW27114   0.041   1.961   9.178  0.5727  0.1068  0.2952
 8558SOL    HW127115  -0.034   1.915   9.217 -0.1295  0.7896 -0.2220
 8558SOL    HW227116   0.094   1.891   9.140 -1.2962 -0.2603 -1.8876
 8559SOL     OW27117   3.129   2.156   7.541  0.0015  0.4684  0.2215
 8559SOL    HW127118   3.163   2.153   7.452 -1.5601 -0.9402 -0.3775
 8559SOL    HW227119   3.065   2.228   7.540  1.0301  1.4261  0.6503
 8560SOL     OW27120   1.252   2.098   8.284 -0.0621 -0.4321  0.9119
 8560SOL    HW127121   1.254   2.079   8.378  2.8452 -0.5691  0.9154
 8560SOL    HW227122   1.316   2.038   8.246  0.3699  1.0542 -0.8510
 8561SOL     OW27123   3.443   4.045   7.681  0.4514 -0.1651 -0.2970
 8561SOL    HW127124   3.361   4.080   7.646  0.7016  0.8271  0.0758
 8561SOL    HW227125   3.511   4.083   7.625  0.8064  0.9072  0.8242
 8562SOL     OW27126   2.452   3.263   9.490 -0.0611  0.8562 -0.1553
 8562SOL    HW127127   2.496   3.342   9.460 -0.8851  1.7207  0.8145
 8562SOL    HW227128   2.428   3.217   9.410 -1.1282  2.4867 -0.8299
 8563SOL     OW27129   2.611   2.960   8.913 -0.6421  0.2502  0.1402
 8563SOL    HW127130   2.640   3.007   8.834 -0.6314  0.5721  0.3363
 8563SOL    HW227131   2.520   2.937   8.895 -0.7085  0.5229  0.1265
 8564SOL     OW27132   2.367   2.594   9.006 -0.7988 -0.8446 -0.3431
 8564SOL    HW127133   2.300   2.563   8.945 -0.3943  0.6641 -1.6026
 8564SOL    HW227134   2.391   2.681   8.974  2.9868 -1.9496 -1.0108
 8565SOL     OW27135   2.201   3.718   7.356 -0.0998  0.3674 -0.1787
 8565SOL    HW127136   2.260   3.753   7.289 -0.0190  0.4570 -0.0611
 8565SOL    HW227137   2.259   3.678   7.421 -0.1526  0.7004  0.0757
 8566SOL     OW27138   3.211   2.169  10.151  0.4100 -0.7667 -0.4374
 8566SOL    HW127139   3.299   2.205  10.165  1.4192 -3.0305 -0.4935
 8566SOL    HW227140   3.195   2.179  10.057  0.4309  0.0126 -0.3610
 8567SOL     OW27141   2.409   1.267   7.964 -0.0482  0.4314 -0.3490
 8567SOL    HW127142   2.361   1.188   7.940  1.9992 -0.5096 -1.6571
 8567SOL    HW227143   2.411   1.319   7.883 -0.4459  1.3398  0.2044
 8568SOL     OW27144   1.861   1.713   8.007  0.0729  0.1849  0.2107
 8568SOL    HW127145   1.954   1.735   8.017  0.3102 -1.0129  0.8498
 8568SOL    HW227146   1.854   1.677   7.918 -0.1632  1.9551 -0.5328
 8569SOL     OW27147   4.279   2.580   9.034  0.0489 -0.2451 -0.2110
 8569SOL    HW127148   4.366   2.594   9.072  0.0500  0.1235 -0.3364
 8569SOL    HW227149   4.297   2.546   8.946  0.0342 -1.9228  0.4025
 8570SOL     OW27150   4.014   2.918   9.059 -0.1563  0.0974  0.0538
 8570SOL    HW127151   4.088   2.974   9.081 -0.1330  0.0085  0.2055
 8570SOL    HW227152   4.041   2.830   9.087  0.4863 -0.3021 -1.7309
 8571SOL     OW27153   2.569   4.611   9.123  0.1139  0.3378  0.2807
 8571SOL    HW127154   2.474   4.606   9.130 -0.0270 -0.5953 -1.5241
 8571SOL    HW227155   2.598   4.520   9.123  0.8660  0.5582 -0.4649
 8572SOL     OW27156   1.742   4.034   6.570  0.1043  0.1887 -0.1087
 8572SOL    HW127157   1.674   4.009   6.507 -0.6381  0.2173  0.6473
 8572SOL    HW227158   1.727   4.127   6.585 -0.1485  0.0482  0.5767
 8573SOL     OW27159   0.733   3.379   8.391 -0.1511  0.0360 -0.4899
 8573SOL    HW127160   0.804   3.320   8.417 -0.1612 -0.7529 -2.1557
 8573SOL    HW227161   0.676   3.326   8.336 -2.2576  0.5611  1.0700
 8574SOL     OW27162   2.668   4.013   7.054 -0.4106 -0.1328 -0.1397
 8574SOL    HW127163   2.623   4.055   6.981  0.0173 -0.6147 -0.6812
 8574SOL    HW227164   2.756   3.994   7.021 -0.7839 -2.0622 -0.1479
 8575SOL     OW27165   3.723   2.660  10.726  0.2146  0.0797  0.1617
 8575SOL    HW127166   3.634   2.677  10.696  0.5038 -0.8162 -1.3172
 8575SOL    HW227167   3.745   2.575  10.688  1.7210  0.3339  0.4157
 8576SOL     OW27168   2.900   2.951   8.548 -0.1012 -0.1614  0.6223
 8576SOL    HW127169   2.845   3.020   8.511 -0.2680 -0.6539 -0.0677
 8576SOL    HW227170   2.841   2.876   8.558  0.3113 -0.5207  0.4045
 8577SOL     OW27171   0.295   2.898   8.285  0.2575  0.6744 -0.3591
 8577SOL    HW127172   0.250   2.838   8.226 -0.3991  1.4046 -0.6118
 8577SOL    HW227173   0.336   2.841   8.351 -0.1202 -0.0608 -0.7516
 8578SOL     OW27174   2.967   1.828   6.802 -0.1107 -0.7343 -0.0949
 8578SOL    HW127175   2.987   1.758   6.739 -1.9607 -0.5323 -0.9711
 8578SOL    HW227176   3.003   1.798   6.885  1.2003 -1.6311 -0.9626
 8579SOL     OW27177   3.951   0.775   9.158  0.5581  0.3213 -0.4895
 8579SOL    HW127178   3.892   0.731   9.098 -0.8782  0.4360  0.7731
 8579SOL    HW227179   3.900   0.849   9.192  1.6253  0.7759  0.1893
 8580SOL     OW27180   2.584   3.338   7.895  0.3786 -0.1493  0.0927
 8580SOL    HW127181   2.617   3.343   7.985  0.1982 -2.5101  0.3492
 8580SOL    HW227182   2.654   3.376   7.842  0.3493  1.5826  1.2133
 8581SOL     OW27183   3.336   3.436   7.838 -0.3603  0.2236  0.2620
 8581SOL    HW127184   3.302   3.525   7.836 -0.6321  0.1236  0.3665
 8581SOL    HW227185   3.401   3.436   7.908  1.4886  0.9938 -1.3322
 8582SOL     OW27186   3.437   3.019   8.741 -0.5652  0.7259  0.3769
 8582SOL    HW127187   3.416   3.113   8.743 -1.1149  0.6500 -0.9794
 8582SOL    HW227188   3.375   2.979   8.800 -0.8932  1.1215  0.3055
 8583SOL     OW27189   1.612   2.835   8.978 -0.3950 -0.1589 -0.2702
 8583SOL    HW127190   1.653   2.810   9.060 -1.1207  0.9762  0.4625
 8583SOL    HW227191   1.545   2.899   9.002 -1.1168 -0.3298 -1.6648
 8584SOL     OW27192   2.656   2.915   8.034  0.1567  0.6588  0.4732
 8584SOL    HW127193   2.697   2.837   7.997 -1.8859 -1.2020  1.8439
 8584SOL    HW227194   2.608   2.954   7.961  0.8651  0.3858 -0.1444
 8585SOL     OW27195   3.531   3.053   7.801 -0.0196 -0.1354 -0.1090
 8585SOL    HW127196   3.596   3.108   7.758 -0.0938 -1.7858 -2.5842
 8585SOL    HW227197   3.460   3.112   7.824  0.3181  0.9971 -1.7749
 8586SOL     OW27198   3.604   3.225   8.888  0.2466  0.1928  0.2392
 8586SOL    HW127199   3.591   3.130   8.894 -0.0712  0.2134 -0.0633
 8586SOL    HW227200   3.682   3.236   8.833  0.8082  0.0907  1.0086
 8587SOL     OW27201   5.342   2.641   7.345  0.5033  0.1433  0.1314
 8587SOL    HW127202   5.388   2.683   7.417 -0.2640  1.3154 -0.0419
 8587SOL    HW227203   5.258   2.686   7.340  0.1192 -0.6367 -0.8157
 8588SOL     OW27204   3.554   2.429   7.224 -0.3960 -0.1858  0.2589
 8588SOL    HW127205   3.593   2.412   7.310 -0.7398 -2.1445  0.0723
 8588SOL    HW227206   3.487   2.495   7.241 -1.3954 -1.5082  1.8022
 8589SOL     OW27207   2.702   2.446   7.835  0.4871  0.3424  0.2619
 8589SOL    HW127208   2.700   2.537   7.807 -0.0225  0.0260 -0.7773
 8589SOL    HW227209   2.786   2.436   7.880  1.4797  0.8307 -1.3833
 8590SOL     OW27210   1.965   4.663   8.094  0.3239 -0.7730 -0.1078
 8590SOL    HW127211   1.917   4.643   8.014  0.9478 -0.6949 -0.5051
 8590SOL    HW227212   2.021   4.736   8.071 -0.5473  0.2157  0.8129
 8591SOL     OW27213   3.051   1.473   8.931 -0.3080 -0.0296 -0.5868
 8591SOL    HW127214   2.982   1.457   8.867 -2.4876  1.6382  1.2123
 8591SOL    HW227215   3.071   1.566   8.922 -1.7182  0.6208  2.0289
 8592SOL     OW27216   2.460   2.661  10.063 -0.2862  0.2749  0.9973
 8592SOL    HW127217   2.452   2.703   9.977 -0.9292  1.2298  1.5038
 8592SOL    HW227218   2.401   2.586  10.059  1.6204 -1.2497 -0.2661
 8593SOL     OW27219   2.647   4.625  10.478 -0.1466  0.4682 -0.1373
 8593SOL    HW127220   2.628   4.583  10.561 -0.5597 -1.4373 -1.1390
 8593SOL    HW227221   2.641   4.719  10.496 -3.4684  0.1335  1.2791
 8594SOL     OW27222   3.750   4.615  10.752 -1.0306  0.0536 -0.3492
 8594SOL    HW127223   3.734   4.573  10.836 -0.2594  0.0321 -0.2034
 8594SOL    HW227224   3.801   4.551  10.702 -1.5051  0.0567 -0.8444
 8595SOL     OW27225   4.783   1.876  10.587  0.3168 -0.1131  0.1301
 8595SOL    HW127226   4.803   1.784  10.571  0.0455  0.1035 -1.7374
 8595SOL    HW227227   4.695   1.875  10.623 -0.4728 -0.5333 -1.6823
 8596SOL     OW27228   3.651   2.236   9.599  0.1769  0.0112  0.1027
 8596SOL    HW127229   3.660   2.305   9.533 -1.2145 -0.6369 -0.8002
 8596SOL    HW227230   3.668   2.155   9.552 -0.2257 -0.4108  0.6722
 8597SOL     OW27231   2.779   1.906  11.236 -0.1522  0.3687 -0.0533
 8597SOL    HW127232   2.701   1.942  11.195 -1.3941 -1.0678  0.9732
 8597SOL    HW227233   2.747   1.840  11.297  1.7919  0.5168  1.2339
 8598SOL     OW27234   2.476   2.776  11.887 -0.3864  0.6763 -0.3384
 8598SOL    HW127235   2.472   2.859  11.839  1.7081  0.7260 -0.5361
 8598SOL    HW227236   2.447   2.798  11.975  1.6676  2.0589  0.0702
 8599SOL     OW27237   2.581   3.506   9.431  0.7839  0.1477  0.6295
 8599SOL    HW127238   2.576   3.602   9.440 -0.3130  0.0367  1.3936
 8599SOL    HW227239   2.650   3.492   9.366 -0.7701  1.5779 -1.4862
 8600SOL     OW27240   2.461   4.898  11.603  0.0341  0.0775 -0.0780
 8600SOL    HW127241   2.477   4.810  11.638 -1.1518  0.3080  1.1244
 8600SOL    HW227242   2.424   4.883  11.517  0.4842 -0.5814 -0.1662
 8601SOL     OW27243   1.630   2.499  11.595  0.7668 -0.1537 -0.5627
 8601SOL    HW127244   1.698   2.432  11.581  1.7065  0.8331 -0.9034
 8601SOL    HW227245   1.635   2.554  11.517 -2.0416 -1.3649 -1.7001
 8602SOL     OW27246   3.607   4.078   9.970  0.4358 -0.1883  0.2677
 8602SOL    HW127247   3.611   4.144   9.901  0.4529 -0.1172  0.3369
 8602SOL    HW227248   3.602   3.995   9.922  1.5717 -0.2208  0.1783
 8603SOL     OW27249   2.439   2.772   0.464  0.0134 -0.4940  0.2158
 8603SOL    HW127250   2.528   2.804   0.453 -0.8488  2.1839  0.2086
 8603SOL    HW227251   2.404   2.768   0.375 -1.0151  2.3495  0.3978
 8604SOL     OW27252   2.687   2.452  11.600  0.1039  0.1567 -0.0239
 8604SOL    HW127253   2.615   2.502  11.639 -0.6733 -1.5130  0.7590
 8604SOL    HW227254   2.655   2.426  11.513 -0.0950 -0.2400  0.1639
 8605SOL     OW27255   2.396   3.114   9.731  0.1742 -0.2931  0.4202
 8605SOL    HW127256   2.403   3.146   9.641  0.3501 -1.9485 -0.1836
 8605SOL    HW227257   2.302   3.119   9.751  0.1085 -0.1265  0.0755
 8606SOL     OW27258   5.117   4.357  12.277  0.6369 -0.0679 -0.3230
 8606SOL    HW127259   5.125   4.262  12.283  2.7014  0.0360 -0.7825
 8606SOL    HW227260   5.098   4.375  12.185  0.0946 -0.0237 -0.2093
 8607SOL     OW27261   2.922   2.995   9.757  0.1033 -0.4173  0.0196
 8607SOL    HW127262   2.865   3.045   9.698  0.8757  0.2165 -0.2052
 8607SOL    HW227263   3.010   3.026   9.737  0.5406 -1.4121  0.3382
 8608SOL     OW27264   3.348   3.085   9.443  0.4082  0.6408  0.2243
 8608SOL    HW127265   3.327   3.115   9.355  2.1740 -1.1688 -0.9059
 8608SOL    HW227266   3.444   3.092   9.448  0.3748  0.2924  1.8430
 8609SOL     OW27267   2.089   2.849   9.956 -0.2760  0.2657 -0.3193
 8609SOL    HW127268   2.162   2.822   9.902  0.0776 -0.4498  0.5035
 8609SOL    HW227269   2.035   2.903   9.898 -0.6359 -1.5858 -1.8173
 8610SOL     OW27270   4.714   1.429   9.981 -0.2539 -0.1438  0.5928
 8610SOL    HW127271   4.678   1.518   9.980  0.3268  0.1041 -0.1571
 8610SOL    HW227272   4.795   1.436   9.930  1.1790 -0.5379  2.6893
 8611SOL     OW27273   4.490   2.235  10.135  0.2127  0.0291 -0.3713
 8611SOL    HW127274   4.406   2.216  10.178 -0.3628 -0.7150 -1.7618
 8611SOL    HW227275   4.466   2.256  10.045  1.5164  0.0228 -0.7335
 8612SOL     OW27276   3.963   2.106  10.737 -0.0941 -0.2051 -0.2943
 8612SOL    HW127277   3.923   2.054  10.806 -0.4136 -0.3836 -0.6110
 8612SOL    HW227278   4.037   2.053  10.707  0.6405  0.3113  0.5747
 8613SOL     OW27279   2.206   3.730   8.436  0.3965 -0.0036  0.4976
 8613SOL    HW127280   2.251   3.731   8.351 -0.8266 -0.3330 -0.1834
 8613SOL    HW227281   2.268   3.689   8.496  0.7766 -1.0045 -0.5464
 8614SOL     OW27282   3.358   2.862   8.971 -1.0788  0.4995  0.2450
 8614SOL    HW127283   3.425   2.812   8.924 -1.4915  1.8861 -1.9625
 8614SOL    HW227284   3.407   2.913   9.035 -0.3989 -0.8048  0.8061
 8615SOL     OW27285   3.876   3.858  10.034 -0.6145  0.0876  0.0311
 8615SOL    HW127286   3.783   3.842  10.015 -0.6136 -0.6122  0.5842
 8615SOL    HW227287   3.887   3.830  10.124  0.4326 -1.0897 -0.4405
 8616SOL     OW27288   2.540   2.050  10.477 -0.2290 -0.3465 -0.2164
 8616SOL    HW127289   2.583   2.131  10.447 -0.5071 -0.4662 -0.9531
 8616SOL    HW227290   2.585   2.028  10.558  1.0111 -0.3841 -0.8916
 8617SOL     OW27291   2.750   4.348  11.556  0.5920 -0.6489 -0.2046
 8617SOL    HW127292   2.780   4.396  11.634 -0.7262 -0.2385  0.0753
 8617SOL    HW227293   2.711   4.416  11.501 -2.2135 -1.4451  0.6342
 8618SOL     OW27294   4.839   2.957  10.987 -0.2554  0.3361 -0.5518
 8618SOL    HW127295   4.762   2.947  11.043 -0.0368  1.0033 -0.1094
 8618SOL    HW227296   4.900   2.891  11.019 -1.1042 -1.0628 -1.7438
 8619SOL     OW27297   3.556   2.982   9.113 -0.2245 -0.4899  0.6380
 8619SOL    HW127298   3.641   2.947   9.085 -0.6367  0.4284 -2.0438
 8619SOL    HW227299   3.576   3.068   9.150 -0.0036 -0.0105 -0.5518
 8620SOL     OW27300   2.701   2.438  10.113 -0.3236  0.6153  0.3982
 8620SOL    HW127301   2.761   2.373  10.076 -2.0296 -0.7966 -0.0410
 8620SOL    HW227302   2.635   2.450  10.046 -1.4903  0.7828  1.5324
 8621SOL     OW27303   2.994   2.415   9.835 -0.1407 -0.2740 -0.1530
 8621SOL    HW127304   2.928   2.369   9.782 -0.8604  0.1888  0.3115
 8621SOL    HW227305   3.051   2.345   9.868  0.5098 -0.5414 -1.7642
 8622SOL     OW27306   4.209   3.746  11.739 -0.0261  0.0889 -0.3299
 8622SOL    HW127307   4.237   3.662  11.778  1.7622  0.3578 -0.9307
 8622SOL    HW227308   4.240   3.812  11.801  0.3869  0.3878 -0.8482
 8623SOL     OW27309   2.298   4.185  11.028  0.0998 -0.1804  0.2563
 8623SOL    HW127310   2.387   4.150  11.018  0.4034  0.3914  0.8849
 8623SOL    HW227311   2.281   4.181  11.122 -1.2166 -1.8877 -0.0062
 8624SOL     OW27312   5.955   4.018  11.274  0.0203 -0.1046 -0.4633
 8624SOL    HW127313   5.895   4.031  11.200  2.0094  1.0543 -1.9509
 8624SOL    HW227314   6.027   3.968  11.238  0.8156  0.0645  0.8308
 8625SOL     OW27315   3.030   2.843   9.421 -0.2711 -0.2866  0.2366
 8625SOL    HW127316   2.982   2.921   9.394 -0.6589 -1.1859 -1.9036
 8625SOL    HW227317   2.973   2.800   9.485 -1.4304 -0.3029 -0.7730
 8626SOL     OW27318   3.045   2.733  11.009  0.2407 -0.1525  0.2204
 8626SOL    HW127319   2.969   2.746  11.065 -0.1576 -2.3988  0.3020
 8626SOL    HW227320   3.113   2.698  11.068  0.3577 -0.9334 -0.3543
 8627SOL     OW27321   2.754   1.116  10.390 -0.1994  0.5373  0.3009
 8627SOL    HW127322   2.753   1.046  10.325  0.6032  0.8653 -0.0758
 8627SOL    HW227323   2.684   1.175  10.362 -0.4410  0.2289  0.2444
 8628SOL     OW27324   5.415   2.001  10.896 -0.0540 -0.3709  0.0138
 8628SOL    HW127325   5.443   2.015  10.805  0.3868  0.2000  0.2323
 8628SOL    HW227326   5.403   1.906  10.902 -0.9487 -0.3296 -0.8820
 8629SOL     OW27327   2.609   3.487  10.081 -0.0146  0.9025 -0.1605
 8629SOL    HW127328   2.624   3.528  10.167  0.8286  0.9651 -0.3301
 8629SOL    HW227329   2.603   3.560  10.020  3.2022  0.8090 -0.7361
 8630SOL     OW27330   2.427   2.300  10.710  0.0703 -0.0625  0.0414
 8630SOL    HW127331   2.334   2.286  10.728 -0.7884  3.7768 -0.4346
 8630SOL    HW227332   2.437   2.281  10.617 -1.2318  2.8910 -0.8211
 8631SOL     OW27333   2.291   3.690   9.655  0.4095  0.0197  0.4067
 8631SOL    HW127334   2.227   3.676   9.586 -0.1604 -0.4500  1.0150
 8631SOL    HW227335   2.239   3.698   9.735  0.8946  2.7117  0.5336
 8632SOL     OW27336   2.814   3.487  10.563 -0.1903 -0.1261 -0.2084
 8632SOL    HW127337   2.780   3.397  10.567 -1.0448  0.2166  0.3389
 8632SOL    HW227338   2.825   3.513  10.654  0.1517  0.3005 -0.3690
 8633SOL     OW27339   3.246   3.749  10.311  0.1702  0.2527  0.6313
 8633SOL    HW127340   3.203   3.801  10.243 -0.7183  0.4043  1.2950
 8633SOL    HW227341   3.272   3.668  10.266 -1.2242 -0.0470  0.3004
 8634SOL     OW27342   3.837   2.651   9.615 -0.0788 -0.2687 -0.0975
 8634SOL    HW127343   3.765   2.710   9.634 -0.0622 -0.7134  1.4308
 8634SOL    HW227344   3.916   2.702   9.631  0.0104  0.3209 -2.0790
 8635SOL     OW27345   3.713   1.911  11.690 -0.3239  0.1694  0.6999
 8635SOL    HW127346   3.781   1.975  11.708  0.3278  0.1795 -1.4950
 8635SOL    HW227347   3.647   1.958  11.639 -0.4290 -0.5933  0.1055
 8636SOL     OW27348   4.548   2.341   9.595  0.3848  0.1535  0.2237
 8636SOL    HW127349   4.486   2.397   9.548  0.8009  1.2538  0.9342
 8636SOL    HW227350   4.604   2.403   9.642  1.1940 -0.8625  0.6226
 8637SOL     OW27351   2.043   2.436   8.866 -0.3959 -0.3359 -0.0884
 8637SOL    HW127352   2.019   2.454   8.957  3.8966 -2.8717  1.8309
 8637SOL    HW227353   2.089   2.514   8.837  1.4455 -0.8174  1.3506
 8638SOL     OW27354   1.688   3.909  11.312 -0.0269  0.1152 -0.1836
 8638SOL    HW127355   1.761   3.888  11.370 -1.9217 -2.4075  1.4892
 8638SOL    HW227356   1.687   3.838  11.248 -1.3028 -0.1925  0.1533
 8639SOL     OW27357   1.907   5.765   9.184  0.3615 -0.2043  0.1757
 8639SOL    HW127358   1.901   5.807   9.270 -1.0202  0.1599 -0.0707
 8639SOL    HW227359   1.971   5.818   9.136 -1.0000  1.3894  0.0267
 8640SOL     OW27360   3.868   5.476  11.087  0.6182 -0.7053  0.4274
 8640SOL    HW127361   3.932   5.424  11.038  1.4096 -3.1469  3.6454
 8640SOL    HW227362   3.922   5.532  11.143 -0.2444  1.9377 -1.2043
 8641SOL     OW27363   4.917   5.494  11.786 -0.2811  0.5268 -0.4553
 8641SOL    HW127364   4.856   5.568  11.789 -1.4424 -0.4219  0.1640
 8641SOL    HW227365   4.870   5.423  11.829 -0.7342 -1.6712 -4.1900
 8642SOL     OW27366   0.548   2.525   9.833 -0.0112 -0.0674  0.1556
 8642SOL    HW127367   0.603   2.598   9.803  0.0112  0.2191  0.8634
 8642SOL    HW227368   0.459   2.550   9.807 -0.2429  1.0456  1.8665
 8643SOL     OW27369   2.972   4.219  10.032  0.4351  1.0253 -0.0667
 8643SOL    HW127370   2.968   4.301   9.983  0.6899  0.4874 -1.0141
 8643SOL    HW227371   2.995   4.153   9.967 -0.2898  0.1049  0.5798
 8644SOL     OW27372   2.999   3.878  11.442 -0.1292  0.4985  0.2288
 8644SOL    HW127373   2.916   3.839  11.467  0.4986 -0.5034  0.8230
 8644SOL    HW227374   3.048   3.806  11.401  1.9330 -0.0804  3.3302
 8645SOL     OW27375   2.381   2.727   8.485 -0.0715 -0.3539 -0.5855
 8645SOL    HW127376   2.445   2.659   8.462 -0.4363 -1.1345  0.6388
 8645SOL    HW227377   2.432   2.791   8.535 -0.3518 -1.3307  1.0124
 8646SOL     OW27378   3.095   1.978  10.425 -0.7533  0.3934 -0.2034
 8646SOL    HW127379   3.061   1.996  10.513 -0.9739 -0.9237  0.0043
 8646SOL    HW227380   3.055   2.044  10.370 -1.1589  0.8113  0.5773
 8647SOL     OW27381   1.792   5.260  10.712 -0.2216  0.2847  0.3650
 8647SOL    HW127382   1.710   5.221  10.683  0.5083 -2.0917  1.3133
 8647SOL    HW227383   1.855   5.238  10.643  0.3386 -0.8236  1.2076
 8648SOL     OW27384   4.404   2.024  10.488 -0.1705 -1.0907 -0.0144
 8648SOL    HW127385   4.447   2.108  10.475 -1.1053 -0.5426  0.3258
 8648SOL    HW227386   4.450   1.985  10.562 -0.8267 -0.1035  0.9493
 8649SOL     OW27387   3.409   4.823  10.858  0.1946 -0.2197 -0.0528
 8649SOL    HW127388   3.426   4.790  10.770 -0.5900 -0.8193  0.0034
 8649SOL    HW227389   3.428   4.917  10.853 -1.1369  0.0285 -1.2454
 8650SOL     OW27390   2.797   4.351  10.398  0.3365 -0.0644 -0.5004
 8650SOL    HW127391   2.722   4.311  10.441  0.4815  0.2516  0.0585
 8650SOL    HW227392   2.856   4.278  10.378  0.6815 -0.1196  0.6739
 8651SOL     OW27393   4.326   3.347  10.356  0.3087 -1.0945  0.7211
 8651SOL    HW127394   4.419   3.336  10.335  0.1949 -2.3393  0.7892
 8651SOL    HW227395   4.321   3.329  10.450 -0.1234 -1.9872  0.5420
 8652SOL     OW27396   3.175   3.843  11.156  0.7474  0.4795  0.3488
 8652SOL    HW127397   3.215   3.915  11.205  0.4504  1.0976 -0.3011
 8652SOL    HW227398   3.233   3.831  11.080  1.0092 -0.2321  0.6577
 8653SOL     OW27399   1.866   2.238  10.348  0.1205 -0.5248 -0.3175
 8653SOL    HW127400   1.833   2.186  10.275 -0.3561  0.1585 -0.5944
 8653SOL    HW227401   1.938   2.185  10.385 -0.7972 -1.7058 -0.1527
 8654SOL     OW27402   3.472   2.280  11.053 -0.2377 -0.3993 -0.3755
 8654SOL    HW127403   3.391   2.228  11.054 -0.8270  0.4495  1.5531
 8654SOL    HW227404   3.443   2.371  11.043  0.5034 -0.1238 -0.1355
 8655SOL     OW27405   1.927   3.030   9.832  0.2480 -0.0777 -0.1012
 8655SOL    HW127406   1.999   3.063   9.778 -0.3837  1.6844  0.0870
 8655SOL    HW227407   1.852   3.027   9.773 -0.3383  1.4240  0.5259
 8656SOL     OW27408   3.421   3.579  10.157 -0.0465 -0.1784  0.1852
 8656SOL    HW127409   3.422   3.563  10.063 -2.7809 -0.1797  0.0713
 8656SOL    HW227410   3.414   3.492  10.196 -0.2491 -0.1021  0.3192
 8657SOL     OW27411   4.402   3.777  11.230  0.0255  0.2447  0.2542
 8657SOL    HW127412   4.392   3.776  11.325 -1.1719 -1.1423  0.1439
 8657SOL    HW227413   4.349   3.704  11.199  0.3307  0.7138 -1.5009
 8658SOL     OW27414   3.449   1.997   0.675  0.0080  0.0016 -0.2972
 8658SOL    HW127415   3.366   2.043   0.680  0.3555  0.7643 -1.1564
 8658SOL    HW227416   3.441   1.925   0.738 -0.0649  1.9614  2.0365
 8659SOL     OW27417   3.119   2.043   9.608 -0.1909 -0.5677 -0.5528
 8659SOL    HW127418   3.093   2.085   9.526 -0.4227  0.2147 -0.0897
 8659SOL    HW227419   3.199   1.996   9.587  0.4139  0.6047 -0.9575
 8660SOL     OW27420   3.574   2.590   9.205 -0.4917  0.6406  0.1291
 8660SOL    HW127421   3.584   2.507   9.250  0.6184  0.6824 -0.0080
 8660SOL    HW227422   3.656   2.637   9.221 -1.1078  1.7256  0.2322
 8661SOL     OW27423   1.006   1.404  10.068  0.4839 -0.2366  0.1434
 8661SOL    HW127424   0.935   1.368  10.015 -0.2930 -1.3129  1.8091
 8661SOL    HW227425   1.085   1.386  10.018 -0.4306  2.4716 -2.5501
 8662SOL     OW27426   3.618   3.801   9.919 -0.1963 -0.1699 -0.1476
 8662SOL    HW127427   3.594   3.810   9.827 -0.6708  0.7941  0.0662
 8662SOL    HW227428   3.605   3.708   9.938  1.4690 -0.7169 -1.4723
 8663SOL     OW27429   1.512   2.628  11.382  0.3436 -0.0380 -0.1165
 8663SOL    HW127430   1.425   2.589  11.394  0.4782 -0.7569 -1.3341
 8663SOL    HW227431   1.493   2.717  11.352 -0.0181 -0.5009 -1.3606
 8664SOL     OW27432   1.108   3.807   9.287 -0.5169  0.0732 -0.0410
 8664SOL    HW127433   1.186   3.809   9.231 -0.5232  0.4534 -0.0372
 8664SOL    HW227434   1.111   3.721   9.329  0.3262  0.3891  0.5720
 8665SOL     OW27435   3.017   2.440   8.909 -0.1948 -0.0815 -0.6211
 8665SOL    HW127436   3.045   2.349   8.901  0.9353  0.1934 -0.0944
 8665SOL    HW227437   3.085   2.481   8.962 -0.2476  1.2597 -1.5323
 8666SOL     OW27438   2.576   4.807   9.329  0.1312 -0.0900 -0.4173
 8666SOL    HW127439   2.581   4.756   9.248 -1.1381 -1.2738  0.2121
 8666SOL    HW227440   2.650   4.775   9.382 -1.1745 -2.0203  0.3410
 8667SOL     OW27441   3.321   3.263   8.770 -0.0623  0.5679  1.0683
 8667SOL    HW127442   3.263   3.289   8.699 -0.3267  0.3893  1.2154
 8667SOL    HW227443   3.345   3.345   8.813 -1.0545  0.5713  1.6550
 8668SOL     OW27444   1.059   2.500  12.294 -0.1445 -0.1450 -0.2533
 8668SOL    HW127445   1.033   2.413  12.324 -0.3203  0.3461  1.0950
 8668SOL    HW227446   1.151   2.508  12.318 -0.0604 -0.0465 -0.5972
 8669SOL     OW27447   2.796   1.617  10.409  0.4268  0.7320  0.0286
 8669SOL    HW127448   2.890   1.632  10.395  0.3530 -0.0555 -1.5858
 8669SOL    HW227449   2.754   1.669  10.340 -0.2178 -0.4394 -0.4759
 8670SOL     OW27450   2.447   2.022   9.389 -0.4493  0.3432  0.2203
 8670SOL    HW127451   2.432   2.116   9.397 -0.3919  0.3321  0.4836
 8670SOL    HW227452   2.510   2.012   9.318  0.4276  0.5850  0.9434
 8671SOL     OW27453   2.884   2.659   9.183 -0.7074  0.3361 -0.5121
 8671SOL    HW127454   2.802   2.687   9.142 -1.1074 -1.1123 -0.7498
 8671SOL    HW227455   2.859   2.585   9.239  0.3323  0.3337 -0.0262
 8672SOL     OW27456   3.195   2.621   9.021  0.2118 -0.0250 -0.3555
 8672SOL    HW127457   3.271   2.564   9.028 -1.6300 -2.7181 -0.9524
 8672SOL    HW227458   3.216   2.681   8.949  2.1669  0.0570  0.2362
 8673SOL     OW27459   2.236   4.837  10.432 -0.8289 -0.2176 -0.0721
 8673SOL    HW127460   2.148   4.867  10.454 -0.7147 -0.2657  0.4678
 8673SOL    HW227461   2.245   4.854  10.338 -0.5868  1.9546  0.2776
 8674SOL     OW27462   5.395   0.632   9.281  0.2009 -0.7387  0.1003
 8674SOL    HW127463   5.331   0.690   9.321 -0.0321 -0.6646 -0.3742
 8674SOL    HW227464   5.344   0.579   9.219  0.8089  0.2933 -1.3463
 8675SOL     OW27465   1.593   3.578  10.151  0.1483 -0.0618 -0.9947
 8675SOL    HW127466   1.676   3.545  10.184 -0.1722 -1.9951 -1.9870
 8675SOL    HW227467   1.546   3.608  10.229  0.9078 -0.9758 -0.1618
 8676SOL     OW27468   2.459   2.256   8.462  0.4928  0.1842 -0.2800
 8676SOL    HW127469   2.407   2.266   8.382 -0.2399  1.9217  0.3516
 8676SOL    HW227470   2.466   2.162   8.475 -3.1228 -0.2064 -0.0517
 8677SOL     OW27471   4.359   2.689  11.208  0.3575  0.0069 -0.3308
 8677SOL    HW127472   4.352   2.687  11.303  0.2006  0.1796 -0.3383
 8677SOL    HW227473   4.439   2.640  11.189  0.7372  0.5136 -0.0751
 8678SOL     OW27474   3.714   2.797  10.152  0.7138  0.5671  0.2617
 8678SOL    HW127475   3.808   2.781  10.161  0.8955  0.6184 -1.2765
 8678SOL    HW227476   3.703   2.889  10.179  0.9782  0.3386  1.1631
 8679SOL     OW27477   1.311   3.715  11.534 -0.5847  0.5764 -0.6318
 8679SOL    HW127478   1.297   3.753  11.621  2.2539  0.8872 -0.2256
 8679SOL    HW227479   1.262   3.632  11.536  0.4970 -0.0781  1.7841
 8680SOL     OW27480   4.072   1.452  10.595  0.5488 -0.0219  0.0337
 8680SOL    HW127481   3.994   1.432  10.543  1.0981  0.8605 -1.1766
 8680SOL    HW227482   4.076   1.383  10.660  0.4675 -1.8451 -1.8012
 8681SOL     OW27483   3.362   3.868  10.945 -0.2292  0.4716  0.2554
 8681SOL    HW127484   3.281   3.882  10.896 -0.1923 -0.7011 -0.1552
 8681SOL    HW227485   3.409   3.801  10.896  1.4793  1.8207 -0.0904
 8682SOL     OW27486   3.759   4.887  11.977  0.1414  0.1728 -0.4278
 8682SOL    HW127487   3.709   4.834  11.915  0.2648  1.3192 -1.5279
 8682SOL    HW227488   3.808   4.823  12.029 -1.3816 -0.9059 -0.2461
 8683SOL     OW27489   2.198   3.631  11.064  0.4246 -0.8262  0.0050
 8683SOL    HW127490   2.201   3.689  10.988  1.3653 -1.3865 -0.4058
 8683SOL    HW227491   2.276   3.655  11.115 -0.9080  0.4808  1.5228
 8684SOL     OW27492   4.339   3.032  12.267  0.2316 -0.8577 -0.2996
 8684SOL    HW127493   4.387   2.951  12.280 -0.5993 -1.2345  0.4782
 8684SOL    HW227494   4.347   3.078  12.350  1.4075  0.2685 -0.9897
 8685SOL     OW27495   0.511   3.875  10.383 -0.0045 -0.0864  0.3138
 8685SOL    HW127496   0.539   3.787  10.357  0.4276 -0.7014  2.6933
 8685SOL    HW227497   0.590   3.928  10.378 -0.2134  0.1489 -0.8774
 8686SOL     OW27498   2.301   4.567  10.491 -0.5528  0.0317 -0.4880
 8686SOL    HW127499   2.271   4.656  10.474 -0.1075  0.1200 -0.8059
 8686SOL    HW227500   2.395   4.569  10.475 -0.5401 -0.4983 -0.4992
 8687SOL     OW27501   2.656   2.057   9.756 -0.0444 -0.4380  0.3420
 8687SOL    HW127502   2.686   1.970   9.728  0.4510 -0.1317 -0.1001
 8687SOL    HW227503   2.561   2.052   9.751 -0.0212 -0.9505  0.3076
 8688SOL     OW27504   1.946   1.581   9.526  0.3195  0.5903 -0.3090
 8688SOL    HW127505   1.997   1.625   9.458  0.5255  1.3122  0.2946
 8688SOL    HW227506   1.995   1.597   9.607 -0.2973  0.3675  0.1160
 8689SOL     OW27507   0.800   4.048   9.891 -0.5204 -0.2676 -0.2180
 8689SOL    HW127508   0.832   4.113   9.954  0.8954  0.2292 -1.3896
 8689SOL    HW227509   0.863   3.976   9.896 -0.3760 -0.2116 -1.0592
 8690SOL     OW27510   4.005   3.276  10.166 -0.3158 -0.0579  0.6634
 8690SOL    HW127511   4.002   3.371  10.165  0.6800 -0.0106 -0.4770
 8690SOL    HW227512   4.093   3.256  10.200 -0.7889 -0.5979  1.6186
 8691SOL     OW27513   3.046   3.324   9.821 -0.1135  0.6308 -0.4863
 8691SOL    HW127514   2.983   3.274   9.874  1.3769 -1.1152 -0.2263
 8691SOL    HW227515   3.112   3.352   9.884  1.2502 -0.7488 -1.2363
 8692SOL     OW27516   2.267   4.317   8.978 -0.1168 -0.4687  0.4727
 8692SOL    HW127517   2.269   4.389   8.915 -2.0727  0.1170  1.0055
 8692SOL    HW227518   2.337   4.258   8.950 -0.6798 -0.0527 -2.0200
 8693SOL     OW27519   3.934   2.837   9.847  0.4965 -0.6422 -0.4689
 8693SOL    HW127520   3.938   2.786   9.928  0.3926  0.1279  0.0301
 8693SOL    HW227521   3.878   2.911   9.868  1.9301  0.5591 -0.6756
 8694SOL     OW27522   1.590   3.252   9.670 -0.1430 -0.1060  0.3961
 8694SOL    HW127523   1.501   3.284   9.686  0.4283  0.5459  2.5884
 8694SOL    HW227524   1.645   3.307   9.725  1.4586 -1.4753  0.2305
 8695SOL     OW27525   1.413   3.906  11.340 -0.0972 -0.1126  0.8761
 8695SOL    HW127526   1.506   3.904  11.363  0.0755  0.0665  0.2196
 8695SOL    HW227527   1.371   3.847  11.403  0.7527 -1.8094 -0.0826
 8696SOL     OW27528   4.655   2.168  11.845 -0.5905 -0.0752 -0.3838
 8696SOL    HW127529   4.733   2.125  11.880 -1.4257 -1.2448  0.1295
 8696SOL    HW227530   4.582   2.119  11.883 -1.5735  0.8997 -0.9610
 8697SOL     OW27531   4.239   2.851  11.045 -0.3075 -0.5888 -0.0231
 8697SOL    HW127532   4.150   2.827  11.019 -0.1874 -1.7225  0.5068
 8697SOL    HW227533   4.261   2.787  11.114 -0.4028  1.8246  2.4330
 8698SOL     OW27534   2.340   4.763  10.829  0.2566  0.0352 -0.0871
 8698SOL    HW127535   2.373   4.725  10.748  1.3917 -0.3522  0.5328
 8698SOL    HW227536   2.246   4.745  10.828  0.1688  0.4890 -1.5390
 8699SOL     OW27537   3.445   2.209  10.400 -0.4695  0.4970  1.3236
 8699SOL    HW127538   3.520   2.258  10.433 -0.2069  1.0143  0.0179
 8699SOL    HW227539   3.482   2.144  10.340 -0.9248 -0.5048  2.0895
 8700SOL     OW27540   3.136   2.633   9.711 -0.0805  0.3073 -0.3005
 8700SOL    HW127541   3.117   2.551   9.757  0.2842  0.9026  0.9618
 8700SOL    HW227542   3.053   2.655   9.669 -0.1159 -0.8262 -0.8795
 8701SOL     OW27543   1.770   2.965   8.748  0.1215  0.2972  0.0881
 8701SOL    HW127544   1.695   2.917   8.784  0.1694  1.1685  1.4293
 8701SOL    HW227545   1.813   3.003   8.825  0.8680  1.3428 -0.8162
 8702SOL     OW27546   2.305   2.608  11.068  0.4480 -0.3417 -0.1111
 8702SOL    HW127547   2.238   2.595  11.001  1.1731  2.3024 -1.5303
 8702SOL    HW227548   2.279   2.690  11.111  1.8679 -0.1525  0.4262
 8703SOL     OW27549   1.821   2.646   9.409 -0.3081 -0.7743  0.3053
 8703SOL    HW127550   1.879   2.722   9.416  1.4986 -2.0495 -0.0827
 8703SOL    HW227551   1.879   2.571   9.420 -1.8447 -2.1276 -0.4939
 8704SOL     OW27552   3.313   4.629  10.448 -0.5832 -0.2095  0.3360
 8704SOL    HW127553   3.407   4.646  10.456 -0.8889  1.0761  1.5118
 8704SOL    HW227554   3.277   4.709  10.410 -1.5391  0.4192  2.3998
 8705SOL     OW27555   4.147   3.216  12.136 -0.0345  0.2397 -0.0801
 8705SOL    HW127556   4.222   3.194  12.192  0.3162  0.1450 -0.5730
 8705SOL    HW227557   4.165   3.306  12.107 -0.8095  0.7156  0.8963
 8706SOL     OW27558   4.551   1.387  10.909 -0.5345  0.9870  0.4662
 8706SOL    HW127559   4.489   1.322  10.876  0.5929 -0.0683  0.3742
 8706SOL    HW227560   4.637   1.351  10.890  0.1575  3.1823 -0.9132
 8707SOL     OW27561   3.538   2.756   9.924  0.0499 -0.1214 -0.2743
 8707SOL    HW127562   3.489   2.836   9.943 -0.5895 -0.5708  0.0152
 8707SOL    HW227563   3.596   2.745  10.000 -1.1452 -0.8835  0.5750
 8708SOL     OW27564   2.818   3.266  11.727 -0.2250  1.0592  0.4693
 8708SOL    HW127565   2.823   3.249  11.633 -1.4044  1.7409  0.2712
 8708SOL    HW227566   2.806   3.179  11.767 -0.5730  0.8608 -0.0684
 8709SOL     OW27567   1.977   4.981  10.772  0.0345  0.1250 -0.1398
 8709SOL    HW127568   2.045   5.042  10.804 -1.0377  0.9855  0.5617
 8709SOL    HW227569   1.895   5.027  10.788 -0.7167 -0.8714 -1.0719
 8710SOL     OW27570   3.206   2.593  11.883 -0.5810 -0.1815  0.2706
 8710SOL    HW127571   3.220   2.684  11.856 -2.4000  0.0657  0.0021
 8710SOL    HW227572   3.269   2.542  11.833 -0.6285  0.7780 -0.8102
 8711SOL     OW27573   1.778   3.462   9.439 -0.6578  0.0329  0.4595
 8711SOL    HW127574   1.823   3.378   9.448 -2.3219 -0.8953  0.4565
 8711SOL    HW227575   1.753   3.465   9.347 -1.6573 -0.0470  0.7195
 8712SOL     OW27576   3.443   2.279   9.756  0.2072 -0.2165 -0.0134
 8712SOL    HW127577   3.516   2.272   9.695 -0.8343  0.9323 -1.4774
 8712SOL    HW227578   3.439   2.372   9.779 -2.3712  0.3348 -2.1342
 8713SOL     OW27579   3.746   3.210   9.132 -0.1429 -0.2685 -0.7139
 8713SOL    HW127580   3.705   3.207   9.045 -0.7072  0.8809 -0.5115
 8713SOL    HW227581   3.746   3.303   9.155  1.7977 -0.3287 -0.3074
 8714SOL     OW27582   3.491   2.509  10.332  0.2524  0.5366 -0.0298
 8714SOL    HW127583   3.401   2.483  10.315  0.7619  0.2062 -2.4706
 8714SOL    HW227584   3.541   2.475  10.258  2.5692 -0.1116  1.7010
 8715SOL     OW27585   0.438   1.043  10.709 -0.3618 -0.0185  0.3499
 8715SOL    HW127586   0.469   0.957  10.680 -0.5750  0.2446 -0.6852
 8715SOL    HW227587   0.464   1.047  10.801 -0.3457 -1.1884  0.4158
 8716SOL     OW27588   1.810   2.226  11.532 -0.5473 -0.1068  0.0181
 8716SOL    HW127589   1.848   2.257  11.450  0.1866  0.2281  0.4750
 8716SOL    HW227590   1.849   2.282  11.599 -3.0624  1.3417  0.3782
 8717SOL     OW27591   3.239   4.693  12.281 -0.6830  0.0672  0.1225
 8717SOL    HW127592   3.200   4.720  12.365  0.4834 -0.9131  1.0089
 8717SOL    HW227593   3.221   4.599  12.276  1.1190 -0.3235  0.3423
 8718SOL     OW27594   4.093   1.871  11.529  0.4657  0.3304  0.2218
 8718SOL    HW127595   4.047   1.936  11.476  1.2706 -0.7450 -1.8930
 8718SOL    HW227596   4.034   1.796  11.532  0.2081  0.5503  1.3442
 8719SOL     OW27597   2.232   3.307   8.881  0.2443 -0.0463 -0.8702
 8719SOL    HW127598   2.318   3.325   8.842  0.3377  1.9013  0.0827
 8719SOL    HW227599   2.182   3.387   8.865  0.2490  0.8738  2.7523
 8720SOL     OW27600   0.154   4.862  10.008 -0.1404 -0.8011  0.3357
 8720SOL    HW127601   0.096   4.793   9.974 -0.8468  0.1335 -0.4092
 8720SOL    HW227602   0.151   4.851  10.103 -1.8702 -0.5506  0.3472
 8721SOL     OW27603   3.172   4.733   9.958  0.3433  0.3127 -0.1163
 8721SOL    HW127604   3.233   4.672   9.999  0.9872  1.6641  1.0343
 8721SOL    HW227605   3.171   4.709   9.865  1.2265 -0.8799  0.1719
 8722SOL     OW27606   3.943   2.318   9.972 -0.2332 -0.3290  0.2206
 8722SOL    HW127607   3.915   2.406   9.948  0.4028 -0.2736 -0.3331
 8722SOL    HW227608   3.885   2.260   9.922 -1.3057 -0.2520  1.3263
 8723SOL     OW27609   2.667   1.645  10.642  0.2713  0.1437  0.3719
 8723SOL    HW127610   2.723   1.643  10.565 -1.8838 -0.4937 -1.2814
 8723SOL    HW227611   2.617   1.563  10.638 -1.0781  0.8543  1.5069
 8724SOL     OW27612   2.083   2.564  11.863  0.1338  0.6485  0.4418
 8724SOL    HW127613   2.151   2.586  11.799 -0.1936  1.4134  0.3425
 8724SOL    HW227614   2.024   2.506  11.815  0.0437  0.9888  0.1327
 8725SOL     OW27615   3.470   1.634  12.051  1.2063  0.0302 -0.0375
 8725SOL    HW127616   3.501   1.583  12.126  1.3942 -1.4445 -1.0753
 8725SOL    HW227617   3.388   1.592  12.024  0.5147  1.2693  0.0449
 8726SOL     OW27618   3.688   1.280  10.033 -0.0818 -0.0839 -0.4426
 8726SOL    HW127619   3.708   1.360   9.985  0.1734 -0.5065 -1.0522
 8726SOL    HW227620   3.743   1.213   9.992 -0.5253 -0.6366 -0.1520
 8727SOL     OW27621   4.641   3.392  10.145  0.2731 -0.3434 -0.8705
 8727SOL    HW127622   4.601   3.333  10.209 -0.7960  2.1709  0.9835
 8727SOL    HW227623   4.572   3.406  10.080  0.3729 -0.7954 -1.0753
 8728SOL     OW27624   2.621   3.601  10.354  0.6676 -0.2503 -0.0685
 8728SOL    HW127625   2.551   3.609  10.419  2.0688  2.0059  1.2896
 8728SOL    HW227626   2.693   3.558  10.400  1.3484  0.5085 -0.3915
 8729SOL     OW27627   1.877   3.201   9.476  0.0380  0.2273  0.1460
 8729SOL    HW127628   1.881   3.121   9.529  0.1044  1.1098  1.5398
 8729SOL    HW227629   1.832   3.175   9.396  0.2271 -1.2422  0.4872
 8730SOL     OW27630   4.423   4.812  12.179 -0.1090  0.2654  0.4417
 8730SOL    HW127631   4.359   4.769  12.236 -1.4718 -0.7220 -1.6992
 8730SOL    HW227632   4.454   4.742  12.120  1.3208  1.2033  0.0110
 8731SOL     OW27633   1.299   2.064   8.541 -0.1930 -0.1082  0.6231
 8731SOL    HW127634   1.372   2.004   8.534  0.6832  1.1496 -2.3170
 8731SOL    HW227635   1.337   2.144   8.577 -0.8710 -0.4510  2.2124
 8732SOL     OW27636   2.969   2.635  10.020 -0.1915  0.2860 -0.3761
 8732SOL    HW127637   2.989   2.719   9.980  0.9319 -0.5860 -1.7635
 8732SOL    HW227638   2.971   2.573   9.947 -3.3830 -0.6375  0.1623
 8733SOL     OW27639   3.245   2.841  11.774 -0.2584 -0.0151  0.7527
 8733SOL    HW127640   3.199   2.904  11.718 -1.0974 -0.4767  0.9100
 8733SOL    HW227641   3.326   2.886  11.797 -0.0793  0.3472 -0.4877
 8734SOL     OW27642   4.099   1.506   8.518 -0.0887  0.1817 -0.1334
 8734SOL    HW127643   4.175   1.560   8.540  1.6413 -2.2448  0.2671
 8734SOL    HW227644   4.030   1.537   8.577  0.4279  2.6267 -0.6867
 8735SOL     OW27645   2.640   4.750   0.204  0.1148  0.3207  0.0075
 8735SOL    HW127646   2.705   4.821   0.206  0.5790 -0.1175  1.1948
 8735SOL    HW227647   2.556   4.793   0.218  0.2375  0.7823 -0.6142
 8736SOL     OW27648   2.368   4.834   9.896 -0.1133  0.5119  0.1173
 8736SOL    HW127649   2.436   4.776   9.930  0.5239  1.1420 -0.0656
 8736SOL    HW227650   2.353   4.897   9.967 -1.6599 -0.5543  0.8016
 8737SOL     OW27651   2.761   2.191   9.450  0.0497 -0.1926  0.4627
 8737SOL    HW127652   2.720   2.231   9.373  0.2604  0.7029  0.8031
 8737SOL    HW227653   2.837   2.144   9.414 -0.0347 -0.0493  0.0893
 8738SOL     OW27654   3.332   5.901  10.152 -0.1671  0.1783 -0.5168
 8738SOL    HW127655   3.346   5.826  10.210 -0.6509  0.4846 -0.0003
 8738SOL    HW227656   3.351   5.978  10.206 -0.9173  0.4792 -0.6628
 8739SOL     OW27657   3.646   1.735   9.793 -0.4182 -0.1579  0.3590
 8739SOL    HW127658   3.559   1.739   9.832 -1.3323 -2.3372 -1.2321
 8739SOL    HW227659   3.686   1.656   9.830  0.6973  0.5247  0.6694
 8740SOL     OW27660   3.583   2.982  10.564 -0.2882  0.3313  0.6563
 8740SOL    HW127661   3.587   2.990  10.659  1.7293  1.0569  0.5709
 8740SOL    HW227662   3.600   2.890  10.546  0.8910  0.4736  0.9774
 8741SOL     OW27663   2.623   2.511   9.820  0.2618 -0.0459 -0.4673
 8741SOL    HW127664   2.700   2.463   9.790  1.4946  2.5949 -1.9144
 8741SOL    HW227665   2.549   2.460   9.787  1.4128 -1.8323 -0.4126
 8742SOL     OW27666   3.756   4.092  10.998  0.5823 -0.3006 -0.0085
 8742SOL    HW127667   3.776   4.175  10.956  0.3150 -0.1110  0.2387
 8742SOL    HW227668   3.796   4.098  11.085 -0.1594 -0.0872  0.3283
 8743SOL     OW27669   1.854   4.607   9.135  0.6488 -0.3953 -0.2379
 8743SOL    HW127670   1.940   4.605   9.092  0.6079 -2.9304 -0.3794
 8743SOL    HW227671   1.873   4.589   9.227  0.4877  2.1991  0.3589
 8744SOL     OW27672   3.110   4.548  10.581  0.2103  0.7195  0.1792
 8744SOL    HW127673   3.186   4.576  10.531  0.9302 -0.2643  0.6922
 8744SOL    HW227674   3.138   4.468  10.625 -0.8506  0.8098  1.0620
 8745SOL     OW27675   3.047   2.969  10.879 -0.3852 -0.1679 -0.2742
 8745SOL    HW127676   3.130   2.991  10.837  0.1041  0.6982  1.0897
 8745SOL    HW227677   3.057   2.879  10.908 -0.2004 -0.3016 -0.7460
 8746SOL     OW27678   2.372   0.755  10.952  0.0381  0.3122  0.2223
 8746SOL    HW127679   2.337   0.713  10.874  0.2412 -0.1482  0.3773
 8746SOL    HW227680   2.467   0.752  10.941  0.1386 -1.1960  1.2173
 8747SOL     OW27681   1.105   3.200   8.832  0.2653  0.5036  0.1019
 8747SOL    HW127682   1.122   3.181   8.740  0.3136 -0.5884  0.3277
 8747SOL    HW227683   1.184   3.171   8.877 -0.7350 -1.3986  0.7648
 8748SOL     OW27684   1.457   0.295  11.199  0.4796  0.3251 -0.2464
 8748SOL    HW127685   1.379   0.325  11.152  0.8116 -0.1129 -1.0942
 8748SOL    HW227686   1.432   0.211  11.237  0.0435  0.9237  0.8218
 8749SOL     OW27687   3.359   2.830   9.295 -0.1761  0.4220  0.1825
 8749SOL    HW127688   3.360   2.901   9.359  0.6700  0.1346  0.5048
 8749SOL    HW227689   3.439   2.842   9.244 -0.6101  0.3731 -0.5279
 8750SOL     OW27690   2.463   3.776   9.419  0.0940 -0.5909 -0.1195
 8750SOL    HW127691   2.449   3.802   9.510 -0.9985  0.9782 -0.7003
 8750SOL    HW227692   2.375   3.762   9.384  0.4297  0.0729 -1.2811
 8751SOL     OW27693   1.170   5.528  10.976  0.2386 -0.0218 -0.3621
 8751SOL    HW127694   1.108   5.480  10.922 -1.7899  1.1151  0.8304
 8751SOL    HW227695   1.150   5.502  11.065 -0.3502  2.2766  0.2537
 8752SOL     OW27696   2.135   3.384  11.710  0.1591  0.1294  0.5611
 8752SOL    HW127697   2.186   3.311  11.745 -0.2213 -0.3754  0.0886
 8752SOL    HW227698   2.048   3.348  11.696  0.0755  0.5563 -0.0679
 8753SOL     OW27699   3.564   3.864  12.295 -0.5024 -0.3318 -0.4113
 8753SOL    HW127700   3.498   3.800  12.270  0.7734 -1.5431 -0.7888
 8753SOL    HW227701   3.527   3.948  12.269 -2.5654 -0.7958  0.8334
 8754SOL     OW27702   2.926   3.663   9.649  0.1271 -0.5061  0.1798
 8754SOL    HW127703   2.851   3.721   9.664  0.7279  1.0944 -2.3544
 8754SOL    HW227704   3.002   3.719   9.665  0.7614  0.2802 -4.3019
 8755SOL     OW27705   2.772   2.600  10.670  0.2322 -0.4308  0.5028
 8755SOL    HW127706   2.736   2.577  10.584  2.0611 -0.9312 -0.1580
 8755SOL    HW227707   2.698   2.589  10.730 -0.5464 -2.1199 -0.6987
 8756SOL     OW27708   1.594   2.916   9.373  0.3127 -0.2495  0.2495
 8756SOL    HW127709   1.574   2.827   9.402  0.1130  0.2861  1.8829
 8756SOL    HW227710   1.510   2.962   9.379  0.6900  0.3802  0.7670
 8757SOL     OW27711   2.785   2.722  11.143  0.1415  0.2444 -0.4234
 8757SOL    HW127712   2.716   2.666  11.108 -0.4805  0.9226 -0.3053
 8757SOL    HW227713   2.779   2.711  11.238  0.6782 -0.2539 -0.4451
 8758SOL     OW27714   1.400   0.551   1.205 -0.0273  0.2744  0.4813
 8758SOL    HW127715   1.437   0.604   1.275 -1.0381  0.4052  0.9235
 8758SOL    HW227716   1.474   0.497   1.175  1.1658  2.2604 -0.3503
 8759SOL     OW27717   2.244   1.793   9.167 -0.3468 -0.3505 -0.4983
 8759SOL    HW127718   2.317   1.738   9.140 -1.1209 -1.0072 -1.2926
 8759SOL    HW227719   2.259   1.876   9.122 -0.3701 -0.6622 -1.0929
 8760SOL     OW27720   2.915   3.318   8.760 -0.2954  0.2256 -0.8369
 8760SOL    HW127721   2.970   3.343   8.686 -0.5851 -0.1954 -1.2051
 8760SOL    HW227722   2.973   3.265   8.815 -0.3704 -0.3585 -1.3073
 8761SOL     OW27723   0.989   3.270   9.576 -0.1846 -0.1581  0.5991
 8761SOL    HW127724   0.898   3.264   9.604 -0.3757 -0.3998 -0.0550
 8761SOL    HW227725   1.032   3.196   9.619  0.1897  1.1563  2.6257
 8762SOL     OW27726   0.874   2.098  10.031  0.0936  0.1279 -0.3133
 8762SOL    HW127727   0.958   2.140  10.049 -0.4969  1.1514  0.0899
 8762SOL    HW227728   0.873   2.085   9.936  1.6781 -2.0103 -0.1168
 8763SOL     OW27729   2.636   3.196  11.285  0.3917  0.0563  0.1868
 8763SOL    HW127730   2.652   3.134  11.213 -1.3883 -0.4016  0.1305
 8763SOL    HW227731   2.600   3.274  11.242 -2.5587 -0.9269  0.6230
 8764SOL     OW27732   6.320   4.125   9.805  0.3602 -0.4641  0.0656
 8764SOL    HW127733   6.239   4.172   9.783  0.3600 -0.2622  0.4844
 8764SOL    HW227734   6.300   4.080   9.887 -0.5611 -3.4498 -1.6330
 8765SOL     OW27735   2.510   2.835   1.797 -0.0776  0.3223 -0.5428
 8765SOL    HW127736   2.474   2.764   1.850 -0.6816  1.2750  0.3537
 8765SOL    HW227737   2.570   2.791   1.737 -0.3615 -0.9358  0.0507
 8766SOL     OW27738   4.031   2.887  11.318 -0.3502 -0.3364  0.0675
 8766SOL    HW127739   4.090   2.924  11.383  1.2342  0.1269 -1.5226
 8766SOL    HW227740   4.035   2.948  11.244 -0.9997 -1.5069 -0.9824
 8767SOL     OW27741   4.391   3.951  10.762 -0.5091 -0.0518 -0.0043
 8767SOL    HW127742   4.311   3.966  10.812 -0.7166  1.9098 -0.8218
 8767SOL    HW227743   4.367   3.971  10.671  1.0096  1.1471 -0.1845
 8768SOL     OW27744   3.227   2.910  10.298 -0.3291 -0.5118 -0.0143
 8768SOL    HW127745   3.254   2.915  10.206 -2.1521 -1.1349 -0.6374
 8768SOL    HW227746   3.155   2.973  10.305 -0.0467 -0.2909  1.0605
 8769SOL     OW27747   5.001   3.843  10.703  0.0974  0.2812  0.0846
 8769SOL    HW127748   5.022   3.860  10.795 -1.6012  0.0517  0.5520
 8769SOL    HW227749   5.023   3.924  10.658  0.0333  0.7505  0.8713
 8770SOL     OW27750   4.217   4.129  11.479  0.3007 -0.3052 -0.1956
 8770SOL    HW127751   4.251   4.185  11.410  1.8752 -0.8793  0.0716
 8770SOL    HW227752   4.207   4.043  11.438 -1.3846 -0.0461 -0.4030
 8771SOL     OW27753   3.914   2.505  11.952 -0.3011 -0.3942  0.5213
 8771SOL    HW127754   3.952   2.471  12.033  1.6688  1.5609  0.5086
 8771SOL    HW227755   3.899   2.598  11.969 -2.0766 -0.4144 -0.6219
 8772SOL     OW27756   4.258   4.594  11.381  0.4710 -0.0957  0.0393
 8772SOL    HW127757   4.264   4.686  11.356  1.8764 -0.1645  0.0335
 8772SOL    HW227758   4.211   4.594  11.465 -0.7056  0.4854 -0.5960
 8773SOL     OW27759   3.165   5.278   9.243  0.3450 -0.3723  0.0600
 8773SOL    HW127760   3.226   5.222   9.194  1.3346 -0.6439  1.5497
 8773SOL    HW227761   3.132   5.221   9.313 -0.9370  0.0513 -0.1708
 8774SOL     OW27762   2.610   3.978  11.655  0.8071  0.1132 -0.1101
 8774SOL    HW127763   2.692   4.015  11.688  0.7282  0.6679 -0.5196
 8774SOL    HW227764   2.541   4.022  11.705  0.7696 -0.9089  0.7798
 8775SOL     OW27765   3.059   3.349  10.634  0.4616  0.3500  0.3713
 8775SOL    HW127766   3.000   3.283  10.596  0.1598  0.0183  1.3859
 8775SOL    HW227767   3.147   3.319  10.612  0.2757  0.6352 -0.8136
 8776SOL     OW27768   3.553   5.041  10.549  0.7775 -0.5572 -0.3238
 8776SOL    HW127769   3.542   4.949  10.523 -0.4245 -1.0992  1.8307
 8776SOL    HW227770   3.630   5.071  10.500  1.0926 -2.6541 -1.2246
 8777SOL     OW27771   2.824   2.281   9.689 -0.4729 -0.0715  0.2416
 8777SOL    HW127772   2.806   2.257   9.598  0.0128  1.0840 -0.1762
 8777SOL    HW227773   2.786   2.210   9.741 -1.2392 -0.4639 -0.8366
 8778SOL     OW27774   0.609   3.080   8.790  0.3326 -0.3957  0.3492
 8778SOL    HW127775   0.686   3.023   8.802  0.3224 -0.2957  0.8726
 8778SOL    HW227776   0.538   3.019   8.770  0.6884 -0.4467 -0.8883
 8779SOL     OW27777   3.344   3.863  10.551 -0.4530  0.4294  0.4132
 8779SOL    HW127778   3.325   3.956  10.539  2.3044  0.8230 -2.1339
 8779SOL    HW227779   3.322   3.823  10.467  0.8973 -0.6674  0.5401
 8780SOL     OW27780   4.047   1.757  12.159 -0.1899 -0.1789 -0.3440
 8780SOL    HW127781   4.079   1.668  12.146 -0.3835 -0.1800 -0.8338
 8780SOL    HW227782   4.010   1.782  12.074  0.3017  0.5444 -0.3601
 8781SOL     OW27783   2.863   3.214  10.062 -0.0876 -0.3074 -0.2374
 8781SOL    HW127784   2.884   3.121  10.056  1.2634  0.0025 -0.6812
 8781SOL    HW227785   2.945   3.256  10.089 -0.6353  0.7772 -0.1746
 8782SOL     OW27786   2.862   3.377   9.613  0.0648 -0.4388  0.3412
 8782SOL    HW127787   2.849   3.472   9.614 -1.1063 -0.5907  0.9077
 8782SOL    HW227788   2.940   3.363   9.667 -0.6975  0.0767  1.6000
 8783SOL     OW27789   2.065   2.048  12.238 -0.3284  0.4680 -0.2111
 8783SOL    HW127790   2.144   1.993  12.232  0.1550  1.0388  0.6346
 8783SOL    HW227791   2.034   2.055  12.148  0.5739  0.2127 -0.5610
 8784SOL     OW27792   1.734   4.019  10.646 -0.1245  0.0881 -0.0511
 8784SOL    HW127793   1.739   4.064  10.731  2.5262  0.4727 -0.3173
 8784SOL    HW227794   1.753   3.928  10.666 -2.3017 -0.4014  0.0604
 8785SOL     OW27795   2.811   3.559  10.813 -0.1744 -0.3514 -0.1287
 8785SOL    HW127796   2.736   3.505  10.837 -0.7484  0.8707  0.9662
 8785SOL    HW227797   2.886   3.516  10.855 -0.0342 -2.1305 -2.0269
 8786SOL     OW27798   2.462   2.244  10.075 -0.2251 -0.2455 -0.2240
 8786SOL    HW127799   2.554   2.246  10.049  0.4956 -0.2784  2.0830
 8786SOL    HW227800   2.437   2.152  10.067  0.8029 -0.7524  1.6483
 8787SOL     OW27801   4.081   1.723  10.918  0.6201  0.8387 -0.0202
 8787SOL    HW127802   4.013   1.672  10.875  1.2606  0.0981 -0.1895
 8787SOL    HW227803   4.129   1.660  10.971  1.0673  1.3777  0.2346
 8788SOL     OW27804   3.635   2.835   9.621  0.2272 -0.5578 -0.0189
 8788SOL    HW127805   3.578   2.812   9.694  1.7344  1.3871  1.8927
 8788SOL    HW227806   3.581   2.891   9.565 -0.6356 -1.2154  0.1434
 8789SOL     OW27807   4.180   1.217  10.502  0.7290  0.3946 -0.3391
 8789SOL    HW127808   4.174   1.312  10.496 -0.0842  0.2908 -1.2383
 8789SOL    HW227809   4.154   1.197  10.592 -0.8613  0.9011 -0.6552
 8790SOL     OW27810   2.428   3.931  10.555 -0.7349  0.7550 -0.3292
 8790SOL    HW127811   2.462   4.018  10.537  0.3100  0.2130 -1.0498
 8790SOL    HW227812   2.428   3.925  10.651  2.5943  0.3130 -0.2165
 8791SOL     OW27813   3.804   2.771   9.243 -0.1121 -0.9437 -0.1723
 8791SOL    HW127814   3.891   2.772   9.203 -0.2774 -1.1793 -0.5429
 8791SOL    HW227815   3.811   2.832   9.317  0.0999 -0.2248 -0.7706
 8792SOL     OW27816   3.114   2.895   9.079  0.1764  0.0148 -0.4683
 8792SOL    HW127817   3.057   2.907   9.003 -0.9386 -2.3798 -0.0738
 8792SOL    HW227818   3.201   2.880   9.041 -0.3087 -0.8240 -1.2799
 8793SOL     OW27819   4.085   1.004  11.084 -0.5576  0.2875 -0.6885
 8793SOL    HW127820   4.004   0.958  11.060 -0.4210  1.0873 -2.8954
 8793SOL    HW227821   4.145   0.987  11.012  1.7301 -1.2244  1.4296
 8794SOL     OW27822   1.184   1.775  12.150  0.0794  0.1855  0.5845
 8794SOL    HW127823   1.248   1.751  12.083  0.2300  0.1450  0.7426
 8794SOL    HW227824   1.101   1.782  12.103  0.5750  2.4758 -0.0766
 8795SOL     OW27825   2.095   3.332   0.076  0.2140 -0.3719 -0.2370
 8795SOL    HW127826   2.035   3.282   0.132 -0.4975  2.7086  2.0168
 8795SOL    HW227827   2.043   3.352  -0.002 -1.3594  1.1697  1.1245
 8796SOL     OW27828   1.759   3.131  12.103 -0.7543 -0.2838  0.5900
 8796SOL    HW127829   1.720   3.217  12.121 -0.8643 -0.6367  2.2444
 8796SOL    HW227830   1.684   3.074  12.085 -1.0950 -0.8819  3.4233
 8797SOL     OW27831   3.838   2.922   0.975 -0.1512  0.0244 -0.1510
 8797SOL    HW127832   3.796   3.007   0.962  0.4684  0.2355 -0.8838
 8797SOL    HW227833   3.932   2.942   0.971 -0.0067 -0.7406 -0.6373
 8798SOL     OW27834   4.288   3.583   0.360  0.1476 -0.2413 -0.3801
 8798SOL    HW127835   4.193   3.580   0.376  0.1663  0.8148  0.0882
 8798SOL    HW227836   4.299   3.549   0.272 -0.6815 -0.3305 -0.4595
 8799SOL     OW27837   3.000   1.417  12.454 -0.5515 -0.2580 -0.1593
 8799SOL    HW127838   2.975   1.508  12.473  0.0598  0.0112 -0.6138
 8799SOL    HW227839   3.074   1.425  12.394  0.4805 -1.0295  0.9677
 8800SOL     OW27840   3.577   3.732  10.687  0.3431 -0.0685 -0.4291
 8800SOL    HW127841   3.497   3.781  10.670  0.0847 -0.2974  0.1196
 8800SOL    HW227842   3.648   3.795  10.669  0.0381  0.2161 -0.6455
 8801SOL     OW27843   2.524   1.650  12.369  0.3351 -0.4358  0.5287
 8801SOL    HW127844   2.601   1.601  12.397  1.0886  0.6846  0.4442
 8801SOL    HW227845   2.513   1.626  12.277  1.2609  0.2661  0.2278
 8802SOL     OW27846   1.890   3.796  11.454 -0.0754  0.5681  0.0836
 8802SOL    HW127847   1.984   3.799  11.440 -0.2084 -0.2348 -1.1825
 8802SOL    HW227848   1.875   3.713  11.499 -0.2739  0.1277 -0.7686
 8803SOL     OW27849   1.597   2.638   0.339 -0.0038 -0.5767 -0.2100
 8803SOL    HW127850   1.685   2.608   0.364 -0.0466 -0.6252 -0.1183
 8803SOL    HW227851   1.538   2.583   0.390 -0.1473 -2.2401 -2.0229
 8804SOL     OW27852   3.509   3.169  12.025 -0.4871  0.1909  0.0633
 8804SOL    HW127853   3.424   3.192  11.987 -0.7248  0.6905  0.8944
 8804SOL    HW227854   3.504   3.074  12.038 -1.3490  0.3624  1.1356
 8805SOL     OW27855   0.931   2.618  11.464  0.0264  0.6022  0.1468
 8805SOL    HW127856   0.948   2.526  11.482  1.7913  1.2407  2.0900
 8805SOL    HW227857   0.840   2.631  11.491 -0.2230 -0.5586 -0.1031
 8806SOL     OW27858   2.857   4.097  10.846  0.5349  0.0650  0.3847
 8806SOL    HW127859   2.867   4.137  10.759  1.0430 -2.8888 -1.0677
 8806SOL    HW227860   2.818   4.011  10.827  0.2608 -0.4980  3.1630
 8807SOL     OW27861   2.860   4.212   0.890 -0.4372  0.1542  0.3902
 8807SOL    HW127862   2.884   4.277   0.825  0.8804 -0.4282  0.2396
 8807SOL    HW227863   2.773   4.182   0.865 -0.4614  0.8407 -0.3556
 8808SOL     OW27864   1.482   3.765   9.971 -0.2747  0.2505  0.1508
 8808SOL    HW127865   1.525   3.686  10.001  0.3032  0.7191  0.5722
 8808SOL    HW227866   1.431   3.796  10.046 -0.0810  0.5653  0.1547
 8809SOL     OW27867   3.154   2.808   1.021 -0.1974  0.3492  0.5516
 8809SOL    HW127868   3.213   2.781   0.951 -1.1715  0.6687 -0.4220
 8809SOL    HW227869   3.073   2.834   0.976 -1.9890 -2.3091  1.9411
 8810SOL     OW27870   4.422   2.176   0.060  0.1764 -0.2575 -0.0085
 8810SOL    HW127871   4.415   2.119  -0.016  0.8214  1.5541 -1.4789
 8810SOL    HW227872   4.422   2.115   0.135  0.2759 -2.1315 -1.4569
 8811SOL     OW27873   1.593   3.640  11.475  0.1840  0.6881 -0.0434
 8811SOL    HW127874   1.633   3.565  11.521  1.8606  0.4442 -1.7413
 8811SOL    HW227875   1.521   3.667  11.531  0.4302 -1.2925  1.3483
 8812SOL     OW27876   3.737   1.475  10.982 -0.1849  0.1922  0.4922
 8812SOL    HW127877   3.668   1.447  11.043  0.6047 -0.9180  0.9133
 8812SOL    HW227878   3.776   1.552  11.024 -1.0405  0.7309  0.3290
 8813SOL     OW27879   3.118   3.560  11.576  0.4272  0.2684 -0.1607
 8813SOL    HW127880   3.051   3.524  11.634  1.1423 -0.9634 -0.0609
 8813SOL    HW227881   3.069   3.596  11.502 -0.3903  0.2853  0.3834
 8814SOL     OW27882   2.050   0.964   0.629  0.5318 -0.3858 -0.1913
 8814SOL    HW127883   2.000   0.994   0.553 -0.4325 -3.6320 -0.9849
 8814SOL    HW227884   2.100   0.889   0.597  1.3260 -0.8750  2.0265
 8815SOL     OW27885   3.732   2.051  12.136  0.2173  0.1801  0.4824
 8815SOL    HW127886   3.705   1.971  12.182  1.1872 -1.1996 -1.2270
 8815SOL    HW227887   3.751   2.113  12.206 -0.2818 -1.1736  1.8836
 8816SOL     OW27888   3.885   2.103  11.840  0.4390  0.2617 -0.6167
 8816SOL    HW127889   3.916   2.185  11.802  1.2286 -0.1585 -0.8871
 8816SOL    HW227890   3.842   2.130  11.921  0.6498  0.9485 -0.7211
 8817SOL     OW27891   0.405   2.384   2.110 -0.3465  0.1235 -0.9594
 8817SOL    HW127892   0.345   2.319   2.147 -2.0262  2.0086 -0.1894
 8817SOL    HW227893   0.352   2.432   2.046  0.1642  2.0937  0.0130
 8818SOL     OW27894   4.052   2.444  12.171 -0.5125  0.1051  0.1379
 8818SOL    HW127895   4.135   2.488  12.153 -1.4320  0.8917 -2.5287
 8818SOL    HW227896   4.076   2.352  12.184  0.7480  0.2413 -1.0276
 8819SOL     OW27897   2.991   1.708  11.288 -0.0149 -0.1040  0.0051
 8819SOL    HW127898   3.036   1.768  11.229 -0.1715  1.0960  1.0603
 8819SOL    HW227899   2.905   1.748  11.303 -0.1787 -0.6570  0.6164
 8820SOL     OW27900   4.821   4.911  11.522 -0.4524  0.4467 -0.3788
 8820SOL    HW127901   4.798   4.856  11.448  0.1045  0.7724 -0.7969
 8820SOL    HW227902   4.872   4.982  11.485  1.5427 -0.4180  0.5250
 8821SOL     OW27903   3.410   3.129   1.359 -0.1007 -0.2595 -0.5098
 8821SOL    HW127904   3.496   3.117   1.400 -0.4714 -0.2008  0.2968
 8821SOL    HW227905   3.415   3.216   1.320  0.6715 -0.7879 -1.6381
 8822SOL     OW27906   1.237   2.105   1.763  0.5453  0.1824 -0.3938
 8822SOL    HW127907   1.267   2.044   1.695  0.0929  0.3047 -0.7098
 8822SOL    HW227908   1.176   2.164   1.717 -1.6596 -1.2012  0.5863
 8823SOL     OW27909   3.473   6.619   9.228  0.1608 -0.2665 -0.2990
 8823SOL    HW127910   3.470   6.682   9.300 -2.7722 -1.5547  0.8710
 8823SOL    HW227911   3.525   6.546   9.263 -0.8649 -0.6871  0.4231
 8824SOL     OW27912   3.595   2.726  11.469  0.2556  0.8725  0.2198
 8824SOL    HW127913   3.644   2.731  11.552 -1.7600 -0.6664  1.6074
 8824SOL    HW227914   3.507   2.756  11.492 -1.1966 -2.3485 -0.5381
 8825SOL     OW27915   4.620   2.602  11.510 -0.3960  0.3514 -0.2314
 8825SOL    HW127916   4.659   2.626  11.594 -0.9388  1.6493 -0.3390
 8825SOL    HW227917   4.693   2.606  11.448 -0.0930 -0.1556  0.0796
 8826SOL     OW27918   2.785   3.238   0.656  0.1704  0.0415  0.5615
 8826SOL    HW127919   2.719   3.176   0.625  0.9005 -0.2093 -0.5558
 8826SOL    HW227920   2.736   3.302   0.708 -0.8220 -0.5858  0.4214
 8827SOL     OW27921   3.612   1.886  11.197  0.2790 -0.1422  0.1840
 8827SOL    HW127922   3.595   1.887  11.103  2.4726  1.5566 -0.2658
 8827SOL    HW227923   3.626   1.977  11.221  2.4097 -0.7347  1.5749
 8828SOL     OW27924   4.354   4.134  11.719 -0.2580  0.0538  0.2695
 8828SOL    HW127925   4.307   4.078  11.780  1.0394 -0.6621  0.6363
 8828SOL    HW227926   4.297   4.138  11.641 -0.9139 -0.7782  0.6966
 8829SOL     OW27927   2.307   2.028   0.841 -0.4322 -0.7909 -0.7079
 8829SOL    HW127928   2.259   1.976   0.776 -1.5610  2.0271 -2.3169
 8829SOL    HW227929   2.313   1.971   0.917 -3.6404 -2.4615 -1.5161
 8830SOL     OW27930   2.839   5.320  10.781 -0.2024 -0.0221  0.3697
 8830SOL    HW127931   2.749   5.296  10.805 -0.5765 -0.5230 -1.3813
 8830SOL    HW227932   2.828   5.388  10.713  0.7837  1.2467  1.4332
 8831SOL     OW27933   2.634   4.898  10.506 -0.4004 -0.0925  0.2083
 8831SOL    HW127934   2.690   4.971  10.532 -1.7176  1.8091 -1.9994
 8831SOL    HW227935   2.547   4.921  10.538 -0.7762 -0.8593 -0.2230
 8832SOL     OW27936   2.923   3.296  12.025 -0.6010 -0.5735 -0.4567
 8832SOL    HW127937   2.892   3.325  12.110  1.0902 -1.9169  0.6924
 8832SOL    HW227938   3.001   3.349  12.008 -0.4023 -0.9462 -0.7168
 8833SOL     OW27939   2.467   3.749  11.952  0.4460 -0.0728  0.1544
 8833SOL    HW127940   2.492   3.657  11.943 -0.3253 -0.4065  1.2124
 8833SOL    HW227941   2.381   3.747  11.994  1.2685  1.1484  2.0557
 8834SOL     OW27942   2.132   1.678   1.927 -0.0767 -0.1795 -0.0312
 8834SOL    HW127943   2.214   1.630   1.932  0.0948 -0.0224 -1.0399
 8834SOL    HW227944   2.159   1.770   1.924 -0.2414 -0.1522 -1.0173
 8835SOL     OW27945   2.928   3.523  11.767 -0.4341 -0.1856 -0.3996
 8835SOL    HW127946   2.962   3.529  11.856 -0.7019 -2.1731 -0.1149
 8835SOL    HW227947   2.909   3.430  11.755  0.2415 -0.0840 -2.7777
 8836SOL     OW27948   3.779   2.298  12.288 -0.0338  0.0755  0.3087
 8836SOL    HW127949   3.810   2.387  12.269 -1.7376  1.0706  1.8615
 8836SOL    HW227950   3.691   2.311  12.323  0.0251 -2.1824  1.4065
 8837SOL     OW27951   4.261   4.533   0.068 -0.0973 -0.2397 -0.4693
 8837SOL    HW127952   4.357   4.541   0.068 -0.0876 -0.2350 -1.2333
 8837SOL    HW227953   4.233   4.579   0.147  0.4805  0.4929 -0.6744
 8838SOL     OW27954   4.589   1.526   0.582  0.8462  0.0567 -0.0244
 8838SOL    HW127955   4.554   1.611   0.554  3.0049  0.1479 -2.9342
 8838SOL    HW227956   4.661   1.509   0.522  0.1827 -4.1446  0.0926
 8839SOL     OW27957   1.720   4.371   1.030  0.0588 -0.0846 -0.4977
 8839SOL    HW127958   1.757   4.337   0.948  1.3003  0.5602 -0.2229
 8839SOL    HW227959   1.627   4.384   1.010  0.0969 -1.0611 -1.4296
 8840SOL     OW27960   3.505   3.061   0.644  0.5272 -0.4096  0.2369
 8840SOL    HW127961   3.417   3.097   0.647  0.4496 -0.5902  0.1503
 8840SOL    HW227962   3.563   3.137   0.645  0.3739 -0.2947  0.4175
 8841SOL     OW27963   3.415   3.832  12.024 -0.5622 -0.4703 -0.3464
 8841SOL    HW127964   3.349   3.762  12.032 -0.0048 -1.0839 -0.9477
 8841SOL    HW227965   3.367   3.912  12.042 -1.4653 -0.9117 -0.7137
 8842SOL     OW27966   1.224   1.089  12.179  0.2807 -0.3103  0.0246
 8842SOL    HW127967   1.254   1.163  12.232  0.3146  0.7587 -1.4065
 8842SOL    HW227968   1.218   1.125  12.090 -0.3606 -1.8624 -0.5911
 8843SOL     OW27969   4.058   2.929  12.095  0.0406 -0.3322 -0.0580
 8843SOL    HW127970   4.005   2.936  12.175 -0.0238 -0.7093 -0.0705
 8843SOL    HW227971   4.113   3.008  12.097  0.4973 -0.6535  0.6875
 8844SOL     OW27972   2.825   0.658   0.774  0.6501  0.1840 -0.4425
 8844SOL    HW127973   2.741   0.703   0.785  1.3423  1.6204 -0.8700
 8844SOL    HW227974   2.833   0.646   0.680  1.3210  0.8478 -0.4759
 8845SOL     OW27975   2.281   0.106   1.157 -0.7430 -0.2516 -0.0975
 8845SOL    HW127976   2.315   0.082   1.243  1.5995  1.1803 -0.5288
 8845SOL    HW227977   2.231   0.029   1.129  0.1538 -1.5674  1.6655
 8846SOL     OW27978   2.893   3.815  11.093  0.4006  0.4673 -0.0373
 8846SOL    HW127979   2.983   3.844  11.110  0.5209 -0.1426  0.4147
 8846SOL    HW227980   2.872   3.852  11.008  1.0081  0.7897 -0.0554
 8847SOL     OW27981   3.306   2.228  11.980 -0.5517  0.1730  0.2150
 8847SOL    HW127982   3.213   2.213  11.964 -0.3770 -0.4974 -0.2113
 8847SOL    HW227983   3.349   2.202  11.898 -0.0289  0.9898  0.2117
 8848SOL     OW27984   2.039   1.250  10.988  0.3069  0.3022 -0.1782
 8848SOL    HW127985   2.051   1.301  11.068 -0.4319  0.9919 -0.4897
 8848SOL    HW227986   2.048   1.314  10.918  1.7028 -0.4345 -0.6986
 8849SOL     OW27987   4.671   1.951   0.062 -0.1219  0.1430  0.0756
 8849SOL    HW127988   4.614   1.942   0.139  1.9318 -1.9280  1.5063
 8849SOL    HW227989   4.691   2.044   0.058 -1.3347  0.4919  1.2500
 8850SOL     OW27990   0.781   1.696  11.685  0.1704 -0.2341 -0.1056
 8850SOL    HW127991   0.701   1.648  11.664  0.4322 -0.1788 -1.3648
 8850SOL    HW227992   0.851   1.631  11.677  0.2781 -0.2331  0.7687
 8851SOL     OW27993   4.631   3.417   0.416 -0.1256 -0.2425  0.2587
 8851SOL    HW127994   4.588   3.389   0.335  2.7491  1.1636 -1.9764
 8851SOL    HW227995   4.609   3.510   0.424  1.1814  0.1369 -0.1377
 8852SOL     OW27996   2.940   4.137  10.286 -0.6852  0.0090  0.8190
 8852SOL    HW127997   2.943   4.156  10.192  1.5730  0.1415  0.8525
 8852SOL    HW227998   3.024   4.171  10.319 -0.7792 -1.3892  2.6056
 8853SOL     OW27999   3.036   3.079  11.859  0.0207  0.6078  0.5499
 8853SOL    HW128000   3.015   3.112  11.947  1.2962 -1.4237  1.7152
 8853SOL    HW228001   3.019   2.984  11.865 -2.4540  0.7261 -2.2750
 8854SOL     OW28002   3.305   2.756  11.511 -0.3820  0.3729 -0.0427
 8854SOL    HW128003   3.275   2.665  11.509 -0.3615  0.3543  0.4117
 8854SOL    HW228004   3.306   2.779  11.604 -0.7830  0.9708 -0.1762
 8855SOL     OW28005   1.346   1.722  11.909 -0.0517  0.0669  0.3164
 8855SOL    HW128006   1.350   1.781  11.834  1.7894  0.4603  0.6637
 8855SOL    HW228007   1.382   1.639  11.876 -0.2295 -0.0793  0.4865
 8856SOL     OW28008   3.117   5.452  12.445 -0.0316  0.6058 -0.2134
 8856SOL    HW128009   3.134   5.411  12.529 -0.4772 -0.5398 -0.6660
 8856SOL    HW228010   3.117   5.380  12.382 -1.5448  1.1795 -0.9320
 8857SOL     OW28011   4.623   2.631  11.118 -0.5045  0.0488  0.0673
 8857SOL    HW128012   4.695   2.607  11.176 -0.4619  0.6280  0.2584
 8857SOL    HW228013   4.652   2.603  11.031 -0.7463 -1.2136  0.3650
 8858SOL     OW28014   3.139   1.535  12.253 -0.1330 -0.3490  0.1306
 8858SOL    HW128015   3.061   1.584  12.228 -1.1349 -1.0333  1.7354
 8858SOL    HW228016   3.174   1.500  12.171 -0.4439  1.4883 -0.8265
 8859SOL     OW28017   0.907   2.237  11.966  0.1331  0.0262  0.3799
 8859SOL    HW128018   0.868   2.279  11.890  0.7228  3.4934  1.8194
 8859SOL    HW228019   0.842   2.172  11.994 -1.4166  0.7605 -1.3189
 8860SOL     OW28020   2.974   4.676   0.297  0.5278  0.1205  0.1105
 8860SOL    HW128021   3.043   4.609   0.299  0.6511  0.2278 -0.3931
 8860SOL    HW228022   2.943   4.681   0.387  0.1456 -1.0037  0.0551
 8861SOL     OW28023   3.996   1.589  11.828  0.4826 -0.1586 -0.3283
 8861SOL    HW128024   4.060   1.547  11.770  1.5854  2.3303 -1.1021
 8861SOL    HW228025   4.028   1.679  11.836 -2.7292  1.1146 -0.3917
 8862SOL     OW28026   1.696   2.681  11.822  0.2998  0.2919 -0.3460
 8862SOL    HW128027   1.695   2.631  11.740  2.4834  0.5106 -0.5691
 8862SOL    HW228028   1.638   2.755  11.805 -0.8163 -0.6841 -0.9790
 8863SOL     OW28029   4.980   2.823   0.363  0.1551 -0.6350  0.2077
 8863SOL    HW128030   4.995   2.807   0.270 -0.1010  1.9431 -0.3723
 8863SOL    HW228031   5.061   2.865   0.393 -0.2327 -0.3028  0.8141
 8864SOL     OW28032   4.533   2.780   0.366  0.0614 -0.2617  0.3094
 8864SOL    HW128033   4.576   2.750   0.286  3.9199 -0.1929  2.1502
 8864SOL    HW228034   4.527   2.875   0.356 -1.5726 -0.4203 -0.7186
 8865SOL     OW28035   3.837   2.345  10.703  0.3937  0.0520 -0.5404
 8865SOL    HW128036   3.895   2.270  10.717 -0.7864 -0.6515  0.7968
 8865SOL    HW228037   3.810   2.338  10.612  0.7239 -0.8264 -0.5809
 8866SOL     OW28038   3.572   3.455   0.372  0.0209  0.3058  0.0228
 8866SOL    HW128039   3.488   3.467   0.416 -1.2769 -1.2554 -1.8875
 8866SOL    HW228040   3.594   3.542   0.337 -1.5789  0.4345 -0.7336
 8867SOL     OW28041   3.581   2.824   1.337  0.3094  0.2084 -0.0294
 8867SOL    HW128042   3.490   2.846   1.354 -0.7243 -2.5344 -1.3914
 8867SOL    HW228043   3.589   2.824   1.242  1.6892  0.1343  0.0567
 8868SOL     OW28044   2.816   3.157  11.479 -0.0408 -0.0068 -0.2126
 8868SOL    HW128045   2.878   3.100  11.433 -0.2309 -0.4462  0.0658
 8868SOL    HW228046   2.741   3.163  11.420 -0.1937 -0.3904 -0.0618
 8869SOL     OW28047   1.906   3.234   0.260  0.3144 -0.3499  0.4636
 8869SOL    HW128048   1.838   3.263   0.321 -0.6661  1.0926 -1.2587
 8869SOL    HW228049   1.868   3.159   0.215  0.8658 -1.1264  1.2517
 8870SOL     OW28050   3.393   3.025   0.209 -0.4089 -0.1765  0.4214
 8870SOL    HW128051   3.476   2.992   0.174 -1.0762 -0.8765 -0.5628
 8870SOL    HW228052   3.384   2.982   0.294  0.1363 -0.2498  0.4461
 8871SOL     OW28053   1.192   4.411  12.228  0.1092  0.3756 -0.6520
 8871SOL    HW128054   1.235   4.357  12.161 -1.9551 -0.2703 -1.5318
 8871SOL    HW228055   1.260   4.472  12.256  1.3768 -0.0688 -2.5250
 8872SOL     OW28056   2.925   2.517  10.871  0.6372  0.1404  0.2676
 8872SOL    HW128057   2.886   2.552  10.791  1.0101  0.4231  0.2048
 8872SOL    HW228058   2.967   2.593  10.912 -1.9402  0.6597  2.2044
 8873SOL     OW28059   1.811   3.494  11.656  0.2460  0.6197 -0.0318
 8873SOL    HW128060   1.781   3.457  11.739 -1.4536  1.5232 -0.2002
 8873SOL    HW228061   1.774   3.437  11.589 -0.3719  1.2171 -0.2150
 8874SOL     OW28062   3.791   3.013  11.360  0.1798 -0.3287 -0.0958
 8874SOL    HW128063   3.867   2.956  11.346 -0.1716 -1.2582  1.4975
 8874SOL    HW228064   3.777   3.010  11.455  1.2564  3.8774  0.3871
 8875SOL     OW28065   3.488   2.715   0.264 -0.6477  0.0490  0.2573
 8875SOL    HW128066   3.539   2.765   0.328  0.0858  1.3962 -1.3152
 8875SOL    HW228067   3.402   2.756   0.265 -0.4095  0.5602 -0.1588
 8876SOL     OW28068   4.083   1.267  11.923 -0.9281  0.0075  0.2261
 8876SOL    HW128069   4.114   1.279  11.833 -2.1743 -1.4431 -0.4369
 8876SOL    HW228070   3.990   1.286  11.919 -0.9919 -0.0534  1.2346
 8877SOL     OW28071   2.570   4.029  12.100 -0.0410  0.3287  0.3639
 8877SOL    HW128072   2.588   3.935  12.096 -2.2847 -0.2073  1.1927
 8877SOL    HW228073   2.503   4.044  12.033  0.8685  1.5338 -0.3278
 8878SOL     OW28074   3.009   5.173   0.034 -0.0639 -0.5428 -0.2821
 8878SOL    HW128075   3.096   5.140   0.057 -0.0089  0.1155  0.4946
 8878SOL    HW228076   2.949   5.102   0.056  0.1567 -0.5263  0.3877
 8879SOL     OW28077   3.293   1.208  11.891  0.5591 -0.5267  0.0007
 8879SOL    HW128078   3.335   1.220  11.805  0.6553 -0.7954  0.0077
 8879SOL    HW228079   3.308   1.116  11.911 -0.2403 -0.6850 -0.0975
 8880SOL     OW28080   2.295   1.955  10.549  0.1097  0.0924 -0.0462
 8880SOL    HW128081   2.382   1.982  10.518  0.1952 -1.0019 -0.8455
 8880SOL    HW228082   2.234   2.003  10.494  0.2496 -0.5186 -0.7607
 8881SOL     OW28083   4.741   1.374  12.113  0.2729  0.1973  0.5955
 8881SOL    HW128084   4.788   1.448  12.073  0.1000 -0.4902 -0.9478
 8881SOL    HW228085   4.660   1.367  12.063  0.1228 -0.8081  0.9603
 8882SOL     OW28086   2.562   2.847  12.164  0.1264  0.0534  0.4073
 8882SOL    HW128087   2.544   2.756  12.190  0.7319  0.1294  1.1105
 8882SOL    HW228088   2.654   2.846  12.137 -0.0373  0.3370 -0.1873
 8883SOL     OW28089   2.069   1.683  10.622  0.1575  0.6417  0.4954
 8883SOL    HW128090   2.132   1.631  10.572 -1.0946 -0.2945 -0.1677
 8883SOL    HW228091   2.001   1.705  10.558 -1.6999 -0.9194  1.8151
 8884SOL     OW28092   3.382   4.146  11.827 -0.2131  0.1072 -0.1546
 8884SOL    HW128093   3.330   4.074  11.861 -0.2234  0.2802  0.2023
 8884SOL    HW228094   3.371   4.216  11.891 -1.2876  0.8933 -1.1580
 8885SOL     OW28095   3.055   4.379  12.357 -0.2493 -0.3709  0.2625
 8885SOL    HW128096   3.019   4.468  12.350  0.7769  0.0161 -0.3642
 8885SOL    HW228097   3.120   4.386  12.427 -0.2277 -0.6613  0.2709
 8886SOL     OW28098   4.401   2.420   0.921  0.3364  0.0522 -0.2968
 8886SOL    HW128099   4.494   2.396   0.920  0.7208  1.4175 -0.3546
 8886SOL    HW228100   4.376   2.423   0.829  0.2458 -0.2944 -0.2823
 8887SOL     OW28101   3.181   4.205  10.393  0.2584 -0.7822 -0.1564
 8887SOL    HW128102   3.193   4.235  10.483 -0.9128  1.7089 -0.7147
 8887SOL    HW228103   3.250   4.141  10.379  0.4224 -1.2814  2.5164
 8888SOL     OW28104   2.586   3.413  11.133  0.2984  0.0053 -0.7094
 8888SOL    HW128105   2.581   3.387  11.041  0.7406 -0.2051 -0.6767
 8888SOL    HW228106   2.639   3.493  11.132  0.1919  0.0772 -0.6480
 8889SOL     OW28107   2.181   5.035  11.272  0.1044 -0.1638 -0.3941
 8889SOL    HW128108   2.162   5.127  11.255 -1.0163 -0.8720 -3.6101
 8889SOL    HW228109   2.125   5.013  11.347 -0.5007  1.4874 -0.3217
 8890SOL     OW28110   1.501   5.931   0.063 -0.1213 -0.2141 -0.4126
 8890SOL    HW128111   1.546   5.875   0.127 -1.6919 -0.7902  0.2361
 8890SOL    HW228112   1.496   5.877  -0.016  0.8931  0.1109 -0.7191
 8891SOL     OW28113   2.907   3.264   0.272  0.0801  0.4696 -0.5315
 8891SOL    HW128114   2.997   3.297   0.270  0.1464  0.3499  0.0667
 8891SOL    HW228115   2.916   3.171   0.251  0.3808 -0.0544  1.6752
 8892SOL     OW28116   3.128   4.631  11.933 -0.3045  0.1256 -0.3175
 8892SOL    HW128117   3.219   4.657  11.951 -0.6789  0.7315  0.7987
 8892SOL    HW228118   3.135   4.569  11.860  1.0810 -0.4096  0.2325
 8893SOL     OW28119   1.761   1.243   1.006 -0.1759 -0.3949 -0.3938
 8893SOL    HW128120   1.849   1.282   1.005 -0.0997 -0.5711 -0.7264
 8893SOL    HW228121   1.759   1.188   0.928 -0.1512 -1.3763  0.2882
 8894SOL     OW28122   2.735   3.811  10.764  0.1471  0.1301 -0.0892
 8894SOL    HW128123   2.715   3.814  10.670 -1.3202 -0.4041  0.1899
 8894SOL    HW228124   2.779   3.727  10.776 -0.5949 -0.2661 -0.1268
 8895SOL     OW28125   3.601   1.807  12.230 -0.0176 -0.4096 -0.6170
 8895SOL    HW128126   3.545   1.764  12.166 -0.1259 -0.9107 -0.1911
 8895SOL    HW228127   3.540   1.849  12.290  0.0130 -1.8433  0.4645
 8896SOL     OW28128   3.594   3.716  11.826  0.4024  0.4394  0.3138
 8896SOL    HW128129   3.532   3.692  11.757  1.4083 -0.9930 -0.1463
 8896SOL    HW228130   3.539   3.737  11.902 -0.6605 -0.7125 -0.1040
 8897SOL     OW28131   3.548   6.901  11.370  0.3101 -0.0165  0.0608
 8897SOL    HW128132   3.539   6.873  11.279 -0.9410 -1.1199  0.4937
 8897SOL    HW228133   3.468   6.870  11.413  0.4490  1.2844  1.3487
 8898SOL     OW28134   5.023   1.553   0.043  0.3658 -0.4883  0.4857
 8898SOL    HW128135   4.973   1.633   0.063  2.3253  0.0747  4.0336
 8898SOL    HW228136   4.990   1.489   0.106 -0.4835 -2.2931 -1.6623
 8899SOL     OW28137   3.202   2.713   0.732  0.4005 -0.4261 -0.4702
 8899SOL    HW128138   3.294   2.729   0.708  0.8271 -1.0386  0.6626
 8899SOL    HW228139   3.185   2.625   0.700 -0.3457  0.2942 -2.1700
 8900SOL     OW28140   3.171   5.515   9.584  0.3654  0.0312  0.1006
 8900SOL    HW128141   3.116   5.500   9.507  0.1293 -0.3884  0.3488
 8900SOL    HW228142   3.259   5.527   9.548 -0.0435  1.8927 -0.3972
 8901SOL     OW28143   5.303   3.553  11.741  0.3844 -0.3932  0.3438
 8901SOL    HW128144   5.218   3.592  11.724  0.3304 -0.7619 -0.2551
 8901SOL    HW228145   5.361   3.627  11.758  0.3919 -0.0135 -1.2404
 8902SOL     OW28146   4.085   3.306   0.381 -0.4959  0.1639  0.1880
 8902SOL    HW128147   4.012   3.250   0.355 -0.6227 -0.0406  0.9691
 8902SOL    HW228148   4.048   3.365   0.447 -0.3150  1.0358 -0.4649
 8903SOL     OW28149   2.007   2.993   0.821 -0.1487 -1.1000  0.7146
 8903SOL    HW128150   1.938   2.938   0.782  0.2825 -1.0963 -0.0802
 8903SOL    HW228151   2.083   2.980   0.764  0.0890 -0.0153  0.7617
 8904SOL     OW28152   4.530   1.558  11.147 -0.1960  0.1171 -0.1638
 8904SOL    HW128153   4.587   1.542  11.222 -0.2262  1.0545  0.0722
 8904SOL    HW228154   4.565   1.502  11.077 -0.4299 -1.0889  0.6649
 8905SOL     OW28155   4.038   2.210  12.392  0.4148 -0.0632 -0.0519
 8905SOL    HW128156   4.096   2.198  12.317 -0.2653  1.3436 -0.8482
 8905SOL    HW228157   3.950   2.219  12.354  0.2764  2.5108  0.7017
 8906SOL     OW28158   2.732   1.444  12.351  0.3127 -0.4939 -0.2630
 8906SOL    HW128159   2.741   1.449  12.256 -1.2871  1.2039 -0.3753
 8906SOL    HW228160   2.822   1.430  12.382  1.1173  0.5685 -1.9272
 8907SOL     OW28161   4.953   2.425  12.436  0.6224 -0.2390 -0.3455
 8907SOL    HW128162   4.918   2.339  12.462  0.8068 -0.9857 -2.3473
 8907SOL    HW228163   4.979   2.466  12.518 -1.3436 -1.2558  0.8763
 8908SOL     OW28164   2.993   3.936  11.901  0.1394  0.0947  0.2184
 8908SOL    HW128165   3.033   3.882  11.832 -1.4415 -2.7867  1.3890
 8908SOL    HW228166   2.909   3.895  11.917 -1.1948  3.0077  1.2796
 8909SOL     OW28167   5.939   1.061  12.236  0.6341 -0.0849 -0.3950
 8909SOL    HW128168   5.948   1.031  12.146 -0.3464  0.4366 -0.6811
 8909SOL    HW228169   6.003   1.132  12.244  1.3046 -0.6810 -0.4200
 8910SOL     OW28170   2.472   2.933  11.348  0.5528 -0.1038  0.4534
 8910SOL    HW128171   2.431   3.016  11.373 -1.7883 -0.4906 -1.6010
 8910SOL    HW228172   2.533   2.957  11.278 -2.3023 -0.2204 -2.3255
 8911SOL     OW28173   5.067   3.426  10.856  0.3436 -0.0753  0.8819
 8911SOL    HW128174   5.085   3.475  10.775  1.7516  0.5484  1.5369
 8911SOL    HW228175   5.108   3.341  10.841  1.6888  0.4611  1.3819
 8912SOL     OW28176   2.172   4.558   1.776  0.2330  0.3715  0.0542
 8912SOL    HW128177   2.159   4.595   1.864  0.4779 -1.6082  0.9724
 8912SOL    HW228178   2.092   4.509   1.758  0.9547 -0.8210  0.0083
 8913SOL     OW28179   3.606   3.765  11.084  0.5444  0.1906 -0.1863
 8913SOL    HW128180   3.678   3.802  11.034  1.1065 -1.5165 -0.7365
 8913SOL    HW228181   3.527   3.799  11.042  0.9994 -1.1331 -2.2748
 8914SOL     OW28182   4.298   3.489  11.292  0.3067  0.0667  0.4319
 8914SOL    HW128183   4.371   3.442  11.255  1.4004  0.4716  1.9633
 8914SOL    HW228184   4.333   3.531  11.371 -1.3877  0.8553  0.8344
 8915SOL     OW28185   4.676   2.896  11.827  0.1263  0.1066 -0.4661
 8915SOL    HW128186   4.655   2.985  11.799 -0.1540  0.3246  0.4083
 8915SOL    HW228187   4.664   2.897  11.922 -0.0932 -0.9282 -0.4739
 8916SOL     OW28188   3.134   1.840  11.968 -0.5533 -0.1321  0.0416
 8916SOL    HW128189   3.211   1.840  12.024 -0.6080  0.4716  0.1200
 8916SOL    HW228190   3.107   1.932  11.963 -0.7427 -0.2210 -0.7037
 8917SOL     OW28191   2.378   4.531  11.890  0.7758 -0.0400  0.0111
 8917SOL    HW128192   2.399   4.455  11.837  1.5559  0.3282 -0.2219
 8917SOL    HW228193   2.304   4.503  11.944  0.6985 -0.7761 -0.4652
 8918SOL     OW28194   4.613   1.908   2.100  0.1647  0.3199  0.1421
 8918SOL    HW128195   4.543   1.847   2.079  0.8656  0.1087 -1.7813
 8918SOL    HW228196   4.672   1.858   2.157  0.0013 -0.3295 -0.2519
 8919SOL     OW28197   2.790   4.233   9.584 -0.6794 -0.1701  0.4727
 8919SOL    HW128198   2.879   4.268   9.575 -0.6393 -0.1886  0.7828
 8919SOL    HW228199   2.741   4.273   9.512 -0.8924  1.3372  1.4081
 8920SOL     OW28200   1.602   0.808  10.885  0.1145 -0.3504  0.2730
 8920SOL    HW128201   1.669   0.848  10.829 -0.0862  2.6521  1.9529
 8920SOL    HW228202   1.546   0.758  10.825  0.1777  2.2608 -2.1467
 8921SOL     OW28203   1.639   2.604   9.175  0.2641  0.5589 -0.5515
 8921SOL    HW128204   1.687   2.527   9.144 -0.0214 -0.1781  0.7576
 8921SOL    HW228205   1.701   2.649   9.234  0.1806  0.9532 -0.7577
 8922SOL     OW28206   3.568   5.292  10.338  0.1415 -0.5073 -0.1475
 8922SOL    HW128207   3.583   5.207  10.297 -2.4178 -0.9219 -0.3571
 8922SOL    HW228208   3.516   5.341  10.275  0.4748  0.7594  0.5170
 8923SOL     OW28209   5.101   4.888   0.764  0.1530 -0.6462  0.9025
 8923SOL    HW128210   5.112   4.842   0.681  0.3915 -0.5272  0.8666
 8923SOL    HW228211   5.180   4.865   0.814  0.0540 -0.6443  1.0605
 8924SOL     OW28212   2.902   2.079  12.255 -0.0762  0.6953  0.4988
 8924SOL    HW128213   2.988   2.084  12.296 -0.0444  0.0871  0.5107
 8924SOL    HW228214   2.916   2.110  12.165  0.0452  1.1007  0.6554
 8925SOL     OW28215   3.103   2.354  11.155 -0.0605  0.5157 -0.7184
 8925SOL    HW128216   3.152   2.289  11.205  0.3501  2.3074  1.4032
 8925SOL    HW228217   3.152   2.436  11.169 -2.6964  2.0612  0.1123
 8926SOL     OW28218   3.416   3.313  11.686  0.1117  0.1324  0.2344
 8926SOL    HW128219   3.405   3.238  11.627  1.2092 -0.1780  0.4078
 8926SOL    HW228220   3.497   3.356  11.657  0.3099  0.3666  1.0869
 8927SOL     OW28221   4.166   1.216   0.085  0.0920 -0.0978 -0.3197
 8927SOL    HW128222   4.141   1.179  -0.000 -1.9801  1.1534 -0.3236
 8927SOL    HW228223   4.095   1.190   0.144 -0.1689  1.7321  0.2377
 8928SOL     OW28224   4.017   2.533   0.135  0.3498  0.1250  0.5084
 8928SOL    HW128225   4.104   2.497   0.120  1.2453  1.9689  1.0864
 8928SOL    HW228226   4.020   2.621   0.098 -0.0280  1.6706  3.8508
 8929SOL     OW28227   1.977   4.717  11.680  0.0157  0.3759 -0.1300
 8929SOL    HW128228   2.061   4.683  11.711  0.2881  1.7264  0.6726
 8929SOL    HW228229   1.944   4.649  11.622  1.3695 -0.4560  0.0333
 8930SOL     OW28230   2.598   1.353  10.624 -0.1424 -0.5327 -0.0054
 8930SOL    HW128231   2.619   1.347  10.531  2.1857 -0.0227  0.4234
 8930SOL    HW228232   2.673   1.315  10.669 -1.0850 -0.5193  1.6964
 8931SOL     OW28233   3.061   2.331  11.563 -0.5006  0.2164  0.5860
 8931SOL    HW128234   3.022   2.282  11.491 -0.0231 -0.0101  0.4800
 8931SOL    HW228235   3.021   2.293  11.642  0.1097 -0.5742  0.5260
 8932SOL     OW28236   3.626   2.527  11.893  0.3282 -0.3681  0.4788
 8932SOL    HW128237   3.629   2.437  11.926 -0.9509 -0.2188  1.0648
 8932SOL    HW228238   3.615   2.580  11.972  0.2600  0.2432  0.0565
 8933SOL     OW28239   0.876   3.167   0.519  0.5784 -0.2396  0.1974
 8933SOL    HW128240   0.830   3.092   0.481  0.5425  0.2042 -0.6770
 8933SOL    HW228241   0.954   3.178   0.464 -0.0603  1.1243 -0.5104
 8934SOL     OW28242   3.197   3.825   0.111 -0.5758 -0.1443  0.5445
 8934SOL    HW128243   3.194   3.752   0.173  0.5611 -0.5614  0.1428
 8934SOL    HW228244   3.255   3.889   0.153 -0.3362 -0.1421  0.2083
 8935SOL     OW28245   2.224   3.322  12.191  0.0530 -0.2156  0.2541
 8935SOL    HW128246   2.244   3.255  12.125  0.7997  0.7439 -0.5251
 8935SOL    HW228247   2.296   3.317  12.253  0.7304  0.6328 -0.4423
 8936SOL     OW28248   2.939   1.650   0.090 -0.0587  0.2822  0.4252
 8936SOL    HW128249   2.994   1.703   0.148 -1.3486  1.1134  0.9323
 8936SOL    HW228250   2.881   1.713   0.047 -0.7680 -0.5801  0.0854
 8937SOL     OW28251   0.954   3.946  11.295 -0.0063 -0.3686 -0.2782
 8937SOL    HW128252   0.934   3.854  11.277  0.7389 -0.6509  0.2994
 8937SOL    HW228253   0.942   3.990  11.210 -0.3886 -0.9886 -0.5521
 8938SOL     OW28254   1.649   1.061   0.653 -0.3173  0.6457 -0.2129
 8938SOL    HW128255   1.569   1.109   0.675 -0.5527  0.4771 -0.6817
 8938SOL    HW228256   1.634   1.029   0.564 -0.6633 -1.3016  0.5011
 8939SOL     OW28257   3.885   1.453   0.067 -0.2435 -0.6065  0.1583
 8939SOL    HW128258   3.876   1.549   0.071  0.4486 -0.5330 -0.0022
 8939SOL    HW228259   3.801   1.421   0.101 -1.6954  0.0531 -2.5000
 8940SOL     OW28260   2.720   3.860  10.255 -0.2701 -0.5920  0.2485
 8940SOL    HW128261   2.812   3.840  10.273 -0.3627 -2.5773 -1.1489
 8940SOL    HW228262   2.671   3.784  10.287 -1.1030 -0.8822 -1.5844
 8941SOL     OW28263   2.720   0.915  11.689 -0.3355 -0.0519  0.6215
 8941SOL    HW128264   2.730   0.841  11.629 -0.2929  0.0755  0.4708
 8941SOL    HW228265   2.669   0.979  11.640 -1.8530 -0.6576  1.3589
 8942SOL     OW28266   2.612   2.398   0.837 -0.2799  0.6197 -0.3495
 8942SOL    HW128267   2.579   2.328   0.780  0.0428  0.4608 -0.3447
 8942SOL    HW228268   2.586   2.371   0.925  1.6949 -0.6020 -0.0923
 8943SOL     OW28269   2.753   0.526  12.342  0.4920  0.6980 -0.0226
 8943SOL    HW128270   2.741   0.500  12.251  1.4083 -1.6343  0.4719
 8943SOL    HW228271   2.683   0.590  12.358 -2.4287 -1.9240 -1.1812
 8944SOL     OW28272   2.671   3.327   0.902 -0.0004  0.3148 -0.3244
 8944SOL    HW128273   2.579   3.342   0.880  0.0562  1.9610  0.4380
 8944SOL    HW228274   2.675   3.342   0.997  1.1901  1.0225 -0.4752
 8945SOL     OW28275   3.572   3.464  10.784 -0.1901  0.4862 -0.2976
 8945SOL    HW128276   3.651   3.430  10.825 -0.5824 -1.4658 -1.0577
 8945SOL    HW228277   3.592   3.556  10.766  2.2042 -0.1331 -1.1379
 8946SOL     OW28278   2.082   3.756   0.823 -0.7148  0.6380 -0.4308
 8946SOL    HW128279   2.047   3.818   0.887 -0.5016 -0.0664  0.3992
 8946SOL    HW228280   2.005   3.709   0.790 -0.8542  1.2033 -0.9031
 8947SOL     OW28281   4.291   2.027   1.936 -0.1023 -0.0165  0.1946
 8947SOL    HW128282   4.220   2.079   1.975  0.4410  1.7800 -1.0862
 8947SOL    HW228283   4.367   2.084   1.941  1.2410 -1.8110  1.3018
 8948SOL     OW28284   3.117   4.057   0.445  0.5971  0.5558 -0.4023
 8948SOL    HW128285   3.175   4.127   0.475  0.8684 -0.1610  0.8248
 8948SOL    HW228286   3.167   3.977   0.460  0.2459  0.0825 -1.6768
 8949SOL     OW28287   1.296   5.572   0.604  0.1135 -0.1648  0.2605
 8949SOL    HW128288   1.331   5.635   0.541  0.6164 -0.4761  0.2181
 8949SOL    HW228289   1.202   5.587   0.603 -0.0307 -0.9410 -1.4417
 8950SOL     OW28290   2.504   6.987   1.899 -0.4560  0.3317  0.3099
 8950SOL    HW128291   2.498   6.906   1.849 -0.0913 -0.7796  1.9645
 8950SOL    HW228292   2.501   6.958   1.991 -0.7721  2.2351  0.9376
 8951SOL     OW28293   4.517   5.920   0.805  0.1050  0.6170  0.4481
 8951SOL    HW128294   4.489   5.829   0.795 -0.4817  0.7875  0.5212
 8951SOL    HW228295   4.519   5.934   0.900  0.5669  0.5726  0.4497
 8952SOL     OW28296   3.944   4.853   0.486  0.8275 -0.2047  0.7633
 8952SOL    HW128297   3.951   4.758   0.494  1.2551 -0.1214  1.5487
 8952SOL    HW228298   3.854   4.873   0.512  0.5328 -0.4465 -0.0457
 8953SOL     OW28299   4.530   3.397   1.439  0.1497  0.5004 -0.2698
 8953SOL    HW128300   4.571   3.378   1.355  1.1806 -0.6738  0.4626
 8953SOL    HW228301   4.511   3.491   1.436  0.3370  0.5151 -1.7235
 8954SOL     OW28302   3.616   5.530   3.775  0.2375 -0.1016 -0.0781
 8954SOL    HW128303   3.567   5.482   3.709  0.1069 -0.6510  0.4059
 8954SOL    HW228304   3.703   5.490   3.775 -0.8767 -2.9990  2.8926
 8955SOL     OW28305   4.196   6.816   1.883  0.1606  0.4191 -0.2681
 8955SOL    HW128306   4.124   6.853   1.934  0.1573  0.7568 -0.5181
 8955SOL    HW228307   4.156   6.742   1.836  0.7113 -1.5106  2.1389
 8956SOL     OW28308   4.258   3.868   1.341 -0.0760 -0.2728  0.6644
 8956SOL    HW128309   4.327   3.926   1.308  1.2475 -1.1696  1.6932
 8956SOL    HW228310   4.305   3.788   1.366 -1.9705 -2.3469 -1.8773
 8957SOL     OW28311   1.746   4.999   0.082 -0.3944 -0.0998  0.0785
 8957SOL    HW128312   1.667   4.970   0.035 -1.3734  2.4803 -0.0517
 8957SOL    HW228313   1.721   5.084   0.119  1.7575 -0.0831  1.6325
 8958SOL     OW28314   3.204   6.854   0.507  0.4423 -0.1806 -0.5752
 8958SOL    HW128315   3.180   6.847   0.600  0.6954  1.0598 -0.3993
 8958SOL    HW228316   3.120   6.850   0.461  0.1148  1.0616 -0.1510
 8959SOL     OW28317   3.251   3.110   0.549  0.5320 -0.0003  0.3157
 8959SOL    HW128318   3.250   3.155   0.464 -1.7483  0.1945  0.3901
 8959SOL    HW228319   3.177   3.148   0.597  0.3504 -1.7600  1.5047
 8960SOL     OW28320   3.736   4.227  12.245 -0.2739 -0.1108  0.1444
 8960SOL    HW128321   3.686   4.308  12.256  1.3396  0.9641 -0.1868
 8960SOL    HW228322   3.697   4.186  12.167  0.9821  2.0519 -1.7629
 8961SOL     OW28323   2.773   5.888   0.389 -0.2437 -0.0754  0.0593
 8961SOL    HW128324   2.746   5.950   0.456 -1.2454  0.5845 -0.9282
 8961SOL    HW228325   2.693   5.842   0.364  0.2496 -0.8513 -0.1611
 8962SOL     OW28326   1.622   6.330   1.104 -0.1401  0.3313 -0.6514
 8962SOL    HW128327   1.641   6.409   1.053  1.0153  1.1070  0.9159
 8962SOL    HW228328   1.707   6.287   1.114 -0.5067 -0.2878 -0.1273
 8963SOL     OW28329   2.455   4.980   0.782 -0.4455 -0.1812 -0.6513
 8963SOL    HW128330   2.508   4.911   0.822 -1.4995  0.1823  1.5227
 8963SOL    HW228331   2.518   5.050   0.762  0.1383 -0.3922  0.3796
 8964SOL     OW28332   3.914   5.443   2.051 -0.3934  0.3985  0.6591
 8964SOL    HW128333   3.879   5.452   1.963 -3.1217 -0.4631  1.5474
 8964SOL    HW228334   3.919   5.348   2.065 -2.7914  0.4310  2.3390
 8965SOL     OW28335   3.866   6.095   3.177 -0.1031  0.4938  0.0788
 8965SOL    HW128336   3.828   6.181   3.195 -0.5036  0.3873 -0.2462
 8965SOL    HW228337   3.793   6.043   3.144  0.2227  0.1431 -0.0904
 8966SOL     OW28338   2.258   3.350   0.654  0.2277  0.2505  0.2322
 8966SOL    HW128339   2.343   3.310   0.637  0.5857  1.8394 -2.4942
 8966SOL    HW228340   2.278   3.433   0.698  0.2665  1.1142 -1.3247
 8967SOL     OW28341   2.396   4.031  11.883 -0.1981 -0.3002 -0.3667
 8967SOL    HW128342   2.316   4.076  11.856 -0.7262 -0.4364  0.9042
 8967SOL    HW228343   2.376   3.938  11.873  0.3382 -0.3063 -1.4779
 8968SOL     OW28344   4.752   5.613   0.019  0.3168 -0.2399  0.2048
 8968SOL    HW128345   4.673   5.619  -0.034  1.1477 -0.2513 -1.0664
 8968SOL    HW228346   4.742   5.683   0.084  0.1417  1.0723 -1.1780
 8969SOL     OW28347   2.146   4.745  11.950  0.0145  0.5054 -0.4884
 8969SOL    HW128348   2.238   4.760  11.971 -0.7302  2.1355  2.1068
 8969SOL    HW228349   2.134   4.651  11.962  1.5218  0.1001 -1.8478
 8970SOL     OW28350   3.225   5.069   0.838 -0.3550  0.2077  0.1749
 8970SOL    HW128351   3.217   4.981   0.875  1.4435 -0.2215 -0.3379
 8970SOL    HW228352   3.317   5.076   0.813 -0.7635  1.7203 -1.1030
 8971SOL     OW28353   4.867   4.620  12.130  0.2106  0.1200 -0.0753
 8971SOL    HW128354   4.886   4.538  12.084  1.1529 -0.2844  0.9810
 8971SOL    HW228355   4.941   4.677  12.110 -0.4196  0.7177 -0.7682
 8972SOL     OW28356   1.507   3.518  12.431 -0.4768 -0.5395  0.6188
 8972SOL    HW128357   1.501   3.594  12.489 -2.1788 -0.1535  0.0001
 8972SOL    HW228358   1.591   3.477  12.453 -0.5052  0.2985  2.4569
 8973SOL     OW28359   2.643   4.796   0.861 -0.0683  0.2867  0.1182
 8973SOL    HW128360   2.595   4.742   0.923 -0.3247  1.2642  0.7797
 8973SOL    HW228361   2.734   4.768   0.871 -0.1790  0.0779  0.5537
 8974SOL     OW28362   4.250   5.247   2.566 -0.1585  0.5182  0.1779
 8974SOL    HW128363   4.319   5.281   2.624  1.1341 -1.4804 -0.0616
 8974SOL    HW228364   4.186   5.209   2.626 -0.0366  0.5988  0.3622
 8975SOL     OW28365   2.944   3.941   0.684  0.2243 -0.1721  0.2079
 8975SOL    HW128366   2.991   4.000   0.742 -0.2710 -0.0732  0.5126
 8975SOL    HW228367   2.937   3.859   0.733 -1.2057  0.2622  0.7689
 8976SOL     OW28368   1.532   6.478   0.807 -0.4574  0.4025  0.1770
 8976SOL    HW128369   1.620   6.443   0.802 -0.1597  1.2142 -0.7368
 8976SOL    HW228370   1.497   6.465   0.718 -1.5196 -0.5540  0.7117
 8977SOL     OW28371   3.795   5.722  12.005 -0.4562 -0.2256 -0.5063
 8977SOL    HW128372   3.846   5.720  12.085  1.3328  0.7591 -1.5748
 8977SOL    HW228373   3.744   5.804  12.011  0.7708  0.5938 -1.0002
 8978SOL     OW28374   1.568   6.691   2.116 -0.1248 -0.1833  0.0897
 8978SOL    HW128375   1.521   6.609   2.134 -3.2196  1.5910  0.7742
 8978SOL    HW228376   1.517   6.758   2.160  2.8042  2.0896  0.3239
 8979SOL     OW28377   1.528   3.918   2.116  0.0722  0.3740  0.1909
 8979SOL    HW128378   1.498   3.887   2.031  0.7856  0.4663 -0.1021
 8979SOL    HW228379   1.624   3.915   2.110  0.1337 -0.2916  1.2356
 8980SOL     OW28380   2.032   5.892   1.944  0.4189 -0.6391 -0.0331
 8980SOL    HW128381   2.013   5.819   2.003  2.7283 -0.7017  0.7454
 8980SOL    HW228382   2.082   5.853   1.872  1.3353  0.0832  0.1903
 8981SOL     OW28383   3.712   5.975   0.376  0.1894  0.0950 -0.6610
 8981SOL    HW128384   3.664   5.895   0.354 -0.6420  0.6827 -1.0205
 8981SOL    HW228385   3.648   6.032   0.417  0.9506  0.3118  0.2707
 8982SOL     OW28386   2.330   4.282   0.259  0.6543 -0.2561  1.0130
 8982SOL    HW128387   2.399   4.221   0.232  0.3123 -0.4282  0.5190
 8982SOL    HW228388   2.251   4.249   0.216 -0.4086 -1.8455  3.9129
 8983SOL     OW28389   4.636   2.664   1.921  0.5349 -0.6462 -1.1941
 8983SOL    HW128390   4.689   2.700   1.992  0.0936 -1.3404 -0.5006
 8983SOL    HW228391   4.621   2.573   1.946  0.9878 -1.1132 -2.5443
 8984SOL     OW28392   3.053   6.062   0.373  0.6866 -0.4267 -0.3053
 8984SOL    HW128393   2.972   6.065   0.322  0.4433 -1.8084 -0.0422
 8984SOL    HW228394   3.074   6.154   0.390 -2.6267  0.0541  2.4279
 8985SOL     OW28395   2.380   4.539   1.596 -0.0695  0.1200 -0.0633
 8985SOL    HW128396   2.410   4.449   1.584  0.5955  0.0873  1.5153
 8985SOL    HW228397   2.326   4.536   1.675  3.1093  1.6816  2.3862
 8986SOL     OW28398   4.931   4.535   1.267 -0.0707  0.2006 -0.3057
 8986SOL    HW128399   5.020   4.547   1.234 -0.3076  2.3236 -0.3527
 8986SOL    HW228400   4.941   4.526   1.361  0.1769  1.3437 -0.2028
 8987SOL     OW28401   2.936   3.072   1.682 -0.3091 -0.0314  0.2387
 8987SOL    HW128402   2.919   3.041   1.593  1.2891  1.2999 -0.5950
 8987SOL    HW228403   3.024   3.040   1.702 -0.8085 -0.6599  1.5270
 8988SOL     OW28404   1.745   4.093  12.358 -0.1838 -0.5057 -0.4007
 8988SOL    HW128405   1.656   4.061  12.377 -0.7777  1.2287 -0.0626
 8988SOL    HW228406   1.752   4.088  12.263 -1.0749  0.3414 -0.5322
 8989SOL     OW28407   2.925   4.718   0.874 -0.1777 -0.2997  0.1350
 8989SOL    HW128408   2.935   4.789   0.811 -0.5596 -0.4549 -0.1089
 8989SOL    HW228409   3.008   4.671   0.871 -0.1372 -0.2118 -0.1365
 8990SOL     OW28410   1.894   3.891   1.317 -0.2643 -0.1880 -0.1739
 8990SOL    HW128411   1.810   3.867   1.356  0.1619 -0.6031  0.5174
 8990SOL    HW228412   1.954   3.897   1.392  0.8560 -2.1725 -0.8378
 8991SOL     OW28413   0.739   5.001   0.790  0.6121 -0.2256 -0.6954
 8991SOL    HW128414   0.798   5.042   0.727  2.6211 -1.6357  0.1730
 8991SOL    HW228415   0.751   4.907   0.777 -0.3572 -0.5446  0.5000
 8992SOL     OW28416   2.164   4.604  11.122  0.4504 -0.3333  0.6274
 8992SOL    HW128417   2.138   4.692  11.094  2.5040  0.4585  1.0762
 8992SOL    HW228418   2.118   4.591  11.205 -0.2504  0.1047  0.3207
 8993SOL     OW28419   4.001   3.685   1.493 -0.2031  0.2586  0.1215
 8993SOL    HW128420   4.091   3.651   1.497 -0.2723  0.0187 -0.3067
 8993SOL    HW228421   3.974   3.671   1.403 -0.5620  0.6254  0.1679
 8994SOL     OW28422   3.951   5.651   0.705  0.2193 -0.0651 -0.4212
 8994SOL    HW128423   3.906   5.735   0.698  0.5380  0.0394 -1.2518
 8994SOL    HW228424   3.933   5.607   0.623  0.9513 -0.3623 -0.4259
 8995SOL     OW28425   1.314   3.337  11.763  0.1719 -0.4473 -0.0809
 8995SOL    HW128426   1.370   3.403  11.804  0.5010 -0.8428  0.1031
 8995SOL    HW228427   1.294   3.374  11.677  2.5206 -1.2646 -1.0412
 8996SOL     OW28428   3.017   6.522  10.667  0.2213  0.3456 -0.3468
 8996SOL    HW128429   2.943   6.542  10.609 -0.0482  0.9415  0.1793
 8996SOL    HW228430   3.094   6.552  10.619 -0.0552  1.4174 -0.1519
 8997SOL     OW28431   3.020   6.014   0.649 -0.4298 -0.0664 -0.0256
 8997SOL    HW128432   3.037   6.017   0.555  1.3616  0.9912  0.2837
 8997SOL    HW228433   2.963   6.089   0.665 -0.2759  0.0871 -0.1858
 8998SOL     OW28434   2.015   3.129   1.380  0.2212 -0.1775  0.3660
 8998SOL    HW128435   2.035   3.036   1.384 -1.6294 -0.5938  0.5506
 8998SOL    HW228436   1.929   3.134   1.339  1.6756  1.6605 -2.8688
 8999SOL     OW28437   4.454   4.312  12.320  0.1329 -0.5251  0.5147
 8999SOL    HW128438   4.406   4.394  12.305  0.0512 -0.3235  1.7994
 8999SOL    HW228439   4.531   4.338  12.369 -0.2396 -1.2906  1.5411
 9000SOL     OW28440   2.940   4.770  11.676 -0.0415 -0.0175 -0.2722
 9000SOL    HW128441   3.025   4.815  11.670  0.1991 -0.1382  1.5365
 9000SOL    HW228442   2.908   4.766  11.586  2.3481 -0.9122 -1.1408
 9001SOL     OW28443   5.724   4.212  11.296  0.0170 -1.2406 -0.1665
 9001SOL    HW128444   5.706   4.169  11.380 -3.6687  1.1567  0.5299
 9001SOL    HW228445   5.714   4.306  11.316  1.5928 -0.4327 -2.7952
 9002SOL     OW28446   2.141   4.277   2.891  0.4226  0.3830  0.1369
 9002SOL    HW128447   2.049   4.264   2.867  0.3428  2.5554 -0.9884
 9002SOL    HW228448   2.165   4.198   2.938 -1.2949 -1.3338 -1.7085
 9003SOL     OW28449   5.106   6.986   0.301 -0.9395 -0.2758  0.1655
 9003SOL    HW128450   5.201   6.995   0.294 -1.2019  1.1864 -3.7092
 9003SOL    HW228451   5.091   6.965   0.393  2.9812  1.0663  1.3021
 9004SOL     OW28452   1.509   3.501   1.345  0.0996  0.1196  0.2137
 9004SOL    HW128453   1.480   3.423   1.298 -0.1544  0.6824 -0.6020
 9004SOL    HW228454   1.602   3.486   1.363  0.2882  0.0342 -0.7882
 9005SOL     OW28455   3.558   6.441   0.532  0.2443  0.7381  0.1444
 9005SOL    HW128456   3.472   6.459   0.494  1.2996  0.7934 -2.4030
 9005SOL    HW228457   3.619   6.491   0.478  2.3545 -2.9851 -1.3184
 9006SOL     OW28458   4.275   4.189   0.103  0.2779  0.4211  0.0287
 9006SOL    HW128459   4.317   4.271   0.078  0.0163  0.8422  0.9593
 9006SOL    HW228460   4.278   4.136   0.023  0.0069  1.5032 -0.7222
 9007SOL     OW28461   3.046   3.260   0.676  0.0475 -0.4401  0.4917
 9007SOL    HW128462   2.958   3.234   0.648  0.8747 -1.0128 -1.6968
 9007SOL    HW228463   3.030   3.312   0.756 -2.3787  0.6108 -0.5573
 9008SOL     OW28464   1.099   6.606  12.346  0.4810 -0.5035  0.0971
 9008SOL    HW128465   1.130   6.692  12.316 -0.8939  0.4659  1.2737
 9008SOL    HW228466   1.166   6.545  12.317  2.1729  1.1347  0.3124
 9009SOL     OW28467   3.745   4.334   2.399  0.1049  0.8406 -0.2847
 9009SOL    HW128468   3.805   4.265   2.372 -0.2538  0.6273 -0.5480
 9009SOL    HW228469   3.721   4.378   2.317  0.7506  1.6242 -0.0609
 9010SOL     OW28470   0.899   3.066   0.175  0.1387  0.1829  0.3435
 9010SOL    HW128471   0.837   3.040   0.243 -0.9216  1.4520 -0.1083
 9010SOL    HW228472   0.853   3.133   0.124  1.3892  0.1920 -0.8294
 9011SOL     OW28473   2.565   4.012   3.153  0.3619  0.4232 -0.0254
 9011SOL    HW128474   2.525   3.928   3.177 -4.3786  1.7950 -1.9531
 9011SOL    HW228475   2.559   4.064   3.233  2.6570 -0.6551  0.9654
 9012SOL     OW28476   1.581   4.283   0.229  0.0383  0.3809 -0.1697
 9012SOL    HW128477   1.633   4.234   0.165  0.7890  2.1423 -0.9784
 9012SOL    HW228478   1.499   4.235   0.234  0.7284 -0.9532 -0.9136
 9013SOL     OW28479   4.855   4.250   0.295  0.1719 -0.1364 -0.5556
 9013SOL    HW128480   4.833   4.283   0.382  0.6364 -3.2286  0.8757
 9013SOL    HW228481   4.770   4.228   0.256  0.0552 -0.4185 -0.1470
 9014SOL     OW28482   2.497   4.514  12.442  0.2731  0.4619 -0.2209
 9014SOL    HW128483   2.573   4.572  12.432 -0.0555  1.0645  0.7153
 9014SOL    HW228484   2.527   4.431  12.406  1.1127  0.9129 -0.6072
 9015SOL     OW28485   3.319   5.582   2.223 -0.1352 -0.3167  0.3200
 9015SOL    HW128486   3.316   5.527   2.301 -2.2703 -1.7438 -0.6770
 9015SOL    HW228487   3.331   5.671   2.257 -3.4696 -0.5252  2.5422
 9016SOL     OW28488   4.236   4.441   1.166 -0.4848 -0.2322  0.0053
 9016SOL    HW128489   4.314   4.475   1.124 -0.2114  0.2785  0.8941
 9016SOL    HW228490   4.264   4.417   1.254 -0.9232 -1.7579 -0.2404
 9017SOL     OW28491   2.495   3.467   0.412 -0.2108 -0.1624  0.4894
 9017SOL    HW128492   2.468   3.518   0.488  1.6419 -0.5902  1.4885
 9017SOL    HW228493   2.585   3.493   0.395  0.4986 -2.3827  0.4753
 9018SOL     OW28494   2.896   4.739   0.551 -0.1057 -0.0623  0.4668
 9018SOL    HW128495   2.918   4.833   0.553  0.3490  0.1011 -3.9142
 9018SOL    HW228496   2.801   4.737   0.552 -0.1205  0.4539  0.5711
 9019SOL     OW28497   3.574   5.495  11.488  0.1673  0.4682  0.2343
 9019SOL    HW128498   3.579   5.508  11.393 -1.9429  3.0752  0.3735
 9019SOL    HW228499   3.480   5.487  11.506  0.3940  1.7902  2.2801
 9020SOL     OW28500   1.194   4.717  10.738  0.0191  0.4783 -0.6455
 9020SOL    HW128501   1.149   4.683  10.661 -0.7070 -1.9442  0.7572
 9020SOL    HW228502   1.146   4.797  10.761 -1.1090  0.0421 -1.4428
 9021SOL     OW28503   3.431   3.327   0.141  0.3260 -0.3889 -0.3216
 9021SOL    HW128504   3.489   3.344   0.216  1.0044 -0.9095 -0.7213
 9021SOL    HW228505   3.457   3.392   0.076  0.3500 -0.5258 -0.4467
 9022SOL     OW28506   3.213   4.479   2.868 -0.1947 -0.0798  0.3323
 9022SOL    HW128507   3.169   4.409   2.820 -0.9992  0.7814 -0.2348
 9022SOL    HW228508   3.175   4.475   2.956 -2.3182  1.3256 -0.4232
 9023SOL     OW28509   4.924   7.722   0.377  0.0579  0.2777  0.1022
 9023SOL    HW128510   4.929   7.629   0.353  0.2134  0.2433  0.2610
 9023SOL    HW228511   4.983   7.730   0.452 -1.0516  0.2117  1.0118
 9024SOL     OW28512   0.932   4.242   0.142  0.4946 -0.2838  0.2652
 9024SOL    HW128513   0.969   4.315   0.193  0.7918  0.7448 -1.3497
 9024SOL    HW228514   0.897   4.283   0.063 -0.0495 -1.8158 -0.3296
 9025SOL     OW28515   2.235   6.815   1.118  0.3868 -0.3784  0.4808
 9025SOL    HW128516   2.278   6.901   1.119 -0.0597 -0.1440 -0.2410
 9025SOL    HW228517   2.159   6.826   1.175 -0.2769  0.0330 -0.4595
 9026SOL     OW28518   2.506   5.986   1.575  0.5431 -0.1710  0.5296
 9026SOL    HW128519   2.414   6.007   1.589  0.7185  1.6692 -0.6709
 9026SOL    HW228520   2.509   5.891   1.569 -1.6078 -0.2003 -1.3976
 9027SOL     OW28521   2.489   4.062   1.951  0.2361 -0.0431  0.4500
 9027SOL    HW128522   2.584   4.068   1.945  0.2550 -1.0064 -0.6567
 9027SOL    HW228523   2.472   3.968   1.959 -0.6604  0.0326 -0.4521
 9028SOL     OW28524   2.819   6.187   0.743  0.0032  0.2581 -0.5860
 9028SOL    HW128525   2.782   6.266   0.782 -0.4505 -0.3728  0.3089
 9028SOL    HW228526   2.745   6.126   0.739 -0.0902  0.4177 -2.8820
 9029SOL     OW28527   2.988   4.365   0.669  0.4206 -0.0289  0.0824
 9029SOL    HW128528   3.039   4.446   0.663 -0.6440  0.7512  1.0211
 9029SOL    HW228529   2.940   4.360   0.587  0.5438  0.2673 -0.0093
 9030SOL     OW28530   4.215   3.849   0.712 -0.1646 -0.6627 -0.2312
 9030SOL    HW128531   4.305   3.869   0.737 -0.7264  0.5632  0.9534
 9030SOL    HW228532   4.215   3.850   0.617  0.7838  0.8084 -0.2368
 9031SOL     OW28533   3.760   6.605   1.383  0.2270 -1.0362 -0.0141
 9031SOL    HW128534   3.746   6.595   1.477  0.6986  1.1243  0.3358
 9031SOL    HW228535   3.816   6.683   1.375 -2.4524  0.8433 -2.2191
 9032SOL     OW28536   2.353   3.589   1.364 -0.4589  0.4162 -0.2370
 9032SOL    HW128537   2.267   3.605   1.401 -0.0735 -0.4011  1.0670
 9032SOL    HW228538   2.387   3.676   1.343 -1.9678  0.7019 -1.7098
 9033SOL     OW28539   3.129   4.033   0.881  0.6322  0.1373  0.0892
 9033SOL    HW128540   3.182   4.113   0.890  0.0126  0.5002  0.5340
 9033SOL    HW228541   3.078   4.028   0.961  0.6623 -0.7137  0.0658
 9034SOL     OW28542   1.390   5.111   0.406 -0.3828  0.7861 -0.0053
 9034SOL    HW128543   1.416   5.050   0.336 -1.6573  0.8501 -0.5582
 9034SOL    HW228544   1.340   5.056   0.467  1.4702  0.5305  1.3618
 9035SOL     OW28545   2.475   4.642   1.065  0.0749  0.6656  0.0779
 9035SOL    HW128546   2.399   4.595   1.100  0.4283 -0.8839 -1.1510
 9035SOL    HW228547   2.533   4.574   1.032  0.7456  1.9584 -1.5333
 9036SOL     OW28548   4.938   4.769  11.822 -0.5517 -0.2580 -0.1429
 9036SOL    HW128549   4.862   4.825  11.807  0.3700  0.9102 -0.6160
 9036SOL    HW228550   4.935   4.705  11.751 -3.3004 -2.8420  2.0541
 9037SOL     OW28551   1.845   3.877   0.020 -0.4845 -0.4503 -0.1917
 9037SOL    HW128552   1.917   3.886   0.082 -2.4211  0.4288  2.0512
 9037SOL    HW228553   1.832   3.965  -0.016 -0.7875 -0.4851 -0.1745
 9038SOL     OW28554   2.400   5.485   1.387  0.3097 -0.6041 -0.5052
 9038SOL    HW128555   2.487   5.505   1.420 -0.2730  0.2582  0.5757
 9038SOL    HW228556   2.374   5.405   1.434 -0.3638  0.4070  0.9207
 9039SOL     OW28557   2.492   5.966   1.251 -0.2837 -0.1118 -0.2926
 9039SOL    HW128558   2.443   5.884   1.244 -2.9813  1.3074  0.4883
 9039SOL    HW228559   2.429   6.028   1.287  1.9426  2.0880  0.0604
 9040SOL     OW28560   2.559   6.242   1.955 -0.6310  0.2578  0.7169
 9040SOL    HW128561   2.558   6.165   2.011 -0.1713 -0.9819 -0.9036
 9040SOL    HW228562   2.629   6.297   1.992 -0.5224 -0.3916  1.5071
 9041SOL     OW28563   3.716   4.764   0.222  0.7720  0.5182 -0.4250
 9041SOL    HW128564   3.763   4.757   0.305  0.4213  0.4718 -0.2277
 9041SOL    HW228565   3.758   4.838   0.178  0.7584  0.7429 -0.0705
 9042SOL     OW28566   4.039   5.418   4.042 -0.0189  0.4295  0.3446
 9042SOL    HW128567   4.105   5.413   4.111 -0.0113  0.5536  0.3450
 9042SOL    HW228568   4.083   5.380   3.965  0.1028  0.6481  0.3064
 9043SOL     OW28569   4.242   5.674   4.154 -0.3265  0.1675 -0.2922
 9043SOL    HW128570   4.297   5.613   4.204  0.4122  0.2834 -0.9539
 9043SOL    HW228571   4.251   5.757   4.200  1.7141  0.7003 -1.5459
 9044SOL     OW28572   3.760   5.829   1.628  0.3633 -0.1348 -0.0843
 9044SOL    HW128573   3.822   5.877   1.573  0.1158 -0.2052 -0.4236
 9044SOL    HW228574   3.805   5.822   1.713  0.5593  0.3615 -0.1395
 9045SOL     OW28575   1.188   5.211  11.117 -0.4320  0.7545 -0.3455
 9045SOL    HW128576   1.222   5.236  11.031 -0.1950  0.4126 -0.3539
 9045SOL    HW228577   1.266   5.180  11.165 -1.0960 -2.8456 -1.3248
 9046SOL     OW28578   2.282   6.107   0.584 -0.6722  0.3875 -0.2458
 9046SOL    HW128579   2.217   6.177   0.593  0.4701  1.6017 -1.0895
 9046SOL    HW228580   2.231   6.030   0.557 -2.1192  0.5010  1.9665
 9047SOL     OW28581   5.080   5.903   2.213 -0.0027  0.5021  0.8183
 9047SOL    HW128582   5.019   5.975   2.233  0.3678  0.6031  1.6321
 9047SOL    HW228583   5.037   5.825   2.249  0.1633  0.5081  1.0274
 9048SOL     OW28584   1.799   5.943   1.141  0.3317  0.2006  0.1128
 9048SOL    HW128585   1.753   5.901   1.068  1.3851  0.3408 -0.6480
 9048SOL    HW228586   1.731   5.953   1.209 -0.6677  0.0731 -0.8350
 9049SOL     OW28587   3.548   5.465   0.382  0.4700  0.4895 -0.1287
 9049SOL    HW128588   3.475   5.497   0.436  0.4904  2.3566 -1.0944
 9049SOL    HW228589   3.590   5.545   0.351  1.7568 -0.5552 -1.1679
 9050SOL     OW28590   3.311   4.779   1.547 -0.0013 -0.3117  0.1885
 9050SOL    HW128591   3.262   4.816   1.473 -2.6702 -3.3143  0.2149
 9050SOL    HW228592   3.259   4.802   1.624  0.9356 -0.0738  0.7625
 9051SOL     OW28593   3.902   6.088   2.332 -1.1113 -0.3108 -0.2828
 9051SOL    HW128594   3.817   6.130   2.343  0.0369  1.6556  1.9682
 9051SOL    HW228595   3.934   6.075   2.421  1.3059 -0.1954 -1.0669
 9052SOL     OW28596   3.580   4.621  11.472 -0.5416  0.4247  0.1579
 9052SOL    HW128597   3.556   4.529  11.462 -1.9165  0.4423  2.6163
 9052SOL    HW228598   3.676   4.621  11.462 -0.1747 -1.7376  2.5773
 9053SOL     OW28599   2.662   3.979   1.085 -0.0441 -0.2771  0.1873
 9053SOL    HW128600   2.723   3.905   1.094  0.0227 -0.5780 -2.1162
 9053SOL    HW228601   2.675   4.010   0.995 -1.5615  1.2221  0.4372
 9054SOL     OW28602   1.587   3.793   0.865  0.1881  0.1793  0.4204
 9054SOL    HW128603   1.567   3.769   0.955 -0.8073 -0.4236  0.0619
 9054SOL    HW228604   1.638   3.874   0.871 -1.1897  0.9965  1.4632
 9055SOL     OW28605   4.742   5.270   2.304 -0.6738 -0.3374  0.1977
 9055SOL    HW128606   4.738   5.365   2.317 -1.5085 -0.0329 -1.9097
 9055SOL    HW228607   4.731   5.233   2.392 -0.6775  1.5038  1.0102
 9056SOL     OW28608   3.972   4.756  12.438  0.0152  0.1560 -0.1330
 9056SOL    HW128609   4.020   4.836  12.462  1.2693 -0.7270  0.4184
 9056SOL    HW228610   3.904   4.748  12.505 -0.1176  0.7380 -0.1870
 9057SOL     OW28611   7.441   2.704   0.695 -0.2760 -0.6150  0.2052
 9057SOL    HW128612   7.407   2.628   0.741 -0.1858 -0.4698  0.5103
 9057SOL    HW228613   7.364   2.761   0.682 -0.2537 -0.5390  0.4036
 9058SOL     OW28614   1.380   3.729   0.074 -0.1936 -0.3407  0.1158
 9058SOL    HW128615   1.336   3.670   0.135  0.4466  0.1032  1.0420
 9058SOL    HW228616   1.462   3.752   0.119  0.1408  0.2537 -0.7777
 9059SOL     OW28617   1.723   5.434   1.334  0.2338  0.5064  0.0589
 9059SOL    HW128618   1.753   5.353   1.375 -0.4751 -0.2248 -0.8038
 9059SOL    HW228619   1.798   5.493   1.339  1.1016 -0.5382 -0.1544
 9060SOL     OW28620   2.934   4.997   0.785  1.1332 -1.1417  0.1574
 9060SOL    HW128621   3.017   5.042   0.799  1.1302 -0.9915 -0.3108
 9060SOL    HW228622   2.877   5.030   0.854  1.8319 -2.1906  1.2854
 9061SOL     OW28623   1.786   4.394  12.128 -0.1178 -1.0733  0.5753
 9061SOL    HW128624   1.868   4.348  12.144  0.1179 -0.3365  1.5820
 9061SOL    HW228625   1.757   4.422  12.215 -0.8134 -0.2830  0.0995
 9062SOL     OW28626   2.185   4.144   1.700 -0.5754  0.2443 -0.7018
 9062SOL    HW128627   2.217   4.181   1.617 -1.5322 -1.8167 -2.0617
 9062SOL    HW228628   2.223   4.201   1.767  2.4349  0.4778 -2.3941
 9063SOL     OW28629   3.821   6.216   0.655  0.0168  0.1813 -0.0291
 9063SOL    HW128630   3.912   6.191   0.636 -0.2095 -0.1536 -0.6918
 9063SOL    HW228631   3.768   6.156   0.603 -0.5611  1.3846 -0.8782
 9064SOL     OW28632   2.827   4.502   1.184  0.3593  0.3078  0.4966
 9064SOL    HW128633   2.744   4.455   1.194  0.9669 -1.3114 -1.2846
 9064SOL    HW228634   2.885   4.461   1.247 -0.1784  1.5209  1.8266
 9065SOL     OW28635   2.753   4.983   0.545 -0.1497  0.0950 -0.0935
 9065SOL    HW128636   2.788   5.017   0.627  0.6316  1.3762 -0.9258
 9065SOL    HW228637   2.661   5.011   0.545 -0.2766 -0.3036  0.5351
 9066SOL     OW28638   2.605   3.628   1.072 -0.2533  0.0713 -0.5351
 9066SOL    HW128639   2.642   3.668   1.150  0.7113 -1.9481  0.1112
 9066SOL    HW228640   2.514   3.607   1.096  0.0713 -0.6399  0.1143
 9067SOL     OW28641   1.956   3.691   2.738  0.6089 -0.4593 -0.6520
 9067SOL    HW128642   1.954   3.786   2.723  1.8870 -0.2845  0.1431
 9067SOL    HW228643   1.877   3.659   2.694  0.4736  0.8862 -1.4778
 9068SOL     OW28644   2.269   5.526   1.974  0.0581 -0.1529  0.5911
 9068SOL    HW128645   2.331   5.597   1.958 -0.9261  0.3916 -1.0676
 9068SOL    HW228646   2.188   5.570   1.999 -0.6763 -0.6165 -0.8145
 9069SOL     OW28647   3.837   5.109   1.412  0.2642  0.2376 -0.6218
 9069SOL    HW128648   3.751   5.066   1.412  0.1143  0.4483  1.1577
 9069SOL    HW228649   3.817   5.200   1.387 -0.0886  0.3684  0.1154
 9070SOL     OW28650   1.245   4.357   0.470 -0.2135 -0.0489 -0.1255
 9070SOL    HW128651   1.311   4.420   0.442  0.4232 -1.0229 -0.8647
 9070SOL    HW228652   1.293   4.295   0.525 -1.1892  1.0985  2.1311
 9071SOL     OW28653   1.634   4.170  11.387 -0.2183  0.1554  0.0995
 9071SOL    HW128654   1.643   4.081  11.354 -0.0805  0.0925  0.3073
 9071SOL    HW228655   1.674   4.225  11.319  1.3524 -0.0787  0.7822
 9072SOL     OW28656   3.900   3.085   0.460  0.1992  0.2750  0.1878
 9072SOL    HW128657   3.927   3.136   0.536 -2.1293 -0.9156  1.9592
 9072SOL    HW228658   3.904   2.994   0.489 -1.9031 -0.1465 -0.6416
 9073SOL     OW28659   2.940   5.120  11.413  0.3568 -0.3818 -0.5310
 9073SOL    HW128660   2.960   5.044  11.358  0.6441  0.2342 -1.2937
 9073SOL    HW228661   2.846   5.112  11.432  0.2203 -0.5266 -1.2336
 9074SOL     OW28662   1.779   4.849   0.991  0.0551 -0.1577  0.4692
 9074SOL    HW128663   1.805   4.759   1.010  2.8824  0.7292  1.1667
 9074SOL    HW228664   1.719   4.840   0.916  0.5727 -2.5830  0.2413
 9075SOL     OW28665   1.598   4.123   0.759 -0.2474  0.5501 -0.9228
 9075SOL    HW128666   1.653   4.118   0.680 -2.1502 -1.1768 -2.2565
 9075SOL    HW228667   1.642   4.067   0.823  0.1467  0.1177 -1.5596
 9076SOL     OW28668   2.654   5.594   2.420  0.4493  0.2921 -0.5548
 9076SOL    HW128669   2.651   5.498   2.413 -0.1103  0.2817 -0.2507
 9076SOL    HW228670   2.743   5.613   2.450  0.2438 -0.2103  0.4126
 9077SOL     OW28671   3.303   5.181   1.847  0.5611  0.0893  0.0125
 9077SOL    HW128672   3.230   5.195   1.906  0.8971 -0.2951  0.5262
 9077SOL    HW228673   3.274   5.218   1.763  0.9582  2.7400  0.9629
 9078SOL     OW28674   7.952   6.675   0.774  0.1889  0.1030 -0.4334
 9078SOL    HW128675   7.884   6.741   0.788  0.2386 -0.1472  1.1482
 9078SOL    HW228676   7.997   6.668   0.858  2.0968  0.1506 -1.3932
 9079SOL     OW28677   2.077   4.410   0.929  0.3849 -0.5204 -0.1772
 9079SOL    HW128678   2.154   4.373   0.887  1.2209 -0.2650  1.0708
 9079SOL    HW228679   2.099   4.502   0.942 -0.3798 -0.3036 -0.3428
 9080SOL     OW28680   2.010   4.989  12.050 -0.3170 -0.7101 -0.0780
 9080SOL    HW128681   2.093   5.037  12.047 -0.4082 -0.3839  1.6700
 9080SOL    HW228682   2.027   4.908  12.003  1.1077 -0.8042  0.5712
 9081SOL     OW28683   2.107   3.388   2.350  0.1198 -0.1906  0.4246
 9081SOL    HW128684   2.100   3.471   2.398  0.1830  1.0341 -1.5354
 9081SOL    HW228685   2.161   3.410   2.274  1.7405 -2.5269  0.8087
 9082SOL     OW28686   1.476   4.360   1.814 -0.1417  0.6982 -0.5728
 9082SOL    HW128687   1.479   4.276   1.769  0.7303 -0.4147  1.4287
 9082SOL    HW228688   1.567   4.388   1.821 -0.0754  0.1673  1.5659
 9083SOL     OW28689   4.335   4.283   1.440  0.0469  0.5935  0.1419
 9083SOL    HW128690   4.333   4.337   1.518  0.4492  0.5319  0.1976
 9083SOL    HW228691   4.422   4.242   1.441 -0.1562  0.1517 -0.0329
 9084SOL     OW28692   1.623   6.176  11.920 -1.0222  0.6231  0.0196
 9084SOL    HW128693   1.686   6.107  11.900 -3.3886 -1.5035 -0.6203
 9084SOL    HW228694   1.643   6.246  11.857 -0.7453 -0.9733 -1.7646
 9085SOL     OW28695   3.337   4.667   0.852 -0.1154 -0.8033  0.2967
 9085SOL    HW128696   3.284   4.612   0.795  0.2119 -1.8475  0.9799
 9085SOL    HW228697   3.385   4.605   0.907 -0.4373  0.1817  1.7277
 9086SOL     OW28698   2.015   5.482   1.331  0.0878 -0.4859  0.5085
 9086SOL    HW128699   2.013   5.396   1.372  1.1823 -1.1789 -0.8354
 9086SOL    HW228700   1.999   5.466   1.238  1.1180  0.6564  0.1003
 9087SOL     OW28701   2.528   5.213   1.971  0.0591 -0.7451 -0.0050
 9087SOL    HW128702   2.458   5.259   1.925 -0.2798 -0.7891  0.4613
 9087SOL    HW228703   2.577   5.282   2.015  1.3131 -0.5305 -1.6339
 9088SOL     OW28704   3.099   6.128   1.832 -0.1416  0.3616 -0.1068
 9088SOL    HW128705   3.063   6.216   1.825  1.1770  1.0542  1.1562
 9088SOL    HW228706   3.128   6.107   1.743 -0.4499  1.2093 -0.4185
 9089SOL     OW28707   1.875   4.971   0.675  0.1683  0.4869 -0.0529
 9089SOL    HW128708   1.813   4.900   0.660 -0.0478  0.3547  1.3017
 9089SOL    HW228709   1.959   4.928   0.688  0.4036  0.6141 -1.0976
 9090SOL     OW28710   0.747   4.224   0.391  0.4280  0.5758  0.0052
 9090SOL    HW128711   0.817   4.228   0.456 -0.3075 -0.1053  0.8629
 9090SOL    HW228712   0.775   4.155   0.330  1.2367  1.3867 -0.5730
 9091SOL     OW28713   3.050   5.545   1.248  0.3681 -0.3342  0.1123
 9091SOL    HW128714   3.034   5.467   1.301 -0.1101  1.0863  2.1845
 9091SOL    HW228715   3.086   5.609   1.309 -0.1360  1.3859 -1.2894
 9092SOL     OW28716   4.654   5.055  11.676  0.1805  0.3138 -0.7418
 9092SOL    HW128717   4.646   5.029  11.768 -1.1204  0.1838 -0.8728
 9092SOL    HW228718   4.685   4.976  11.631  1.6224  0.6095 -0.3130
 9093SOL     OW28719   2.241   6.356   0.849  0.0531  0.4717 -0.0382
 9093SOL    HW128720   2.253   6.444   0.885  0.8214  0.1780  0.4419
 9093SOL    HW228721   2.179   6.368   0.777 -0.6485  1.2387  0.6836
 9094SOL     OW28722   1.743   6.264   1.714 -0.3779  0.5721 -0.3396
 9094SOL    HW128723   1.701   6.284   1.630 -0.4544 -1.6526 -0.9240
 9094SOL    HW228724   1.738   6.168   1.720 -2.2080  0.7215  3.1832
 9095SOL     OW28725   2.658   5.159   0.790  0.0043  0.1606 -0.1062
 9095SOL    HW128726   2.702   5.160   0.875  1.8743  0.5489 -1.0235
 9095SOL    HW228727   2.608   5.241   0.788  0.1231  0.2529  0.5249
 9096SOL     OW28728   3.512   5.773   1.711  0.3925 -0.1260  0.5711
 9096SOL    HW128729   3.598   5.791   1.671  0.4114  1.2360  1.1482
 9096SOL    HW228730   3.521   5.687   1.751  0.6875 -1.0943 -1.4803
 9097SOL     OW28731   1.122   3.510  11.514 -0.1655 -0.7388  0.2486
 9097SOL    HW128732   1.062   3.458  11.567 -1.9181 -1.6005 -2.3600
 9097SOL    HW228733   1.133   3.459  11.434  0.5786  1.4708 -1.1455
 9098SOL     OW28734   3.829   3.383  12.399 -0.8354  0.3571 -0.0652
 9098SOL    HW128735   3.808   3.442  12.326  0.2599 -0.3502 -0.9861
 9098SOL    HW228736   3.823   3.296  12.361  1.0439  0.0244  0.3399
 9099SOL     OW28737   2.949   6.393   1.827  0.0918 -0.9444  0.1412
 9099SOL    HW128738   2.981   6.452   1.896 -0.4104 -0.2459 -0.2041
 9099SOL    HW228739   2.971   6.438   1.745  2.4496 -2.6767 -0.2736
 9100SOL     OW28740   0.979   5.525   0.832  0.2403  0.4269  0.1332
 9100SOL    HW128741   0.967   5.599   0.773 -0.1953 -0.2825 -0.6889
 9100SOL    HW228742   1.064   5.539   0.872  0.8969  0.5262 -1.2496
 9101SOL     OW28743   3.100   4.096  12.345 -0.0960 -0.6731 -0.3848
 9101SOL    HW128744   3.047   4.056  12.413 -1.8767  0.2580 -1.1703
 9101SOL    HW228745   3.094   4.190  12.361  2.2822 -0.5369  0.1683
 9102SOL     OW28746   3.363   6.868   1.852  0.9363 -0.3978 -0.0668
 9102SOL    HW128747   3.347   6.774   1.860  2.7359 -0.8219 -1.0194
 9102SOL    HW228748   3.278   6.908   1.870  0.0128 -2.2238 -0.1353
 9103SOL     OW28749   2.016   5.570   0.863 -0.3684 -0.7379  0.5305
 9103SOL    HW128750   1.984   5.520   0.939 -1.7468 -2.4699 -1.0746
 9103SOL    HW228751   2.049   5.503   0.803 -0.6876  0.4402 -1.0217
 9104SOL     OW28752   3.938   7.120   1.550  0.3576 -0.1631 -0.4656
 9104SOL    HW128753   3.988   7.065   1.610 -2.2370 -2.4182 -0.1574
 9104SOL    HW228754   3.862   7.148   1.601 -0.4013  0.3628 -1.8324
 9105SOL     OW28755   3.803   2.785   0.238  0.4099  0.2931 -0.1590
 9105SOL    HW128756   3.761   2.836   0.308  0.7791  1.5477 -0.8078
 9105SOL    HW228757   3.855   2.719   0.283 -0.3251  0.3015  0.7127
 9106SOL     OW28758   3.889   6.668   2.671 -0.1882 -0.4334 -0.0575
 9106SOL    HW128759   3.961   6.675   2.608  0.4948 -0.7508  0.6690
 9106SOL    HW228760   3.886   6.753   2.714 -0.8874 -0.0983 -0.7585
 9107SOL     OW28761   2.726   7.018   0.077  0.0885  0.2772 -0.6873
 9107SOL    HW128762   2.816   7.032   0.106 -0.2567 -0.7834  1.0524
 9107SOL    HW228763   2.675   7.086   0.123 -0.4115 -1.1871  1.0567
 9108SOL     OW28764   3.087   5.587   0.291  0.2030  0.1580  0.2818
 9108SOL    HW128765   3.141   5.514   0.262 -0.7853 -1.0715  1.4015
 9108SOL    HW228766   3.027   5.548   0.355 -1.0790  1.7370  0.1022
 9109SOL     OW28767   2.625   4.528   0.361 -0.4684 -0.2869  0.4192
 9109SOL    HW128768   2.615   4.581   0.282  1.1999  0.5681  0.7383
 9109SOL    HW228769   2.626   4.592   0.432 -0.4122 -0.9178  0.9911
 9110SOL     OW28770   2.785   5.881   1.421 -0.0631 -0.2388 -0.4345
 9110SOL    HW128771   2.813   5.825   1.493  0.0719  1.1468  0.6413
 9110SOL    HW228772   2.837   5.852   1.346  0.0764 -1.4552  0.1096
 9111SOL     OW28773   2.811   5.737   1.171 -0.0704  0.1080  0.0322
 9111SOL    HW128774   2.744   5.707   1.233 -1.3816  0.3337 -1.2391
 9111SOL    HW228775   2.815   5.669   1.104  1.0710  0.0439  0.1382
 9112SOL     OW28776   3.563   4.003   0.654 -0.0583  0.4945 -0.3192
 9112SOL    HW128777   3.605   3.932   0.605 -1.3392  0.0156 -0.7929
 9112SOL    HW228778   3.524   3.960   0.730  1.1061  1.0852  0.6245
 9113SOL     OW28779   2.119   5.591  12.430  0.4722  0.2716  0.2621
 9113SOL    HW128780   2.206   5.620  12.457  0.4495  1.2900 -0.6425
 9113SOL    HW228781   2.078   5.558  12.509  1.9661 -0.9909  0.5408
 9114SOL     OW28782   3.864   4.139   0.859  0.3223  0.5020 -0.0355
 9114SOL    HW128783   3.916   4.166   0.935 -0.1006 -0.2064  0.5234
 9114SOL    HW228784   3.918   4.074   0.815 -0.9990 -2.1473  1.9422
 9115SOL     OW28785   3.136   5.196   1.130  0.6349 -0.2554 -0.2434
 9115SOL    HW128786   3.145   5.187   1.225 -2.4961  1.6968  0.3944
 9115SOL    HW228787   3.067   5.134   1.106 -1.2730  1.8457 -0.4939
 9116SOL     OW28788   3.515   5.300   1.466  0.3609  0.3878  0.1635
 9116SOL    HW128789   3.430   5.301   1.510  0.3982 -2.4901  0.4933
 9116SOL    HW228790   3.578   5.278   1.535  0.9652 -0.2615 -0.5714
 9117SOL     OW28791   2.259   3.238  11.021  0.5876 -0.4591  0.1743
 9117SOL    HW128792   2.282   3.300  10.951  0.1195 -0.4536  0.0210
 9117SOL    HW228793   2.282   3.283  11.102  0.1980 -0.0648  0.0657
 9118SOL     OW28794   0.883   5.123   1.874 -0.1016 -0.2185  0.2241
 9118SOL    HW128795   0.848   5.035   1.861 -1.0234  0.3406 -1.2306
 9118SOL    HW228796   0.826   5.162   1.940 -0.7781 -0.1144 -0.4178
 9119SOL     OW28797   2.956   1.112   2.685  0.0174 -0.2962  0.8852
 9119SOL    HW128798   2.974   1.192   2.735 -0.3403  0.2594  0.1574
 9119SOL    HW228799   2.950   1.142   2.594  0.1782 -1.2052  0.5654
 9120SOL     OW28800   4.399   6.257   1.232 -0.4576  0.0659 -0.2900
 9120SOL    HW128801   4.429   6.320   1.297 -0.0277 -0.1553 -0.2749
 9120SOL    HW228802   4.466   6.190   1.230 -0.9370 -0.4180 -0.2803
 9121SOL     OW28803   2.834   2.353  12.338 -0.5928 -0.0718  0.7883
 9121SOL    HW128804   2.880   2.271  12.357 -1.1884 -0.6548 -0.1805
 9121SOL    HW228805   2.756   2.349  12.392 -0.8938 -0.4197  0.3440
 9122SOL     OW28806   2.010   5.689   2.102  0.0807  0.1703 -0.1873
 9122SOL    HW128807   1.927   5.646   2.080 -0.1521  0.8993 -0.7617
 9122SOL    HW228808   2.029   5.661   2.191 -0.4446 -0.5278 -0.2871
 9123SOL     OW28809   1.738   2.767   2.434 -0.0266 -0.3337  0.1633
 9123SOL    HW128810   1.728   2.825   2.510 -1.2610 -1.1897  0.6744
 9123SOL    HW228811   1.815   2.802   2.388 -1.0866  2.1019  0.0932
 9124SOL     OW28812   4.648   7.207   1.257 -0.3675 -0.1078 -0.5161
 9124SOL    HW128813   4.690   7.260   1.189 -1.0110  1.9156  0.5648
 9124SOL    HW228814   4.693   7.231   1.338  0.1186 -2.1690 -0.1174
 9125SOL     OW28815   2.472   4.545   4.579 -0.7276 -0.2647 -0.5214
 9125SOL    HW128816   2.452   4.527   4.671 -1.5904 -0.2206 -0.6990
 9125SOL    HW228817   2.478   4.459   4.538 -1.0916 -0.2632 -0.5793
 9126SOL     OW28818   2.222   6.513   1.623 -0.2462  0.0311  0.6128
 9126SOL    HW128819   2.302   6.462   1.636 -0.6459 -0.6082  0.5733
 9126SOL    HW228820   2.169   6.460   1.564 -1.4979 -0.4417  2.0966
 9127SOL     OW28821   2.118   3.265   0.864  0.2421 -0.2123 -0.7787
 9127SOL    HW128822   2.039   3.210   0.865  0.2905 -0.3027 -1.2993
 9127SOL    HW228823   2.139   3.274   0.771  1.1675 -0.6502 -0.6280
 9128SOL     OW28824   3.462   5.134   0.719  0.2036 -0.1723 -0.3768
 9128SOL    HW128825   3.483   5.223   0.746 -1.0220 -0.2864  1.1052
 9128SOL    HW228826   3.476   5.133   0.624  0.4505  1.5239 -0.3832
 9129SOL     OW28827   3.295   3.318   0.848  0.0088  0.1232 -0.1789
 9129SOL    HW128828   3.253   3.246   0.800 -1.1902  1.5157 -1.3004
 9129SOL    HW228829   3.234   3.338   0.919  0.2300  0.2134 -0.0118
 9130SOL     OW28830   3.425   4.373   2.133  0.6420  0.1975 -0.1254
 9130SOL    HW128831   3.454   4.395   2.044 -0.8328  0.6059 -0.5363
 9130SOL    HW228832   3.395   4.457   2.169 -1.6675 -0.4367 -0.4010
 9131SOL     OW28833   3.851   4.711   0.738  0.2562 -0.2510  0.7500
 9131SOL    HW128834   3.863   4.620   0.713  2.1215 -0.3242  1.7723
 9131SOL    HW228835   3.757   4.727   0.727  0.2070 -1.6504 -1.4911
 9132SOL     OW28836   3.873   4.966   0.896 -0.1668 -0.2499 -0.1216
 9132SOL    HW128837   3.811   4.966   0.970  1.4794 -1.2981  1.3353
 9132SOL    HW228838   3.842   4.895   0.839 -0.9446 -0.0209  0.0032
 9133SOL     OW28839   4.359   5.331   1.153 -0.2752  0.1520  0.1212
 9133SOL    HW128840   4.414   5.322   1.230  0.2914  0.6484 -0.2052
 9133SOL    HW228841   4.270   5.334   1.186  0.0009  1.1143  0.8366
 9134SOL     OW28842   2.127   4.686   1.018 -0.4143 -0.3058 -0.1229
 9134SOL    HW128843   2.133   4.778   0.991  1.0911  0.6729  3.0422
 9134SOL    HW228844   2.041   4.680   1.060 -0.9256 -0.6708 -1.1736
 9135SOL     OW28845   3.749   6.577   1.654 -0.2224  0.1586 -0.0045
 9135SOL    HW128846   3.715   6.488   1.662 -2.8122  1.2174  2.4868
 9135SOL    HW228847   3.807   6.588   1.730 -0.6675  0.8459  0.2522
 9136SOL     OW28848   4.004   5.413   0.034  0.1344  0.5565  0.1558
 9136SOL    HW128849   4.056   5.336   0.010  0.4785  0.7981  0.1179
 9136SOL    HW228850   4.049   5.486  -0.009 -2.2451  0.4063 -2.9341
 9137SOL     OW28851   4.175   5.466   0.514  0.0428 -1.3246 -0.1340
 9137SOL    HW128852   4.088   5.504   0.500  1.1268  1.1438 -0.6952
 9137SOL    HW228853   4.181   5.454   0.609 -0.0180  0.9000  0.1881
 9138SOL     OW28854   4.662   6.156   2.218 -0.4803  0.1255  0.0446
 9138SOL    HW128855   4.607   6.088   2.180 -0.7511 -1.4041  2.9359
 9138SOL    HW228856   4.750   6.119   2.220  0.1938  1.4334 -1.8363
 9139SOL     OW28857   4.197   6.729   3.277 -0.1895  0.3169  0.2811
 9139SOL    HW128858   4.264   6.665   3.300 -0.4975 -0.2485 -0.3198
 9139SOL    HW228859   4.245   6.808   3.252  0.3973 -0.6679 -2.0103
 9140SOL     OW28860   2.798   4.851   2.303 -0.2846 -0.2984  0.8483
 9140SOL    HW128861   2.872   4.794   2.321 -1.2418 -1.2517  1.9941
 9140SOL    HW228862   2.788   4.849   2.208  0.1409 -1.4903  0.8178
 9141SOL     OW28863   4.312   4.492   1.667  0.0024 -0.4000 -0.1707
 9141SOL    HW128864   4.234   4.474   1.719 -0.9837 -0.7510 -1.7098
 9141SOL    HW228865   4.281   4.544   1.593  0.7610 -2.3875 -2.0179
 9142SOL     OW28866   1.378   3.368  12.094  0.6483 -0.0271  0.3221
 9142SOL    HW128867   1.306   3.319  12.134  0.5201 -0.4886 -0.4729
 9142SOL    HW228868   1.342   3.456  12.080  0.1037 -0.3629 -0.4277
 9143SOL     OW28869   3.118   5.926   2.190 -0.2360  0.0436  0.1015
 9143SOL    HW128870   3.146   5.899   2.277  1.0402 -1.4784 -0.7118
 9143SOL    HW228871   3.196   5.912   2.135 -1.1558  0.4939 -1.3625
 9144SOL     OW28872   2.907   3.461   1.577  0.0189 -0.5133 -0.1637
 9144SOL    HW128873   2.960   3.426   1.505 -0.9168 -0.1746 -1.0477
 9144SOL    HW228874   2.965   3.458   1.653  1.4665  0.2609 -1.1759
 9145SOL     OW28875   3.383   3.836   2.032  0.5123  0.1929  0.2658
 9145SOL    HW128876   3.380   3.807   2.124  0.5243  1.0995  0.5627
 9145SOL    HW228877   3.378   3.932   2.037 -0.9831  0.1974 -0.7551
 9146SOL     OW28878   4.532   3.335   0.187 -0.8165 -0.0411 -0.6388
 9146SOL    HW128879   4.564   3.343   0.097 -1.1474 -0.1557 -0.7687
 9146SOL    HW228880   4.439   3.355   0.181 -1.0992 -1.2621 -0.5191
 9147SOL     OW28881   4.760   3.410  11.772  0.3681  0.1126  0.2912
 9147SOL    HW128882   4.812   3.487  11.752  2.4572 -1.7111 -1.9875
 9147SOL    HW228883   4.805   3.368  11.846 -0.3113  0.6225  1.0127
 9148SOL     OW28884   0.950   5.081   0.553 -0.1606 -0.0591 -0.3122
 9148SOL    HW128885   0.960   5.173   0.578 -1.3377 -0.0067  0.0122
 9148SOL    HW228886   1.026   5.037   0.592  0.3048  0.7362 -0.3055
 9149SOL     OW28887   2.964   5.071   1.528  0.0722 -1.0151 -0.6190
 9149SOL    HW128888   2.882   5.043   1.489 -0.1497 -1.5400  0.1881
 9149SOL    HW228889   2.957   5.043   1.620 -0.3122  1.9627  0.3592
 9150SOL     OW28890   3.616   4.632  11.847  0.1569 -0.4733  1.1828
 9150SOL    HW128891   3.694   4.578  11.853  1.2114  0.6241 -1.1932
 9150SOL    HW228892   3.554   4.579  11.796  0.3722 -0.3111  0.7467
 9151SOL     OW28893   2.745   4.793   1.197 -0.5533  0.6207  0.2755
 9151SOL    HW128894   2.781   4.706   1.184 -0.9918  0.4548  0.1305
 9151SOL    HW228895   2.659   4.790   1.154 -1.7174  0.3046  2.4338
 9152SOL     OW28896   4.618   4.451  11.802  0.2255 -0.5978 -0.0841
 9152SOL    HW128897   4.705   4.412  11.814  0.0447 -0.9633  0.0507
 9152SOL    HW228898   4.619   4.485  11.713  0.0360 -1.8220 -0.5772
 9153SOL     OW28899   1.757   6.687   0.590 -0.6249 -0.0980 -0.1738
 9153SOL    HW128900   1.777   6.775   0.556  1.2714 -1.1542 -1.9985
 9153SOL    HW228901   1.663   6.677   0.574 -0.4442  0.7603 -2.0597
 9154SOL     OW28902   3.330   6.563   0.925  0.5542 -0.3489 -0.3810
 9154SOL    HW128903   3.404   6.505   0.938  1.1226  0.1052 -1.4547
 9154SOL    HW228904   3.328   6.618   1.004  0.3982 -1.3700  0.3481
 9155SOL     OW28905   2.857   2.625   2.668  0.2367 -0.3311 -0.1145
 9155SOL    HW128906   2.822   2.665   2.747 -1.0085 -0.9760 -0.3094
 9155SOL    HW228907   2.867   2.532   2.690 -3.3854 -1.2539 -1.6385
 9156SOL     OW28908   2.108   4.418   0.534  0.1095 -0.3620 -0.7353
 9156SOL    HW128909   2.098   4.377   0.447 -0.2737 -1.5513 -0.1569
 9156SOL    HW228910   2.053   4.365   0.591 -2.0666  2.1854 -0.2817
 9157SOL     OW28911   2.686   2.343   2.292 -0.3555 -0.5270  0.1446
 9157SOL    HW128912   2.611   2.325   2.235  1.3133 -0.0818 -2.3645
 9157SOL    HW228913   2.743   2.398   2.239  1.3210 -0.0168  2.3358
 9158SOL     OW28914   2.881   4.923   3.533  0.6802  0.7440  0.3484
 9158SOL    HW128915   2.864   4.856   3.600 -2.3266  1.0022  0.0026
 9158SOL    HW228916   2.858   5.006   3.575 -0.9651  0.9412 -0.8059
 9159SOL     OW28917   1.866   3.646   2.122 -0.0183 -0.4153  0.3415
 9159SOL    HW128918   1.798   3.617   2.184 -0.4340 -1.9204 -0.7554
 9159SOL    HW228919   1.820   3.661   2.040  0.7848 -0.1398 -0.0741
 9160SOL     OW28920   3.273   4.306   1.658  0.2312 -0.0455 -0.0017
 9160SOL    HW128921   3.331   4.361   1.605 -1.7239 -1.3789 -3.8521
 9160SOL    HW228922   3.204   4.365   1.689  0.2686  0.3852 -0.7349
 9161SOL     OW28923   2.424   4.177   1.062  0.1480  0.2703 -0.0772
 9161SOL    HW128924   2.423   4.081   1.065 -0.6732  0.2884  1.0907
 9161SOL    HW228925   2.331   4.202   1.060  0.3196  1.0331 -3.1606
 9162SOL     OW28926   1.982   4.682   3.587 -0.1082 -0.0404  0.3526
 9162SOL    HW128927   2.035   4.738   3.531 -1.2273  0.2893 -0.4240
 9162SOL    HW228928   2.007   4.593   3.563  0.9182  0.1002  0.8400
 9163SOL     OW28929   2.481   4.946   3.430  0.1413 -0.4561  0.1324
 9163SOL    HW128930   2.387   4.960   3.423  0.2830  0.5998  0.0965
 9163SOL    HW228931   2.509   5.007   3.498  1.0482  0.5539 -1.1051
 9164SOL     OW28932   1.737   4.194   2.203  0.8342  0.1162 -0.1800
 9164SOL    HW128933   1.741   4.120   2.142  1.6642  0.1819 -0.2206
 9164SOL    HW228934   1.829   4.218   2.217  0.5990  0.7657  0.2889
 9165SOL     OW28935   2.676   4.041   4.329 -0.1233  0.2125  0.1327
 9165SOL    HW128936   2.754   4.095   4.316  0.0191  0.4706  1.8595
 9165SOL    HW228937   2.647   4.060   4.418 -1.3434 -0.9417  0.0287
 9166SOL     OW28938   2.002   6.205   2.337 -0.1407  0.0285  0.4958
 9166SOL    HW128939   2.086   6.219   2.383  0.5333 -2.2633  0.0822
 9166SOL    HW228940   2.027   6.177   2.250 -1.4257  2.5355 -0.7942
 9167SOL     OW28941   3.182   3.688   4.574  0.5249 -0.0247  0.1147
 9167SOL    HW128942   3.264   3.639   4.573  2.2564  2.6099 -1.8230
 9167SOL    HW228943   3.184   3.737   4.656  1.3198  0.5961 -0.2601
 9168SOL     OW28944   3.039   3.709   2.849  0.1496  0.2517  0.0578
 9168SOL    HW128945   3.097   3.783   2.870  0.1362  1.3785 -3.3060
 9168SOL    HW228946   2.967   3.717   2.911  0.8691  2.1898  0.7282
 9169SOL     OW28947   2.476   6.293   0.671  0.2685  0.1477  0.7127
 9169SOL    HW128948   2.399   6.322   0.719  0.2319 -0.9947  1.3719
 9169SOL    HW228949   2.452   6.209   0.633  0.9350  0.1394  0.2749
 9170SOL     OW28950   1.525   4.721   3.017  0.2686  0.1800  0.3969
 9170SOL    HW128951   1.432   4.709   2.997  0.9074 -2.8548 -1.5690
 9170SOL    HW228952   1.530   4.718   3.112 -1.5117 -1.6777  0.5110
 9171SOL     OW28953   1.428   4.896   0.248  0.6957 -0.8782 -0.0654
 9171SOL    HW128954   1.488   4.823   0.264  1.4225 -0.3435 -0.2768
 9171SOL    HW228955   1.343   4.855   0.233  1.0943 -1.6803 -0.1759
 9172SOL     OW28956   1.242   5.194   4.890 -0.2104  0.1779 -0.0336
 9172SOL    HW128957   1.317   5.167   4.943  0.6375  0.9147 -0.8177
 9172SOL    HW228958   1.218   5.116   4.841  1.7352  0.5642 -1.7269
 9173SOL     OW28959   0.806   5.352   3.753 -0.2096 -0.1883 -0.1579
 9173SOL    HW128960   0.861   5.380   3.681  0.0781  0.7739  0.4190
 9173SOL    HW228961   0.868   5.321   3.820 -0.3317  1.0512  0.5571
 9174SOL     OW28962   1.942   2.920   2.349 -0.6912 -0.5304 -0.0828
 9174SOL    HW128963   1.934   2.963   2.263 -2.4361 -1.1318 -0.2817
 9174SOL    HW228964   2.030   2.884   2.350  0.3037  1.7484 -0.5087
 9175SOL     OW28965   3.524   5.117   2.512 -0.1840  0.1551 -0.0993
 9175SOL    HW128966   3.454   5.062   2.477 -0.7019  1.1267 -0.6441
 9175SOL    HW228967   3.517   5.108   2.607 -0.0815 -0.9219 -0.1839
 9176SOL     OW28968   3.749   5.734   3.305 -0.8749  0.8692  0.0900
 9176SOL    HW128969   3.713   5.653   3.340  0.4267 -0.2160 -0.9308
 9176SOL    HW228970   3.753   5.793   3.380 -2.1485  0.1113  0.7896
 9177SOL     OW28971   0.514   6.361   2.106 -0.7952 -0.5333 -0.3251
 9177SOL    HW128972   0.494   6.327   2.019 -1.1548  0.2435 -0.5578
 9177SOL    HW228973   0.571   6.295   2.145 -0.1797 -0.6431 -1.3575
 9178SOL     OW28974   2.065   4.990   1.583 -0.1689 -0.1265  0.8624
 9178SOL    HW128975   1.991   4.978   1.524  1.1617 -0.6136 -0.7928
 9178SOL    HW228976   2.041   4.944   1.663 -1.0045 -1.6405 -0.2233
 9179SOL     OW28977   4.009   3.509   2.293  0.1571  0.4202 -0.6555
 9179SOL    HW128978   4.006   3.495   2.388 -1.9576 -0.9435 -0.8820
 9179SOL    HW228979   4.076   3.447   2.262 -0.0567 -0.0462 -0.2007
 9180SOL     OW28980   2.090   5.759   1.720  0.5135  0.3960  0.2425
 9180SOL    HW128981   2.155   5.719   1.661 -0.3206  0.0769 -0.4954
 9180SOL    HW228982   2.030   5.687   1.740  1.6907  0.0407  2.8874
 9181SOL     OW28983   2.548   5.449   2.770  0.1000  0.7927 -0.8739
 9181SOL    HW128984   2.559   5.359   2.738  0.0422  0.3326  0.3322
 9181SOL    HW228985   2.487   5.441   2.843 -0.5010  1.9348 -1.2293
 9182SOL     OW28986   3.092   3.819   3.982 -0.1928  0.5121  0.6139
 9182SOL    HW128987   3.008   3.773   3.983 -0.5475  1.1420  0.3775
 9182SOL    HW228988   3.157   3.750   3.967 -0.6307 -0.0297  1.1683
 9183SOL     OW28989   2.251   4.183   3.398  0.6970  0.5642 -0.6105
 9183SOL    HW128990   2.244   4.108   3.339 -0.1316 -0.3811  0.6412
 9183SOL    HW228991   2.345   4.190   3.417  0.7093 -0.6268 -0.1700
 9184SOL     OW28992   2.361   5.204   3.447  0.2250 -0.5417  0.4196
 9184SOL    HW128993   2.397   5.165   3.368 -0.4250 -0.3391  0.0092
 9184SOL    HW228994   2.291   5.145   3.473 -0.6890  0.2530 -0.1398
 9185SOL     OW28995   1.754   3.419   1.407  0.3764 -0.3711  0.0642
 9185SOL    HW128996   1.823   3.437   1.343 -0.1289  0.2026 -0.3442
 9185SOL    HW228997   1.773   3.478   1.480 -0.1916  0.4702 -0.4486
 9186SOL     OW28998   2.938   5.191   4.340  0.2414 -0.4219 -0.0322
 9186SOL    HW128999   2.941   5.120   4.276 -0.7349  0.6598 -1.3405
 9186SOL    HW229000   3.030   5.211   4.359  0.5709 -0.2713 -1.6888
 9187SOL     OW29001   2.574   2.804   3.779 -0.6095  0.0889  0.1089
 9187SOL    HW129002   2.632   2.729   3.792 -0.6753 -0.1285 -0.7822
 9187SOL    HW229003   2.623   2.879   3.812 -0.2158 -0.2329  0.2618
 9188SOL     OW29004   4.114   4.446   3.283 -0.2774  0.1822  0.3590
 9188SOL    HW129005   4.100   4.487   3.368 -0.5716  0.7470  0.0453
 9188SOL    HW229006   4.093   4.354   3.296 -2.7599  0.6686  0.3220
 9189SOL     OW29007   5.185   5.785   3.657 -0.0399  0.2459  0.2045
 9189SOL    HW129008   5.179   5.836   3.577 -1.3603 -2.0042 -1.2592
 9189SOL    HW229009   5.097   5.789   3.695 -0.2584 -1.1490 -0.1128
 9190SOL     OW29010   2.516   4.580   2.575 -0.1024 -0.7269 -0.3448
 9190SOL    HW129011   2.565   4.605   2.654 -1.2751 -1.1936  0.5660
 9190SOL    HW229012   2.510   4.660   2.524  0.9355 -0.4853 -0.1131
 9191SOL     OW29013   1.776   1.864   2.990  0.4715  0.4305 -0.1528
 9191SOL    HW129014   1.749   1.956   2.990  1.1046  0.6279  0.0873
 9191SOL    HW229015   1.860   1.864   3.036  0.8068 -0.1650 -0.7358
 9192SOL     OW29016   3.273   5.852   3.434 -0.1392 -0.0468 -0.3997
 9192SOL    HW129017   3.317   5.918   3.380 -1.0576  0.3242 -0.7290
 9192SOL    HW229018   3.308   5.769   3.404  0.6107  0.2608 -0.3900
 9193SOL     OW29019   3.373   1.466   3.992 -0.3645  0.5627 -0.1283
 9193SOL    HW129020   3.330   1.400   3.937  0.6196  0.5297 -0.8850
 9193SOL    HW229021   3.407   1.416   4.067  1.0335  0.0541 -1.0681
 9194SOL     OW29022   3.635   3.802   4.764  0.2292 -0.5488  0.2108
 9194SOL    HW129023   3.648   3.892   4.792  0.0126 -0.3074 -0.4291
 9194SOL    HW229024   3.660   3.802   4.671  0.5145 -1.2142  0.2808
 9195SOL     OW29025   2.533   5.024   2.562 -0.6377 -0.0020 -0.2178
 9195SOL    HW129026   2.535   4.947   2.505  0.2753  1.9106 -2.9845
 9195SOL    HW229027   2.442   5.054   2.559 -0.7002 -0.1964 -0.2833
 9196SOL     OW29028   1.670   6.033   3.070 -0.1488  0.2712 -0.0644
 9196SOL    HW129029   1.696   6.040   2.978  2.2871 -0.6869  0.4720
 9196SOL    HW229030   1.643   6.121   3.094  0.8004  0.9358 -1.2719
 9197SOL     OW29031   1.301   3.296   4.017  0.6256  0.4102 -0.1142
 9197SOL    HW129032   1.310   3.251   4.100  1.4716  0.2069 -0.3024
 9197SOL    HW229033   1.281   3.387   4.041 -2.1231 -0.2197  0.2495
 9198SOL     OW29034   2.434   4.967   2.820 -0.0410  0.1858  0.1020
 9198SOL    HW129035   2.501   4.946   2.885 -0.0890  0.0441  0.1060
 9198SOL    HW229036   2.480   4.963   2.736 -0.2055 -0.6252  0.0426
 9199SOL     OW29037   3.157   3.042   1.258  0.1802 -0.7220 -0.0946
 9199SOL    HW129038   3.181   2.959   1.216  1.4293 -0.4677  0.0658
 9199SOL    HW229039   3.237   3.070   1.303 -0.4018  0.2702  0.3618
 9200SOL     OW29040   3.592   4.116   4.258 -0.3687 -0.8035  0.2740
 9200SOL    HW129041   3.597   4.155   4.345  1.6785 -1.7828  0.6516
 9200SOL    HW229042   3.599   4.190   4.198 -0.0700 -0.2658  0.9619
 9201SOL     OW29043   3.060   5.105   1.990  0.1737  0.3264  0.2301
 9201SOL    HW129044   3.053   5.186   2.041  2.0431  0.7690 -0.1321
 9201SOL    HW229045   3.083   5.038   2.054  1.2184  0.6197  0.1729
 9202SOL     OW29046   0.070   4.134   4.476 -0.0624 -0.2622  0.2462
 9202SOL    HW129047   0.152   4.184   4.471 -0.8375  0.9052 -2.7105
 9202SOL    HW229048   0.085   4.058   4.420 -0.6810 -0.5691  0.4914
 9203SOL     OW29049   1.417   6.000   2.250 -0.3417 -0.2938  0.0477
 9203SOL    HW129050   1.496   5.996   2.195 -1.5110  1.5075 -1.8917
 9203SOL    HW229051   1.384   5.910   2.250  1.0053 -0.8182 -0.1729
 9204SOL     OW29052   1.449   6.016   3.297  0.4396  0.3784 -0.2253
 9204SOL    HW129053   1.524   6.050   3.345 -0.2624  0.2280  1.0314
 9204SOL    HW229054   1.457   5.921   3.304  0.6933  0.3365 -1.0048
 9205SOL     OW29055   2.897   5.035   3.874  0.3121 -0.6353  0.2557
 9205SOL    HW129056   2.943   5.006   3.953 -0.3242  0.9466  1.2461
 9205SOL    HW229057   2.805   5.036   3.899  0.1186  0.0665 -0.4368
 9206SOL     OW29058   3.446   4.411   3.629  0.1985  0.6207  0.0377
 9206SOL    HW129059   3.394   4.335   3.603  1.5085 -0.3844  0.2167
 9206SOL    HW229060   3.413   4.483   3.574 -0.6381 -0.2224 -0.5932
 9207SOL     OW29061   2.626   4.125   2.900 -0.4822  0.2860 -0.0490
 9207SOL    HW129062   2.602   4.091   2.986  2.8124 -0.1193  0.8597
 9207SOL    HW229063   2.644   4.218   2.915  0.1468  0.2057 -0.2394
 9208SOL     OW29064   3.495   4.370   1.839  0.2390 -0.3333 -0.0164
 9208SOL    HW129065   3.481   4.276   1.838  0.5428 -0.3846 -1.0637
 9208SOL    HW229066   3.433   4.404   1.774  1.7960 -0.1067 -1.4750
 9209SOL     OW29067   1.338   5.443   2.935  0.2302  0.0216 -0.3603
 9209SOL    HW129068   1.416   5.400   2.899  0.0732 -0.5619 -0.0193
 9209SOL    HW229069   1.367   5.532   2.956  1.1461 -0.5345  0.8821
 9210SOL     OW29070   1.975   7.223   3.006 -0.7773 -0.2018 -0.3092
 9210SOL    HW129071   2.061   7.264   3.014 -0.5826 -0.6471 -0.0903
 9210SOL    HW229072   1.915   7.288   3.043 -0.4373 -0.2386  0.3265
 9211SOL     OW29073   1.253   4.405   3.547  0.6262  0.1446  0.2507
 9211SOL    HW129074   1.292   4.489   3.524 -2.0515  1.5012  0.2173
 9211SOL    HW229075   1.274   4.393   3.639 -0.3087  1.7345  0.7195
 9212SOL     OW29076   3.085   3.928   2.342  0.1839  0.0613 -0.0655
 9212SOL    HW129077   3.112   3.837   2.358  1.7498  0.3323 -0.9290
 9212SOL    HW229078   3.157   3.980   2.377 -1.1424  1.0311  1.2923
 9213SOL     OW29079   3.544   4.353   2.607  0.5748 -0.5791 -0.4639
 9213SOL    HW129080   3.562   4.277   2.662  0.0889  0.3229  0.9932
 9213SOL    HW229081   3.605   4.344   2.533 -0.3625 -3.0463 -1.0315
 9214SOL     OW29082   3.971   3.045   2.081  0.3456  0.1769  0.2302
 9214SOL    HW129083   4.029   2.974   2.053 -0.2309 -0.2661  0.1123
 9214SOL    HW229084   3.974   3.042   2.177  0.4374  0.0876  0.2248
 9215SOL     OW29085   0.737   4.394   2.950  0.6851  0.0777  0.3686
 9215SOL    HW129086   0.703   4.465   2.896  3.3859  1.1843 -0.0440
 9215SOL    HW229087   0.768   4.437   3.030  0.4964 -0.9650  1.0335
 9216SOL     OW29088   3.246   4.685   1.920  0.1371  0.2616 -0.2605
 9216SOL    HW129089   3.246   4.762   1.863  0.2079  1.4448  1.2786
 9216SOL    HW229090   3.206   4.616   1.866  0.3013  1.2799 -1.7673
 9217SOL     OW29091   2.985   4.927   3.037  0.2865  0.0521  0.0681
 9217SOL    HW129092   2.976   4.944   3.131  1.6966 -0.1716  0.2645
 9217SOL    HW229093   3.011   4.835   3.032  0.7189  0.1997 -0.5020
 9218SOL     OW29094   3.298   3.977   3.700 -0.1646 -0.5211 -0.3851
 9218SOL    HW129095   3.204   3.980   3.716 -0.0466 -0.0208  0.2593
 9218SOL    HW229096   3.329   3.903   3.753  0.0654  0.4575  0.8846
 9219SOL     OW29097   2.429   3.782   2.108 -0.5442 -0.2207 -0.0606
 9219SOL    HW129098   2.413   3.690   2.088 -1.4956 -0.1101  0.1352
 9219SOL    HW229099   2.425   3.786   2.204 -0.5059  0.0189 -0.0697
 9220SOL     OW29100   3.788   4.112   2.201 -0.2132 -0.2189 -0.0602
 9220SOL    HW129101   3.774   4.088   2.109 -0.7152 -1.5837  0.3580
 9220SOL    HW229102   3.828   4.035   2.241  1.1645  0.7897  0.6212
 9221SOL     OW29103   1.993   3.992   2.713  0.4142 -0.4561  0.3329
 9221SOL    HW129104   1.975   4.068   2.769  0.6424  0.4765 -0.8126
 9221SOL    HW229105   2.078   4.012   2.674 -0.1441 -0.6527 -1.0118
 9222SOL     OW29106   2.313   4.835   2.284  0.7479  0.3452  0.2046
 9222SOL    HW129107   2.377   4.888   2.236  1.0625 -0.0310  0.2071
 9222SOL    HW229108   2.230   4.882   2.273  0.8396  0.3251 -0.5997
 9223SOL     OW29109   2.937   4.045   1.666 -0.3304  0.0362 -0.1565
 9223SOL    HW129110   2.901   4.133   1.669  3.0315  1.6350 -1.0925
 9223SOL    HW229111   2.878   3.996   1.609 -1.9723  1.8300 -0.0836
 9224SOL     OW29112   2.762   3.066   2.786  0.2599  0.3816 -0.1094
 9224SOL    HW129113   2.805   3.119   2.853  0.1071  0.9827 -0.4809
 9224SOL    HW229114   2.798   3.096   2.703 -0.5218  0.5744 -0.3942
 9225SOL     OW29115   1.832   5.572   3.967  0.5939 -0.0609 -0.4631
 9225SOL    HW129116   1.864   5.602   3.882  1.1201  0.1219 -0.2037
 9225SOL    HW229117   1.889   5.614   4.031  3.2415 -3.6543 -0.1308
 9226SOL     OW29118   2.419   2.915   3.110 -0.0374  0.6225  0.0013
 9226SOL    HW129119   2.495   2.947   3.159  0.7544  0.8161 -1.2814
 9226SOL    HW229120   2.403   2.827   3.143  0.9206  0.4840  0.1205
 9227SOL     OW29121   2.602   4.179   1.537  0.3300 -0.0589  0.4320
 9227SOL    HW129122   2.609   4.248   1.603 -1.5563  0.4997  0.0872
 9227SOL    HW229123   2.543   4.214   1.471 -0.2680 -1.8043 -0.0160
 9228SOL     OW29124   3.732   4.349   2.895  0.0773 -0.2569 -0.1330
 9228SOL    HW129125   3.682   4.427   2.874  0.1885  0.5327  2.2899
 9228SOL    HW229126   3.676   4.276   2.868 -0.6115  0.6208 -1.1416
 9229SOL     OW29127   1.330   4.101   3.920 -0.0123 -0.0745 -0.1500
 9229SOL    HW129128   1.361   4.057   3.999 -0.6443 -1.0995 -0.4546
 9229SOL    HW229129   1.404   4.155   3.891  0.2369  0.2780  1.1023
 9230SOL     OW29130   3.678   6.248   2.869 -0.3705 -0.1754 -0.4807
 9230SOL    HW129131   3.738   6.268   2.797 -1.6585 -0.4494 -1.6831
 9230SOL    HW229132   3.617   6.184   2.832 -2.3616  1.2678  0.1441
 9231SOL     OW29133   3.338   3.049   3.430  0.0028  0.0574  0.3235
 9231SOL    HW129134   3.380   2.963   3.438 -0.6831 -0.4693 -1.2906
 9231SOL    HW229135   3.250   3.036   3.465 -0.6646 -0.3829 -1.4360
 9232SOL     OW29136   1.056   7.115   4.565  0.1210 -0.0792  0.2213
 9232SOL    HW129137   0.994   7.108   4.637 -0.3076  2.1817  0.1324
 9232SOL    HW229138   1.015   7.174   4.502  2.3600  1.6024  0.2043
 9233SOL     OW29139   2.983   3.571   2.258 -0.3001  0.7610 -0.1344
 9233SOL    HW129140   3.048   3.593   2.324 -1.2006  2.1382  0.3462
 9233SOL    HW229141   3.010   3.620   2.180 -0.5418  1.0274 -0.0521
 9234SOL     OW29142   1.886   2.521   2.369 -0.2756 -0.2871  0.4072
 9234SOL    HW129143   1.801   2.562   2.381 -1.2271 -1.8178 -0.7509
 9234SOL    HW229144   1.948   2.579   2.415 -1.7625  1.4215  0.3409
 9235SOL     OW29145   2.390   3.776   2.974 -0.1120 -0.3866 -0.6772
 9235SOL    HW129146   2.336   3.844   3.014 -0.6229 -1.3862  0.3944
 9235SOL    HW229147   2.327   3.720   2.929  0.0827 -1.2466  0.1063
 9236SOL     OW29148   3.520   5.887   1.337  0.1162  0.0373  0.2314
 9236SOL    HW129149   3.453   5.845   1.282  0.7588 -0.5195 -0.1370
 9236SOL    HW229150   3.577   5.815   1.363  1.5917  0.7683 -0.8839
 9237SOL     OW29151   1.957   4.311   2.300  0.6869  0.0761 -0.0091
 9237SOL    HW129152   2.030   4.256   2.329  0.3848 -0.3508 -0.0540
 9237SOL    HW229153   1.968   4.393   2.347  0.7372 -0.2796  0.6002
 9238SOL     OW29154   2.319   6.284   2.914  0.1030 -0.0764 -0.2973
 9238SOL    HW129155   2.311   6.308   2.822 -2.3473 -0.0417 -0.1518
 9238SOL    HW229156   2.303   6.366   2.961 -0.4565 -0.4350  0.1514
 9239SOL     OW29157   2.229   3.850   1.130 -0.0509  0.2734  0.2285
 9239SOL    HW129158   2.275   3.877   1.209  0.1557  0.3923  0.0667
 9239SOL    HW229159   2.283   3.881   1.058 -1.1665  1.8156  0.0100
 9240SOL     OW29160   2.474   4.420   2.100 -0.4496  0.0610  0.5133
 9240SOL    HW129161   2.529   4.496   2.118 -1.5751  1.2394 -0.7783
 9240SOL    HW229162   2.403   4.427   2.165  0.9284 -1.5612  2.3036
 9241SOL     OW29163   3.649   5.213   1.669  0.2477  0.5452  0.0086
 9241SOL    HW129164   3.656   5.120   1.691 -0.0801  0.5281  0.0471
 9241SOL    HW229165   3.711   5.256   1.728 -1.0553  0.5613  1.4272
 9242SOL     OW29166   2.546   3.489   3.414 -0.4904 -0.2407  0.1508
 9242SOL    HW129167   2.569   3.546   3.488  1.0087 -0.0336 -0.4424
 9242SOL    HW229168   2.469   3.441   3.444 -1.1327  1.3093  1.0704
 9243SOL     OW29169   3.325   5.605   4.903 -0.8039 -0.3881  0.0389
 9243SOL    HW129170   3.416   5.632   4.891 -0.7707 -0.5867 -0.1524
 9243SOL    HW229171   3.310   5.538   4.836 -0.7438 -1.1925  0.8084
 9244SOL     OW29172   3.353   3.845   1.103  0.5721  0.1935  0.3062
 9244SOL    HW129173   3.325   3.922   1.152  2.4045  1.5980 -0.6976
 9244SOL    HW229174   3.300   3.845   1.024  0.2367  0.1411  0.5312
 9245SOL     OW29175   3.199   4.603   4.029  0.4359 -0.0179 -0.0706
 9245SOL    HW129176   3.207   4.642   4.116  1.1286  0.6044 -0.4029
 9245SOL    HW229177   3.244   4.519   4.036  2.4824  0.9835 -0.3915
 9246SOL     OW29178   2.748   2.764   2.884  0.0168  0.1925  0.0411
 9246SOL    HW129179   2.751   2.855   2.854 -1.1696  0.6703  1.2717
 9246SOL    HW229180   2.806   2.762   2.961  0.2327 -0.1603 -0.1259
 9247SOL     OW29181   3.412   4.628   3.471 -0.0639  0.1872  0.5740
 9247SOL    HW129182   3.492   4.678   3.489 -0.6429  1.5040 -0.2665
 9247SOL    HW229183   3.354   4.647   3.545 -0.6417  1.6218 -0.1998
 9248SOL     OW29184   0.922   4.686   4.227 -0.1922  0.2551  0.0232
 9248SOL    HW129185   1.016   4.701   4.217 -0.5879  1.9633 -1.5883
 9248SOL    HW229186   0.891   4.759   4.281 -1.0206  1.4566 -1.9720
 9249SOL     OW29187   0.974   5.191   2.864 -0.3490 -0.2585  0.3525
 9249SOL    HW129188   1.017   5.207   2.948  0.5391  1.5554 -0.4056
 9249SOL    HW229189   0.993   5.268   2.812 -3.4986  0.0784 -0.4957
 9250SOL     OW29190   1.734   5.009   4.173 -0.4312  0.2997  0.6634
 9250SOL    HW129191   1.823   5.045   4.174 -0.5225  0.5807 -0.1290
 9250SOL    HW229192   1.743   4.921   4.209  0.5918 -0.5147 -1.3760
 9251SOL     OW29193   1.583   4.396   4.865 -0.6491  0.1986 -0.4537
 9251SOL    HW129194   1.531   4.348   4.930  1.4563 -1.9327 -0.1994
 9251SOL    HW229195   1.612   4.474   4.912  1.9313 -1.9309  1.8106
 9252SOL     OW29196   2.131   4.633   2.695 -0.2836 -0.1385  0.1146
 9252SOL    HW129197   2.187   4.628   2.773  0.5200  1.9788 -0.2599
 9252SOL    HW229198   2.163   4.564   2.637  0.6514 -0.2172  0.7095
 9253SOL     OW29199   1.937   2.962   2.794  0.2404 -0.4568  0.3049
 9253SOL    HW129200   1.892   2.878   2.798 -0.9569  0.1740  0.3563
 9253SOL    HW229201   1.870   3.024   2.766  1.3739  0.2957 -0.8249
 9254SOL     OW29202   3.524   4.530   2.936 -0.6351 -0.4439 -0.4975
 9254SOL    HW129203   3.449   4.497   2.886 -1.3316  0.9345 -0.4244
 9254SOL    HW229204   3.491   4.541   3.025 -0.5378  0.6909 -0.5817
 9255SOL     OW29205   2.794   4.395   4.073  0.1559  0.5176 -0.2331
 9255SOL    HW129206   2.872   4.411   4.020  0.6335  2.3326  0.9539
 9255SOL    HW229207   2.825   4.339   4.145 -0.2003 -0.7821 -1.0469
 9256SOL     OW29208   3.676   5.358   2.223 -0.3680  0.4086  0.8115
 9256SOL    HW129209   3.690   5.265   2.243 -0.2412  0.2328 -0.0714
 9256SOL    HW229210   3.612   5.358   2.152  0.2199  0.9663  0.2757
 9257SOL     OW29211   1.116   4.934   1.357  0.5916  0.0643 -0.3484
 9257SOL    HW129212   1.169   4.925   1.278  1.1559 -1.7726  0.1916
 9257SOL    HW229213   1.102   4.844   1.387 -0.1782  0.6845  1.2666
 9258SOL     OW29214   0.530   4.765   4.933  0.2638 -0.0693  0.4244
 9258SOL    HW129215   0.520   4.853   4.969  1.5227 -0.4270  1.7580
 9258SOL    HW229216   0.623   4.761   4.909 -0.1728 -0.4378 -1.3400
 9259SOL     OW29217   4.036   4.670   3.767 -0.1614  0.3685 -0.1233
 9259SOL    HW129218   4.068   4.758   3.745  0.5989  0.6191  1.8325
 9259SOL    HW229219   3.963   4.685   3.826 -0.0443 -0.3163  0.2026
 9260SOL     OW29220   2.981   4.586   3.551  0.0490  0.2229  0.4023
 9260SOL    HW129221   3.025   4.504   3.575 -0.6229 -0.3022 -0.1422
 9260SOL    HW229222   2.932   4.611   3.629  0.6658  0.3962  0.7468
 9261SOL     OW29223   1.837   4.929   2.123 -0.2871  0.4745  0.0765
 9261SOL    HW129224   1.742   4.924   2.127 -0.2133 -1.1463  0.3334
 9261SOL    HW229225   1.856   4.958   2.034 -1.0315  2.0121  0.3854
 9262SOL     OW29226   2.657   5.190   2.747  0.5935 -0.6251  0.7508
 9262SOL    HW129227   2.745   5.219   2.724  0.0654  0.2016 -0.2683
 9262SOL    HW229228   2.643   5.112   2.693  0.7083 -0.7974  0.9635
 9263SOL     OW29229   3.454   4.742   0.394 -0.9142 -0.0571  0.4340
 9263SOL    HW129230   3.534   4.724   0.345 -1.5704  0.1632 -0.7717
 9263SOL    HW229231   3.477   4.815   0.453 -0.7910  1.5503 -1.4907
 9264SOL     OW29232   2.071   4.539   5.912  0.1250 -0.1771 -0.5459
 9264SOL    HW129233   2.120   4.465   5.876 -1.8277 -2.5647  1.3721
 9264SOL    HW229234   2.138   4.595   5.951  1.9590  0.7521 -4.4836
 9265SOL     OW29235   1.888   3.503   3.156 -0.3047  0.3927 -0.2859
 9265SOL    HW129236   1.914   3.465   3.072 -0.7206 -0.1451 -0.1762
 9265SOL    HW229237   1.826   3.572   3.133 -0.9795 -0.2360 -0.3878
 9266SOL     OW29238   1.613   2.398   3.287 -0.2565 -0.1227 -0.3315
 9266SOL    HW129239   1.619   2.458   3.213 -0.2660  0.8425  0.4289
 9266SOL    HW229240   1.700   2.359   3.293 -0.2994 -0.3301 -0.9329
 9267SOL     OW29241   3.437   4.478   4.335  0.3753 -0.1562 -0.9774
 9267SOL    HW129242   3.366   4.542   4.329  1.5503  1.1888 -0.9541
 9267SOL    HW229243   3.392   4.394   4.345 -1.2128  0.6942 -0.5488
 9268SOL     OW29244   2.243   3.207   2.484 -0.1961 -0.0894  0.6212
 9268SOL    HW129245   2.304   3.280   2.490  1.3445 -1.1487 -1.2769
 9268SOL    HW229246   2.176   3.237   2.423  0.7550 -0.4233 -0.6283
 9269SOL     OW29247   2.360   2.369   1.785 -0.1612 -1.0984 -0.3412
 9269SOL    HW129248   2.313   2.421   1.720 -2.0196 -0.7579  1.1998
 9269SOL    HW229249   2.412   2.308   1.733 -0.5043  0.0707 -2.1517
 9270SOL     OW29250   2.884   4.101   2.747 -0.6130 -0.7617  0.9833
 9270SOL    HW129251   2.889   4.030   2.684 -1.6189  0.2178 -0.2440
 9270SOL    HW229252   2.807   4.081   2.800 -0.2926 -1.1119  1.3244
 9271SOL     OW29253   3.338   4.338   4.053  0.4710 -0.2930  0.1390
 9271SOL    HW129254   3.291   4.277   3.997  0.3674 -0.7384  0.6976
 9271SOL    HW229255   3.336   4.297   4.140  1.2074  0.0619  0.3308
 9272SOL     OW29256   2.990   4.967   4.112 -0.0989 -0.4698 -0.0458
 9272SOL    HW129257   2.937   4.887   4.115  1.1588 -1.3230  0.4585
 9272SOL    HW229258   3.075   4.941   4.148  0.1029  1.2975  0.8993
 9273SOL     OW29259   3.529   5.391   3.560  0.2101  0.2615 -0.1311
 9273SOL    HW129260   3.520   5.313   3.615 -0.4009  1.7460  1.9798
 9273SOL    HW229261   3.460   5.382   3.495  2.0197 -2.3952 -1.9281
 9274SOL     OW29262   1.199   1.691   2.140  0.4198 -0.0076  0.1655
 9274SOL    HW129263   1.291   1.679   2.116  0.2256 -0.0463 -0.5621
 9274SOL    HW229264   1.183   1.785   2.128 -0.1857 -0.3148 -1.7239
 9275SOL     OW29265   2.974   4.408   1.385  0.3625  0.5852  0.6290
 9275SOL    HW129266   2.971   4.458   1.467  1.9293  0.5207  0.7503
 9275SOL    HW229267   2.977   4.316   1.413 -0.9648  0.4622  0.4369
 9276SOL     OW29268   3.536   4.573   3.955 -0.0737 -0.0428 -0.0992
 9276SOL    HW129269   3.513   4.659   3.990  1.8142  0.3444  0.2968
 9276SOL    HW229270   3.598   4.538   4.019  0.4941 -0.9706 -1.1394
 9277SOL     OW29271   1.969   4.022   1.855  0.5928 -0.4743  0.2991
 9277SOL    HW129272   1.935   4.062   1.935 -2.3720  1.3273 -1.6661
 9277SOL    HW229273   2.031   4.086   1.821 -1.0342  0.6167 -0.7247
 9278SOL     OW29274   1.428   2.619   4.270  0.6146  0.2148  0.1610
 9278SOL    HW129275   1.514   2.621   4.230 -0.0989  1.0072 -1.4056
 9278SOL    HW229276   1.375   2.681   4.219 -0.5085  0.8553  1.9828
 9279SOL     OW29277   0.736   3.636   0.437  0.4387 -0.3144 -0.7618
 9279SOL    HW129278   0.711   3.560   0.489 -0.3238 -0.3865 -1.2265
 9279SOL    HW229279   0.702   3.618   0.349  0.0272  0.6650 -0.8188
 9280SOL     OW29280   2.458   5.627   2.249 -0.2474 -0.0359  0.7017
 9280SOL    HW129281   2.501   5.617   2.164 -1.2689  1.7573 -0.0929
 9280SOL    HW229282   2.529   5.614   2.313  0.6091 -1.0675 -0.4081
 9281SOL     OW29283   3.368   5.332   2.388  0.1677 -0.7444  0.4347
 9281SOL    HW129284   3.439   5.392   2.411  0.7337 -1.7191  1.3412
 9281SOL    HW229285   3.405   5.245   2.400 -0.0812 -1.3721 -2.5340
 9282SOL     OW29286   3.956   5.155   2.667 -0.3224 -0.1177  0.0752
 9282SOL    HW129287   3.937   5.072   2.712  0.3923  0.6668  1.9624
 9282SOL    HW229288   3.916   5.146   2.581  0.3070 -2.6835 -0.0374
 9283SOL     OW29289   2.073   3.189   4.579  0.2560  0.1456 -0.4422
 9283SOL    HW129290   2.075   3.094   4.566  1.5999  0.4207 -2.8666
 9283SOL    HW229291   2.157   3.219   4.545 -0.6753  2.3287 -0.9726
 9284SOL     OW29292   0.786   4.781   3.281 -0.1572  0.0683 -0.5113
 9284SOL    HW129293   0.746   4.741   3.204 -2.8541  0.1655  0.7266
 9284SOL    HW229294   0.755   4.872   3.279  0.1978  0.2130  0.3902
 9285SOL     OW29295   1.845   4.861   4.461  0.0090 -0.0786  0.1738
 9285SOL    HW129296   1.810   4.871   4.549 -2.0906  0.0717 -0.6329
 9285SOL    HW229297   1.907   4.933   4.452 -0.1359  0.2113  1.3391
 9286SOL     OW29298   1.986   5.358   2.541  0.1095 -0.1571  0.1177
 9286SOL    HW129299   2.024   5.274   2.515  0.5678  0.4180 -1.1309
 9286SOL    HW229300   2.048   5.392   2.606 -0.4136 -1.0512  1.1241
 9287SOL     OW29301   1.381   6.042   3.022 -0.0695 -0.5520  0.0482
 9287SOL    HW129302   1.419   6.130   3.020 -1.0824 -0.1098 -0.6323
 9287SOL    HW229303   1.414   6.003   3.102  1.6626 -0.1293 -0.4183
 9288SOL     OW29304   2.746   3.491   3.763 -0.8374 -0.0742 -0.6598
 9288SOL    HW129305   2.772   3.576   3.797 -0.6431 -0.7684  1.0011
 9288SOL    HW229306   2.784   3.428   3.824 -3.2361 -1.2455 -0.2563
 9289SOL     OW29307   2.592   3.694   2.575 -0.3297 -0.4977 -0.0593
 9289SOL    HW129308   2.621   3.783   2.597 -1.7741  0.3065 -1.2049
 9289SOL    HW229309   2.642   3.671   2.497 -0.1926 -0.5516  0.0451
 9290SOL     OW29310   3.127   5.406   2.090 -0.2383  0.3206  0.4909
 9290SOL    HW129311   3.057   5.424   2.153 -0.7435 -0.0765  0.0569
 9290SOL    HW229312   3.196   5.469   2.111 -0.6179  0.5350  1.1023
 9291SOL     OW29313   1.835   3.342   5.834 -0.0592  0.1551  0.4837
 9291SOL    HW129314   1.859   3.311   5.922  0.9233 -1.3461 -0.2874
 9291SOL    HW229315   1.919   3.350   5.788 -0.5280  1.3146 -0.2310
 9292SOL     OW29316   3.515   5.499   4.286 -0.0513  0.2503  0.3142
 9292SOL    HW129317   3.499   5.428   4.223  0.2688  0.8566 -0.4758
 9292SOL    HW229318   3.601   5.533   4.261  0.1597  0.3787  1.2116
 9293SOL     OW29319   3.241   4.251   0.706 -0.0373 -0.0610  0.0773
 9293SOL    HW129320   3.146   4.266   0.699 -0.3133 -1.7396 -0.2990
 9293SOL    HW229321   3.265   4.288   0.791 -0.8296  1.2403 -0.2261
 9294SOL     OW29322   4.041   7.207   1.913 -0.0932 -0.6998 -0.3326
 9294SOL    HW129323   4.046   7.300   1.888 -0.6883 -0.7820 -0.7861
 9294SOL    HW229324   4.115   7.166   1.868 -0.5046 -0.6455 -1.0786
 9295SOL     OW29325   3.149   5.348   3.667 -0.5561 -0.0090 -0.0628
 9295SOL    HW129326   3.190   5.420   3.619 -0.1849  0.0322  0.3059
 9295SOL    HW229327   3.180   5.269   3.623  0.0984  0.0146  0.3385
 9296SOL     OW29328   2.211   5.727   0.995 -0.4380  0.5777 -0.1756
 9296SOL    HW129329   2.271   5.771   0.935 -0.4671 -0.4616 -0.9970
 9296SOL    HW229330   2.137   5.700   0.941 -0.7487  0.1532  0.4465
 9297SOL     OW29331   2.042   7.052   3.311  0.2800 -0.4804  0.3883
 9297SOL    HW129332   1.976   7.050   3.242  1.8528 -1.0520 -1.1915
 9297SOL    HW229333   2.002   7.101   3.382 -1.1422  0.8032 -1.2257
 9298SOL     OW29334   2.921   3.432   2.982  0.5977 -0.7863 -0.0980
 9298SOL    HW129335   2.925   3.483   3.063 -0.8127 -2.1401  0.8708
 9298SOL    HW229336   2.843   3.465   2.937  0.6192 -0.9685 -0.2706
 9299SOL     OW29337   3.668   4.739   2.621  0.0598 -0.0140  0.6725
 9299SOL    HW129338   3.625   4.656   2.641 -0.4643 -0.2709 -1.3166
 9299SOL    HW229339   3.663   4.789   2.703  1.2608 -2.2701  2.2443
 9300SOL     OW29340   1.279   6.941   3.997 -0.5514  0.0325  0.1713
 9300SOL    HW129341   1.191   6.966   3.966 -0.1836  0.1813 -0.7993
 9300SOL    HW229342   1.329   6.929   3.916  0.1585 -0.6577  0.7047
 9301SOL     OW29343   3.047   4.424   2.454  0.0458 -0.0169  0.2909
 9301SOL    HW129344   3.139   4.401   2.437 -0.0029  0.0991 -0.1636
 9301SOL    HW229345   2.997   4.354   2.412 -0.0875  0.4743 -0.3849
 9302SOL     OW29346   3.029   6.010   2.552  0.2395  0.4196  0.2546
 9302SOL    HW129347   2.934   6.000   2.547  0.3423 -0.4713 -0.2093
 9302SOL    HW229348   3.047   6.035   2.642 -0.3979  0.1014  0.4692
 9303SOL     OW29349   0.371   5.828  11.912 -0.3591  0.2067  0.2952
 9303SOL    HW129350   0.444   5.884  11.938  2.2397 -2.2359 -1.1296
 9303SOL    HW229351   0.342   5.863  11.828  0.1624  0.3306  0.1675
 9304SOL     OW29352   1.996   5.654   2.503 -0.2211 -0.1601 -0.2162
 9304SOL    HW129353   1.959   5.726   2.452 -0.2662 -1.0963 -1.5596
 9304SOL    HW229354   2.080   5.636   2.461 -0.4998 -1.3063 -0.3085
 9305SOL     OW29355   1.967   4.245   3.188 -0.0146  0.2496  0.0608
 9305SOL    HW129356   2.005   4.157   3.186  0.7019  0.5502 -0.0196
 9305SOL    HW229357   2.043   4.303   3.195 -0.2951  0.9829 -2.1341
 9306SOL     OW29358   2.376   5.692   1.648  0.5345  0.2254  0.2725
 9306SOL    HW129359   2.316   5.643   1.592  0.8484  3.3306 -3.1379
 9306SOL    HW229360   2.459   5.645   1.642  0.2069 -0.2394 -0.7798
 9307SOL     OW29361   2.578   4.041   2.581 -0.1469 -0.2773 -0.4165
 9307SOL    HW129362   2.623   4.015   2.661 -0.4291  1.4974  0.3804
 9307SOL    HW229363   2.640   4.099   2.537 -0.9296  0.7882 -0.1783
 9308SOL     OW29364   1.941   5.063   3.412  0.3007  0.5074  0.2223
 9308SOL    HW129365   1.919   5.042   3.322 -1.8983  0.5736  0.6761
 9308SOL    HW229366   1.883   5.007   3.465  0.3934  1.6080  1.5577
 9309SOL     OW29367   2.576   5.187   3.022 -0.2181 -0.3039 -0.2222
 9309SOL    HW129368   2.593   5.170   2.929  1.0785  0.2646 -0.1052
 9309SOL    HW229369   2.569   5.282   3.028  2.1140 -0.1242  0.6065
 9310SOL     OW29370   1.712   5.248   3.178 -0.3400  0.6576  0.2206
 9310SOL    HW129371   1.742   5.296   3.101  1.1076  1.1646  1.0533
 9310SOL    HW229372   1.778   5.180   3.192 -1.2898 -0.2796  0.2533
 9311SOL     OW29373   3.821   4.318   4.258 -0.0217  0.4226 -0.3167
 9311SOL    HW129374   3.898   4.368   4.284  1.6746 -2.7780  1.4313
 9311SOL    HW229375   3.834   4.232   4.298 -4.0084 -0.6329 -0.8778
 9312SOL     OW29376   2.902   5.188   3.633  0.2243 -0.0551 -0.3502
 9312SOL    HW129377   2.965   5.260   3.631 -0.7199  0.9312  2.0538
 9312SOL    HW229378   2.928   5.136   3.709 -0.8735 -0.5842 -0.3247
 9313SOL     OW29379   2.668   5.002   3.230 -0.4702 -0.3758  0.0017
 9313SOL    HW129380   2.636   5.084   3.193 -0.5418 -0.6819 -0.6179
 9313SOL    HW229381   2.605   4.980   3.299 -0.6801 -0.1277 -0.1093
 9314SOL     OW29382   0.770   5.410   1.811 -0.0548  0.3798  0.1837
 9314SOL    HW129383   0.812   5.346   1.754 -0.8946 -0.1823  0.1816
 9314SOL    HW229384   0.840   5.441   1.868  0.4253 -0.3274 -0.0098
 9315SOL     OW29385   2.816   4.840   1.451  0.0229  0.5555  0.2796
 9315SOL    HW129386   2.731   4.819   1.490  0.2795 -0.7361  0.1667
 9315SOL    HW229387   2.798   4.849   1.357  0.3442 -1.8268 -0.0565
 9316SOL     OW29388   1.302   4.739   5.085  0.1729 -0.3782 -0.2746
 9316SOL    HW129389   1.228   4.690   5.050 -1.7967  1.7822  0.5559
 9316SOL    HW229390   1.353   4.765   5.008  0.5616 -2.5399 -0.8006
 9317SOL     OW29391   2.149   5.576   3.775  0.1329 -0.4296 -0.0898
 9317SOL    HW129392   2.165   5.607   3.864  1.8556  0.9330 -0.8246
 9317SOL    HW229393   2.231   5.533   3.750 -0.3255 -0.7742 -1.0350
 9318SOL     OW29394   2.197   3.665   2.824 -0.0199  0.0867 -0.3658
 9318SOL    HW129395   2.234   3.668   2.736  0.2863  2.2066 -0.2227
 9318SOL    HW229396   2.107   3.695   2.812  0.1801  0.8904  0.1019
 9319SOL     OW29397   2.199   4.936   3.444 -0.1287  0.2951 -0.1317
 9319SOL    HW129398   2.117   4.980   3.467  0.3741  0.1780  2.1322
 9319SOL    HW229399   2.171   4.858   3.395 -1.1629  1.7009 -1.9227
 9320SOL     OW29400   2.862   5.966   1.796  0.3623  0.3329  0.2450
 9320SOL    HW129401   2.931   6.026   1.826  0.6482 -0.1534  0.5739
 9320SOL    HW229402   2.795   5.970   1.864  0.0417  0.8389 -0.0961
 9321SOL     OW29403   3.120   4.544   3.124  0.3255 -0.0325 -0.1270
 9321SOL    HW129404   3.206   4.580   3.144  0.3064  0.0939 -0.2723
 9321SOL    HW229405   3.102   4.483   3.196 -0.4466  1.6151  1.1407
 9322SOL     OW29406   1.860   4.611   2.700 -0.0722 -0.1625  0.1084
 9322SOL    HW129407   1.825   4.664   2.771 -0.4749  0.3485 -0.4566
 9322SOL    HW229408   1.954   4.628   2.701  0.0739 -0.9540  1.1528
 9323SOL     OW29409   3.624   4.376   3.168  0.7157 -0.5891  0.1253
 9323SOL    HW129410   3.654   4.324   3.093  1.7566  0.9784 -0.6210
 9323SOL    HW229411   3.695   4.369   3.232  0.3108 -1.0603  0.5273
 9324SOL     OW29412   1.747   5.503   3.446  0.2378 -0.4864  0.3263
 9324SOL    HW129413   1.820   5.454   3.407  0.4360 -0.4006  0.5902
 9324SOL    HW229414   1.775   5.594   3.441 -0.3204 -0.3498 -0.5748
 9325SOL     OW29415   2.568   4.186   4.093 -0.0031 -0.3443  0.2770
 9325SOL    HW129416   2.643   4.235   4.128 -0.7047  1.0879 -0.1442
 9325SOL    HW229417   2.603   4.139   4.017  0.9134 -1.3494  1.2845
 9326SOL     OW29418   0.500   5.715   3.918  0.7047 -0.3185 -0.3615
 9326SOL    HW129419   0.560   5.735   3.990  0.1034 -0.7029  0.2491
 9326SOL    HW229420   0.555   5.669   3.854  1.5592  1.1979 -0.7734
 9327SOL     OW29421   3.983   4.847   2.270  0.0432  0.3558 -0.5785
 9327SOL    HW129422   4.014   4.809   2.352 -2.1476  0.1387  0.2362
 9327SOL    HW229423   4.052   4.907   2.243  1.9873 -1.4902  0.0144
 9328SOL     OW29424   2.702   3.506   2.776 -0.0624 -0.8965  0.0120
 9328SOL    HW129425   2.785   3.511   2.730  0.3507  1.1435  0.8765
 9328SOL    HW229426   2.645   3.567   2.729 -0.2280 -0.2685  0.9967
 9329SOL     OW29427   1.655   5.588   1.084 -0.3614 -0.0625  0.2505
 9329SOL    HW129428   1.671   5.560   1.174  0.9919 -0.2681 -0.0310
 9329SOL    HW229429   1.621   5.510   1.040 -1.5086  0.1743  0.6844
 9330SOL     OW29430   3.401   4.004   4.094 -0.6392  0.1199  0.4653
 9330SOL    HW129431   3.344   3.945   4.142  0.5169 -0.0279  1.7182
 9330SOL    HW229432   3.474   4.022   4.154  1.1748 -0.5297 -1.4001
 9331SOL     OW29433   2.591   5.096   3.874 -0.3751  0.5046 -0.5776
 9331SOL    HW129434   2.603   5.085   3.780  0.0714  1.7443 -0.6805
 9331SOL    HW229435   2.536   5.022   3.900 -0.9888  0.4739 -1.9058
 9332SOL     OW29436   2.196   4.860   3.751  0.2090 -0.3827 -0.3272
 9332SOL    HW129437   2.199   4.892   3.842  0.0107  1.3954 -0.9088
 9332SOL    HW229438   2.103   4.848   3.733  0.2851 -1.3373 -0.1078
 9333SOL     OW29439   3.620   4.156   3.381 -0.2516  0.8464  0.3165
 9333SOL    HW129440   3.574   4.162   3.465 -0.3320  0.4488  0.3051
 9333SOL    HW229441   3.566   4.096   3.329  0.5201  0.0071  0.4631
 9334SOL     OW29442   1.913   6.246   3.309  0.1210  0.5698 -0.3160
 9334SOL    HW129443   1.952   6.256   3.222 -0.5218 -0.8297 -0.8030
 9334SOL    HW229444   1.856   6.170   3.300 -0.4334  0.7854  1.1780
 9335SOL     OW29445   2.650   5.002   1.812 -0.0319  0.8821 -0.2307
 9335SOL    HW129446   2.615   4.923   1.854  0.6257  0.1474 -1.0177
 9335SOL    HW229447   2.594   5.073   1.844 -1.7132 -0.1201 -0.8082
 9336SOL     OW29448   4.017   4.780   1.760 -0.4105  0.3710 -0.2449
 9336SOL    HW129449   4.099   4.827   1.749 -0.1130 -0.0707  0.0885
 9336SOL    HW229450   4.042   4.691   1.786 -0.9652  0.0273 -0.8399
 9337SOL     OW29451   1.695   5.826   3.999 -0.3576  0.3137 -0.0877
 9337SOL    HW129452   1.683   5.756   3.934 -0.5351  0.2866 -0.0278
 9337SOL    HW229453   1.713   5.779   4.080 -1.8709  0.2700  0.2633
 9338SOL     OW29454   2.025   4.787   2.991 -0.2040 -0.3937  0.0223
 9338SOL    HW129455   1.965   4.712   2.994 -1.4574  0.6137  1.4007
 9338SOL    HW229456   2.111   4.750   3.010 -0.9382 -1.3911  1.5939
 9339SOL     OW29457   2.530   5.339   3.947  0.3066 -0.0545 -0.3795
 9339SOL    HW129458   2.540   5.244   3.934  0.2147 -0.3789  1.6351
 9339SOL    HW229459   2.609   5.366   3.993  0.1772  0.8015 -0.6449
 9340SOL     OW29460   2.722   4.513   0.924 -0.2289 -0.2608 -0.7123
 9340SOL    HW129461   2.813   4.536   0.946  0.1136 -3.4307  2.1463
 9340SOL    HW229462   2.727   4.483   0.833  0.7088  3.0685 -1.9055
 9341SOL     OW29463   2.421   4.343   2.644  0.5968  0.1837  0.1591
 9341SOL    HW129464   2.451   4.433   2.629  1.2767  0.0317  0.5809
 9341SOL    HW229465   2.500   4.290   2.637  0.3024 -0.3125  0.5319
 9342SOL     OW29466   2.462   4.836   3.681  0.0807 -0.0102 -0.2698
 9342SOL    HW129467   2.367   4.850   3.690 -0.2278 -2.4257  1.1899
 9342SOL    HW229468   2.478   4.842   3.587 -1.7355 -0.5202 -0.6593
 9343SOL     OW29469   3.700   5.088   2.193 -0.7143  0.1323 -0.0842
 9343SOL    HW129470   3.716   5.009   2.245  1.4090  1.7311  1.9262
 9343SOL    HW229471   3.712   5.060   2.102  0.3224 -1.7963  0.5939
 9344SOL     OW29472   3.027   2.818   2.577 -0.1954 -0.1396 -0.0516
 9344SOL    HW129473   3.087   2.844   2.647 -0.8801  2.6624 -0.3704
 9344SOL    HW229474   2.967   2.757   2.619  0.3656  0.2359  1.3782
 9345SOL     OW29475   1.461   3.652   1.683 -0.5478 -0.1987  0.3104
 9345SOL    HW129476   1.406   3.690   1.615  0.2321  0.9835  0.3133
 9345SOL    HW229477   1.457   3.558   1.667 -0.3355  0.0548 -1.4088
 9346SOL     OW29478   2.160   5.650   1.478 -0.5055  0.2147 -0.2514
 9346SOL    HW129479   2.204   5.718   1.427  3.4898 -1.0649  1.0691
 9346SOL    HW229480   2.103   5.606   1.416  1.8488  0.6137 -2.8984
 9347SOL     OW29481   4.578   3.210   0.597 -0.0409 -0.1113 -0.1585
 9347SOL    HW129482   4.667   3.175   0.592 -0.2748 -0.6329 -0.9457
 9347SOL    HW229483   4.580   3.290   0.545 -0.0390 -0.1386 -0.2002
 9348SOL     OW29484   1.811   3.916   2.148  0.4549 -0.8241  0.4404
 9348SOL    HW129485   1.840   3.828   2.124 -0.0206 -1.2588  1.4025
 9348SOL    HW229486   1.872   3.943   2.216 -0.5572 -1.2000  1.5170
 9349SOL     OW29487   1.968   3.909   1.062  0.0617  0.3833  0.3370
 9349SOL    HW129488   1.914   3.870   1.131 -0.5982 -2.5803 -1.6352
 9349SOL    HW229489   2.053   3.867   1.072  0.0021  0.0372 -0.5157
 9350SOL     OW29490   0.399   5.021   1.600 -0.4990  0.2646  0.1977
 9350SOL    HW129491   0.359   5.028   1.687 -0.8202 -0.5703  0.1204
 9350SOL    HW229492   0.382   4.931   1.573 -0.6315  0.5983 -0.8513
 9351SOL     OW29493   0.598   5.549   0.090  0.2236  0.7650  0.1710
 9351SOL    HW129494   0.548   5.562   0.009 -0.2198 -0.2203  0.2715
 9351SOL    HW229495   0.674   5.498   0.062  0.2536  0.7319  0.3160
 9352SOL     OW29496   1.143   1.952   5.586 -0.7814  0.8716 -0.0241
 9352SOL    HW129497   1.093   1.889   5.534  1.9036  0.2629 -2.0802
 9352SOL    HW229498   1.139   2.034   5.537 -2.3569  1.7531  1.4732
 9353SOL     OW29499   2.667   4.283   4.798  0.0090 -0.1338 -0.0477
 9353SOL    HW129500   2.685   4.203   4.749  0.3369 -0.2925  0.3312
 9353SOL    HW229501   2.750   4.330   4.799 -0.0586 -0.0188  0.1600
 9354SOL     OW29502   2.518   4.130   3.384  0.6418  0.2247  0.1160
 9354SOL    HW129503   2.561   4.203   3.428 -1.3490  0.0848  2.4698
 9354SOL    HW229504   2.548   4.053   3.432  0.8212 -0.2858 -0.7910
 9355SOL     OW29505   4.957   7.088   6.029 -0.1902  0.0349  0.4023
 9355SOL    HW129506   4.953   7.124   6.118  1.0636  0.7161  0.2008
 9355SOL    HW229507   4.904   7.008   6.033 -2.9388  1.7160  0.9352
 9356SOL     OW29508   3.111   4.334   3.582 -0.9329  0.1055 -0.3551
 9356SOL    HW129509   3.065   4.252   3.601  0.7783 -0.5144  1.5282
 9356SOL    HW229510   3.203   4.310   3.582 -0.3200  2.1181  1.0469
 9357SOL     OW29511   1.221   5.703   4.395 -0.7099  0.8911  0.8884
 9357SOL    HW129512   1.148   5.646   4.373 -0.3399  0.7931 -0.1452
 9357SOL    HW229513   1.197   5.788   4.358  0.7828  0.2588 -1.7764
 9358SOL     OW29514   1.551   3.719   5.985  0.4647 -0.5986 -0.0363
 9358SOL    HW129515   1.632   3.746   6.030  0.5914 -0.9763 -0.0284
 9358SOL    HW229516   1.582   3.661   5.915  0.1844 -0.9684  0.1406
 9359SOL     OW29517   2.892   4.702   4.058  0.2522  0.0437  0.4769
 9359SOL    HW129518   2.974   4.709   4.009 -0.1779 -1.2846 -0.4917
 9359SOL    HW229519   2.916   4.654   4.138  0.5075  0.0714  0.4194
 9360SOL     OW29520   2.091   4.738   5.327  0.2869  0.1716  1.0633
 9360SOL    HW129521   2.184   4.719   5.315  0.3203  0.6125  0.5713
 9360SOL    HW229522   2.086   4.834   5.324 -0.4214  0.1284 -1.0226
 9361SOL     OW29523   2.611   4.517   2.836  0.2755  0.1107  0.6529
 9361SOL    HW129524   2.659   4.485   2.913  1.2294  0.1580  0.0940
 9361SOL    HW229525   2.676   4.518   2.766 -0.5043  0.3681 -0.0865
 9362SOL     OW29526   3.235   5.074   5.503 -0.3912 -0.5162  0.2581
 9362SOL    HW129527   3.147   5.040   5.519 -1.2667  1.2851 -0.4917
 9362SOL    HW229528   3.263   5.110   5.587 -1.6839  1.6511 -0.1523
 9363SOL     OW29529   1.589   4.002   4.972  0.2603 -0.4671  0.2539
 9363SOL    HW129530   1.646   3.983   4.897 -0.2423 -3.5503  0.5378
 9363SOL    HW229531   1.506   4.027   4.932  1.0991  1.9870 -0.1422
 9364SOL     OW29532   4.110   3.531   5.017 -0.0787 -0.0651 -0.4651
 9364SOL    HW129533   4.028   3.493   5.048 -0.3490  1.9715  1.5337
 9364SOL    HW229534   4.085   3.617   4.982  1.1612  0.4702 -0.0862
 9365SOL     OW29535   1.692   5.452   4.201 -0.7435 -0.1496  0.2907
 9365SOL    HW129536   1.677   5.441   4.107 -0.1922  1.6444 -0.0419
 9365SOL    HW229537   1.787   5.446   4.211 -0.5594  2.1641  0.3267
 9366SOL     OW29538   2.011   5.087   5.174 -0.0279  0.1702 -0.4496
 9366SOL    HW129539   2.059   5.141   5.112  2.1927  1.8846  2.4825
 9366SOL    HW229540   2.030   5.126   5.260 -2.5522 -2.2425  1.4023
 9367SOL     OW29541   1.403   5.476   4.611 -0.5014  0.0702  0.3245
 9367SOL    HW129542   1.355   5.409   4.563 -0.0555  0.1629 -0.2762
 9367SOL    HW229543   1.468   5.428   4.662  1.2292  0.0850 -1.6940
 9368SOL     OW29544   1.089   2.313   6.814  0.4013 -0.0571 -0.4417
 9368SOL    HW129545   1.135   2.298   6.731  0.5578  0.2066 -0.4024
 9368SOL    HW229546   1.002   2.342   6.787 -0.1816 -1.7531 -0.5315
 9369SOL     OW29547   1.374   6.356   4.925 -0.7362 -0.3903 -0.1597
 9369SOL    HW129548   1.295   6.303   4.914 -0.4919 -0.6665 -0.6362
 9369SOL    HW229549   1.445   6.300   4.892 -0.3524 -0.1175  0.1906
 9370SOL     OW29550   1.330   5.792   5.116 -0.1006  0.9103 -0.0021
 9370SOL    HW129551   1.336   5.883   5.145  0.5389  1.0191 -0.4583
 9370SOL    HW229552   1.242   5.785   5.079 -0.6047  1.0061  1.1289
 9371SOL     OW29553   0.638   4.417   5.279 -0.3258  0.0852 -0.1265
 9371SOL    HW129554   0.621   4.441   5.188 -2.0274  1.2418  0.4624
 9371SOL    HW229555   0.730   4.390   5.280  0.7253  3.1324 -1.5948
 9372SOL     OW29556   4.286   6.097   4.037 -0.4216  0.0989 -0.2081
 9372SOL    HW129557   4.235   6.017   4.046 -0.8032  0.3147 -0.4532
 9372SOL    HW229558   4.253   6.139   3.958 -0.7998  0.9115  0.3694
 9373SOL     OW29559   0.765   3.551   1.322  0.0067 -0.2379  0.4912
 9373SOL    HW129560   0.688   3.607   1.310 -1.4534 -2.2158  0.1027
 9373SOL    HW229561   0.749   3.505   1.404  1.8773  0.9015  1.5591
 9374SOL     OW29562   3.850   4.714   3.953  0.4154  0.0931 -0.1348
 9374SOL    HW129563   3.837   4.646   4.018 -0.3911 -0.1195 -0.5005
 9374SOL    HW229564   3.797   4.787   3.984  0.9838  0.4250  0.0642
 9375SOL     OW29565   0.097   5.737   5.617 -0.2082  0.3083  0.1553
 9375SOL    HW129566   0.005   5.739   5.646  0.3005  1.1404  1.8954
 9375SOL    HW229567   0.092   5.723   5.523 -2.1219  0.1618  0.2242
 9376SOL     OW29568   0.710   5.534   3.456 -0.4525  0.7847  0.3393
 9376SOL    HW129569   0.732   5.622   3.488 -1.2357  1.1344 -0.0541
 9376SOL    HW229570   0.786   5.481   3.477  0.6851  1.9011 -0.7955
 9377SOL     OW29571   3.074   2.702   3.799 -0.0864 -0.0372 -0.2732
 9377SOL    HW129572   3.052   2.640   3.869 -0.9414  0.9313  0.3448
 9377SOL    HW229573   3.169   2.711   3.806 -0.0730 -0.4920  0.3008
 9378SOL     OW29574   1.328   5.533   5.440 -0.0793 -0.2978 -0.2648
 9378SOL    HW129575   1.255   5.471   5.446  0.6684 -1.3262 -1.3988
 9378SOL    HW229576   1.311   5.596   5.510 -1.5117 -1.0894  0.1457
 9379SOL     OW29577   2.610   4.378   3.539 -0.7978  0.1468 -0.8530
 9379SOL    HW129578   2.660   4.348   3.615 -0.3416  1.1091 -0.7673
 9379SOL    HW229579   2.569   4.460   3.568 -1.4855 -0.0291 -1.3019
 9380SOL     OW29580   3.437   4.814   4.064  0.7227 -0.0560  0.5764
 9380SOL    HW129581   3.525   4.852   4.065  1.4227 -1.5099  2.6428
 9380SOL    HW229582   3.413   4.807   4.157 -1.8512  0.8186  0.0685
 9381SOL     OW29583   0.722   5.193   6.874 -0.3369 -0.5213 -0.0894
 9381SOL    HW129584   0.671   5.222   6.949 -0.1127 -0.8326  0.1890
 9381SOL    HW229585   0.812   5.188   6.906 -0.3134 -1.1607 -0.2214
 9382SOL     OW29586   7.289   4.628   4.838 -0.1378  0.1161 -0.0369
 9382SOL    HW129587   7.279   4.689   4.911 -0.4876 -0.0220  0.0297
 9382SOL    HW229588   7.277   4.541   4.877 -0.1421  0.0310 -0.2270
 9383SOL     OW29589   5.628   5.678   4.991  0.1211  0.5821 -0.2319
 9383SOL    HW129590   5.714   5.706   4.958 -0.4302 -0.2194 -2.5417
 9383SOL    HW229591   5.569   5.750   4.969 -0.1378  0.3462 -0.3091
 9384SOL     OW29592   3.192   5.200   1.407 -1.0921 -0.0474  0.4879
 9384SOL    HW129593   3.112   5.152   1.426 -1.4965  0.2794 -0.3676
 9384SOL    HW229594   3.184   5.281   1.457 -0.8489 -0.4366  1.1660
 9385SOL     OW29595   4.528   6.020   3.923  0.6289 -0.1958 -0.3608
 9385SOL    HW129596   4.512   5.942   3.870 -1.5360 -0.5558  0.6973
 9385SOL    HW229597   4.449   6.029   3.978  1.3084  2.0690  0.3883
 9386SOL     OW29598   2.262   3.730   5.602  0.2437 -0.2639 -0.5157
 9386SOL    HW129599   2.232   3.815   5.571 -2.8528 -0.3117  1.8360
 9386SOL    HW229600   2.288   3.745   5.693  0.0520 -1.7427 -0.1861
 9387SOL     OW29601   2.367   4.355   6.031 -0.0810 -0.1008  0.1729
 9387SOL    HW129602   2.461   4.339   6.023 -0.5888 -4.4788  0.0820
 9387SOL    HW229603   2.334   4.350   5.941 -0.5675 -0.4536  0.3627
 9388SOL     OW29604   1.948   4.927   5.692 -0.3140  0.4853  0.2131
 9388SOL    HW129605   1.955   4.894   5.781 -0.5600 -0.5421 -0.1281
 9388SOL    HW229606   2.027   4.894   5.648  0.2539  1.7315  0.2718
 9389SOL     OW29607   3.032   4.230   5.700 -0.3516  0.2472 -0.1131
 9389SOL    HW129608   3.117   4.190   5.718  0.0519  0.4925 -1.3373
 9389SOL    HW229609   3.009   4.197   5.613 -0.5293  1.7917 -0.6795
 9390SOL     OW29610   2.505   5.278   5.420  0.0365  0.2109  0.1248
 9390SOL    HW129611   2.453   5.347   5.461 -0.3997 -0.5563  0.9055
 9390SOL    HW229612   2.567   5.252   5.487 -1.1238 -1.5275  0.6109
 9391SOL     OW29613   2.329   4.589   5.298  0.4415  0.0349  0.3981
 9391SOL    HW129614   2.419   4.601   5.268 -0.0544 -0.6291 -1.4589
 9391SOL    HW229615   2.336   4.581   5.393  2.0484  2.6816  0.5863
 9392SOL     OW29616   2.831   1.596   4.467 -0.1395 -0.1785  0.2652
 9392SOL    HW129617   2.894   1.612   4.397 -1.2821  0.5775 -0.6386
 9392SOL    HW229618   2.879   1.545   4.532  2.1584  2.4273  0.7921
 9393SOL     OW29619   2.478   5.177   4.836  0.1434  0.5283  0.2468
 9393SOL    HW129620   2.443   5.205   4.920  0.6755 -0.8890  0.9800
 9393SOL    HW229621   2.572   5.167   4.851  0.1065 -0.7362 -0.2019
 9394SOL     OW29622   7.942   6.477   5.262  0.3768  0.0554  0.2848
 9394SOL    HW129623   7.930   6.432   5.345 -2.8814 -1.8822 -1.0340
 9394SOL    HW229624   7.993   6.416   5.208 -1.4466 -0.8871 -0.5037
 9395SOL     OW29625   2.391   5.465   6.120 -0.6947 -0.0390  0.2781
 9395SOL    HW129626   2.346   5.483   6.037 -0.1641  1.5144  0.3033
 9395SOL    HW229627   2.434   5.380   6.106 -0.3979  0.3243 -1.1326
 9396SOL     OW29628   2.405   4.679   5.014 -0.2471  0.1810 -0.2130
 9396SOL    HW129629   2.421   4.758   5.064 -0.2173 -0.5269  0.9440
 9396SOL    HW229630   2.437   4.608   5.070  3.9392 -0.4587 -2.9740
 9397SOL     OW29631   3.552   3.874   4.480 -0.2969 -0.0196  0.3052
 9397SOL    HW129632   3.580   3.795   4.434 -0.6381 -0.2486  0.4799
 9397SOL    HW229633   3.613   3.942   4.451  0.2008 -0.4185  0.4027
 9398SOL     OW29634   0.654   5.288   4.959 -0.1444  0.4391  0.3010
 9398SOL    HW129635   0.610   5.373   4.951 -2.4847 -0.7676 -0.5197
 9398SOL    HW229636   0.636   5.245   4.875  2.2674 -0.3389  0.1235
 9399SOL     OW29637   3.148   5.947   4.426 -0.1619  0.1210 -0.0783
 9399SOL    HW129638   3.187   5.989   4.349  2.2912  0.2115  1.1361
 9399SOL    HW229639   3.103   6.018   4.472  1.9838  1.0419  0.7357
 9400SOL     OW29640   1.130   2.732   7.395  0.3867  0.5685 -0.4112
 9400SOL    HW129641   1.141   2.696   7.307  1.6623 -0.4922  0.1678
 9400SOL    HW229642   1.179   2.674   7.452  0.1201  1.6156  0.9369
 9401SOL     OW29643   3.144   5.528   4.172 -0.3460  0.8055 -0.2964
 9401SOL    HW129644   3.090   5.506   4.096 -0.3788  0.0868 -0.0722
 9401SOL    HW229645   3.229   5.489   4.153 -0.7557 -0.6085  0.6527
 9402SOL     OW29646   2.391   5.627   3.503  0.2751 -0.4914  0.0830
 9402SOL    HW129647   2.339   5.628   3.583  1.5137  1.5042  0.9506
 9402SOL    HW229648   2.458   5.560   3.518  0.1599 -0.5203  0.4838
 9403SOL     OW29649   3.061   3.961   4.220 -0.1673 -0.3178 -0.1238
 9403SOL    HW129650   3.137   3.944   4.275  0.0168  1.9510  0.4136
 9403SOL    HW229651   3.080   3.915   4.138  0.3342 -2.3342  1.0495
 9404SOL     OW29652   1.590   6.353   6.130 -0.4247  0.4842  0.2353
 9404SOL    HW129653   1.512   6.389   6.172 -1.2819  0.9704 -1.6376
 9404SOL    HW229654   1.634   6.430   6.092  2.1863  0.5409  2.9503
 9405SOL     OW29655   2.371   4.569   3.402  0.0149  0.4524  0.2376
 9405SOL    HW129656   2.375   4.573   3.497  1.1228 -0.0349  0.2300
 9405SOL    HW229657   2.460   4.546   3.375 -0.8170 -2.0515 -0.7497
 9406SOL     OW29658   1.855   4.188   6.159 -0.5580 -0.6556  0.1987
 9406SOL    HW129659   1.893   4.276   6.154  1.6144 -1.4994  0.8145
 9406SOL    HW229660   1.795   4.184   6.084  2.0533  0.1292 -2.1225
 9407SOL     OW29661   3.682   4.278   4.037  0.1399  0.1977  0.1404
 9407SOL    HW129662   3.748   4.294   4.105  0.2363 -0.3200  0.1697
 9407SOL    HW229663   3.690   4.185   4.017 -1.8628 -0.3144  1.4735
 9408SOL     OW29664   1.908   4.346   5.315 -0.3807 -0.0238  0.1932
 9408SOL    HW129665   1.979   4.367   5.255  0.4834 -0.8389  0.8975
 9408SOL    HW229666   1.841   4.305   5.260 -0.5279  1.1871 -0.5550
 9409SOL     OW29667   2.590   3.713   4.583  1.0069 -0.1425 -0.4302
 9409SOL    HW129668   2.681   3.741   4.598  1.2706 -1.5370  0.9105
 9409SOL    HW229669   2.543   3.743   4.661  1.0701 -2.2794  0.5027
 9410SOL     OW29670   1.468   5.035   4.523 -0.0411 -0.4841  0.3019
 9410SOL    HW129671   1.482   5.084   4.442 -2.2612  0.1588  0.2470
 9410SOL    HW229672   1.502   5.092   4.592  0.9580 -0.6080 -0.0682
 9411SOL     OW29673   2.378   4.314   4.314  0.1691 -0.4217  0.0475
 9411SOL    HW129674   2.392   4.222   4.295  0.7881 -0.0606 -1.3065
 9411SOL    HW229675   2.455   4.341   4.364 -0.4141 -0.8200  1.2107
 9412SOL     OW29676   2.965   3.297   4.194  0.7972 -0.3730 -0.2725
 9412SOL    HW129677   3.006   3.337   4.118  1.0728  0.7006  0.4171
 9412SOL    HW229678   2.998   3.347   4.269  2.0817 -2.5925  0.7691
 9413SOL     OW29679   4.141   6.693   4.596 -0.4677  0.3053 -0.4353
 9413SOL    HW129680   4.179   6.607   4.611 -0.4073  0.4511  0.2852
 9413SOL    HW229681   4.204   6.754   4.634 -0.8294  0.6265 -0.3482
 9414SOL     OW29682   3.383   5.080   2.162  0.0810  0.2578  0.0406
 9414SOL    HW129683   3.378   5.168   2.125 -0.1392  0.7706  1.2361
 9414SOL    HW229684   3.446   5.087   2.234 -2.1692  0.2425  2.1564
 9415SOL     OW29685   2.598   3.866   4.056  0.1719  0.1416 -0.2018
 9415SOL    HW129686   2.511   3.905   4.043 -0.2274 -0.3867  0.7603
 9415SOL    HW229687   2.642   3.925   4.116 -0.0787 -0.3654  0.4911
 9416SOL     OW29688   3.393   5.239   4.961  0.3037  0.7979 -0.3157
 9416SOL    HW129689   3.313   5.245   5.012 -0.3635 -0.0359 -1.2311
 9416SOL    HW229690   3.461   5.276   5.018 -0.5777  0.7718  0.7800
 9417SOL     OW29691   2.514   4.778   3.197  0.0603 -0.2429 -0.2204
 9417SOL    HW129692   2.468   4.814   3.273  0.2107  0.1488 -0.3137
 9417SOL    HW229693   2.579   4.845   3.175  0.7791 -0.8513  0.0014
 9418SOL     OW29694   1.957   4.668   4.993 -0.0876  0.1212  0.4313
 9418SOL    HW129695   1.915   4.678   5.078 -0.7916 -0.3859  0.1527
 9418SOL    HW229696   2.041   4.712   5.002 -0.0296 -0.1900  1.4812
 9419SOL     OW29697   3.343   4.148   4.570 -0.0078  0.2483 -0.0369
 9419SOL    HW129698   3.369   4.078   4.630  0.2476 -0.9655 -1.5044
 9419SOL    HW229699   3.255   4.172   4.598  0.8083  1.0621  1.9993
 9420SOL     OW29700   2.050   5.927   3.909  0.5987 -0.3637 -0.3633
 9420SOL    HW129701   2.141   5.931   3.880  0.0949 -0.7050 -2.1357
 9420SOL    HW229702   2.035   5.834   3.929  0.4015 -0.4699 -0.9744
 9421SOL     OW29703   3.708   3.062   5.089  0.6017 -0.1222  0.1249
 9421SOL    HW129704   3.733   3.152   5.068  2.3771 -0.3551  1.0422
 9421SOL    HW229705   3.759   3.040   5.167 -2.3513 -0.7925  2.0281
 9422SOL     OW29706   2.292   2.197   3.242 -0.3102 -0.1279  0.8648
 9422SOL    HW129707   2.319   2.280   3.204  0.3019 -0.2134  1.0940
 9422SOL    HW229708   2.268   2.218   3.332  1.8134 -0.4841  1.5874
 9423SOL     OW29709   3.255   4.262   4.324  0.0323  0.2094  0.0187
 9423SOL    HW129710   3.258   4.210   4.405 -1.6584  0.8138  0.5232
 9423SOL    HW229711   3.173   4.311   4.331 -0.1349  0.3099 -2.0660
 9424SOL     OW29712   3.313   3.951   4.764 -0.4368  0.4584  0.0751
 9424SOL    HW129713   3.373   3.925   4.835  1.4818 -0.1202 -1.6436
 9424SOL    HW229714   3.232   3.904   4.782 -0.1704  0.6924  2.1057
 9425SOL     OW29715   2.200   4.951   0.649 -0.6389 -0.1619  0.0454
 9425SOL    HW129716   2.212   4.857   0.655  1.1775 -0.1632 -2.0823
 9425SOL    HW229717   2.274   4.988   0.699 -0.4314  0.0844 -0.4304
 9426SOL     OW29718   3.888   4.902   3.063  0.3408  0.2043 -0.6167
 9426SOL    HW129719   3.885   4.807   3.067  0.1300  0.2274 -0.0386
 9426SOL    HW229720   3.977   4.923   3.035  0.1237 -0.1821 -1.6047
 9427SOL     OW29721   0.214   4.502   4.271 -0.3959 -0.0173  0.0866
 9427SOL    HW129722   0.258   4.430   4.315 -0.2498 -0.0689 -0.1387
 9427SOL    HW229723   0.241   4.580   4.318  0.2714 -0.0057 -0.3063
 9428SOL     OW29724   2.877   5.181   4.593  0.1713  0.1537  0.1907
 9428SOL    HW129725   2.890   5.202   4.501  0.2096  1.0416  0.3901
 9428SOL    HW229726   2.941   5.112   4.611 -0.2470 -0.4473 -0.5881
 9429SOL     OW29727   3.783   4.882   4.980 -0.3608  0.0457  0.4476
 9429SOL    HW129728   3.732   4.839   4.911 -1.4544  0.2516  1.1063
 9429SOL    HW229729   3.781   4.821   5.054  1.1926 -0.3806  0.1886
 9430SOL     OW29730   1.488   4.885   6.406 -0.3385 -0.4270 -0.4972
 9430SOL    HW129731   1.526   4.801   6.378  0.1889 -0.3911  0.0808
 9430SOL    HW229732   1.430   4.862   6.478 -0.3099 -0.3184 -0.4389
 9431SOL     OW29733   1.860   4.459   6.086 -0.2248  0.2339 -0.1365
 9431SOL    HW129734   1.923   4.494   6.023 -1.2833 -1.2316 -2.1109
 9431SOL    HW229735   1.777   4.500   6.063 -0.6511 -0.3927  0.2332
 9432SOL     OW29736   2.885   3.680   4.603 -0.5837 -0.2933  0.4291
 9432SOL    HW129737   2.892   3.716   4.692  0.6744 -0.4614  0.4263
 9432SOL    HW229738   2.961   3.716   4.557 -0.9727 -0.5732 -0.4502
 9433SOL     OW29739   2.676   3.282   4.190 -0.0387  0.1258  0.1234
 9433SOL    HW129740   2.770   3.283   4.205  0.3040  1.4534 -1.7878
 9433SOL    HW229741   2.648   3.372   4.211 -0.8726 -0.2313  0.5935
 9434SOL     OW29742   1.835   4.137   4.431 -0.0359  0.0272  0.5099
 9434SOL    HW129743   1.892   4.201   4.389 -1.9443  1.2494 -0.3672
 9434SOL    HW229744   1.889   4.059   4.441  2.1098  1.4608  0.8107
 9435SOL     OW29745   0.422   4.961   6.127  0.0246 -0.0776  0.4838
 9435SOL    HW129746   0.403   4.868   6.139 -0.5987  0.1484  1.4219
 9435SOL    HW229747   0.407   4.977   6.034 -0.6244 -0.7522  0.4601
 9436SOL     OW29748   1.716   5.802   3.456 -0.1214  0.3559  0.1020
 9436SOL    HW129749   1.721   5.844   3.542  0.0912 -0.7120  0.6221
 9436SOL    HW229750   1.625   5.813   3.430  0.0611  1.6836 -0.0684
 9437SOL     OW29751   2.723   3.706   5.214  0.2509 -0.4264 -0.0070
 9437SOL    HW129752   2.748   3.671   5.129 -0.7322 -0.0758 -0.4579
 9437SOL    HW229753   2.686   3.792   5.195  0.8631  0.0556  0.8832
 9438SOL     OW29754   2.430   4.440   4.852  0.2417 -0.4716  0.7556
 9438SOL    HW129755   2.519   4.409   4.868  0.5475  0.2663  0.5460
 9438SOL    HW229756   2.423   4.522   4.900 -0.9549 -1.4181  2.2895
 9439SOL     OW29757   3.281   2.941   5.576  0.2873 -0.1741  0.9095
 9439SOL    HW129758   3.215   2.995   5.532  2.0032  2.0827  0.9200
 9439SOL    HW229759   3.338   2.910   5.505  2.0174  1.9958  1.2419
 9440SOL     OW29760   3.778   4.042   4.589  0.0883 -0.3778  0.0553
 9440SOL    HW129761   3.699   4.095   4.601 -0.5399 -0.8210 -1.8539
 9440SOL    HW229762   3.816   4.036   4.677 -0.2929  2.4466  0.5225
 9441SOL     OW29763   1.915   4.882   6.659 -0.6702  0.4806 -0.1171
 9441SOL    HW129764   1.828   4.918   6.669 -0.4555  0.6479  1.4030
 9441SOL    HW229765   1.958   4.899   6.743  0.8720  0.5254 -0.8751
 9442SOL     OW29766   1.792   5.850   5.140  0.1609 -0.7488 -0.4073
 9442SOL    HW129767   1.762   5.794   5.069 -0.0111  0.1804 -1.0983
 9442SOL    HW229768   1.766   5.805   5.220  2.1327 -2.8136 -0.8417
 9443SOL     OW29769   2.099   3.220   6.318 -0.1562  0.3040 -0.5150
 9443SOL    HW129770   2.104   3.203   6.412 -0.6194  0.1692 -0.5126
 9443SOL    HW229771   2.049   3.301   6.310  0.8526  0.9290 -0.5964
 9444SOL     OW29772   3.931   3.262   4.876  0.2731  0.2621 -0.0355
 9444SOL    HW129773   3.940   3.330   4.809 -1.9342  0.5724 -0.0777
 9444SOL    HW229774   3.863   3.294   4.935  0.4134 -1.1385  0.9533
 9445SOL     OW29775   2.772   3.540   5.436 -0.5829 -0.3589 -0.2800
 9445SOL    HW129776   2.741   3.573   5.351  1.5805 -0.7942 -1.3166
 9445SOL    HW229777   2.828   3.611   5.470  1.3421 -1.4811 -0.9196
 9446SOL     OW29778   3.121   4.152   3.909  0.0138  0.2108 -0.0497
 9446SOL    HW129779   3.078   4.111   3.834 -2.2336 -0.6612  1.6064
 9446SOL    HW229780   3.122   4.084   3.977  0.0983  1.5910  1.3887
 9447SOL     OW29781   2.912   3.748   5.547  0.4238  0.0691  0.2390
 9447SOL    HW129782   2.939   3.824   5.496 -0.3669  0.1854 -0.0304
 9447SOL    HW229783   2.892   3.783   5.634  1.5124 -0.0859  0.5668
 9448SOL     OW29784   1.069   4.583   3.780 -0.0827  0.3516 -0.3181
 9448SOL    HW129785   1.001   4.607   3.843 -0.7659 -3.3314  0.5716
 9448SOL    HW229786   1.149   4.624   3.814 -0.7158 -0.3240  2.1861
 9449SOL     OW29787   2.665   3.998   5.638  0.4736 -0.7690 -0.5658
 9449SOL    HW129788   2.654   3.946   5.717 -1.2311 -1.1701 -1.0406
 9449SOL    HW229789   2.633   4.085   5.662  0.8826 -0.6197 -0.5432
 9450SOL     OW29790   2.452   1.921   5.471  0.4259 -0.2884 -0.2779
 9450SOL    HW129791   2.535   1.965   5.454  0.9622 -1.4978 -0.9647
 9450SOL    HW229792   2.472   1.858   5.540  0.3222 -1.1966 -1.0524
 9451SOL     OW29793   3.107   3.486   4.872  0.2954 -0.4129 -0.1121
 9451SOL    HW129794   3.113   3.578   4.848 -1.0349  0.3052  1.9929
 9451SOL    HW229795   3.195   3.451   4.859  0.8936  1.2303 -0.6513
 9452SOL     OW29796   0.724   5.509   5.863 -0.2665  0.1585 -0.4350
 9452SOL    HW129797   0.705   5.575   5.795 -1.0063  1.3689  0.8834
 9452SOL    HW229798   0.652   5.447   5.856 -1.6412  1.5407  0.6980
 9453SOL     OW29799   3.368   5.446   6.078  0.5464  0.0733  0.3021
 9453SOL    HW129800   3.321   5.363   6.070 -2.2236  1.4718  0.8557
 9453SOL    HW229801   3.450   5.432   6.032 -0.9064 -2.1755 -1.8306
 9454SOL     OW29802   3.063   4.383   5.385  0.0325 -0.6648 -0.0047
 9454SOL    HW129803   3.002   4.454   5.367  0.6669 -0.1369 -0.1138
 9454SOL    HW229804   3.009   4.304   5.388 -0.5877 -0.2626 -0.5187
 9455SOL     OW29805   3.935   4.123   3.758 -0.0787 -0.3485 -0.1167
 9455SOL    HW129806   3.988   4.043   3.748  0.5436 -0.3398  2.3559
 9455SOL    HW229807   3.997   4.194   3.743 -0.2012 -0.3173 -0.4937
 9456SOL     OW29808   3.187   3.174   4.840 -0.2739  0.4141  0.0425
 9456SOL    HW129809   3.218   3.239   4.777  0.6189 -0.7883 -0.7840
 9456SOL    HW229810   3.195   3.218   4.925  0.8059  1.1941 -0.4482
 9457SOL     OW29811   0.524   6.439   3.633  0.4990  0.1845  0.1897
 9457SOL    HW129812   0.537   6.517   3.686  1.6080  0.0831  0.0948
 9457SOL    HW229813   0.513   6.368   3.696  0.1416  0.3111  0.2733
 9458SOL     OW29814   1.825   3.720   5.170 -0.1736 -0.5941 -0.5671
 9458SOL    HW129815   1.907   3.686   5.133  0.4861  0.6549 -0.3073
 9458SOL    HW229816   1.846   3.809   5.197 -1.6067 -0.2855 -0.3929
 9459SOL     OW29817   0.997   3.997   4.544  0.2275 -0.8660  0.1552
 9459SOL    HW129818   0.978   3.963   4.457  0.3835  0.7301 -0.5426
 9459SOL    HW229819   1.063   4.065   4.530 -2.5216  2.2605  0.8777
 9460SOL     OW29820   2.854   4.431   5.711  0.1564  0.5394 -0.7519
 9460SOL    HW129821   2.896   4.493   5.652  1.7024 -0.9192 -1.2543
 9460SOL    HW229822   2.913   4.355   5.714 -0.7530 -0.1793  1.2677
 9461SOL     OW29823   1.098   5.304   5.431  0.4772 -0.0060 -0.3796
 9461SOL    HW129824   1.055   5.320   5.515  1.6536  0.3489  0.1765
 9461SOL    HW229825   1.028   5.269   5.374 -0.2001 -0.8355  0.9154
 9462SOL     OW29826   1.424   3.946   4.129  0.4731 -0.2056 -0.2545
 9462SOL    HW129827   1.404   3.870   4.184  2.9698 -0.8826 -0.1550
 9462SOL    HW229828   1.459   4.011   4.190  1.1522 -0.1272 -0.7152
 9463SOL     OW29829   2.757   5.206   4.845  0.1178  0.2223  0.4207
 9463SOL    HW129830   2.799   5.179   4.763  1.2681  0.7378  0.8080
 9463SOL    HW229831   2.806   5.283   4.871 -1.2181  0.9468  0.8344
 9464SOL     OW29832   2.630   4.226   6.074  0.0866  0.1212 -0.1076
 9464SOL    HW129833   2.655   4.134   6.064  0.3311  0.2366 -0.5801
 9464SOL    HW229834   2.632   4.240   6.169  0.0803 -0.3504 -0.0324
 9465SOL     OW29835   2.313   4.065   6.875 -0.1386 -0.5486 -0.0129
 9465SOL    HW129836   2.366   4.006   6.821  1.0013  1.5119 -1.2894
 9465SOL    HW229837   2.321   4.150   6.832  0.6189  1.1836  3.2623
 9466SOL     OW29838   2.908   3.324   5.499  0.4939  0.1009 -0.3012
 9466SOL    HW129839   2.859   3.397   5.461  2.0957  1.6485  0.4759
 9466SOL    HW229840   2.900   3.337   5.593  1.4418 -0.2654 -0.1605
 9467SOL     OW29841   3.789   4.453   3.822  0.2074 -0.4123 -0.4020
 9467SOL    HW129842   3.842   4.402   3.884 -0.8400 -0.6512  0.3130
 9467SOL    HW229843   3.802   4.544   3.849 -0.1800 -0.5089  0.1382
 9468SOL     OW29844   0.280   4.955   4.419 -0.1932 -0.1120  0.5128
 9468SOL    HW129845   0.348   5.018   4.442  0.4665 -0.8090  0.5211
 9468SOL    HW229846   0.321   4.869   4.434 -0.1292 -0.6104 -2.0758
 9469SOL     OW29847   2.374   2.171   6.649 -0.1965  0.0582 -0.0835
 9469SOL    HW129848   2.306   2.233   6.676  0.5662  0.4826  0.9293
 9469SOL    HW229849   2.325   2.091   6.625 -1.1743  0.9721 -1.2762
 9470SOL     OW29850   1.592   5.733   3.742  0.4083  0.6745 -0.2994
 9470SOL    HW129851   1.583   5.645   3.704  0.0728  0.0827  1.0845
 9470SOL    HW229852   1.684   5.755   3.731  0.8534 -0.5510  0.7793
 9471SOL     OW29853   1.680   3.180   3.237 -0.6181 -0.4944  0.0926
 9471SOL    HW129854   1.680   3.243   3.309 -0.3017 -0.2823 -0.0903
 9471SOL    HW229855   1.589   3.154   3.228 -0.6078 -0.7903  0.8036
 9472SOL     OW29856   2.634   3.960   6.028 -0.7292 -0.4485 -0.0730
 9472SOL    HW129857   2.570   3.946   5.959  0.0138  0.5062 -0.9905
 9472SOL    HW229858   2.644   3.874   6.069 -3.1105 -0.4786  0.6043
 9473SOL     OW29859   2.170   4.422   3.231  0.2937  0.4721  0.4145
 9473SOL    HW129860   2.141   4.507   3.198  0.8741  1.5096  2.3991
 9473SOL    HW229861   2.244   4.443   3.289  0.9648 -1.4709  0.3342
 9474SOL     OW29862   2.128   4.653   6.356 -0.2754  0.1533 -0.6391
 9474SOL    HW129863   2.115   4.609   6.440 -2.1877 -3.3113 -2.5055
 9474SOL    HW229864   2.074   4.731   6.362  0.4395  0.5632  1.6551
 9475SOL     OW29865   3.150   5.360   4.482  0.3206 -0.2443 -0.4016
 9475SOL    HW129866   3.205   5.319   4.414 -0.2471 -1.2134 -0.2937
 9475SOL    HW229867   3.198   5.345   4.564  0.8330  0.6162 -0.5340
 9476SOL     OW29868   0.771   4.997   5.960 -0.3846  0.5634  0.2787
 9476SOL    HW129869   0.819   5.064   6.008 -1.6061  0.6028  1.5058
 9476SOL    HW229870   0.737   4.938   6.027 -0.9567 -0.2013 -0.6441
 9477SOL     OW29871   1.208   4.951   4.785  0.1170  0.0312  0.2999
 9477SOL    HW129872   1.296   4.914   4.798  0.3774  1.3934  3.0530
 9477SOL    HW229873   1.153   4.901   4.844 -0.8596 -0.2755 -0.8292
 9478SOL     OW29874   3.388   3.544   4.159  0.1119  0.9620  0.1985
 9478SOL    HW129875   3.355   3.603   4.092  0.4963 -0.0491 -0.8992
 9478SOL    HW229876   3.467   3.506   4.122 -0.6566 -0.9996  0.4480
 9479SOL     OW29877   4.385   5.408   3.438  0.4080  0.3968 -0.4465
 9479SOL    HW129878   4.294   5.380   3.451  1.3599 -2.8073  0.3816
 9479SOL    HW229879   4.395   5.414   3.343 -0.5642  0.3594 -0.5641
 9480SOL     OW29880   3.130   5.228   8.350 -0.0688 -0.4776  0.4087
 9480SOL    HW129881   3.093   5.143   8.326 -0.4693 -0.2242  0.1043
 9480SOL    HW229882   3.087   5.250   8.433 -0.7807 -0.0902 -0.0459
 9481SOL     OW29883   2.675   5.692   4.214  0.1804 -0.3464 -0.4602
 9481SOL    HW129884   2.720   5.641   4.282  0.4912 -1.1581 -1.2519
 9481SOL    HW229885   2.583   5.673   4.228  0.3319 -1.8687 -1.2755
 9482SOL     OW29886   1.179   7.104   3.615 -0.1041 -0.1370 -0.5158
 9482SOL    HW129887   1.150   7.014   3.631 -0.2743  0.0045 -0.0111
 9482SOL    HW229888   1.275   7.098   3.612 -0.0651 -0.1839  0.5134
 9483SOL     OW29889   2.826   6.388   4.716  0.1813 -0.2593 -0.0546
 9483SOL    HW129890   2.800   6.464   4.768 -1.5440 -0.7365 -0.1629
 9483SOL    HW229891   2.771   6.317   4.748  1.3739 -1.3570 -0.3416
 9484SOL     OW29892   3.499   3.208   4.460  0.8240 -0.1356 -0.1955
 9484SOL    HW129893   3.577   3.237   4.508 -0.0857  0.6092  0.8756
 9484SOL    HW229894   3.516   3.233   4.369  1.7756  0.1265  0.0458
 9485SOL     OW29895   1.793   4.840   4.749  0.5970  0.5426  0.2664
 9485SOL    HW129896   1.744   4.834   4.831 -4.8642 -3.3137 -2.6776
 9485SOL    HW229897   1.845   4.760   4.746 -0.8162 -0.3928 -0.7053
 9486SOL     OW29898   4.182   6.588   2.825  0.5376 -1.1894 -0.1757
 9486SOL    HW129899   4.220   6.676   2.818 -2.0783  0.5100  3.4607
 9486SOL    HW229900   4.249   6.535   2.867  1.5645 -0.5090 -0.9096
 9487SOL     OW29901   2.322   4.835   4.281 -0.0208 -0.2833 -0.2507
 9487SOL    HW129902   2.277   4.869   4.358  0.8138 -1.8619  0.9839
 9487SOL    HW229903   2.251   4.806   4.223 -0.6648  1.2180 -0.2579
 9488SOL     OW29904   2.405   2.605   6.004 -0.1703 -0.3806 -0.1604
 9488SOL    HW129905   2.429   2.686   5.959 -1.0584 -0.1467 -0.2341
 9488SOL    HW229906   2.489   2.561   6.021  0.5826  1.6872  2.0830
 9489SOL     OW29907   3.545   4.904   3.781  0.3069  0.3142  0.1377
 9489SOL    HW129908   3.464   4.859   3.804  0.7496 -1.5098 -1.6144
 9489SOL    HW229909   3.600   4.895   3.859  0.5971 -2.8095 -0.3336
 9490SOL     OW29910   1.723   2.257   7.055  0.3224  0.1789 -1.0696
 9490SOL    HW129911   1.633   2.276   7.083  1.1730 -0.3279  2.5929
 9490SOL    HW229912   1.713   2.209   6.973 -2.9255 -1.6936  0.2191
 9491SOL     OW29913   3.776   6.033   3.809  0.3949 -0.0642  0.6876
 9491SOL    HW129914   3.775   6.084   3.890  1.2112  0.3542  0.4377
 9491SOL    HW229915   3.831   5.957   3.829  0.5088 -0.0162  0.5585
 9492SOL     OW29916   2.359   5.538   5.500 -0.5114 -0.1598 -0.1085
 9492SOL    HW129917   2.427   5.604   5.487 -0.3773 -0.3713 -0.4876
 9492SOL    HW229918   2.326   5.555   5.588 -0.5245  0.4526 -0.2303
 9493SOL     OW29919   2.961   3.950   4.480  0.0016  0.3736 -0.0480
 9493SOL    HW129920   3.003   4.027   4.519 -0.7432  0.3121  0.8937
 9493SOL    HW229921   2.997   3.946   4.391 -1.1882  2.8077 -0.7178
 9494SOL     OW29922   3.357   5.600   3.883 -0.0874 -0.5626  0.2404
 9494SOL    HW129923   3.320   5.514   3.903  1.3598 -1.0554  0.9628
 9494SOL    HW229924   3.440   5.581   3.838 -2.2192  0.4558 -4.8646
 9495SOL     OW29925   2.442   3.898   2.401 -0.1867  0.2505 -0.3930
 9495SOL    HW129926   2.359   3.924   2.362 -0.0870  0.4438 -0.4778
 9495SOL    HW229927   2.478   3.980   2.437  0.2710  0.2851 -0.9268
 9496SOL     OW29928   2.495   3.115   6.113 -0.4813 -0.6230 -0.2465
 9496SOL    HW129929   2.562   3.112   6.182 -0.7209 -0.4305 -0.0008
 9496SOL    HW229930   2.527   3.182   6.052 -0.9462  0.2099  0.4037
 9497SOL     OW29931   2.020   3.209   4.884  0.4361 -0.2033  0.6988
 9497SOL    HW129932   1.947   3.270   4.877  0.8096  0.7227  3.6170
 9497SOL    HW229933   2.020   3.162   4.801 -0.9879  2.5093 -0.9794
 9498SOL     OW29934   1.635   4.742   3.405 -0.2725  0.1381 -0.8979
 9498SOL    HW129935   1.573   4.687   3.453 -1.5982 -0.6156 -3.3058
 9498SOL    HW229936   1.708   4.684   3.385 -0.9192 -0.3444 -1.9901
 9499SOL     OW29937   3.319   2.458   3.320 -0.5319  0.1032  0.6551
 9499SOL    HW129938   3.408   2.483   3.298 -0.9892  0.9526 -0.3083
 9499SOL    HW229939   3.276   2.540   3.344 -1.2152 -0.2158  0.5443
 9500SOL     OW29940   2.651   4.515   4.286  0.2838  0.0009 -0.1324
 9500SOL    HW129941   2.690   4.495   4.200 -0.1066 -0.9541 -0.0962
 9500SOL    HW229942   2.655   4.432   4.334 -0.1040  0.3635  0.5403
 9501SOL     OW29943   3.088   2.807   5.265  0.1123  0.3009 -0.5534
 9501SOL    HW129944   3.083   2.898   5.235  0.0456 -0.3064 -2.5598
 9501SOL    HW229945   3.182   2.791   5.279  0.0603  0.8666  0.5055
 9502SOL     OW29946   1.631   6.090   5.337  0.2198 -0.4235  0.1496
 9502SOL    HW129947   1.553   6.056   5.379 -0.2142  0.0526 -0.2564
 9502SOL    HW229948   1.655   6.024   5.272 -0.1469 -0.3357 -0.0766
 9503SOL     OW29949   0.924   2.444   5.075  0.0666 -0.1202  0.1935
 9503SOL    HW129950   0.866   2.511   5.040 -0.4762 -1.3604 -1.4365
 9503SOL    HW229951   0.865   2.373   5.102  0.6981 -0.5400  0.5000
 9504SOL     OW29952   3.148   5.217   5.068  0.1003  0.0812  0.0889
 9504SOL    HW129953   3.095   5.283   5.023 -0.6137 -0.0131  0.7623
 9504SOL    HW229954   3.104   5.134   5.049  0.0801 -0.0146  0.5283
 9505SOL     OW29955   1.193   4.208   5.891 -0.3672  0.2539  0.6685
 9505SOL    HW129956   1.276   4.251   5.873 -0.1475 -0.8948 -1.4361
 9505SOL    HW229957   1.213   4.140   5.955  0.2266  0.2371  0.4633
 9506SOL     OW29958   1.890   4.359   3.881 -0.5184  0.4643 -0.0859
 9506SOL    HW129959   1.871   4.334   3.790 -0.8430  2.6611 -0.6888
 9506SOL    HW229960   1.972   4.315   3.901 -1.0787 -1.0774 -0.9904
 9507SOL     OW29961   1.174   5.733   3.649 -0.3182 -0.3994  0.1457
 9507SOL    HW129962   1.113   5.782   3.594 -0.1450 -0.7395 -0.3595
 9507SOL    HW229963   1.245   5.795   3.668 -0.8508  0.0162  0.7945
 9508SOL     OW29964   1.204   4.894   3.694  0.5314 -0.3081  0.1151
 9508SOL    HW129965   1.109   4.907   3.690  0.4733 -0.3272  1.0163
 9508SOL    HW229966   1.218   4.851   3.779  1.3063 -0.6861 -0.1935
 9509SOL     OW29967   2.954   4.673   2.940  0.0543 -0.3472  0.3115
 9509SOL    HW129968   2.868   4.658   2.980  0.2659  0.6171  1.1475
 9509SOL    HW229969   3.014   4.619   2.991  0.3060  0.7961  1.2625
 9510SOL     OW29970   2.298   5.247   2.512  0.3638 -0.2530  0.6464
 9510SOL    HW129971   2.269   5.290   2.593  1.7484  0.8665  0.5894
 9510SOL    HW229972   2.230   5.183   2.493 -0.8796  0.6991  1.7283
 9511SOL     OW29973   2.183   4.695   4.667  0.5372 -0.0683  0.0250
 9511SOL    HW129974   2.271   4.657   4.658  0.7842  0.3968  0.4283
 9511SOL    HW229975   2.187   4.777   4.616  0.0503 -0.5013 -0.7306
 9512SOL     OW29976   3.593   5.592   4.847 -0.7387 -0.3968  0.0258
 9512SOL    HW129977   3.610   5.655   4.778  1.1056  1.0665  1.6752
 9512SOL    HW229978   3.665   5.528   4.840 -1.0927 -0.8011  0.0079
 9513SOL     OW29979   7.507   4.354   5.135 -0.3951  0.6813  0.4052
 9513SOL    HW129980   7.576   4.416   5.111 -0.9752  1.0489 -0.3524
 9513SOL    HW229981   7.553   4.283   5.179  0.3977  1.1853  0.4073
 9514SOL     OW29982   2.595   3.326   2.951  0.2471 -0.1315  0.6446
 9514SOL    HW129983   2.633   3.383   2.884 -0.6358  0.0760  0.3077
 9514SOL    HW229984   2.661   3.257   2.963 -0.0889 -0.8751 -1.3666
 9515SOL     OW29985   1.761   3.661   2.978 -0.2434 -0.0017  0.3121
 9515SOL    HW129986   1.814   3.634   2.903  1.7755  2.1102  0.8802
 9515SOL    HW229987   1.671   3.654   2.947  0.4574 -0.6905 -1.7627
 9516SOL     OW29988   3.548   3.296   4.839 -0.2154 -0.8495  0.1725
 9516SOL    HW129989   3.462   3.316   4.802  0.7324  0.5946 -1.3887
 9516SOL    HW229990   3.542   3.324   4.931  0.0961  4.4458 -1.1159
 9517SOL     OW29991   0.036   4.691   4.467 -0.1585  0.1061 -0.0454
 9517SOL    HW129992  -0.007   4.662   4.548  0.4738 -1.3014 -0.1767
 9517SOL    HW229993   0.129   4.687   4.487  0.0141 -0.5048 -0.8971
 9518SOL     OW29994   4.121   4.999   4.610  0.3124  0.3275  0.1568
 9518SOL    HW129995   4.103   4.906   4.602 -2.5821  0.9341 -2.8910
 9518SOL    HW229996   4.060   5.029   4.678  1.5483 -0.0151  1.4452
 9519SOL     OW29997   2.571   4.503   5.169  0.2773 -0.1079  0.0412
 9519SOL    HW129998   2.613   4.441   5.229 -0.1759 -2.1839 -1.6743
 9519SOL    HW229999   2.631   4.508   5.094  0.1413  1.3223 -0.0101
 9520SOL     OW30000   2.287   5.421   4.388 -0.1591  0.1075 -0.1101
 9520SOL    HW130001   2.250   5.417   4.477  1.4397  1.4033  0.6584
 9520SOL    HW230002   2.350   5.349   4.386 -1.1765 -0.8113 -0.7272
 9521SOL     OW30003   3.452   3.011   5.130  0.7541  0.1939  0.1508
 9521SOL    HW130004   3.544   3.019   5.102  0.5727 -1.9458 -1.2037
 9521SOL    HW230005   3.415   3.098   5.113  2.7006  1.4050  1.5847
 9522SOL     OW30006   1.745   4.327   2.644 -0.7120  0.2413  0.2536
 9522SOL    HW130007   1.781   4.415   2.654 -0.9242  0.1803  1.6865
 9522SOL    HW230008   1.711   4.304   2.731 -1.8529 -0.7305 -0.4110
 9523SOL     OW30009   2.348   5.934   4.247  0.0973  0.5529  0.0122
 9523SOL    HW130010   2.432   5.980   4.256 -0.2842  1.3433 -0.3552
 9523SOL    HW230011   2.359   5.854   4.297  1.5557  0.0004 -1.1182
 9524SOL     OW30012   2.713   3.590   4.944 -0.2127 -0.0845  0.7057
 9524SOL    HW130013   2.758   3.663   4.903 -1.3628  0.3765  0.2279
 9524SOL    HW230014   2.771   3.515   4.929  0.4688  0.5170  0.2659
 9525SOL     OW30015   3.509   1.929   5.869 -0.2292  0.4035 -0.5746
 9525SOL    HW130016   3.483   1.885   5.950  1.5955  1.7290  0.8188
 9525SOL    HW230017   3.499   2.023   5.888  1.4906  0.7916 -1.3758
 9526SOL     OW30018   3.438   4.144   3.865  0.4756 -0.4445  0.0274
 9526SOL    HW130019   3.392   4.098   3.796  1.3900  0.1594 -1.0161
 9526SOL    HW230020   3.442   4.081   3.938  1.0363 -1.7509 -1.0890
 9527SOL     OW30021   2.615   4.126   7.294 -0.7184 -0.0478  0.1728
 9527SOL    HW130022   2.594   4.076   7.215 -0.4357 -0.3017  0.2574
 9527SOL    HW230023   2.710   4.139   7.291 -1.0288  2.6456 -1.1302
 9528SOL     OW30024   1.059   3.136   6.879 -0.0308 -0.3005  0.5307
 9528SOL    HW130025   1.093   3.194   6.947  1.4093 -1.0996  0.5245
 9528SOL    HW230026   1.034   3.056   6.927  0.0079 -0.4743  0.2618
 9529SOL     OW30027   2.867   4.255   7.340  0.1707 -0.0875 -0.2501
 9529SOL    HW130028   2.938   4.212   7.291 -0.5948 -0.6392 -0.9181
 9529SOL    HW230029   2.903   4.270   7.427  0.7193 -1.4235 -0.2267
 9530SOL     OW30030   1.008   5.643   6.489 -0.3899 -0.1313 -0.2321
 9530SOL    HW130031   0.921   5.610   6.466 -0.6470 -0.1245  0.6769
 9530SOL    HW230032   1.008   5.734   6.461 -0.6500 -0.1525 -0.2973
 9531SOL     OW30033   2.114   3.366   5.710 -0.0240  0.0522 -0.0215
 9531SOL    HW130034   2.179   3.418   5.757 -0.8753  2.5336 -1.4242
 9531SOL    HW230035   2.147   3.276   5.716  3.0066  1.0643  0.1575
 9532SOL     OW30036   3.449   4.754   6.644  0.1578 -0.2277 -0.3503
 9532SOL    HW130037   3.471   4.712   6.727 -0.0442  1.1262  0.4149
 9532SOL    HW230038   3.529   4.748   6.592  0.8174  0.3358  0.5655
 9533SOL     OW30039   3.840   4.181   6.247 -0.6177 -0.4082 -0.3182
 9533SOL    HW130040   3.806   4.231   6.322  1.5260  0.4663  0.1452
 9533SOL    HW230041   3.840   4.090   6.277  1.1758  0.0284  1.2226
 9534SOL     OW30042   2.067   3.861   6.843 -0.4092 -0.0788  0.1496
 9534SOL    HW130043   2.012   3.872   6.766  0.5863 -1.9971 -0.8983
 9534SOL    HW230044   2.062   3.946   6.888  0.2440  1.6682 -2.8182
 9535SOL     OW30045   7.331   5.498   6.215 -0.3034  0.0416  0.0717
 9535SOL    HW130046   7.373   5.431   6.161 -2.0040  0.2106 -1.5869
 9535SOL    HW230047   7.359   5.581   6.176 -1.8611  0.1578 -0.9038
 9536SOL     OW30048   2.022   4.256   7.491  0.1600  0.3977  0.0200
 9536SOL    HW130049   2.067   4.284   7.412  0.5346 -0.2127  0.0093
 9536SOL    HW230050   2.060   4.309   7.561  1.4927 -0.6558  0.1388
 9537SOL     OW30051   3.243   4.756   6.450  0.5114 -0.2190  0.7724
 9537SOL    HW130052   3.322   4.751   6.504 -0.7739 -1.3830  2.6576
 9537SOL    HW230053   3.215   4.666   6.440  0.5699 -0.0174 -1.7571
 9538SOL     OW30054   2.812   3.636   6.908 -0.0649 -0.4049 -0.2101
 9538SOL    HW130055   2.818   3.638   7.004 -1.1322  0.9110 -0.1483
 9538SOL    HW230056   2.900   3.659   6.878  0.6092 -2.0049  0.4085
 9539SOL     OW30057   0.506   5.033   5.040  0.4171 -0.0664 -0.5413
 9539SOL    HW130058   0.504   5.127   5.057 -0.7499  0.1554 -1.7322
 9539SOL    HW230059   0.493   4.993   5.126  1.9335  0.8061  0.1374
 9540SOL     OW30060   3.109   4.753   7.067 -0.4150 -0.2241 -0.2017
 9540SOL    HW130061   3.166   4.717   7.000  0.8325 -1.3141  1.3591
 9540SOL    HW230062   3.166   4.808   7.121 -1.4593  0.9315 -0.2204
 9541SOL     OW30063   1.732   5.547   7.085  0.3539  0.0997 -0.0740
 9541SOL    HW130064   1.720   5.458   7.053  0.7913  0.0287 -0.0489
 9541SOL    HW230065   1.827   5.558   7.092  0.2869  0.2846  0.7007
 9542SOL     OW30066   1.697   3.874   7.411  0.4401  0.4644 -0.0780
 9542SOL    HW130067   1.751   3.799   7.434 -2.2968 -1.1714  1.5727
 9542SOL    HW230068   1.709   3.883   7.316  1.7175 -1.3241 -0.1445
 9543SOL     OW30069   3.243   6.056   6.269  0.4489  0.2938 -0.0224
 9543SOL    HW130070   3.246   6.130   6.208 -0.5178 -1.7232 -2.7479
 9543SOL    HW230071   3.150   6.031   6.271  0.9552 -1.8844 -0.6764
 9544SOL     OW30072   1.911   4.625   6.569  0.0167  0.1898 -0.3311
 9544SOL    HW130073   1.951   4.571   6.637 -1.0344  0.1196  0.2450
 9544SOL    HW230074   1.907   4.713   6.608 -0.0044  0.2889 -0.5544
 9545SOL     OW30075   4.322   3.409   7.925 -0.1188  0.3741  0.3580
 9545SOL    HW130076   4.308   3.316   7.905 -0.7354  0.6092 -0.4089
 9545SOL    HW230077   4.373   3.442   7.851  0.3299  0.5901  0.7606
 9546SOL     OW30078   2.182   6.733   7.559  0.3867  0.3919  0.1672
 9546SOL    HW130079   2.238   6.712   7.484  1.1196 -0.0028  0.8121
 9546SOL    HW230080   2.241   6.729   7.635 -0.1216  1.7775  0.6618
 9547SOL     OW30081   1.640   6.189   5.658  0.6751 -0.1660 -0.3812
 9547SOL    HW130082   1.699   6.114   5.661  1.6575  0.6046  0.4268
 9547SOL    HW230083   1.679   6.249   5.595  0.9504  0.4773  0.3734
 9548SOL     OW30084   0.997   4.818   6.862  0.1759  0.0963 -0.2617
 9548SOL    HW130085   0.997   4.737   6.913 -0.3384  1.2004  1.6043
 9548SOL    HW230086   1.078   4.862   6.889 -0.5027  1.0579  0.2522
 9549SOL     OW30087   2.300   4.197   7.118 -0.0601  0.1237  0.1239
 9549SOL    HW130088   2.392   4.222   7.121  0.3801 -1.3169 -0.3093
 9549SOL    HW230089   2.289   4.152   7.033 -1.0885  0.0437  0.2758
 9550SOL     OW30090   2.132   4.089   4.761 -0.4896 -0.0290  0.3721
 9550SOL    HW130091   2.170   4.086   4.672 -1.6553 -1.3110 -0.1201
 9550SOL    HW230092   2.055   4.144   4.752 -0.9857 -0.7062  0.4186
 9551SOL     OW30093   2.913   3.920   6.942  0.7068  0.0152  0.1470
 9551SOL    HW130094   2.984   3.857   6.952  1.3378  0.1674 -2.4966
 9551SOL    HW230095   2.929   3.960   6.856 -1.3571  1.6307  0.4330
 9552SOL     OW30096   1.306   2.856   6.921 -0.0875  0.4516  0.1144
 9552SOL    HW130097   1.327   2.945   6.892 -3.4159  0.7169 -1.9880
 9552SOL    HW230098   1.336   2.800   6.850 -2.0321  0.4146 -0.7360
 9553SOL     OW30099   2.051   4.476   7.706 -0.3385 -0.3081 -0.1482
 9553SOL    HW130100   2.124   4.464   7.768 -1.2057 -2.0224  0.6054
 9553SOL    HW230101   1.988   4.529   7.754 -0.0683  0.2628 -0.4101
 9554SOL     OW30102   3.295   7.282   7.770  0.0936  0.0205 -0.0859
 9554SOL    HW130103   3.361   7.270   7.701 -0.6197 -1.4141 -0.5474
 9554SOL    HW230104   3.253   7.197   7.779  0.9109 -0.1881  2.9481
 9555SOL     OW30105   1.714   4.440   7.309 -0.1859 -0.1041  0.2864
 9555SOL    HW130106   1.623   4.414   7.299  0.6960 -2.9092 -1.6922
 9555SOL    HW230107   1.762   4.358   7.314  2.3910  1.2306 -0.5212
 9556SOL     OW30108   3.292   5.295   6.732  0.2637  0.4640  0.1064
 9556SOL    HW130109   3.382   5.289   6.765 -0.5358  1.2621  2.6912
 9556SOL    HW230110   3.264   5.204   6.725  1.7214  0.1302 -2.2766
 9557SOL     OW30111   3.318   5.685   7.116  0.2302  1.0335  0.6150
 9557SOL    HW130112   3.351   5.720   7.199  0.8984  0.3199  0.6574
 9557SOL    HW230113   3.390   5.699   7.054  0.2829  0.2570  0.4974
 9558SOL     OW30114   1.910   3.823   6.622 -0.3627  0.3055 -0.2737
 9558SOL    HW130115   1.861   3.901   6.594  0.1321  1.5133  1.9694
 9558SOL    HW230116   1.975   3.810   6.552 -2.4933 -0.1143 -2.2815
 9559SOL     OW30117   2.677   4.531   6.245 -0.2958  0.2588  0.2302
 9559SOL    HW130118   2.643   4.500   6.329 -0.6554  1.0480  0.3885
 9559SOL    HW230119   2.772   4.531   6.257 -0.2985 -0.5815  0.2883
 9560SOL     OW30120   2.713   4.475   7.194  0.4184 -0.0060 -0.5901
 9560SOL    HW130121   2.767   4.523   7.132  1.8650 -0.5937  0.1638
 9560SOL    HW230122   2.774   4.414   7.236 -0.8982 -0.8855  0.1025
 9561SOL     OW30123   3.153   4.464   7.318 -0.0561  0.3191 -0.1435
 9561SOL    HW130124   3.233   4.510   7.291  0.4971 -0.2756  0.4324
 9561SOL    HW230125   3.185   4.386   7.363 -0.9693  0.1921  0.3026
 9562SOL     OW30126   2.975   4.669   7.318 -0.4303  0.1663 -0.0345
 9562SOL    HW130127   3.016   4.724   7.251 -1.3188  0.2199 -0.5507
 9562SOL    HW230128   3.027   4.588   7.317  1.4688  1.2996  1.3837
 9563SOL     OW30129   2.779   3.477   6.671  0.1990 -0.5726  0.3343
 9563SOL    HW130130   2.777   3.494   6.765  0.2094 -3.4903  0.9301
 9563SOL    HW230131   2.692   3.500   6.640 -0.0755 -0.4302  1.1941
 9564SOL     OW30132   2.727   3.875   6.415  0.1870  0.1229 -0.2531
 9564SOL    HW130133   2.718   3.815   6.489  0.7316  1.0095  0.5578
 9564SOL    HW230134   2.814   3.914   6.427 -1.1590  3.1236  0.8619
 9565SOL     OW30135   1.506   2.867   6.379 -0.4735  0.0843 -0.2466
 9565SOL    HW130136   1.568   2.800   6.408 -1.0062 -0.4508 -0.3055
 9565SOL    HW230137   1.560   2.937   6.343  0.0856 -1.4978 -2.7659
 9566SOL     OW30138   2.084   5.995   9.127  0.0566 -0.8266 -0.4417
 9566SOL    HW130139   2.083   6.023   9.036 -2.8309  1.3895  0.1286
 9566SOL    HW230140   2.161   6.039   9.164  1.2833 -1.7792 -1.7310
 9567SOL     OW30141   2.515   5.237   6.710  0.0509  0.5557 -0.1257
 9567SOL    HW130142   2.480   5.149   6.696  0.7644  0.3624 -0.7840
 9567SOL    HW230143   2.602   5.223   6.747 -0.5331  1.0268  1.5106
 9568SOL     OW30144   3.016   4.767   7.836 -0.0691 -0.0490  1.0730
 9568SOL    HW130145   3.060   4.852   7.844  0.0441 -0.1414  1.4335
 9568SOL    HW230146   2.997   4.759   7.742  0.6729 -0.0041  0.9126
 9569SOL     OW30147   1.275   4.331   4.801 -0.4142  0.2910 -0.0860
 9569SOL    HW130148   1.346   4.267   4.793 -0.7318  0.0065 -0.6165
 9569SOL    HW230149   1.216   4.294   4.866 -0.8857 -0.2244 -0.8040
 9570SOL     OW30150   0.856   2.289   6.624  0.0987 -0.2541 -0.0216
 9570SOL    HW130151   0.811   2.317   6.543 -1.0242  0.2387  0.7437
 9570SOL    HW230152   0.948   2.283   6.599  0.1023  1.9958 -0.8147
 9571SOL     OW30153   0.574   6.722   5.806 -0.2094 -0.1468 -0.1243
 9571SOL    HW130154   0.658   6.769   5.810  0.0203 -0.4818 -0.8844
 9571SOL    HW230155   0.591   6.641   5.854 -0.7740  0.7582  1.6942
 9572SOL     OW30156   3.676   4.567   6.137  0.4049 -0.7280  0.5864
 9572SOL    HW130157   3.632   4.651   6.134 -0.0517 -0.9257  1.5566
 9572SOL    HW230158   3.609   4.505   6.166  0.7482 -1.4240 -0.0561
 9573SOL     OW30159   3.351   4.018   7.027 -0.1383 -0.1238  0.0678
 9573SOL    HW130160   3.371   3.929   6.996  0.4657  0.7398 -2.2536
 9573SOL    HW230161   3.284   4.049   6.966  1.8387  2.0723 -1.1386
 9574SOL     OW30162   1.441   3.318   7.526  0.4882  0.3451  0.0201
 9574SOL    HW130163   1.511   3.316   7.591 -1.7652  1.3402  2.7073
 9574SOL    HW230164   1.452   3.236   7.477  1.1721 -1.5415  3.0342
 9575SOL     OW30165   2.225   6.975   6.998 -0.2538 -0.2843 -0.5284
 9575SOL    HW130166   2.195   6.978   7.089  1.5867  0.1782  0.0990
 9575SOL    HW230167   2.317   6.951   7.004 -0.0173  0.0826 -2.2608
 9576SOL     OW30168   1.785   5.604   6.750  0.2837  0.1089 -0.1470
 9576SOL    HW130169   1.833   5.676   6.789 -0.1508 -0.1713  0.9552
 9576SOL    HW230170   1.813   5.527   6.799 -0.3785 -0.2419 -0.3055
 9577SOL     OW30171   2.277   4.064   7.400 -0.1898 -0.2090  0.6278
 9577SOL    HW130172   2.348   4.008   7.430 -0.4203 -1.0269 -0.3112
 9577SOL    HW230173   2.317   4.120   7.334 -0.2425 -0.1099  0.6787
 9578SOL     OW30174   1.671   5.822   6.481 -0.1935 -0.8268 -0.2552
 9578SOL    HW130175   1.665   5.819   6.385  1.8645  0.4358 -0.4969
 9578SOL    HW230176   1.709   5.738   6.506 -3.3592 -2.3768 -0.1757
 9579SOL     OW30177   1.036   5.591   5.851  0.6839  0.0371  0.3726
 9579SOL    HW130178   0.974   5.631   5.789 -0.6282 -1.7634  0.4356
 9579SOL    HW230179   0.989   5.590   5.934  1.0688 -0.6771  0.5879
 9580SOL     OW30180   1.984   6.489   6.548  0.3191  0.2369 -0.0208
 9580SOL    HW130181   1.917   6.430   6.516  0.7881  0.4308 -1.4293
 9580SOL    HW230182   2.045   6.433   6.597 -0.1085 -0.1673  0.0483
 9581SOL     OW30183   2.937   4.926   6.180  0.2532 -0.3590 -0.4154
 9581SOL    HW130184   2.873   4.976   6.231  0.6342  1.6773 -1.7922
 9581SOL    HW230185   2.998   4.892   6.246  1.2502  2.9088  0.5696
 9582SOL     OW30186   3.994   3.979   6.750 -0.1278  0.3266 -0.1725
 9582SOL    HW130187   3.985   3.936   6.665  0.3196 -0.3022  0.0923
 9582SOL    HW230188   4.073   3.941   6.788 -0.7333  0.0615  0.8509
 9583SOL     OW30189   1.883   4.215   4.721  0.0695 -0.0891 -0.1086
 9583SOL    HW130190   1.865   4.238   4.630 -1.2481 -0.5826  0.0088
 9583SOL    HW230191   1.912   4.297   4.761 -0.9865  0.5207 -0.5670
 9584SOL     OW30192   2.134   3.453   7.312  0.4155 -0.0851 -0.6153
 9584SOL    HW130193   2.166   3.532   7.356  0.0044  0.1614 -0.7571
 9584SOL    HW230194   2.193   3.442   7.238  0.1727  0.3771 -0.8827
 9585SOL     OW30195   3.661   5.339   7.942  0.0347 -0.2447 -0.0065
 9585SOL    HW130196   3.596   5.272   7.921 -1.7476  1.6825 -0.9163
 9585SOL    HW230197   3.626   5.383   8.019  1.6570 -0.8834  1.1564
 9586SOL     OW30198   4.033   3.922   7.083 -0.3092  0.5016  0.4920
 9586SOL    HW130199   4.109   3.973   7.056  0.7158  0.0844  2.3509
 9586SOL    HW230200   4.070   3.853   7.139 -2.0889  0.4711  1.7028
 9587SOL     OW30201   2.003   4.838   5.944 -0.0676  0.3445 -0.0459
 9587SOL    HW130202   2.016   4.779   6.018  0.0659  0.0231 -0.3232
 9587SOL    HW230203   2.086   4.885   5.935 -0.2056  0.6465  0.2343
 9588SOL     OW30204   2.485   4.691   6.450  0.3673  0.9150 -0.0838
 9588SOL    HW130205   2.575   4.689   6.481 -0.4956  1.4564  2.7971
 9588SOL    HW230206   2.459   4.599   6.446  0.0060  0.7770  2.8462
 9589SOL     OW30207   2.649   3.756   6.182  0.1821  0.0647  0.6118
 9589SOL    HW130208   2.695   3.788   6.259  1.5678 -1.0704  0.3038
 9589SOL    HW230209   2.705   3.687   6.148  0.0757  1.1369 -1.9508
 9590SOL     OW30210   2.395   2.897   6.336 -0.0516  0.0920  1.0238
 9590SOL    HW130211   2.463   2.832   6.353  0.4295  0.2291 -0.2433
 9590SOL    HW230212   2.442   2.980   6.327 -0.4958  0.3596  1.1583
 9591SOL     OW30213   2.576   3.620   5.668 -0.1368  0.2765  0.5969
 9591SOL    HW130214   2.517   3.665   5.608 -1.1857 -2.4092 -0.5317
 9591SOL    HW230215   2.651   3.594   5.614 -0.0445 -0.2430  0.9636
 9592SOL     OW30216   2.982   4.725   6.478  0.2205  0.1476  0.0048
 9592SOL    HW130217   3.072   4.737   6.449  0.2391  0.4063  0.1749
 9592SOL    HW230218   2.956   4.641   6.440  0.5247  0.0842 -0.0609
 9593SOL     OW30219   3.284   4.872   5.083 -0.0596  0.4097  0.2241
 9593SOL    HW130220   3.303   4.903   5.172 -1.7093 -0.4145  0.9115
 9593SOL    HW230221   3.231   4.942   5.044 -0.3090  0.2737  0.3140
 9594SOL     OW30222   1.873   3.499   7.184  0.2597  0.1047  0.3081
 9594SOL    HW130223   1.906   3.564   7.122  0.1585  0.7199  0.8853
 9594SOL    HW230224   1.951   3.469   7.231  0.0079  1.8632  1.9605
 9595SOL     OW30225   2.195   5.477   5.267 -0.1471 -0.0100  0.2166
 9595SOL    HW130226   2.186   5.570   5.247  1.7106  0.1034 -0.2858
 9595SOL    HW230227   2.241   5.475   5.351 -0.9330 -0.4886  0.6447
 9596SOL     OW30228   2.938   4.636   5.537  0.3678  0.2336  0.1121
 9596SOL    HW130229   2.906   4.614   5.450 -1.0497  1.1477  0.3696
 9596SOL    HW230230   3.033   4.648   5.526  0.3595 -0.6945 -1.0713
 9597SOL     OW30231   3.034   5.633   7.051 -0.3418 -0.2490 -0.0198
 9597SOL    HW130232   3.123   5.613   7.079 -0.3040 -0.5764 -0.3642
 9597SOL    HW230233   2.978   5.587   7.114 -0.2583 -2.0804 -1.2064
 9598SOL     OW30234   3.100   5.219   6.482  0.2268  0.6203  0.7467
 9598SOL    HW130235   3.148   5.145   6.444 -1.0183 -1.0239  2.2139
 9598SOL    HW230236   3.167   5.269   6.529  1.1561  0.6620 -0.5723
 9599SOL     OW30237   1.649   4.567   5.464  0.0935 -0.6048  0.3868
 9599SOL    HW130238   1.689   4.560   5.551  0.4852  1.0715  0.3857
 9599SOL    HW230239   1.590   4.642   5.472  0.6608  0.0091 -0.9881
 9600SOL     OW30240   1.099   6.192   7.299 -0.0216 -0.4695 -0.3391
 9600SOL    HW130241   1.155   6.270   7.304 -0.5948 -0.1266  1.1594
 9600SOL    HW230242   1.010   6.226   7.307 -0.3584 -1.1628 -1.0844
 9601SOL     OW30243   2.826   5.843   6.664 -0.1787  0.6504 -0.2107
 9601SOL    HW130244   2.918   5.821   6.654 -0.0250  0.8468  0.6483
 9601SOL    HW230245   2.784   5.810   6.585  0.5823  0.3040 -0.4763
 9602SOL     OW30246   3.551   4.733   6.365  0.2083 -0.6061  0.1936
 9602SOL    HW130247   3.561   4.778   6.281  1.0801 -0.7066  0.2297
 9602SOL    HW230248   3.524   4.644   6.341 -0.1481 -0.4628  0.0550
 9603SOL     OW30249   5.763   3.554   5.730  0.5777  0.4459 -0.3416
 9603SOL    HW130250   5.709   3.509   5.665  0.8369 -1.6571  0.8122
 9603SOL    HW230251   5.700   3.600   5.786  0.0216 -0.9255  0.2107
 9604SOL     OW30252   1.716   4.747   4.238  0.5779  0.6351  0.0303
 9604SOL    HW130253   1.745   4.657   4.249 -0.9646  0.2597  1.2716
 9604SOL    HW230254   1.716   4.784   4.326  0.0407  1.4969 -0.3123
 9605SOL     OW30255   2.337   3.770   6.877  0.2746 -0.1329 -0.1010
 9605SOL    HW130256   2.251   3.810   6.880 -0.1551 -1.0362  0.1770
 9605SOL    HW230257   2.387   3.823   6.815 -0.9231 -0.4359 -1.3501
 9606SOL     OW30258   2.462   4.877   5.932 -0.6973  0.2165  0.1336
 9606SOL    HW130259   2.491   4.794   5.969  0.1967  0.6373  0.4182
 9606SOL    HW230260   2.370   4.863   5.908 -0.6375 -0.7520  0.4482
 9607SOL     OW30261   2.640   4.260   6.862 -0.2503 -0.5456  0.2629
 9607SOL    HW130262   2.678   4.224   6.782  0.5224 -2.7410  1.5389
 9607SOL    HW230263   2.712   4.260   6.925 -1.6436 -2.3368  1.9905
 9608SOL     OW30264   2.236   4.442   7.942 -0.1350  0.5223  0.1182
 9608SOL    HW130265   2.288   4.362   7.929  2.2304  1.8779  0.5469
 9608SOL    HW230266   2.284   4.491   8.008 -1.0290  2.6898 -0.7575
 9609SOL     OW30267   3.806   3.755   6.988 -0.1214  0.3145 -0.0880
 9609SOL    HW130268   3.856   3.835   7.000  0.6335 -0.1786  0.1159
 9609SOL    HW230269   3.861   3.700   6.932  0.3318 -0.8857  1.4725
 9610SOL     OW30270   3.334   6.028   7.165  0.6258 -0.2654 -0.2068
 9610SOL    HW130271   3.354   6.121   7.156  0.6929 -0.3456 -0.9620
 9610SOL    HW230272   3.409   5.983   7.125  0.4657 -0.6399 -0.0974
 9611SOL     OW30273   3.467   4.367   7.324 -0.2765  0.0016 -0.2143
 9611SOL    HW130274   3.519   4.352   7.245 -1.4177 -0.0249 -0.9842
 9611SOL    HW230275   3.433   4.456   7.313 -2.1162 -0.7391 -0.7716
 9612SOL     OW30276   0.699   5.207   7.178  0.4875  0.0270  0.1330
 9612SOL    HW130277   0.644   5.261   7.236 -0.0740 -0.2672 -0.1228
 9612SOL    HW230278   0.764   5.168   7.237 -0.4510 -0.7534  0.6846
 9613SOL     OW30279   1.509   5.416   8.580  0.5161  0.1270  0.0938
 9613SOL    HW130280   1.498   5.490   8.639 -2.7266 -0.4365  0.3901
 9613SOL    HW230281   1.493   5.339   8.635  2.5898 -0.7713 -0.4754
 9614SOL     OW30282   3.183   4.127   6.845  0.1325 -0.3728  0.1881
 9614SOL    HW130283   3.090   4.152   6.847 -0.5951 -2.8236  0.1260
 9614SOL    HW230284   3.198   4.097   6.756  0.6821 -1.0395  0.4971
 9615SOL     OW30285   2.327   5.568   8.082 -0.3018  0.3178 -0.1202
 9615SOL    HW130286   2.299   5.511   8.010  0.6018  0.4223 -0.5682
 9615SOL    HW230287   2.344   5.652   8.041 -0.9674  0.7270  0.4326
 9616SOL     OW30288   2.411   5.969   6.555  0.0754 -0.0706 -0.2091
 9616SOL    HW130289   2.382   5.881   6.579  0.7522  0.6088  3.8395
 9616SOL    HW230290   2.503   5.958   6.531  0.2485 -0.4631  0.5958
 9617SOL     OW30291   2.228   4.359   5.783 -0.1221 -0.5977 -0.5792
 9617SOL    HW130292   2.274   4.275   5.787  0.6708 -0.1224  0.9207
 9617SOL    HW230293   2.243   4.390   5.693 -0.4921 -2.0785 -1.1707
 9618SOL     OW30294   3.061   5.505   5.684  0.0498 -0.2327  0.0235
 9618SOL    HW130295   3.078   5.512   5.590 -0.5751  0.3869 -0.0502
 9618SOL    HW230296   3.129   5.446   5.717  0.8029  0.2330 -0.6703
 9619SOL     OW30297   3.393   4.439   6.736  0.1770  0.1918 -0.3645
 9619SOL    HW130298   3.387   4.394   6.820 -1.1266 -3.7080 -2.3040
 9619SOL    HW230299   3.487   4.446   6.720  0.5018  2.3193  1.9227
 9620SOL     OW30300   0.696   4.819   7.818  0.2477 -0.3838 -0.0873
 9620SOL    HW130301   0.732   4.773   7.894  2.5171  0.2456 -0.6900
 9620SOL    HW230302   0.631   4.760   7.782  0.2842 -1.3869  1.4150
 9621SOL     OW30303   1.410   4.764   7.730 -0.0690  0.1661  0.3524
 9621SOL    HW130304   1.460   4.694   7.687  1.3170  0.4040  1.4911
 9621SOL    HW230305   1.331   4.721   7.762 -0.8589 -0.1476 -1.8343
 9622SOL     OW30306   2.656   2.104   6.107 -0.0207 -0.0510 -0.5615
 9622SOL    HW130307   2.594   2.158   6.058  0.4284 -2.0231 -3.5588
 9622SOL    HW230308   2.606   2.026   6.131  0.6444 -0.5710 -0.8420
 9623SOL     OW30309   3.636   2.541   6.429 -0.2248 -0.5761 -0.8383
 9623SOL    HW130310   3.662   2.485   6.502  0.6827 -1.0830 -1.5294
 9623SOL    HW230311   3.553   2.580   6.457 -0.2434 -1.2998  0.1675
 9624SOL     OW30312   0.903   3.314   6.724  0.3244 -0.2739 -0.0435
 9624SOL    HW130313   0.970   3.260   6.767 -1.0473 -0.2956  2.2164
 9624SOL    HW230314   0.927   3.404   6.745  1.7948  0.0431 -2.6052
 9625SOL     OW30315   3.612   5.754   5.877  0.3657  0.2516 -0.4882
 9625SOL    HW130316   3.661   5.691   5.931  0.5995 -0.0115 -0.9884
 9625SOL    HW230317   3.520   5.737   5.897  0.4701  0.6462  0.3540
 9626SOL     OW30318   2.073   4.291   6.497 -0.1048  0.0113  0.3707
 9626SOL    HW130319   2.127   4.300   6.419  1.2331 -1.2419  1.0974
 9626SOL    HW230320   2.111   4.351   6.560 -1.9362  1.9542 -0.2529
 9627SOL     OW30321   2.289   4.461   7.385  0.0410 -0.6513 -0.3600
 9627SOL    HW130322   2.236   4.412   7.322  1.0743 -2.3015 -0.0251
 9627SOL    HW230323   2.368   4.408   7.395  1.1968  1.0836  0.1097
 9628SOL     OW30324   2.301   4.060   6.085  0.6228 -0.0196 -0.6361
 9628SOL    HW130325   2.263   4.143   6.114 -1.2930 -0.4218 -1.7977
 9628SOL    HW230326   2.334   4.077   5.997 -0.9328 -0.7238 -1.4112
 9629SOL     OW30327   0.198   3.056   6.311 -0.0611 -0.0256  0.0664
 9629SOL    HW130328   0.150   3.096   6.238 -0.7770  0.0958  0.5940
 9629SOL    HW230329   0.230   3.131   6.362  2.7893 -0.0082 -1.5545
 9630SOL     OW30330   1.389   4.219   6.139 -0.5323 -0.2853 -0.0609
 9630SOL    HW130331   1.470   4.197   6.093 -0.8975  1.7469 -1.8236
 9630SOL    HW230332   1.386   4.314   6.139 -1.8773 -0.2705  1.9411
 9631SOL     OW30333   2.744   6.447   7.322  0.2013  0.1597 -0.0721
 9631SOL    HW130334   2.826   6.426   7.276  0.1766  1.7497 -0.8844
 9631SOL    HW230335   2.772   6.467   7.411  0.5709 -0.2565 -0.0890
 9632SOL     OW30336   4.312   5.310   6.353 -0.0254  0.1205  0.1618
 9632SOL    HW130337   4.344   5.280   6.268 -1.0734  1.0014 -0.5696
 9632SOL    HW230338   4.275   5.231   6.394 -0.4933 -0.1025 -0.6665
 9633SOL     OW30339   1.686   5.021   6.727  0.0695 -0.8731 -0.1673
 9633SOL    HW130340   1.608   4.971   6.704 -1.9573  2.5516 -1.4482
 9633SOL    HW230341   1.684   5.027   6.822  0.6055 -3.3255  0.0848
 9634SOL     OW30342   2.187   2.878   5.822  0.4435 -0.8194  0.0062
 9634SOL    HW130343   2.213   2.903   5.911  0.3414 -0.3325 -0.1000
 9634SOL    HW230344   2.162   2.960   5.780 -0.7458 -1.1861 -0.0644
 9635SOL     OW30345   2.904   4.345   6.574  0.0561  0.6655  0.2333
 9635SOL    HW130346   2.998   4.326   6.575  0.0903  0.8327  0.1930
 9635SOL    HW230347   2.890   4.391   6.492 -0.3712 -0.8683 -0.5911
 9636SOL     OW30348   2.256   3.484   5.898 -0.4651  0.2590 -0.4296
 9636SOL    HW130349   2.227   3.421   5.964  3.4676 -2.0073 -0.5480
 9636SOL    HW230350   2.286   3.560   5.948  0.2788 -0.4663  0.2553
 9637SOL     OW30351   1.971   3.400   8.110  0.5216  0.1513 -0.0097
 9637SOL    HW130352   1.995   3.421   8.201  3.7377  0.2914 -0.7777
 9637SOL    HW230353   2.031   3.452   8.057  0.3880 -1.7553 -2.1822
 9638SOL     OW30354   2.794   4.123   6.652  0.1139  0.1764  0.1748
 9638SOL    HW130355   2.844   4.041   6.653 -0.1520  0.0149  0.3369
 9638SOL    HW230356   2.860   4.191   6.637  0.3099 -0.0851 -0.1876
 9639SOL     OW30357   3.127   3.796   7.122 -0.4128 -0.1989 -0.3439
 9639SOL    HW130358   3.151   3.769   7.033 -0.2100 -1.1032 -0.0276
 9639SOL    HW230359   3.211   3.800   7.168 -0.3979  1.3177 -0.4493
 9640SOL     OW30360   1.166   3.358   7.495  0.4889  0.6103  0.1124
 9640SOL    HW130361   1.261   3.370   7.495  0.6201  0.2151 -2.8150
 9640SOL    HW230362   1.132   3.440   7.460 -0.1992  0.4082  0.2923
 9641SOL     OW30363   1.094   4.957   6.109  0.0212  0.4349  0.0904
 9641SOL    HW130364   1.041   4.889   6.068  2.0175 -0.8400 -0.5578
 9641SOL    HW230365   1.067   4.955   6.201 -0.7249 -0.4929 -0.1240
 9642SOL     OW30366   1.836   5.907   6.722 -0.3704 -0.1272  0.6192
 9642SOL    HW130367   1.769   5.895   6.789 -1.0864 -0.7947 -0.2002
 9642SOL    HW230368   1.788   5.907   6.639  0.1795  3.0980  0.1619
 9643SOL     OW30369   3.693   4.530   6.667  0.2366  0.1914 -0.5969
 9643SOL    HW130370   3.672   4.454   6.614  0.9268  0.2785 -1.0064
 9643SOL    HW230371   3.783   4.553   6.641  1.2319 -0.7467  1.7665
 9644SOL     OW30372   7.574   4.896   8.946 -0.0328 -0.4073 -0.0456
 9644SOL    HW130373   7.581   4.857   9.033 -1.5126  0.0754  0.3105
 9644SOL    HW230374   7.480   4.900   8.929  0.2189  0.0341 -1.4296
 9645SOL     OW30375   1.970   4.873   7.374  0.2324 -0.0429 -0.0617
 9645SOL    HW130376   1.880   4.842   7.389 -0.2537  1.0697 -0.5658
 9645SOL    HW230377   2.024   4.795   7.383 -0.4806 -0.3113  2.9216
 9646SOL     OW30378   2.604   4.762   4.008  0.3999 -0.7273  0.3238
 9646SOL    HW130379   2.616   4.696   3.939  1.2942 -0.7926  0.5248
 9646SOL    HW230380   2.690   4.768   4.049  0.3785  0.7069  0.1907
 9647SOL     OW30381   4.196   5.089   6.460 -0.3755  0.0500  0.3387
 9647SOL    HW130382   4.154   5.019   6.410  1.1381 -0.7429  0.0945
 9647SOL    HW230383   4.249   5.042   6.525  1.6866  0.8670 -0.6444
 9648SOL     OW30384   1.603   5.361   8.040 -0.8632 -0.0707  0.0311
 9648SOL    HW130385   1.560   5.439   8.005  0.2721  0.5635 -0.0113
 9648SOL    HW230386   1.612   5.379   8.134  0.0653  0.2072 -0.0936
 9649SOL     OW30387   2.511   3.080   5.652 -0.4737 -0.5771  0.0112
 9649SOL    HW130388   2.484   3.172   5.649 -0.2149 -0.3730  2.0818
 9649SOL    HW230389   2.599   3.079   5.616 -0.3159  0.0821  0.3492
 9650SOL     OW30390   3.009   6.294   6.483  0.1351  0.0229  0.1449
 9650SOL    HW130391   2.919   6.324   6.497  0.2744 -0.0141  1.2667
 9650SOL    HW230392   3.050   6.363   6.431 -0.5041  0.1099 -0.2417
 9651SOL     OW30393   1.691   2.847   5.952  0.2929  0.3334 -0.2054
 9651SOL    HW130394   1.773   2.854   5.902 -0.1458 -1.1449 -1.2044
 9651SOL    HW230395   1.710   2.784   6.021  0.8259  2.2021  1.4366
 9652SOL     OW30396   1.165   4.830   8.786  0.0926  0.4538 -0.3281
 9652SOL    HW130397   1.122   4.899   8.836  1.1015  1.5143 -0.8704
 9652SOL    HW230398   1.098   4.797   8.727 -0.8078 -0.0540  0.9511
 9653SOL     OW30399   2.699   5.409   5.629 -0.5111  0.9365 -0.0633
 9653SOL    HW130400   2.727   5.326   5.592  0.6311  1.9859 -1.7024
 9653SOL    HW230401   2.706   5.471   5.556  0.6984  2.9005  1.6234
 9654SOL     OW30402   3.704   4.809   6.733  0.4641 -0.0192 -0.3651
 9654SOL    HW130403   3.728   4.718   6.720 -0.5231 -0.2395 -0.7742
 9654SOL    HW230404   3.720   4.825   6.825 -0.1104 -0.8588 -0.1022
 9655SOL     OW30405   4.009   4.410   6.922  0.0749 -0.1250 -0.3618
 9655SOL    HW130406   4.024   4.505   6.926 -0.7719 -0.0125  0.2202
 9655SOL    HW230407   3.957   4.390   6.999 -0.0267 -1.0230 -0.6511
 9656SOL     OW30408   1.376   3.696   5.153  0.5245  0.3100  0.0463
 9656SOL    HW130409   1.310   3.685   5.084 -1.2490 -0.7399  1.7787
 9656SOL    HW230410   1.460   3.689   5.108 -0.5381 -1.6909 -1.8419
 9657SOL     OW30411   1.032   5.622   7.441  0.4312 -0.7605  0.2157
 9657SOL    HW130412   0.944   5.650   7.414  0.6059  1.2686  1.5659
 9657SOL    HW230413   1.018   5.534   7.477 -0.5891 -1.4998 -1.8270
 9658SOL     OW30414   2.452   5.007   6.922 -0.0705 -0.0065 -0.1116
 9658SOL    HW130415   2.523   4.972   6.868  0.2894  2.3763 -1.3482
 9658SOL    HW230416   2.492   5.021   7.008  0.8884  0.9681 -0.6945
 9659SOL     OW30417   2.080   2.818   7.674 -0.2966 -0.0949 -0.3205
 9659SOL    HW130418   2.032   2.861   7.603  1.0696 -0.2686 -1.4025
 9659SOL    HW230419   2.129   2.888   7.716 -2.1233  0.2541  1.4106
 9660SOL     OW30420   2.237   4.643   6.102 -0.3692  0.4022  0.2013
 9660SOL    HW130421   2.332   4.643   6.099 -0.2707  0.0759  2.0483
 9660SOL    HW230422   2.216   4.652   6.195 -2.1563  1.2643 -0.2384
 9661SOL     OW30423   3.959   5.026   4.812  0.2500 -0.3696  0.7198
 9661SOL    HW130424   3.882   5.009   4.866  0.1845  0.8101  1.0358
 9661SOL    HW230425   4.032   5.023   4.873  0.1533  1.1962  0.9768
 9662SOL     OW30426   2.474   5.269   7.295 -0.2212 -0.1941 -0.2997
 9662SOL    HW130427   2.455   5.313   7.378 -1.5537  1.0223 -1.2033
 9662SOL    HW230428   2.466   5.175   7.315  1.0304  0.0008  1.2797
 9663SOL     OW30429   2.714   3.782   6.672 -0.3328 -0.0137  0.1383
 9663SOL    HW130430   2.798   3.826   6.683 -0.3439 -0.2389  1.2784
 9663SOL    HW230431   2.711   3.718   6.744 -1.7367  0.4174  0.4968
 9664SOL     OW30432   2.231   3.751   4.581 -0.0383  0.1842 -0.8360
 9664SOL    HW130433   2.269   3.668   4.550 -1.0042  0.0724 -1.7711
 9664SOL    HW230434   2.213   3.735   4.674  0.7058 -0.3132 -0.7695
 9665SOL     OW30435   2.219   5.234   5.948  0.2486 -0.9360  0.0904
 9665SOL    HW130436   2.265   5.170   6.002  1.0687 -2.1852 -1.9922
 9665SOL    HW230437   2.285   5.268   5.888 -0.4565  1.0085  0.3188
 9666SOL     OW30438   1.462   4.930   7.065 -0.1974 -0.1243  0.2774
 9666SOL    HW130439   1.476   5.012   7.111  0.1902 -0.7659  1.3459
 9666SOL    HW230440   1.549   4.905   7.033 -0.3306 -0.0721 -0.1295
 9667SOL     OW30441   1.703   3.962   6.259 -0.1549  0.8156 -0.0336
 9667SOL    HW130442   1.694   3.904   6.183 -0.8599  2.0716 -0.9377
 9667SOL    HW230443   1.749   4.039   6.226 -1.8587  2.0753  0.3893
 9668SOL     OW30444   4.329   5.193   4.931  0.1718 -0.0586 -0.2513
 9668SOL    HW130445   4.267   5.129   4.965 -0.5301 -0.5811 -2.3366
 9668SOL    HW230446   4.381   5.144   4.868  1.1745  0.9113 -0.2012
 9669SOL     OW30447   2.392   4.982   7.261  0.0313  0.0224  1.0116
 9669SOL    HW130448   2.487   4.976   7.255  0.2009  0.9825  2.3466
 9669SOL    HW230449   2.368   4.917   7.327 -0.3251 -0.6381  0.2552
 9670SOL     OW30450   3.236   4.583   6.896 -0.9327 -0.2372  0.0160
 9670SOL    HW130451   3.165   4.523   6.920  1.1822 -2.3304  1.5023
 9670SOL    HW230452   3.290   4.533   6.835  0.9207  0.1005  1.3210
 9671SOL     OW30453   2.125   4.760   6.789 -0.2407 -0.0294  0.0931
 9671SOL    HW130454   2.193   4.728   6.729 -0.8980  0.2853 -0.8374
 9671SOL    HW230455   2.170   4.826   6.842 -0.2790  1.7741 -1.9769
 9672SOL     OW30456   0.516   5.540   4.959  0.1194  0.0894 -0.1860
 9672SOL    HW130457   0.511   5.631   4.929  1.5353 -0.3670 -1.9935
 9672SOL    HW230458   0.431   5.522   4.998 -1.0517  1.4499 -1.9858
 9673SOL     OW30459   4.082   3.683   7.250 -0.5000  1.1029 -0.2072
 9673SOL    HW130460   4.173   3.671   7.223 -0.0083  1.0700  1.3559
 9673SOL    HW230461   4.033   3.620   7.197  0.4429  0.8022 -0.7428
 9674SOL     OW30462   2.238   2.222   5.907 -0.2433  0.6017  0.7983
 9674SOL    HW130463   2.198   2.164   5.973  1.3704 -1.9750 -0.3387
 9674SOL    HW230464   2.190   2.202   5.826 -0.0064  1.2607  0.4940
 9675SOL     OW30465   2.186   4.818   8.002 -0.3557 -1.2284 -0.5593
 9675SOL    HW130466   2.169   4.912   7.996 -0.3248 -1.3244 -2.8823
 9675SOL    HW230467   2.265   4.805   7.949 -0.5947 -2.6299 -0.5933
 9676SOL     OW30468   2.293   2.972   7.738 -0.8662 -0.0233  0.1650
 9676SOL    HW130469   2.384   2.953   7.758 -1.0177  0.0805  0.9968
 9676SOL    HW230470   2.290   2.982   7.643 -0.1225 -0.5948  0.0782
 9677SOL     OW30471   0.413   4.226   5.089  0.3161  0.1896 -0.2430
 9677SOL    HW130472   0.456   4.160   5.143  2.4333  0.7163 -1.1614
 9677SOL    HW230473   0.432   4.309   5.133 -0.3664  0.3914 -0.3142
 9678SOL     OW30474   3.920   3.421   7.210 -0.2237 -0.4314  0.7691
 9678SOL    HW130475   3.863   3.375   7.149 -0.2692  0.2660  0.2829
 9678SOL    HW230476   3.864   3.487   7.251  0.4407  0.9528 -0.4616
 9679SOL     OW30477   1.955   3.451   6.295 -0.1467 -0.1496 -0.3708
 9679SOL    HW130478   1.986   3.518   6.233  0.7728 -0.2139 -0.0065
 9679SOL    HW230479   1.908   3.500   6.361 -0.2474  0.0392 -0.5794
 9680SOL     OW30480   3.205   4.666   5.532 -0.4699  0.5054  0.5463
 9680SOL    HW130481   3.207   4.684   5.626 -1.0546 -0.3870  0.7391
 9680SOL    HW230482   3.271   4.598   5.520 -1.9162 -0.9619  0.6809
 9681SOL     OW30483   1.939   2.543   6.466 -0.0433 -0.4028 -0.0446
 9681SOL    HW130484   1.989   2.476   6.419  0.4375 -2.0504  2.6058
 9681SOL    HW230485   1.976   2.543   6.554 -3.0215  0.1594  1.3119
 9682SOL     OW30486   3.980   5.216   6.762 -0.1899 -0.1504 -0.0321
 9682SOL    HW130487   3.924   5.200   6.838 -2.0821  0.4774 -1.2261
 9682SOL    HW230488   3.964   5.142   6.704 -1.1364  0.8530 -1.1094
 9683SOL     OW30489   4.014   3.046   7.771 -0.6210 -0.0834 -0.1538
 9683SOL    HW130490   3.946   3.113   7.778 -0.9282 -0.3889 -0.1717
 9683SOL    HW230491   4.087   3.080   7.823 -1.1285 -0.1649  0.6275
 9684SOL     OW30492   1.901   0.097   7.632 -0.3792 -0.3158  0.0293
 9684SOL    HW130493   1.995   0.087   7.647 -0.6389 -0.2707  1.9252
 9684SOL    HW230494   1.878   0.026   7.573  0.5068 -1.5525  1.1147
 9685SOL     OW30495   3.435   4.490   6.274 -0.4035 -0.3613 -0.3368
 9685SOL    HW130496   3.439   4.407   6.320  0.1972  0.3238  0.8654
 9685SOL    HW230497   3.345   4.521   6.287 -0.1428 -0.0106  0.6834
 9686SOL     OW30498   1.865   1.473   6.341  0.6934 -0.1671  0.0450
 9686SOL    HW130499   1.858   1.378   6.326  1.0339 -0.1446 -0.2893
 9686SOL    HW230500   1.877   1.509   6.253 -3.1330  0.5650 -0.3596
 9687SOL     OW30501   3.588   4.151   7.457  0.1256  0.1564 -0.6732
 9687SOL    HW130502   3.583   4.087   7.386  0.7524  0.6773 -1.2036
 9687SOL    HW230503   3.530   4.222   7.430 -0.2273  0.0102 -0.2984
 9688SOL     OW30504   3.667   4.346   7.129 -0.0090  0.1117  0.1358
 9688SOL    HW130505   3.719   4.422   7.102 -1.4753  0.8242 -0.8255
 9688SOL    HW230506   3.731   4.282   7.158  1.6074  0.0688 -3.1289
 9689SOL     OW30507   2.692   5.012   4.363  0.3881 -0.3528 -0.0366
 9689SOL    HW130508   2.783   4.996   4.388  0.0335 -0.1222  1.5157
 9689SOL    HW230509   2.662   4.928   4.328  1.5513 -0.0697 -1.8704
 9690SOL     OW30510   3.507   4.898   6.942 -0.2565  0.1891 -0.1527
 9690SOL    HW130511   3.482   4.815   6.982 -0.0162  0.9242  1.6508
 9690SOL    HW230512   3.603   4.900   6.951 -0.2049  0.3874 -0.7432
 9691SOL     OW30513   0.797   3.639   8.261  0.0506  0.1721  0.1443
 9691SOL    HW130514   0.884   3.660   8.296  0.6820  0.5076 -1.5215
 9691SOL    HW230515   0.771   3.560   8.308  0.6872  0.7665  1.5732
 9692SOL     OW30516   2.595   4.406   6.472 -0.5863  0.1743 -0.2077
 9692SOL    HW130517   2.678   4.432   6.513 -0.9889 -0.1547  0.8304
 9692SOL    HW230518   2.589   4.312   6.488 -1.0431  0.1518 -0.5107
 9693SOL     OW30519   4.392   4.632   5.520  0.2738 -0.1185 -0.4220
 9693SOL    HW130520   4.457   4.703   5.522  1.7837 -1.4602  0.6891
 9693SOL    HW230521   4.318   4.666   5.569  0.7057  0.9138 -0.4490
 9694SOL     OW30522   1.432   5.705   7.661  0.3084  0.5032  0.4160
 9694SOL    HW130523   1.417   5.696   7.566 -1.3305  0.3855  0.6618
 9694SOL    HW230524   1.448   5.799   7.673  0.5508  0.5177  0.0324
 9695SOL     OW30525   2.040   5.334   7.251 -0.1203  0.3793  0.3916
 9695SOL    HW130526   2.096   5.298   7.182 -1.2268  2.1348 -1.5234
 9695SOL    HW230527   2.024   5.260   7.310  3.6123 -0.3827  0.7166
 9696SOL     OW30528   0.981   4.744   8.603 -0.1564 -0.4482 -0.0009
 9696SOL    HW130529   0.932   4.662   8.608  0.2501 -0.6143  2.9017
 9696SOL    HW230530   0.914   4.812   8.600 -0.5680 -0.7889  1.0075
 9697SOL     OW30531   3.642   4.087   6.768  0.4711  0.0064 -0.3050
 9697SOL    HW130532   3.710   4.107   6.831 -0.9282 -0.2039  1.3443
 9697SOL    HW230533   3.614   3.998   6.789 -0.1264 -0.0219 -1.1253
 9698SOL     OW30534   2.891   3.856   7.312 -0.1744 -0.2043 -0.1170
 9698SOL    HW130535   2.933   3.923   7.258  0.1193 -0.9056 -0.7675
 9698SOL    HW230536   2.959   3.831   7.375  0.3400 -1.1945 -1.0410
 9699SOL     OW30537   4.164   4.613   6.322  0.5898 -0.1352 -0.6335
 9699SOL    HW130538   4.165   4.556   6.245  0.3842 -0.5719 -0.3131
 9699SOL    HW230539   4.096   4.577   6.378 -1.0730  1.6868 -1.3647
 9700SOL     OW30540   1.582   3.124   7.858  0.0225 -0.1443  0.4110
 9700SOL    HW130541   1.611   3.179   7.786 -1.6791  0.7931  0.3867
 9700SOL    HW230542   1.584   3.035   7.823  0.5681  0.1501 -0.3210
 9701SOL     OW30543   2.491   4.890   6.268 -0.2636 -0.3220 -0.0183
 9701SOL    HW130544   2.453   4.835   6.336 -1.1463 -0.1603 -0.3669
 9701SOL    HW230545   2.487   4.837   6.189 -1.9358  0.5104 -0.5483
 9702SOL     OW30546   2.406   3.737   6.039  0.0640  0.2540  0.4886
 9702SOL    HW130547   2.480   3.717   6.096  1.3449  1.0126 -0.8363
 9702SOL    HW230548   2.355   3.801   6.089 -0.2164 -0.9429  1.7901
 9703SOL     OW30549   1.430   4.547   4.176  0.0415  0.0536 -0.6462
 9703SOL    HW130550   1.499   4.545   4.110  0.5917 -0.2411 -0.0665
 9703SOL    HW230551   1.472   4.585   4.253 -0.6654  0.6361 -0.5334
 9704SOL     OW30552   2.056   6.242   6.996 -0.1430  0.1361 -0.0591
 9704SOL    HW130553   2.091   6.217   7.082  0.1228  0.4892 -0.0673
 9704SOL    HW230554   2.125   6.221   6.934 -0.2689  0.0441 -0.1697
 9705SOL     OW30555   3.415   4.086   6.548 -0.6858 -0.4045 -0.0713
 9705SOL    HW130556   3.452   4.073   6.635  2.4746  0.3312 -1.1400
 9705SOL    HW230557   3.325   4.055   6.554  0.3839 -3.5373  2.5630
 9706SOL     OW30558   1.170   7.387   7.853  0.8712 -0.7614  1.0357
 9706SOL    HW130559   1.171   7.392   7.949 -0.2576 -0.2896  1.0385
 9706SOL    HW230560   1.129   7.302   7.833  1.2041 -0.9079  0.9672
 9707SOL     OW30561   2.079   3.807   6.407 -0.1566  0.1449  0.0790
 9707SOL    HW130562   2.049   3.888   6.364 -0.2959  0.8347  1.4317
 9707SOL    HW230563   2.082   3.743   6.336 -1.6248  0.9053 -0.7210
 9708SOL     OW30564   1.340   3.731   9.177  0.2164 -0.1952 -0.0732
 9708SOL    HW130565   1.381   3.806   9.136 -0.7092  0.4232  0.1123
 9708SOL    HW230566   1.394   3.713   9.254 -0.6282  1.4905  0.9557
 9709SOL     OW30567   0.949   2.040   9.086  0.1477 -0.4833  0.4045
 9709SOL    HW130568   1.018   2.044   9.153 -1.8386  1.6010  2.5405
 9709SOL    HW230569   0.904   1.957   9.103  0.0312 -0.2496  1.3012
 9710SOL     OW30570   2.557   5.091   9.285 -0.4441  0.2528 -0.0599
 9710SOL    HW130571   2.580   5.011   9.332 -0.7909 -0.0398 -0.3786
 9710SOL    HW230572   2.500   5.061   9.214  0.7291  0.5928 -1.1760
 9711SOL     OW30573   1.367   3.551   7.377 -0.4958  0.1105  0.5524
 9711SOL    HW130574   1.386   3.522   7.287 -0.0832  1.1199  0.2927
 9711SOL    HW230575   1.406   3.484   7.433 -0.5955 -0.4357 -0.0233
 9712SOL     OW30576   3.018   4.998   8.099 -0.4814 -0.0453  0.3133
 9712SOL    HW130577   3.030   4.979   8.192 -1.9561 -0.2414  0.4865
 9712SOL    HW230578   3.089   4.950   8.056  0.3085  0.1673  1.3340
 9713SOL     OW30579   1.795   3.748   8.006  0.5238  0.0261 -0.7560
 9713SOL    HW130580   1.889   3.738   7.996  0.3971  0.4593 -3.0089
 9713SOL    HW230581   1.763   3.766   7.917 -1.6932 -0.2090 -0.0825
 9714SOL     OW30582   7.968   3.245   7.065  0.0394  0.1173  0.2988
 9714SOL    HW130583   7.909   3.313   7.033  0.2396 -0.2555 -0.9408
 9714SOL    HW230584   7.929   3.163   7.032 -0.3969 -0.4329  2.0568
 9715SOL     OW30585   1.119   3.187   8.551 -0.4874 -0.1101 -0.2344
 9715SOL    HW130586   1.046   3.151   8.502 -1.8697  0.5454  1.2377
 9715SOL    HW230587   1.118   3.281   8.531 -1.7938  0.3752  1.8211
 9716SOL     OW30588   1.436   3.401   7.939  0.0638  0.1345  0.1427
 9716SOL    HW130589   1.526   3.393   7.969  0.3174 -0.7487 -0.8087
 9716SOL    HW230590   1.402   3.312   7.938 -0.4602  0.3288 -0.5574
 9717SOL     OW30591   2.140   5.064   8.376 -0.1723  0.2371  0.4037
 9717SOL    HW130592   2.169   5.097   8.291 -2.8934  0.9147 -0.3503
 9717SOL    HW230593   2.206   5.094   8.438  1.3302  0.6137 -1.3123
 9718SOL     OW30594   4.484   5.552   7.726  0.7380  0.1155 -0.2165
 9718SOL    HW130595   4.563   5.599   7.754  1.5823 -1.4374  0.0830
 9718SOL    HW230596   4.511   5.461   7.718 -0.9045 -0.3707 -0.6396
 9719SOL     OW30597   3.869   5.116   9.677  0.1759 -0.2717 -0.1330
 9719SOL    HW130598   3.954   5.075   9.659 -0.1881 -0.5603 -1.2996
 9719SOL    HW230599   3.839   5.147   9.591 -1.2638 -0.9135  0.1046
 9720SOL     OW30600   1.811   5.436   8.293 -0.3288  0.3681  0.7238
 9720SOL    HW130601   1.857   5.359   8.326 -1.0990 -0.9202 -1.0309
 9720SOL    HW230602   1.872   5.508   8.308  1.8661 -1.0917 -0.5146
 9721SOL     OW30603   0.753   6.975   7.661 -0.1121 -0.0452  0.0602
 9721SOL    HW130604   0.679   6.999   7.716 -0.6834 -0.0716 -0.6704
 9721SOL    HW230605   0.777   6.887   7.690  0.5973  0.5341  1.2944
 9722SOL     OW30606   3.836   5.415   9.126 -0.0552  0.1919 -0.9778
 9722SOL    HW130607   3.774   5.444   9.059 -1.2216  0.1026  0.0303
 9722SOL    HW230608   3.852   5.323   9.106 -0.8813  0.0019 -0.7791
 9723SOL     OW30609   2.339   6.173   8.333  0.4796  0.3182 -0.1341
 9723SOL    HW130610   2.266   6.140   8.385  1.0125 -0.5183  0.1180
 9723SOL    HW230611   2.410   6.111   8.351  2.0494  2.4849  1.5869
 9724SOL     OW30612   0.000   6.267   8.187 -0.2040  0.3773  0.3091
 9724SOL    HW130613  -0.046   6.238   8.108  0.0809 -0.4540  0.4326
 9724SOL    HW230614  -0.044   6.220   8.259 -0.4090  1.0605  0.6388
 9725SOL     OW30615   0.367   4.820   8.912 -0.5485  0.0675  0.3450
 9725SOL    HW130616   0.272   4.822   8.902 -0.5233 -1.8436 -0.7415
 9725SOL    HW230617   0.400   4.812   8.823  0.4876 -1.8583  0.8548
 9726SOL     OW30618   2.265   4.666   8.211  0.2661 -0.2316 -0.5681
 9726SOL    HW130619   2.202   4.600   8.241 -0.4118  0.5173 -0.3151
 9726SOL    HW230620   2.219   4.713   8.141  0.1809  0.9310  0.2425
 9727SOL     OW30621   1.629   5.111   8.350 -0.2139  0.3686  0.0513
 9727SOL    HW130622   1.601   5.203   8.355 -1.7785 -0.1120  0.6554
 9727SOL    HW230623   1.558   5.062   8.390  0.8183 -1.0907  0.1872
 9728SOL     OW30624   3.207   4.970   7.774 -0.0444 -0.2068  0.1732
 9728SOL    HW130625   3.264   4.899   7.744 -0.1399  0.3791 -1.4884
 9728SOL    HW230626   3.265   5.029   7.822  0.7934  0.4028 -1.5236
 9729SOL     OW30627   7.980   6.120   7.589 -0.3598 -0.2485  0.8111
 9729SOL    HW130628   8.026   6.151   7.667  0.4094  1.2696 -0.1943
 9729SOL    HW230629   7.903   6.176   7.582 -0.4577 -0.4178  0.4964
 9730SOL     OW30630   3.101   5.223   8.908 -0.2696  0.6492  0.2935
 9730SOL    HW130631   3.116   5.130   8.919  1.8334  0.7664 -1.0394
 9730SOL    HW230632   3.015   5.229   8.865  0.1842 -0.7503 -0.8559
 9731SOL     OW30633   1.177   4.432   9.095  0.3518 -0.7937  0.0991
 9731SOL    HW130634   1.108   4.366   9.098 -0.0014 -0.4270  0.1659
 9731SOL    HW230635   1.132   4.515   9.110  0.3739 -0.2277 -2.4363
 9732SOL     OW30636   2.917   5.245   8.052 -0.1263 -0.1551  0.5166
 9732SOL    HW130637   2.941   5.152   8.053  0.3768 -0.0260  0.4713
 9732SOL    HW230638   2.824   5.245   8.073 -0.6647 -0.8332 -1.6082
 9733SOL     OW30639   2.652   3.925   8.814 -0.0412 -0.2851 -0.0260
 9733SOL    HW130640   2.703   3.978   8.753 -0.0487 -0.3376 -0.0780
 9733SOL    HW230641   2.711   3.853   8.838 -0.1308 -0.4087 -0.1740
 9734SOL     OW30642   2.708   6.364   8.144  0.1370 -0.1270  0.5537
 9734SOL    HW130643   2.748   6.279   8.130 -0.4158 -0.4351  0.8017
 9734SOL    HW230644   2.653   6.378   8.067 -1.0653 -0.7541  1.2711
 9735SOL     OW30645   3.347   5.001   9.492 -0.6886  0.0509 -0.6699
 9735SOL    HW130646   3.334   4.911   9.461 -0.1455 -0.2706  0.0143
 9735SOL    HW230647   3.438   5.021   9.471 -1.5497  1.5096 -3.4452
 9736SOL     OW30648   2.615   3.802   9.792  0.4600  0.4256 -0.4270
 9736SOL    HW130649   2.640   3.894   9.792  1.8922  0.0698  0.0316
 9736SOL    HW230650   2.658   3.765   9.870  1.9878 -1.1126 -1.8959
 9737SOL     OW30651   3.232   4.638   8.564  0.2592 -0.0715 -0.0797
 9737SOL    HW130652   3.282   4.611   8.641 -0.8011 -0.5646  0.4576
 9737SOL    HW230653   3.179   4.561   8.541  0.7343 -0.0136 -1.4559
 9738SOL     OW30654   5.144   6.386   8.908 -0.1702 -0.2794 -0.0683
 9738SOL    HW130655   5.086   6.317   8.874 -0.4982  0.3464 -0.8204
 9738SOL    HW230656   5.173   6.354   8.993 -1.2791 -0.8051  0.1219
 9739SOL     OW30657   2.140   3.000   8.707  0.0888  0.1283 -0.2580
 9739SOL    HW130658   2.228   3.007   8.672  0.1408  0.9139  0.0121
 9739SOL    HW230659   2.082   3.013   8.632  0.2028  0.7745 -0.2355
 9740SOL     OW30660   2.671   2.921   7.580  0.2490 -0.1298 -0.2023
 9740SOL    HW130661   2.765   2.900   7.584  0.1107 -0.6628  0.3180
 9740SOL    HW230662   2.660   2.961   7.494  1.3403  1.8071  0.4964
 9741SOL     OW30663   3.144   6.033   6.562  0.1061 -0.0286 -0.0456
 9741SOL    HW130664   3.060   6.035   6.515 -0.6271  0.2040  1.2399
 9741SOL    HW230665   3.124   5.988   6.644  1.3917 -0.5188  0.0140
 9742SOL     OW30666   2.967   4.423   9.830  0.6487  0.1160  0.0802
 9742SOL    HW130667   2.902   4.479   9.788  2.2394  0.7413 -1.7118
 9742SOL    HW230668   3.013   4.382   9.757  1.5932 -1.0999  1.3140
 9743SOL     OW30669   2.353   5.366   9.563 -0.3818 -0.0666  0.0022
 9743SOL    HW130670   2.258   5.357   9.553 -0.5363  1.3613 -0.0660
 9743SOL    HW230671   2.388   5.361   9.474 -0.7099  2.1511 -0.3277
 9744SOL     OW30672   2.509   3.550   8.946  0.2338 -0.0819  0.3143
 9744SOL    HW130673   2.598   3.572   8.920  1.2028  0.7858  3.9355
 9744SOL    HW230674   2.469   3.633   8.969 -1.8055 -0.3861 -1.7230
 9745SOL     OW30675   2.039   3.927   7.258 -0.3408  0.2658 -0.0809
 9745SOL    HW130676   2.107   3.992   7.244  0.9677 -0.6900  1.4474
 9745SOL    HW230677   2.085   3.850   7.291 -2.0755 -0.7065  0.2318
 9746SOL     OW30678   2.078   5.395   9.573  0.3390 -0.0582 -0.1559
 9746SOL    HW130679   2.034   5.419   9.491 -0.3110  1.1919  0.5256
 9746SOL    HW230680   2.023   5.328   9.611 -0.9395  1.3544  0.5933
 9747SOL     OW30681   1.955   5.526   9.349 -0.0677 -0.1284  0.1544
 9747SOL    HW130682   1.944   5.526   9.254  2.3730 -0.3863 -0.1923
 9747SOL    HW230683   1.936   5.615   9.376  0.8717  0.3965 -0.8393
 9748SOL     OW30684   2.240   5.975   7.342 -0.1696 -0.2168  0.1156
 9748SOL    HW130685   2.241   5.895   7.290 -2.2020 -1.2583  1.5532
 9748SOL    HW230686   2.328   6.012   7.331  0.2350 -1.6407 -2.0460
 9749SOL     OW30687   3.403   5.072   9.778 -0.4520 -0.5369  0.0824
 9749SOL    HW130688   3.333   5.042   9.720 -1.4414 -1.6671  1.7555
 9749SOL    HW230689   3.481   5.027   9.746 -0.2133  1.3849 -2.3376
 9750SOL     OW30690   3.265   4.964   6.812  0.3425  0.1668  0.0453
 9750SOL    HW130691   3.358   4.952   6.796 -0.3128 -1.4090 -3.8148
 9750SOL    HW230692   3.226   4.879   6.792 -2.0591  1.0817  0.4452
 9751SOL     OW30693   3.027   5.153   7.656 -0.3086  0.2468  0.1524
 9751SOL    HW130694   3.075   5.214   7.600 -0.5977 -0.2292 -0.6209
 9751SOL    HW230695   3.089   5.081   7.671  0.2817  1.0135  1.6237
 9752SOL     OW30696   2.165   5.977   7.066  0.5148  0.6092  0.3964
 9752SOL    HW130697   2.210   5.971   6.981  0.1087  1.3707  0.1154
 9752SOL    HW230698   2.184   5.894   7.109  1.2193  0.4495 -0.1972
 9753SOL     OW30699   1.385   5.958   9.404 -0.4413  0.7226  0.2895
 9753SOL    HW130700   1.389   5.929   9.313  0.5045 -1.4339  0.9511
 9753SOL    HW230701   1.294   5.944   9.430 -0.7669  1.5526 -0.3668
 9754SOL     OW30702   2.310   5.032   9.153  0.4591 -0.5131 -1.1474
 9754SOL    HW130703   2.270   4.945   9.156  1.4193 -0.9430  1.3459
 9754SOL    HW230704   2.274   5.078   9.229  1.8047  0.4053 -1.0259
 9755SOL     OW30705   2.206   3.371   6.818 -0.2519 -0.3516  0.2780
 9755SOL    HW130706   2.231   3.445   6.762  1.5712 -0.2053  1.2139
 9755SOL    HW230707   2.191   3.410   6.904  1.3018 -1.0964  0.9286
 9756SOL     OW30708   1.829   6.398   9.201 -0.1239  0.7928  0.4181
 9756SOL    HW130709   1.902   6.390   9.139  0.7891  1.8302  1.3108
 9756SOL    HW230710   1.784   6.314   9.196  1.8100 -0.3232  0.6780
 9757SOL     OW30711   1.533   7.131   9.306 -0.1045  0.9876  0.2040
 9757SOL    HW130712   1.590   7.192   9.257  0.4830  0.1157 -0.2345
 9757SOL    HW230713   1.445   7.167   9.294  0.2648  1.9611  0.2730
 9758SOL     OW30714   2.917   5.398   7.182 -0.5738 -0.1470 -0.2455
 9758SOL    HW130715   2.983   5.402   7.251 -1.5929 -1.5499  0.8592
 9758SOL    HW230716   2.964   5.363   7.106 -0.3121 -2.6330  0.9579
 9759SOL     OW30717   1.912   2.648   9.866 -0.0272  0.4986 -0.2465
 9759SOL    HW130718   1.969   2.712   9.909  0.4238 -0.1300  0.0978
 9759SOL    HW230719   1.898   2.580   9.931 -2.6292  1.4451  0.3214
 9760SOL     OW30720   4.033   5.564   7.044 -0.5549 -0.1161 -0.5887
 9760SOL    HW130721   4.043   5.523   6.957 -1.2702  1.4623 -1.4476
 9760SOL    HW230722   3.955   5.524   7.080  0.1537 -1.3245 -0.3261
 9761SOL     OW30723   2.500   4.376   7.087 -0.0997  0.2247  0.6443
 9761SOL    HW130724   2.567   4.423   7.135  1.6282 -1.2960 -0.1572
 9761SOL    HW230725   2.548   4.327   7.020 -1.9610 -1.2488  0.3052
 9762SOL     OW30726   1.587   5.934   7.322 -0.2439  0.0007  0.0496
 9762SOL    HW130727   1.531   5.936   7.244  2.1637 -0.6131 -1.8020
 9762SOL    HW230728   1.610   5.842   7.333  0.8847  0.3098  0.3874
 9763SOL     OW30729   7.981   2.814   7.847  0.5366  0.5988  0.4713
 9763SOL    HW130730   7.961   2.903   7.878 -1.7827 -0.1024  1.1788
 9763SOL    HW230731   7.896   2.776   7.827  1.6166 -0.6521 -2.2883
 9764SOL     OW30732   1.504   3.987   6.431  0.4341 -0.7838  0.5627
 9764SOL    HW130733   1.445   3.935   6.375  0.6753 -0.6563  0.1849
 9764SOL    HW230734   1.581   4.002   6.376 -0.5548  1.9719 -0.2466
 9765SOL     OW30735   2.420   3.349   8.328 -0.2560  0.5997  0.6192
 9765SOL    HW130736   2.369   3.397   8.263 -1.7479 -0.5383  0.9158
 9765SOL    HW230737   2.509   3.348   8.293 -0.9294  0.4682 -1.1545
 9766SOL     OW30738   1.837   5.327   9.725 -0.1374  0.6451 -0.4966
 9766SOL    HW130739   1.806   5.260   9.785  1.3796 -1.0275 -1.4709
 9766SOL    HW230740   1.758   5.358   9.681 -0.9844  0.2355  0.6949
 9767SOL     OW30741   2.507   5.973   8.406 -0.2565  0.5768  0.4086
 9767SOL    HW130742   2.501   5.913   8.332 -1.1768  0.3594  0.6354
 9767SOL    HW230743   2.535   5.919   8.479 -1.1240  0.3988  0.6222
 9768SOL     OW30744   3.142   4.359   7.029 -0.1037  0.0858 -0.0970
 9768SOL    HW130745   3.161   4.404   7.112 -0.3349  0.0542 -0.0246
 9768SOL    HW230746   3.212   4.295   7.020 -0.0915  0.0716  0.0905
 9769SOL     OW30747   1.031   2.729   7.704 -0.7292  0.1130  0.2779
 9769SOL    HW130748   1.098   2.678   7.658  0.2027  0.1299  1.5552
 9769SOL    HW230749   1.017   2.805   7.649  1.1458  0.6767  0.5011
 9770SOL     OW30750   1.740   3.480   8.783  0.4868  0.1479  0.4060
 9770SOL    HW130751   1.772   3.544   8.847  0.2694  0.5738  0.0995
 9770SOL    HW230752   1.674   3.528   8.732 -0.0978 -0.4897  0.5409
 9771SOL     OW30753   1.313   5.596   7.418 -0.0477 -0.1609 -0.4102
 9771SOL    HW130754   1.348   5.612   7.330 -0.3534  0.8707 -0.3623
 9771SOL    HW230755   1.220   5.617   7.410  0.3308  2.3303  0.6888
 9772SOL     OW30756   2.538   4.345   7.425 -0.0607  1.0497 -0.2549
 9772SOL    HW130757   2.566   4.272   7.370  0.8437  2.1035 -1.2321
 9772SOL    HW230758   2.609   4.356   7.488  0.0210  1.3679 -0.3992
 9773SOL     OW30759   4.576   1.754   9.114  0.0049  0.6237 -0.1481
 9773SOL    HW130760   4.602   1.788   9.028  1.5101  0.7169  0.3103
 9773SOL    HW230761   4.488   1.719   9.100 -0.6720  2.5541 -1.2100
 9774SOL     OW30762   3.071   6.001   7.272  0.2001 -0.0579 -0.6665
 9774SOL    HW130763   3.146   6.009   7.214  0.5547  1.6764 -0.0288
 9774SOL    HW230764   3.104   5.950   7.347  0.0218 -1.4054 -1.4672
 9775SOL     OW30765   1.240   4.112   7.564 -0.0562  0.2127 -0.1348
 9775SOL    HW130766   1.228   4.207   7.572  0.5667  0.4503 -1.7566
 9775SOL    HW230767   1.324   4.095   7.606  1.2492  0.8480 -2.3378
 9776SOL     OW30768   2.846   6.118   8.084  0.9709 -0.0482  0.1794
 9776SOL    HW130769   2.847   6.042   8.143  0.4868 -0.9224 -0.8987
 9776SOL    HW230770   2.838   6.080   7.996 -4.2875  1.2252 -0.2395
 9777SOL     OW30771   2.944   5.474   8.229  0.8910  0.3081 -0.4536
 9777SOL    HW130772   3.016   5.466   8.291 -0.6633  0.3286  1.4660
 9777SOL    HW230773   2.958   5.402   8.167  1.4220 -1.0202  1.1314
 9778SOL     OW30774   2.881   5.287   8.723  0.1103 -0.1668  0.4360
 9778SOL    HW130775   2.833   5.227   8.665  0.7531  0.2324 -0.5399
 9778SOL    HW230776   2.816   5.352   8.748 -0.3983 -0.8354  0.8780
 9779SOL     OW30777   2.713   3.170   9.549 -0.6330  0.1691 -0.1300
 9779SOL    HW130778   2.621   3.192   9.537 -0.8250 -0.1613  0.6895
 9779SOL    HW230779   2.759   3.252   9.535 -1.1024  0.4618  0.0162
 9780SOL     OW30780   2.544   4.126   7.945  0.1175  0.2122  0.3139
 9780SOL    HW130781   2.517   4.122   7.853 -1.2132 -1.0052  0.7200
 9780SOL    HW230782   2.624   4.178   7.944  1.1438 -1.2570 -1.7565
 9781SOL     OW30783   3.660   6.013   5.078  0.3641 -0.8165  0.1469
 9781SOL    HW130784   3.615   5.959   5.143  0.0743 -0.5435  0.1744
 9781SOL    HW230785   3.680   5.952   5.006  0.9328 -1.1797  0.6067
 9782SOL     OW30786   3.346   4.593   8.324 -0.5280  0.3865 -0.1719
 9782SOL    HW130787   3.293   4.616   8.400 -0.8550  0.6564 -0.4778
 9782SOL    HW230788   3.414   4.535   8.359 -2.0617 -1.4681 -0.0515
 9783SOL     OW30789   2.085   5.680   7.761 -0.3899 -0.5237 -0.1351
 9783SOL    HW130790   2.127   5.663   7.677  0.9634 -0.4002  0.4848
 9783SOL    HW230791   2.067   5.593   7.797  0.1482 -0.6006 -0.0346
 9784SOL     OW30792   2.966   4.461   8.980  0.8671  0.4798 -0.1537
 9784SOL    HW130793   3.040   4.467   9.040  1.5294  1.4876 -1.0312
 9784SOL    HW230794   2.939   4.369   8.984  1.4718  0.3380  0.9794
 9785SOL     OW30795   1.007   5.320   6.914 -0.0585  0.1853  0.2662
 9785SOL    HW130796   1.086   5.317   6.968  0.6096 -0.3001 -0.7211
 9785SOL    HW230797   1.000   5.411   6.886  0.0958  0.2489  0.4317
 9786SOL     OW30798   4.092   4.450   9.488  0.1453  0.2102  0.0848
 9786SOL    HW130799   4.112   4.528   9.436  0.7254  0.6466  0.9302
 9786SOL    HW230800   4.044   4.393   9.429 -0.7006  1.4117 -0.4189
 9787SOL     OW30801   3.103   5.091   9.431 -0.4263 -0.3294  0.4176
 9787SOL    HW130802   3.192   5.056   9.435 -1.0636 -2.0614  0.5954
 9787SOL    HW230803   3.067   5.075   9.518 -2.1917 -3.4934 -0.7300
 9788SOL     OW30804   0.632   4.164   8.282  0.1259 -0.3368  0.3779
 9788SOL    HW130805   0.563   4.131   8.340  1.4082  0.0743  2.2181
 9788SOL    HW230806   0.607   4.255   8.265 -1.3670 -1.0389 -1.5323
 9789SOL     OW30807   3.348   5.136   9.109  0.7984 -0.3477 -0.8128
 9789SOL    HW130808   3.389   5.050   9.115  0.0366 -0.6910 -0.4276
 9789SOL    HW230809   3.409   5.187   9.056  0.8848 -1.3492 -1.7137
 9790SOL     OW30810   2.686   6.086   8.570  0.1576  0.0499 -0.2631
 9790SOL    HW130811   2.741   6.012   8.547  2.0688  1.3217 -0.0119
 9790SOL    HW230812   2.608   6.077   8.514  0.2819 -2.1469 -0.1681
 9791SOL     OW30813   1.719   5.774   8.991  0.5936 -0.0751 -0.4694
 9791SOL    HW130814   1.705   5.863   8.958  0.2548 -0.0038 -0.1368
 9791SOL    HW230815   1.754   5.787   9.080  2.1281 -0.2564 -1.0138
 9792SOL     OW30816   2.256   5.708   8.950 -0.3696 -0.3575  0.5045
 9792SOL    HW130817   2.183   5.754   8.910  0.3403  0.0793 -0.3385
 9792SOL    HW230818   2.263   5.625   8.902  0.4536  0.1467 -0.2892
 9793SOL     OW30819   1.607   4.472   8.181 -0.0195  0.2616 -0.0026
 9793SOL    HW130820   1.660   4.435   8.251  2.0253  1.6282 -0.7057
 9793SOL    HW230821   1.643   4.560   8.169 -2.4109  1.2091 -0.6565
 9794SOL     OW30822   2.596   7.493   7.413  0.0687  0.0404 -0.2097
 9794SOL    HW130823   2.624   7.488   7.321 -0.8544 -0.2846 -0.4868
 9794SOL    HW230824   2.573   7.403   7.436  0.8167  0.0232  0.5240
 9795SOL     OW30825   2.249   5.282   7.623  0.1469 -0.1152  0.8345
 9795SOL    HW130826   2.322   5.338   7.597 -1.7488  1.8456 -0.6387
 9795SOL    HW230827   2.184   5.342   7.657 -1.4448 -1.5879  0.5361
 9796SOL     OW30828   1.290   2.950   7.636  0.2707 -0.6989 -0.3191
 9796SOL    HW130829   1.201   2.962   7.669  0.2291  0.5574 -0.8259
 9796SOL    HW230830   1.288   2.985   7.547  1.3479 -0.3257 -0.2187
 9797SOL     OW30831   2.650   5.792   5.724  0.8980 -0.5161  0.4079
 9797SOL    HW130832   2.719   5.819   5.785  0.5721  0.8307  0.2130
 9797SOL    HW230833   2.569   5.802   5.772  0.5313  1.7093 -0.5569
 9798SOL     OW30834   1.916   4.117   6.810 -0.9470  0.2210 -0.6253
 9798SOL    HW130835   1.902   4.127   6.905 -0.5131 -1.3756 -0.3642
 9798SOL    HW230836   1.830   4.091   6.777 -0.6326 -1.3821 -0.2945
 9799SOL     OW30837   0.505   5.977   8.702  0.3358 -0.6940 -0.3848
 9799SOL    HW130838   0.513   5.914   8.630 -0.9144 -0.3346 -0.8660
 9799SOL    HW230839   0.417   5.961   8.737  0.4314  0.0371  0.1977
 9800SOL     OW30840   3.042   4.802   7.551 -0.2026 -0.1863 -0.4265
 9800SOL    HW130841   3.137   4.811   7.546 -0.3504  1.1189 -2.1123
 9800SOL    HW230842   3.018   4.756   7.471 -0.9185 -1.5194  0.5272
 9801SOL     OW30843   2.971   2.921  11.373  0.0292  0.3158  0.2358
 9801SOL    HW130844   2.892   2.891  11.327 -0.4823 -0.8098  1.7695
 9801SOL    HW230845   3.043   2.882  11.324 -0.5136 -1.1117  0.5314
 9802SOL     OW30846   2.691   3.906   9.287  0.3548  0.1400  0.5732
 9802SOL    HW130847   2.617   3.884   9.343 -0.5230  0.4062 -0.4439
 9802SOL    HW230848   2.761   3.928   9.348 -0.3613 -0.2295  1.5614
 9803SOL     OW30849   3.070   5.522   9.298 -0.1537  0.2776  0.1166
 9803SOL    HW130850   3.086   5.434   9.264 -1.6598  1.0334 -2.9101
 9803SOL    HW230851   3.151   5.569   9.281  0.0304 -0.0604  0.0392
 9804SOL     OW30852   2.952   4.158   8.938  0.2762 -0.3603  0.0626
 9804SOL    HW130853   2.943   4.072   8.978  1.5733 -0.9812 -0.9093
 9804SOL    HW230854   2.966   4.139   8.845 -0.7228  0.9587 -0.3862
 9805SOL     OW30855   0.918   4.560   8.844  0.0943 -0.0634  0.3721
 9805SOL    HW130856   1.011   4.567   8.824  0.0135 -0.0691 -0.0146
 9805SOL    HW230857   0.909   4.598   8.931  0.3137  0.8270  0.0212
 9806SOL     OW30858   7.587   3.629   8.608  0.2388 -0.3117 -0.2212
 9806SOL    HW130859   7.642   3.696   8.567 -1.6531 -0.6110 -3.6636
 9806SOL    HW230860   7.525   3.678   8.662  1.4370  0.3117  0.6305
 9807SOL     OW30861   1.920   4.651   7.136  0.1012  0.0933  0.1160
 9807SOL    HW130862   1.899   4.562   7.165  1.1215  0.6266  2.8516
 9807SOL    HW230863   2.000   4.673   7.185  0.8759  1.8980 -1.8411
 9808SOL     OW30864   2.844   6.486   9.582 -0.6931 -0.2955 -0.0712
 9808SOL    HW130865   2.903   6.562   9.579  1.0323 -1.5387  0.6530
 9808SOL    HW230866   2.800   6.493   9.667 -1.6200  0.6318 -0.6080
 9809SOL     OW30867   2.623   4.764   7.292  0.1803  0.8943  0.2206
 9809SOL    HW130868   2.587   4.713   7.364  0.3570  1.4346  0.7038
 9809SOL    HW230869   2.715   4.739   7.287  0.2478  1.0966  0.4056
 9810SOL     OW30870   3.377   4.668   8.065  0.2040 -0.4719  0.2334
 9810SOL    HW130871   3.353   4.640   8.153  0.5583 -1.4041  0.0428
 9810SOL    HW230872   3.318   4.620   8.007  1.0543 -1.1064 -0.1189
 9811SOL     OW30873   2.370   4.798   9.529 -0.3559  0.1179 -0.0885
 9811SOL    HW130874   2.407   4.873   9.575 -0.1263 -0.5185  0.7909
 9811SOL    HW230875   2.432   4.780   9.458  0.9236 -0.7651  1.1966
 9812SOL     OW30876   4.028   4.750  10.418 -0.3458 -0.5473  0.1378
 9812SOL    HW130877   4.028   4.668  10.368 -1.5077 -0.6195  0.2409
 9812SOL    HW230878   4.025   4.819  10.351 -0.3347 -0.6042  0.0794
 9813SOL     OW30879   3.470   5.354   8.606 -0.0544  0.2657 -0.3230
 9813SOL    HW130880   3.532   5.425   8.590  3.7228 -2.7986 -0.7559
 9813SOL    HW230881   3.442   5.367   8.697  1.7583  1.4717  0.1140
 9814SOL     OW30882   3.258   4.213   7.328 -0.1126 -0.0304 -0.2930
 9814SOL    HW130883   3.339   4.264   7.326 -0.6396  0.8614  0.4227
 9814SOL    HW230884   3.244   4.195   7.421 -0.3596 -0.8070 -0.4750
 9815SOL     OW30885   2.799   4.499   6.749  0.0436  0.2039 -0.6939
 9815SOL    HW130886   2.798   4.485   6.844 -1.1051 -0.6402 -0.8022
 9815SOL    HW230887   2.837   4.419   6.713  1.5208  0.9713 -0.9162
 9816SOL     OW30888   1.530   3.147   8.776 -0.2668  0.7747  0.3953
 9816SOL    HW130889   1.482   3.230   8.779  0.0621  1.0962 -1.5909
 9816SOL    HW230890   1.526   3.121   8.684  0.3641 -0.9941  0.8366
 9817SOL     OW30891   1.907   5.538   9.007 -0.3073 -0.2073 -0.4933
 9817SOL    HW130892   1.900   5.607   9.072 -0.0714  0.0308 -0.7160
 9817SOL    HW230893   1.917   5.585   8.924  0.6944 -0.5019 -0.5515
 9818SOL     OW30894   3.107   2.515   9.349 -0.2903  0.3966 -0.3083
 9818SOL    HW130895   3.018   2.509   9.384  0.0567  1.5822  0.8165
 9818SOL    HW230896   3.159   2.462   9.409 -0.3956 -1.4402 -1.7289
 9819SOL     OW30897   0.376   5.803   7.587  0.1416  0.0293  0.7086
 9819SOL    HW130898   0.414   5.820   7.673 -0.4980  1.7396  0.7092
 9819SOL    HW230899   0.378   5.889   7.544 -0.5861 -0.5653 -0.5535
 9820SOL     OW30900   0.944   4.963   9.999 -0.4046 -0.2274  0.3340
 9820SOL    HW130901   0.926   5.030   9.933  0.7380  0.2256  0.4715
 9820SOL    HW230902   0.998   5.007  10.065 -1.1844 -0.7875  1.3769
 9821SOL     OW30903   2.567   5.920   7.842  0.0034  0.4307  0.2045
 9821SOL    HW130904   2.579   5.852   7.775  0.9717  0.1668  0.6188
 9821SOL    HW230905   2.605   5.999   7.802 -0.8229  0.6531 -0.1496
 9822SOL     OW30906   1.496   5.415   7.602 -1.2558 -0.5918  0.3147
 9822SOL    HW130907   1.516   5.335   7.552 -0.6547 -0.2409 -0.0200
 9822SOL    HW230908   1.443   5.467   7.543 -2.2257 -1.0282  0.7840
 9823SOL     OW30909   0.985   4.609   9.130  0.0547 -0.3031  0.0646
 9823SOL    HW130910   0.942   4.685   9.170  1.0077  0.7775 -0.8960
 9823SOL    HW230911   0.937   4.533   9.165 -0.3670  0.6747  1.7093
 9824SOL     OW30912   1.597   5.798   9.518 -0.1153  0.0574  0.2708
 9824SOL    HW130913   1.552   5.869   9.474  0.7767  0.2964 -0.2941
 9824SOL    HW230914   1.528   5.736   9.542 -0.9147  1.1540  0.8774
 9825SOL     OW30915   2.750   2.896   6.733 -0.3072  0.2626  0.4382
 9825SOL    HW130916   2.742   2.835   6.806 -0.0071 -0.1290  0.1501
 9825SOL    HW230917   2.825   2.864   6.683 -0.7106  0.3201 -0.2264
 9826SOL     OW30918   1.785   4.831   8.981  0.3438  0.1931  0.0223
 9826SOL    HW130919   1.698   4.858   9.010  1.0960  2.6230  0.1763
 9826SOL    HW230920   1.805   4.754   9.034 -0.4785  1.4075  2.2012
 9827SOL     OW30921   2.781   4.166   7.676 -0.6307 -0.7725  0.0745
 9827SOL    HW130922   2.821   4.080   7.687  0.1766 -0.6569 -1.7176
 9827SOL    HW230923   2.850   4.220   7.638 -1.9852 -0.1524 -1.6265
 9828SOL     OW30924   3.390   5.213   8.362 -0.1181 -0.2042  0.1741
 9828SOL    HW130925   3.296   5.222   8.346  0.1149  1.2490 -0.5663
 9828SOL    HW230926   3.407   5.271   8.436  0.6073  1.7795 -1.4489
 9829SOL     OW30927   2.789   3.336   6.968  0.5583  0.6139  0.4112
 9829SOL    HW130928   2.844   3.411   6.989  0.1070  1.2105 -0.5200
 9829SOL    HW230929   2.703   3.373   6.950  0.4347 -0.0717 -0.4696
 9830SOL     OW30930   1.723   6.243   9.795  0.0869 -0.7975 -0.1428
 9830SOL    HW130931   1.699   6.290   9.716  0.5447 -1.6212 -0.7832
 9830SOL    HW230932   1.791   6.181   9.767  0.6733 -0.6957  1.0013
 9831SOL     OW30933   1.792   4.650   7.454  0.3773  0.2449  0.2393
 9831SOL    HW130934   1.769   4.577   7.395 -0.6183  0.3881  0.4319
 9831SOL    HW230935   1.722   4.713   7.442  0.0569  0.2015  1.7175
 9832SOL     OW30936   3.238   5.927   7.961  0.1926 -0.1541 -0.2309
 9832SOL    HW130937   3.153   5.903   7.996  0.8182 -1.0947  0.7105
 9832SOL    HW230938   3.260   5.857   7.899  0.4439 -0.1043 -0.2023
 9833SOL     OW30939   2.540   6.402   7.932  0.0215  0.1280 -0.1324
 9833SOL    HW130940   2.510   6.492   7.942  1.3487  0.4040  1.8135
 9833SOL    HW230941   2.473   6.349   7.975  0.9515  0.5211  1.8814
 9834SOL     OW30942   2.006   5.564   7.048 -0.1554 -0.5593  0.9038
 9834SOL    HW130943   2.024   5.626   6.977  0.2322  0.5489  1.9293
 9834SOL    HW230944   2.056   5.486   7.026 -1.0248 -0.7120 -0.6566
 9835SOL     OW30945   2.427   5.190   8.409  0.0947 -0.3797 -0.3465
 9835SOL    HW130946   2.380   5.264   8.372  1.3321  0.8001  0.3804
 9835SOL    HW230947   2.515   5.195   8.371  0.9815  0.0637  1.6200
 9836SOL     OW30948   4.370   3.997   8.653 -0.1347  0.2439  0.1518
 9836SOL    HW130949   4.331   3.911   8.637  1.0727 -0.3764  0.4250
 9836SOL    HW230950   4.304   4.059   8.622 -1.7563 -0.7169  1.5247
 9837SOL     OW30951   4.044   5.342   6.153  0.3680 -0.2739 -0.1969
 9837SOL    HW130952   4.037   5.331   6.248 -3.0562  2.5011  0.0452
 9837SOL    HW230953   4.034   5.253   6.118 -1.3022 -1.0451  2.0139
 9838SOL     OW30954   7.103   6.970  10.496 -0.0952 -0.1428 -0.7876
 9838SOL    HW130955   7.166   6.967  10.568 -0.8647  1.0587 -0.0173
 9838SOL    HW230956   7.140   6.913  10.429  0.6551 -1.2813  0.5479
 9839SOL     OW30957   3.110   5.946   9.186 -0.2408 -0.1719 -0.1186
 9839SOL    HW130958   3.025   5.904   9.200 -1.2380  1.4280 -0.9815
 9839SOL    HW230959   3.098   5.998   9.106  1.6292 -0.0595 -0.3746
 9840SOL     OW30960   1.862   5.758   9.454 -0.1089 -0.2299 -0.5124
 9840SOL    HW130961   1.773   5.789   9.471 -0.3852  0.9933 -3.3914
 9840SOL    HW230962   1.917   5.806   9.516 -1.3121  0.3582  0.1218
 9841SOL     OW30963   2.025   6.879  10.407  0.1519 -0.5793 -0.4715
 9841SOL    HW130964   2.031   6.907  10.315 -0.1089  2.1559  0.2470
 9841SOL    HW230965   1.932   6.861  10.421  0.2599 -1.4645 -0.8429
 9842SOL     OW30966   2.050   4.713   7.561 -0.0442 -0.7259  0.3063
 9842SOL    HW130967   2.085   4.627   7.586 -1.2079 -1.7107 -1.2472
 9842SOL    HW230968   1.958   4.695   7.539 -0.6597  1.1704  1.1336
 9843SOL     OW30969   2.000   5.847   8.787  0.4618 -0.0596 -0.0154
 9843SOL    HW130970   2.073   5.829   8.727 -0.9417 -3.5964 -0.9261
 9843SOL    HW230971   1.939   5.775   8.772 -1.8972  1.1656  2.7994
 9844SOL     OW30972   3.310   6.223   8.583 -0.0890  0.6593  0.0077
 9844SOL    HW130973   3.405   6.232   8.592  0.0103  0.5245 -0.9074
 9844SOL    HW230974   3.297   6.179   8.500 -0.9587  0.6255  0.1505
 9845SOL     OW30975   1.887   5.299   8.700  0.2051  0.2305  0.1181
 9845SOL    HW130976   1.871   5.215   8.744  1.0532  0.2310  0.4443
 9845SOL    HW230977   1.890   5.277   8.607  0.2152 -0.0645  0.1874
 9846SOL     OW30978   2.261   5.354   7.904 -0.5335  0.3098 -0.4719
 9846SOL    HW130979   2.173   5.325   7.879 -0.6596 -0.5256  0.8178
 9846SOL    HW230980   2.319   5.287   7.869 -0.7297 -0.9969  1.4994
 9847SOL     OW30981   2.935   6.060   6.004  0.5766  0.2127  0.6340
 9847SOL    HW130982   2.956   6.055   5.911 -0.1012 -0.7604  0.5273
 9847SOL    HW230983   2.990   6.131   6.037  1.7729 -0.2814 -0.2419
 9848SOL     OW30984   3.681   5.548   8.927  0.1095  0.5411 -0.4986
 9848SOL    HW130985   3.668   5.631   8.973  1.0262 -0.0186  0.8315
 9848SOL    HW230986   3.733   5.571   8.850 -2.8168  1.7574 -2.2849
 9849SOL     OW30987   2.822   5.875   8.259 -0.2234  0.6012 -0.1200
 9849SOL    HW130988   2.775   5.792   8.262  0.7559  0.0277  0.0454
 9849SOL    HW230989   2.854   5.887   8.349  0.2303  0.7904 -0.3027
 9850SOL     OW30990   1.645   3.994   8.073 -0.4367  0.1720  0.1543
 9850SOL    HW130991   1.700   4.052   8.022 -0.9374  0.2087 -0.3533
 9850SOL    HW230992   1.674   4.006   8.164  0.9523 -0.4602 -0.1925
 9851SOL     OW30993   2.473   3.345   8.732 -0.1969 -0.2086  0.2238
 9851SOL    HW130994   2.540   3.279   8.713 -1.0896 -1.1993  0.4647
 9851SOL    HW230995   2.521   3.414   8.778  0.3148 -1.8208  2.2256
 9852SOL     OW30996   2.695   5.154   9.736  0.2617 -0.5512  0.0390
 9852SOL    HW130997   2.693   5.068   9.777 -2.5626 -1.5354 -1.8420
 9852SOL    HW230998   2.757   5.145   9.664  0.3453 -0.8722  0.1498
 9853SOL     OW30999   0.953   4.589   6.175 -0.4051  0.2242  0.5835
 9853SOL    HW131000   0.871   4.588   6.226 -0.8136  0.9764 -0.0359
 9853SOL    HW231001   1.022   4.582   6.241 -0.9766 -1.0358  1.0725
 9854SOL     OW31002   0.776   5.450  10.592  0.1444 -0.3095 -0.4206
 9854SOL    HW131003   0.791   5.538  10.558  0.5942 -0.6402 -1.0884
 9854SOL    HW231004   0.728   5.405  10.522  0.0030 -0.6287 -0.1235
 9855SOL     OW31005   1.570   4.534   7.647  0.2443 -0.1968 -0.3725
 9855SOL    HW131006   1.653   4.531   7.599  0.4792  1.0445 -0.0787
 9855SOL    HW231007   1.592   4.509   7.736 -0.1045 -2.0132 -0.7654
 9856SOL     OW31008   2.848   4.864   6.888  0.0099  0.0916 -0.1892
 9856SOL    HW131009   2.772   4.884   6.834 -0.2109  0.1962  0.1606
 9856SOL    HW231010   2.922   4.872   6.828 -0.2343  0.1778 -0.4839
 9857SOL     OW31011   1.842   4.633   7.835  0.0577 -0.1457  0.6311
 9857SOL    HW131012   1.779   4.561   7.833  0.7853 -0.8068  1.0783
 9857SOL    HW231013   1.789   4.711   7.849 -0.7714 -0.5535 -0.1654
 9858SOL     OW31014   3.915   5.323   5.466 -0.1032  0.8934  0.4560
 9858SOL    HW131015   3.823   5.305   5.484 -0.2771  2.4302  1.2936
 9858SOL    HW231016   3.961   5.244   5.494 -1.3711 -1.3779 -3.1958
 9859SOL     OW31017   3.172   4.362   8.475  0.7360 -0.8386  0.0591
 9859SOL    HW131018   3.124   4.401   8.402 -0.4244 -2.2067  0.0501
 9859SOL    HW231019   3.156   4.268   8.467 -0.6345 -0.9641  2.8857
 9860SOL     OW31020   3.832   5.386   7.119 -0.6042 -0.1481 -0.3039
 9860SOL    HW131021   3.862   5.310   7.070  1.2102  0.8181 -0.7895
 9860SOL    HW231022   3.793   5.350   7.199 -0.7490 -1.5986 -0.9973
 9861SOL     OW31023   2.456   5.079  10.060 -0.0096  0.3781  0.0560
 9861SOL    HW131024   2.532   5.054  10.007 -0.1820  0.2952 -0.1559
 9861SOL    HW231025   2.391   5.109   9.996 -0.3426 -0.0418  0.1928
 9862SOL     OW31026   2.451   6.934   9.904  0.3322 -0.0760  0.0989
 9862SOL    HW131027   2.539   6.923   9.941  0.8546 -0.1901 -1.1457
 9862SOL    HW231028   2.462   6.919   9.811 -1.0209 -0.0715 -0.0765
 9863SOL     OW31029   2.092   3.961   8.391 -0.3726  0.3335 -0.2271
 9863SOL    HW131030   2.038   3.972   8.469 -1.0478  2.8619 -0.9626
 9863SOL    HW231031   2.143   3.882   8.408 -1.4408  0.0838  2.1901
 9864SOL     OW31032   1.740   5.527   7.567  0.1204  0.5821  0.9943
 9864SOL    HW131033   1.796   5.449   7.578 -0.9505 -0.1607  1.3061
 9864SOL    HW231034   1.653   5.498   7.595 -0.8441  1.1878 -1.2086
 9865SOL     OW31035   1.307   6.981   9.041 -0.1026  0.1951  0.0172
 9865SOL    HW131036   1.314   7.073   9.065 -0.2126  0.6913 -1.7197
 9865SOL    HW231037   1.269   6.981   8.953  2.3394 -1.3331 -1.1813
 9866SOL     OW31038   2.293   5.415   8.281  0.0444  0.2454 -0.0538
 9866SOL    HW131039   2.316   5.467   8.204  0.7773 -2.2783 -1.6584
 9866SOL    HW231040   2.231   5.349   8.248  1.5665 -1.8909  1.1007
 9867SOL     OW31041   3.731   2.803   7.820  0.3366 -0.1014  0.3765
 9867SOL    HW131042   3.802   2.836   7.875  2.8178 -1.1449 -1.9225
 9867SOL    HW231043   3.729   2.863   7.745  0.6510 -1.5437 -0.8392
 9868SOL     OW31044   3.466   5.386   8.873  0.1800  0.0715  0.2149
 9868SOL    HW131045   3.497   5.307   8.917 -0.0525  1.1031  2.3639
 9868SOL    HW231046   3.536   5.450   8.886 -0.6080  0.8917  0.5973
 9869SOL     OW31047   0.432   4.816   9.922 -0.2140 -0.2905  0.5400
 9869SOL    HW131048   0.338   4.813   9.938 -0.2927 -1.9635 -0.0259
 9869SOL    HW231049   0.457   4.907   9.940 -1.3310 -0.5386  3.9712
 9870SOL     OW31050   2.502   5.184   7.860 -0.4608 -0.0181  0.3052
 9870SOL    HW131051   2.571   5.118   7.871 -0.8821 -0.3977  0.7923
 9870SOL    HW231052   2.452   5.154   7.784  1.6809  1.9010 -2.0062
 9871SOL     OW31053   2.271   5.407   9.227  0.1299  0.1187 -0.3083
 9871SOL    HW131054   2.357   5.378   9.256  0.1933  1.4734  1.0076
 9871SOL    HW231055   2.209   5.362   9.284 -0.0725 -0.9440 -1.3275
 9872SOL     OW31056   2.826   5.331   6.559  0.1252  0.1144 -0.0649
 9872SOL    HW131057   2.912   5.317   6.520  0.3336  2.6250 -0.6728
 9872SOL    HW231058   2.845   5.368   6.645 -0.3346  0.2272 -0.0104
 9873SOL     OW31059   3.574   5.945   7.066 -0.0064 -0.0680  0.6694
 9873SOL    HW131060   3.586   5.852   7.047  1.9449  0.2639  0.0438
 9873SOL    HW231061   3.610   5.989   6.989  1.6988  1.2280  2.1371
 9874SOL     OW31062   1.642   6.052   9.003  0.5656 -0.3395  0.1443
 9874SOL    HW131063   1.571   6.070   9.065  0.3242 -1.3179  0.1699
 9874SOL    HW231064   1.618   6.099   8.924 -0.7635 -1.6495 -0.2658
 9875SOL     OW31065   3.474   4.631   7.007  0.0789  0.2215  0.8500
 9875SOL    HW131066   3.394   4.608   6.960  0.3188 -1.2232  1.0873
 9875SOL    HW231067   3.457   4.607   7.098  0.2483  1.3478  1.1934
 9876SOL     OW31068   2.649   3.400   7.568 -0.3410  0.1046 -0.5094
 9876SOL    HW131069   2.638   3.434   7.480 -1.1845  1.5037  0.1027
 9876SOL    HW231070   2.741   3.376   7.573 -0.4725 -0.8715 -2.0445
 9877SOL     OW31071   2.397   4.830   7.822  0.0112  0.5580 -0.0082
 9877SOL    HW131072   2.400   4.751   7.769 -2.2469 -0.8120  1.7295
 9877SOL    HW231073   2.402   4.902   7.759 -0.9565 -0.9615 -1.9225
 9878SOL     OW31074   4.346   5.387   8.676  0.0540 -0.1289 -0.7404
 9878SOL    HW131075   4.356   5.405   8.583 -0.9771 -3.1008 -1.5396
 9878SOL    HW231076   4.428   5.345   8.701  0.4457  0.9333 -0.2126
 9879SOL     OW31077   3.694   3.036   8.032 -0.4455  0.1209 -0.1787
 9879SOL    HW131078   3.701   3.132   8.041  1.0313  0.0917 -0.7603
 9879SOL    HW231079   3.640   3.023   7.955  0.0751  0.5080 -0.6152
 9880SOL     OW31080   1.192   3.307   8.253 -0.0627 -0.1496 -0.5609
 9880SOL    HW131081   1.221   3.242   8.316 -0.2616  0.0947 -0.2141
 9880SOL    HW231082   1.255   3.379   8.262 -0.4778  0.1740 -0.1507
 9881SOL     OW31083   2.351   5.455   8.974  0.2063 -0.4267 -0.2719
 9881SOL    HW131084   2.326   5.432   9.063  0.6885  0.3255  0.0741
 9881SOL    HW231085   2.430   5.404   8.957  1.0248  0.5925  0.3307
 9882SOL     OW31086   1.787   4.226   9.209  0.5466 -0.3269 -0.6766
 9882SOL    HW131087   1.698   4.258   9.195  0.8507  0.6280 -0.5088
 9882SOL    HW231088   1.843   4.290   9.166  1.2497  0.2092  0.9281
 9883SOL     OW31089   2.703   3.843   8.402 -0.6304 -0.0715 -0.0049
 9883SOL    HW131090   2.698   3.911   8.335 -1.2991  0.1415  0.2539
 9883SOL    HW231091   2.666   3.883   8.480 -0.6349 -0.5921  0.2656
 9884SOL     OW31092   1.557   4.078  10.019  0.3819 -0.5028 -0.4058
 9884SOL    HW131093   1.579   4.165  10.054 -0.8468 -0.5922  0.6463
 9884SOL    HW231094   1.537   4.093   9.927 -0.7276  0.4972 -0.0206
 9885SOL     OW31095   1.781   4.729   9.443 -0.1408 -0.1178 -0.1776
 9885SOL    HW131096   1.772   4.783   9.521  1.2778 -0.2084  0.0872
 9885SOL    HW231097   1.823   4.648   9.474 -3.0178 -1.8457 -0.3858
 9886SOL     OW31098   3.174   4.285  10.692 -0.3067 -0.1937  0.1332
 9886SOL    HW131099   3.135   4.301  10.778  0.3401  0.5686  0.2995
 9886SOL    HW231100   3.263   4.256  10.711  0.2813  1.2511 -0.2852
 9887SOL     OW31101   2.617   6.203   9.771  0.3064  0.0955 -0.1951
 9887SOL    HW131102   2.708   6.212   9.798 -0.4756  1.4755  2.2768
 9887SOL    HW231103   2.574   6.162   9.846 -1.2889  0.4046 -0.9112
 9888SOL     OW31104   3.951   4.055  10.360  0.3691  0.2611 -0.0189
 9888SOL    HW131105   3.918   3.969  10.390  2.1665  0.4602  2.9743
 9888SOL    HW231106   3.877   4.094  10.314 -1.0771 -2.1929  0.0203
 9889SOL     OW31107   2.391   6.237   8.957 -0.0926 -1.0022 -0.7679
 9889SOL    HW131108   2.450   6.167   8.985  0.3212 -0.1453  0.6192
 9889SOL    HW231109   2.386   6.228   8.862  0.1207 -2.7597 -0.6386
 9890SOL     OW31110   3.235   5.084  11.284  0.0982 -0.0057 -0.2585
 9890SOL    HW131111   3.285   5.067  11.204 -0.1914 -3.8012  0.2143
 9890SOL    HW231112   3.157   5.131  11.254  1.5994  1.8213 -1.6204
 9891SOL     OW31113   2.829   5.056  10.581 -0.1212  0.2323  0.2098
 9891SOL    HW131114   2.812   5.117  10.652  1.7155 -0.7018  1.5517
 9891SOL    HW231115   2.889   5.102  10.522  0.3888  0.1367  0.6439
 9892SOL     OW31116   2.228   2.599  10.605 -0.2234 -0.0479 -0.2762
 9892SOL    HW131117   2.149   2.559  10.640 -0.9381 -0.2141 -1.9917
 9892SOL    HW231118   2.203   2.689  10.583  0.2150  0.0672 -0.3226
 9893SOL     OW31119   2.071   4.310  10.835 -0.2983 -0.1745 -0.6502
 9893SOL    HW131120   1.985   4.279  10.865 -0.6343  0.4404 -0.9487
 9893SOL    HW231121   2.125   4.311  10.913 -1.5171  2.6160  0.2613
 9894SOL     OW31122   2.886   4.711  11.422 -0.0017  0.2572 -0.3126
 9894SOL    HW131123   2.981   4.699  11.414 -0.0336 -0.4212  0.2114
 9894SOL    HW231124   2.850   4.623  11.415 -0.5505  0.4503  0.0351
 9895SOL     OW31125   2.089   3.302  10.034 -0.8991  0.0452 -0.6491
 9895SOL    HW131126   2.042   3.246   9.972 -0.0562  1.3163 -2.5309
 9895SOL    HW231127   2.076   3.391  10.000  0.4143  0.6925  0.4497
 9896SOL     OW31128   4.457   6.610   9.544 -0.7858  0.2032  0.0550
 9896SOL    HW131129   4.539   6.590   9.497 -0.2310  2.5125 -0.0764
 9896SOL    HW231130   4.431   6.526   9.582  0.4946 -1.0611 -1.6662
 9897SOL     OW31131   1.268   7.016   8.420  0.1145  0.5577 -0.3676
 9897SOL    HW131132   1.293   6.963   8.496 -0.4502  2.4871  1.2580
 9897SOL    HW231133   1.320   7.096   8.429 -3.3492  2.9244  0.8218
 9898SOL     OW31134   2.905   3.426  11.088  0.4953 -0.3326  0.2343
 9898SOL    HW131135   2.890   3.338  11.053  1.9671  0.2636 -2.2207
 9898SOL    HW231136   2.867   3.425  11.175 -4.7998 -1.6500 -1.7389
 9899SOL     OW31137   2.007   6.086   8.885 -0.7490 -0.0687 -0.3851
 9899SOL    HW131138   1.958   6.148   8.831  0.0762 -1.1202 -2.4593
 9899SOL    HW231139   1.989   6.001   8.846  2.4885 -0.5225 -1.1073
 9900SOL     OW31140   2.036   4.615   8.933 -0.1461  0.4774 -0.3679
 9900SOL    HW131141   2.049   4.704   8.965  1.8207  0.3222 -0.6225
 9900SOL    HW231142   2.066   4.619   8.842 -1.5284 -0.1123 -0.8810
 9901SOL     OW31143   2.837   7.254   7.978  0.1875  0.5742  0.4012
 9901SOL    HW131144   2.819   7.167   8.015  1.2221  0.3780  0.4759
 9901SOL    HW231145   2.922   7.278   8.015  0.4873  1.0778 -0.5929
 9902SOL     OW31146   2.322   5.519   9.808 -0.8556 -0.6626  0.1287
 9902SOL    HW131147   2.237   5.557   9.785 -0.4180  0.5184  0.3728
 9902SOL    HW231148   2.369   5.514   9.725 -0.9547 -0.7772  0.0790
 9903SOL     OW31149   3.466   4.426   9.842 -0.5896 -0.0328 -0.2645
 9903SOL    HW131150   3.395   4.436   9.777  0.2511 -0.8342 -1.3436
 9903SOL    HW231151   3.537   4.480   9.808 -0.0668 -0.6180 -0.1195
 9904SOL     OW31152   1.953   5.543  10.452 -0.1925  0.0585  0.1949
 9904SOL    HW131153   1.858   5.543  10.464 -0.2208 -0.3569 -0.0188
 9904SOL    HW231154   1.966   5.550  10.358  0.0044  0.9092  0.2728
 9905SOL     OW31155   4.672   5.761   8.066  0.5002 -0.6292 -0.3664
 9905SOL    HW131156   4.603   5.809   8.111 -0.2512 -1.5216 -0.5386
 9905SOL    HW231157   4.663   5.670   8.096  1.5952 -0.7708 -0.3963
 9906SOL     OW31158   3.388   5.079  10.046  0.1468  0.0486 -0.2725
 9906SOL    HW131159   3.373   5.171  10.068 -0.5759 -0.2362  0.4852
 9906SOL    HW231160   3.388   5.077   9.950  1.0438  0.9640 -0.3096
 9907SOL     OW31161   4.264   5.572   9.920 -0.2737  0.6151  0.4003
 9907SOL    HW131162   4.249   5.522  10.000  1.1916  0.3155  0.5163
 9907SOL    HW231163   4.246   5.510   9.849  1.1737  0.0064  0.5401
 9908SOL     OW31164   3.096   5.263  10.806  0.3028  0.4202 -0.0764
 9908SOL    HW131165   3.005   5.286  10.787  0.7336  2.2010 -0.1283
 9908SOL    HW231166   3.093   5.170  10.828 -1.1884 -0.1116 -2.2812
 9909SOL     OW31167   2.225   6.481  12.028  0.2020 -0.3778  0.1250
 9909SOL    HW131168   2.223   6.410  11.965  0.6267 -1.3268  1.1552
 9909SOL    HW231169   2.299   6.462  12.084 -0.2780  0.3363  1.0400
 9910SOL     OW31170   0.417   5.506  10.302 -0.0126 -0.1167  0.0096
 9910SOL    HW131171   0.482   5.576  10.297 -1.4780  1.2449 -1.0682
 9910SOL    HW231172   0.361   5.520  10.226 -0.2168 -2.6627 -0.4138
 9911SOL     OW31173   4.266   3.460  12.068 -0.1328 -0.4369  0.1070
 9911SOL    HW131174   4.345   3.471  12.015  0.1019 -0.5532  0.4293
 9911SOL    HW231175   4.207   3.530  12.038 -1.1422 -2.1645 -2.3205
 9912SOL     OW31176   3.748   4.164  10.190 -0.0244  0.3444 -0.5138
 9912SOL    HW131177   3.694   4.131  10.118 -0.1785 -0.0879 -0.2038
 9912SOL    HW231178   3.771   4.253  10.164 -0.3381  0.2994 -0.9543
 9913SOL     OW31179   2.027   3.623  10.448  0.1903  0.1287 -0.3388
 9913SOL    HW131180   1.960   3.681  10.411  0.3959  0.8913  0.4681
 9913SOL    HW231181   2.068   3.582  10.372 -0.7832  0.1057 -0.8696
 9914SOL     OW31182   4.174   4.052   9.783  0.1158 -0.1446 -0.0231
 9914SOL    HW131183   4.160   4.094   9.698  1.2835  1.2117  0.4042
 9914SOL    HW231184   4.269   4.056   9.796  0.1098 -1.6654  0.6960
 9915SOL     OW31185   2.328   5.844   9.738 -0.0874  0.2627 -0.1261
 9915SOL    HW131186   2.383   5.786   9.790  0.2339  0.4491 -0.2571
 9915SOL    HW231187   2.281   5.786   9.678  0.5965  0.1739 -0.5923
 9916SOL     OW31188   3.674   2.499   0.153  0.4294 -0.2761 -0.2510
 9916SOL    HW131189   3.697   2.547   0.073  0.4496 -1.3310 -0.8935
 9916SOL    HW231190   3.616   2.558   0.200  1.5933  0.9777 -0.3148
 9917SOL     OW31191   2.272   3.723  10.816  0.3931 -0.2360 -0.1977
 9917SOL    HW131192   2.343   3.785  10.836  0.8743 -0.3589 -1.4636
 9917SOL    HW231193   2.209   3.774  10.766  0.1166 -0.4195 -0.0358
 9918SOL     OW31194   2.675   6.639   8.463 -0.3786  0.1258  0.0812
 9918SOL    HW131195   2.738   6.695   8.509  0.1186  1.8849 -2.5018
 9918SOL    HW231196   2.599   6.695   8.450  0.2468  0.4720 -2.8623
 9919SOL     OW31197   3.594   5.184   8.962 -0.5416  0.1062  0.1317
 9919SOL    HW131198   3.614   5.092   8.945 -2.0802  0.1979 -2.7262
 9919SOL    HW231199   3.679   5.224   8.982  0.1716 -1.8571  1.3111
 9920SOL     OW31200   2.468   4.333  10.561  0.5019 -0.0939  0.3206
 9920SOL    HW131201   2.423   4.269  10.615 -0.3708  0.0068 -0.2746
 9920SOL    HW231202   2.510   4.281  10.492  0.0354 -0.0609  0.0063
 9921SOL     OW31203   2.962   6.221   9.527 -0.5509  0.0115  0.8541
 9921SOL    HW131204   2.936   6.237   9.436  2.5063 -0.0000 -0.1387
 9921SOL    HW231205   2.930   6.297   9.575 -1.5301  0.4083 -0.3728
 9922SOL     OW31206   2.245   4.298  10.343  0.6944  0.7135 -0.1002
 9922SOL    HW131207   2.214   4.257  10.263  0.0525  0.4155  0.2934
 9922SOL    HW231208   2.266   4.388  10.318  1.7044  0.2845 -0.8771
 9923SOL     OW31209   4.129   5.656   0.912 -0.0141  0.1236 -0.6798
 9923SOL    HW131210   4.093   5.687   0.829  1.0864 -0.1797 -1.3022
 9923SOL    HW231211   4.059   5.605   0.952 -0.4591  0.0115 -1.5861
 9924SOL     OW31212   1.165   5.232   9.878  0.4220  0.3489 -0.1179
 9924SOL    HW131213   1.077   5.212   9.846 -0.3514  1.1271  1.3913
 9924SOL    HW231214   1.163   5.327   9.893  1.6891  0.4523 -0.5026
 9925SOL     OW31215   2.829   5.257  11.071 -0.1758 -0.8297  0.2980
 9925SOL    HW131216   2.839   5.182  11.013  1.6349  0.6226 -1.4323
 9925SOL    HW231217   2.919   5.284  11.091 -0.6722  1.7342 -0.4211
 9926SOL     OW31218   3.911   4.678  12.075 -0.0792 -0.0344  0.4297
 9926SOL    HW131219   3.882   4.603  12.022 -0.1429 -0.4279  1.0051
 9926SOL    HW231220   3.935   4.639  12.160 -0.0825  0.5918  0.7234
 9927SOL     OW31221   2.403   4.017   9.657  0.2425  0.5191 -0.3909
 9927SOL    HW131222   2.357   3.956   9.715 -0.0992  0.8430 -0.3202
 9927SOL    HW231223   2.496   4.001   9.674  0.1491  0.2631 -0.1182
 9928SOL     OW31224   2.792   5.769  11.974  0.3032  0.5546 -0.0255
 9928SOL    HW131225   2.721   5.718  12.013 -1.7972  2.1758 -1.4807
 9928SOL    HW231226   2.825   5.824  12.045  0.7729 -0.8783  0.8958
 9929SOL     OW31227   4.789   3.633  10.129 -0.3615 -0.2996 -0.3873
 9929SOL    HW131228   4.762   3.541  10.121  0.2242 -0.4321 -0.9243
 9929SOL    HW231229   4.747   3.677  10.055  3.2729 -1.1051 -3.2473
 9930SOL     OW31230   1.533   3.608   8.667  0.1384 -0.6216 -0.0358
 9930SOL    HW131231   1.569   3.618   8.579  0.3697  1.8661  0.2595
 9930SOL    HW231232   1.479   3.686   8.680 -0.3585 -1.2206  1.8098
 9931SOL     OW31233   4.308   4.782   9.396  0.5236 -0.2282 -0.0564
 9931SOL    HW131234   4.388   4.826   9.367  0.0325  0.3679 -0.5632
 9931SOL    HW231235   4.335   4.693   9.418  1.2510 -0.1429 -0.5848
 9932SOL     OW31236   2.260   2.732   9.770  0.1106  0.4522 -0.5794
 9932SOL    HW131237   2.353   2.753   9.767  0.0746  0.7504  0.1182
 9932SOL    HW231238   2.239   2.703   9.681  0.9424  0.0507 -0.6599
 9933SOL     OW31239   2.580   6.346   9.540 -0.2506  0.5332 -0.3026
 9933SOL    HW131240   2.660   6.398   9.535 -0.3879  0.8909  0.9339
 9933SOL    HW231241   2.577   6.315   9.631 -0.8080 -0.6228 -0.6947
 9934SOL     OW31242   2.002   7.252   9.173  0.1824  0.5065  0.1995
 9934SOL    HW131243   1.995   7.238   9.079  2.0920  2.1176 -0.2566
 9934SOL    HW231244   1.955   7.334   9.189 -0.6305 -0.0561  0.7640
 9935SOL     OW31245   5.917   4.802  10.009 -0.6432  0.1696  0.4743
 9935SOL    HW131246   5.865   4.878   9.980 -0.0117  1.6034  2.8073
 9935SOL    HW231247   5.853   4.731  10.014 -1.9016  1.2617  0.8913
 9936SOL     OW31248   2.726   7.079  10.826  0.2859 -0.6299 -0.7948
 9936SOL    HW131249   2.654   7.110  10.881  1.4301 -0.7881  0.8877
 9936SOL    HW231250   2.705   6.988  10.808 -0.3458 -0.4409 -1.0497
 9937SOL     OW31251   0.949   4.926   9.604  0.1468 -0.4155  0.2403
 9937SOL    HW131252   0.936   4.857   9.670  2.3826  0.0877  1.3075
 9937SOL    HW231253   1.020   4.893   9.549  1.2554  0.9982  0.7683
 9938SOL     OW31254   4.493   4.421   9.124 -0.5040 -0.8583 -0.6455
 9938SOL    HW131255   4.433   4.425   9.050 -0.1974  1.0937 -0.8304
 9938SOL    HW231256   4.487   4.330   9.155 -1.6792 -1.3352 -2.1740
 9939SOL     OW31257   2.350   2.850   8.899  0.0926 -0.0642 -1.2931
 9939SOL    HW131258   2.273   2.839   8.842 -0.8787  0.2301 -0.0911
 9939SOL    HW231259   2.320   2.911   8.967  0.5092 -2.0409  0.7494
 9940SOL     OW31260   2.508   5.892   9.094 -0.0655  0.0112  0.0167
 9940SOL    HW131261   2.508   5.830   9.021  1.1206  0.7785 -0.6660
 9940SOL    HW231262   2.427   5.872   9.142 -1.3139  0.0092 -1.9541
 9941SOL     OW31263   2.384   3.876  10.285 -0.1121 -0.2287  0.5307
 9941SOL    HW131264   2.416   3.910  10.369 -1.4228 -0.1012  1.0023
 9941SOL    HW231265   2.416   3.940  10.221  1.3948 -0.6350  0.8353
 9942SOL     OW31266   3.854   5.145   9.022 -0.9507 -0.7685 -0.1974
 9942SOL    HW131267   3.932   5.143   8.966 -0.5910 -1.5127  0.2983
 9942SOL    HW231268   3.866   5.070   9.082 -1.9059 -0.7194  0.0763
 9943SOL     OW31269   3.387   4.766  11.334  0.0547  0.8894  0.2982
 9943SOL    HW131270   3.398   4.721  11.251  1.0417  0.6967  0.5292
 9943SOL    HW231271   3.451   4.726  11.393  1.6742  3.1915  0.2501
 9944SOL     OW31272   2.185   6.491   9.629  1.0769 -0.2154  0.6186
 9944SOL    HW131273   2.234   6.541   9.695 -0.2887 -0.0443  1.5350
 9944SOL    HW231274   2.095   6.523   9.635  0.2176 -2.4569  0.9626
 9945SOL     OW31275   2.682   6.587   8.941 -0.5700 -0.4095  0.1270
 9945SOL    HW131276   2.620   6.530   8.987 -0.1908 -1.3728 -0.5327
 9945SOL    HW231277   2.745   6.527   8.901  1.2246  0.5543  1.3640
 9946SOL     OW31278   1.845   6.848   9.109  0.2499 -0.5944  0.2568
 9946SOL    HW131279   1.790   6.903   9.165 -0.4870 -0.2037 -0.8013
 9946SOL    HW231280   1.905   6.804   9.169 -1.2622 -1.0948  1.4900
 9947SOL     OW31281   4.126   3.231  10.558 -0.1582 -0.2430 -0.1073
 9947SOL    HW131282   4.052   3.195  10.608 -1.4097  0.3765 -1.4450
 9947SOL    HW231283   4.143   3.316  10.599  2.2152 -1.8026  2.4755
 9948SOL     OW31284   2.518   4.594  10.714  0.2759  0.5628  0.4673
 9948SOL    HW131285   2.478   4.517  10.673 -0.4612  1.0026  0.3278
 9948SOL    HW231286   2.516   4.574  10.808  0.8866  0.0511  0.3766
 9949SOL     OW31287   2.704   3.964   0.014 -0.2892 -0.7819 -0.2394
 9949SOL    HW131288   2.768   4.012   0.067  0.9844 -2.0744 -0.5121
 9949SOL    HW231289   2.704   3.876   0.052 -1.4695 -0.9719 -0.6475
 9950SOL     OW31290   4.230   5.230   9.069  0.7537  0.0954 -0.3311
 9950SOL    HW131291   4.174   5.266   9.000 -2.5728  0.6036  2.3865
 9950SOL    HW231292   4.198   5.141   9.082  2.0841 -0.3812 -0.0904
 9951SOL     OW31293   3.156   4.723  10.983 -0.2649 -0.1822  0.2755
 9951SOL    HW131294   3.224   4.750  10.921  0.8683 -1.3721  0.9417
 9951SOL    HW231295   3.136   4.632  10.958 -1.8143  0.2219 -0.0559
 9952SOL     OW31296   4.300   4.538  10.655  0.2473 -0.4324 -0.1247
 9952SOL    HW131297   4.222   4.526  10.709 -0.0946 -1.5286 -0.8115
 9952SOL    HW231298   4.365   4.481  10.695 -0.1845 -1.7051 -1.1566
 9953SOL     OW31299   3.078   4.475   8.241  0.4531  0.0808 -0.2709
 9953SOL    HW131300   3.167   4.508   8.230  0.6440  0.2556  1.5582
 9953SOL    HW231301   3.023   4.541   8.197  1.2129 -0.3645 -1.9941
 9954SOL     OW31302   3.554   4.743  10.569 -0.3371  0.8113 -0.1733
 9954SOL    HW131303   3.609   4.732  10.491 -1.6075 -0.2976 -0.9647
 9954SOL    HW231304   3.595   4.687  10.635 -0.0112  0.7007 -0.4642
 9955SOL     OW31305   3.286   4.777   9.279  0.1187 -0.2053  0.7081
 9955SOL    HW131306   3.298   4.686   9.306  0.0849 -0.0257  1.3486
 9955SOL    HW231307   3.363   4.797   9.227  0.5202 -0.3579  1.2339
 9956SOL     OW31308   2.332   3.816   8.039  0.1983  0.3360 -0.0555
 9956SOL    HW131309   2.365   3.732   8.007 -0.1113  0.1207  0.1910
 9956SOL    HW231310   2.360   3.820   8.130  1.0012  0.9104 -0.3226
 9957SOL     OW31311   3.001   4.736   9.060 -0.3010 -0.5066  0.6516
 9957SOL    HW131312   2.970   4.676   8.992  0.3884 -1.3441  1.0489
 9957SOL    HW231313   2.986   4.689   9.142 -0.4718  0.1975  1.0304
 9958SOL     OW31314   3.322   4.030   9.886  0.0746  0.0434  0.4339
 9958SOL    HW131315   3.347   4.006   9.797 -1.1395  0.1913  0.0465
 9958SOL    HW231316   3.406   4.047   9.930  0.8303 -2.0923 -0.0480
 9959SOL     OW31317   2.800   5.987   9.496 -0.1669  0.0602  0.1121
 9959SOL    HW131318   2.863   5.918   9.476 -0.6316 -0.4229  0.2894
 9959SOL    HW231319   2.852   6.067   9.499  0.1463 -0.0300 -1.6431
 9960SOL     OW31320   1.555   4.195   9.049  0.4767 -0.1603 -0.2227
 9960SOL    HW131321   1.483   4.157   8.998 -0.5736 -0.6300  1.5065
 9960SOL    HW231322   1.588   4.267   8.995 -0.5388 -0.6613 -1.5599
 9961SOL     OW31323   3.464   5.775   8.637 -0.1564 -0.3712  0.1368
 9961SOL    HW131324   3.467   5.799   8.730 -1.0809 -0.8639  0.3038
 9961SOL    HW231325   3.377   5.803   8.608  0.1155 -0.2566 -0.5750
 9962SOL     OW31326   0.725   2.944   8.426  0.7779 -0.3698  0.7390
 9962SOL    HW131327   0.639   2.988   8.425  0.3402 -1.1877  1.1258
 9962SOL    HW231328   0.729   2.898   8.342  2.0974  1.9523 -0.5681
 9963SOL     OW31329   0.760   4.372  11.054 -0.3407  0.0829 -0.5165
 9963SOL    HW131330   0.822   4.420  10.999 -0.3162  1.3849  0.5856
 9963SOL    HW231331   0.774   4.407  11.142 -1.4807 -0.8073  0.0436
 9964SOL     OW31332   3.452   4.340  10.159 -0.2246 -0.0360  0.1027
 9964SOL    HW131333   3.438   4.327  10.065 -0.0648  1.5776 -0.1685
 9964SOL    HW231334   3.434   4.254  10.197  0.3039 -0.8899 -1.4558
 9965SOL     OW31335   2.452   2.915   9.348 -0.0700 -0.3276 -0.5618
 9965SOL    HW131336   2.382   2.856   9.321 -0.4793  0.8769 -2.2508
 9965SOL    HW231337   2.427   3.001   9.312  0.6765  0.8378  1.5221
 9966SOL     OW31338   3.281   3.549   9.062  0.0121  0.1035  0.0693
 9966SOL    HW131339   3.355   3.534   9.121 -0.3099  0.2592  0.5286
 9966SOL    HW231340   3.320   3.555   8.975  0.8642  2.5238  0.5333
 9967SOL     OW31341   3.873   7.070  10.734 -0.0159  0.3060  0.5793
 9967SOL    HW131342   3.928   7.067  10.812 -0.7248  0.5335  1.0947
 9967SOL    HW231343   3.848   6.979  10.719 -1.5399  0.4768  1.8336
 9968SOL     OW31344   3.824   5.132  11.400  0.2291  0.1337 -0.2451
 9968SOL    HW131345   3.809   5.203  11.462 -0.3043 -0.7199  0.6109
 9968SOL    HW231346   3.739   5.089  11.391  0.9409 -1.5144  0.6405
 9969SOL     OW31347   3.697   4.209   9.724 -0.0013 -0.1139  0.3805
 9969SOL    HW131348   3.641   4.233   9.650 -1.4238 -1.7733  0.8705
 9969SOL    HW231349   3.720   4.118   9.708  0.2587 -0.2787  1.6372
 9970SOL     OW31350   2.243   5.607  10.297  0.1942 -0.3878 -0.7340
 9970SOL    HW131351   2.240   5.577  10.206  0.0456  0.9295 -1.1965
 9970SOL    HW231352   2.155   5.643  10.312 -0.0709 -1.4217  0.2380
 9971SOL     OW31353   5.613   5.370  11.619 -0.1496  0.0941  0.2936
 9971SOL    HW131354   5.598   5.345  11.528 -2.6975  3.3829 -0.3994
 9971SOL    HW231355   5.708   5.382  11.626  0.0216  0.7896 -2.2897
 9972SOL     OW31356   3.335   5.026   8.792  0.5534 -0.2036 -0.1462
 9972SOL    HW131357   3.290   5.022   8.877  0.4994  1.1134 -0.1012
 9972SOL    HW231358   3.428   5.032   8.814  0.4306  2.4201 -0.0763
 9973SOL     OW31359   2.629   4.406  10.094 -0.3880  0.5797 -0.5927
 9973SOL    HW131360   2.571   4.429  10.021 -1.6644  0.3875  0.3322
 9973SOL    HW231361   2.616   4.312  10.106 -0.3838  0.6559  0.0396
 9974SOL     OW31362   3.047   4.713   9.419 -0.4034 -0.0775  0.1942
 9974SOL    HW131363   3.119   4.746   9.365 -0.6367  0.1028 -0.0062
 9974SOL    HW231364   3.043   4.619   9.398 -0.9052  0.1129 -0.5827
 9975SOL     OW31365   2.648   6.423  11.525  0.2702  0.7971  0.9105
 9975SOL    HW131366   2.620   6.513  11.507 -0.0856  0.7099  1.0129
 9975SOL    HW231367   2.695   6.428  11.608  0.5003  0.9359  0.7707
 9976SOL     OW31368   2.258   4.787   8.445  0.2779  0.2113  0.1388
 9976SOL    HW131369   2.280   4.737   8.366  0.6276  0.9521 -0.2433
 9976SOL    HW231370   2.203   4.859   8.413 -0.3628 -0.0141  0.7022
 9977SOL     OW31371   3.284   5.410  10.694 -0.1372 -0.2856 -0.0862
 9977SOL    HW131372   3.228   5.358  10.752 -0.7310 -0.7578 -1.0616
 9977SOL    HW231373   3.236   5.416  10.612 -0.1233  1.9112 -0.0003
 9978SOL     OW31374   3.203   4.907  10.374 -0.4605 -0.1664 -0.2850
 9978SOL    HW131375   3.150   4.910  10.454 -1.5219  1.2133 -1.0051
 9978SOL    HW231376   3.241   4.995  10.367 -0.1827 -0.3519 -1.1713
 9979SOL     OW31377   2.783   5.360  10.359  0.1002  0.3113 -0.1102
 9979SOL    HW131378   2.791   5.415  10.437  0.1606  0.3758 -0.1614
 9979SOL    HW231379   2.696   5.322  10.366  0.4227 -0.3479  0.4253
 9980SOL     OW31380   2.765   5.788   8.915 -0.0926 -0.5686  0.4643
 9980SOL    HW131381   2.830   5.823   8.854 -0.8703 -1.8580 -1.1995
 9980SOL    HW231382   2.691   5.848   8.908 -0.8139 -1.5656 -1.1890
 9981SOL     OW31383   2.625   6.019  10.279 -0.1429 -0.3035 -0.2497
 9981SOL    HW131384   2.576   5.939  10.298 -2.6263  1.2600  0.4478
 9981SOL    HW231385   2.593   6.046  10.192  0.9256 -0.2129 -0.6305
 9982SOL     OW31386   1.117   3.933   9.974  0.1318  0.1810 -0.2148
 9982SOL    HW131387   1.062   3.857   9.958 -1.5909  1.0612  1.1766
 9982SOL    HW231388   1.167   3.945   9.893 -0.8233 -1.3752 -1.0663
 9983SOL     OW31389   1.552   6.105  11.076  0.5320  0.1641  0.3594
 9983SOL    HW131390   1.546   6.115  10.981 -2.0004  0.7865  0.5175
 9983SOL    HW231391   1.529   6.191  11.111  0.5267 -0.2938  1.5356
 9984SOL     OW31392   1.959   4.049   8.612 -0.4538  0.1851 -0.7754
 9984SOL    HW131393   1.971   4.144   8.612 -1.2753  0.3394  0.9742
 9984SOL    HW231394   1.875   4.036   8.657  0.3183 -1.4151  0.3173
 9985SOL     OW31395   2.693   5.615   8.301  0.0865 -0.4972  0.0997
 9985SOL    HW131396   2.757   5.571   8.245  0.3707  0.6555 -0.5045
 9985SOL    HW231397   2.702   5.572   8.386  0.7408 -1.2243 -0.3283
 9986SOL     OW31398   2.885   4.344   8.683  0.5782 -1.0878 -0.2582
 9986SOL    HW131399   2.979   4.334   8.695  0.6157 -2.4492 -1.4054
 9986SOL    HW231400   2.876   4.417   8.622  0.8240 -0.2584  0.6845
 9987SOL     OW31401   3.595   6.361  10.341  0.1030  0.9150  0.0657
 9987SOL    HW131402   3.543   6.369  10.261  0.8329  0.5978 -0.4547
 9987SOL    HW231403   3.671   6.308  10.315 -0.4249 -0.5493  1.3485
 9988SOL     OW31404   2.726   4.263   9.095  0.2724  0.4756  0.6593
 9988SOL    HW131405   2.791   4.219   9.041  1.0863  0.0575  1.9136
 9988SOL    HW231406   2.645   4.259   9.045  1.0036  0.1516 -0.5187
 9989SOL     OW31407   1.834   4.868  10.022 -0.2363  0.1754 -0.1608
 9989SOL    HW131408   1.881   4.853  10.104  0.1995  1.9136 -0.0689
 9989SOL    HW231409   1.791   4.784  10.004  1.3284 -0.8829  0.7534
 9990SOL     OW31410   1.313   3.144   9.597  0.3305  0.2934 -0.4129
 9990SOL    HW131411   1.347   3.234   9.599 -0.3098  0.5295  0.6664
 9990SOL    HW231412   1.312   3.121   9.504  0.0922  1.5703 -0.7486
 9991SOL     OW31413   2.271   5.081  11.988 -0.0373  0.0987 -0.5055
 9991SOL    HW131414   2.337   5.124  11.934  0.8144  0.1463  0.5351
 9991SOL    HW231415   2.313   5.001  12.020  0.1357  0.9159  1.4704
 9992SOL     OW31416   2.487   5.001   8.951 -0.1885 -0.3831 -0.6685
 9992SOL    HW131417   2.443   4.962   8.876 -0.9568 -0.7075 -0.0734
 9992SOL    HW231418   2.416   5.019   9.013  0.2230  1.4141 -0.6739
 9993SOL     OW31419   4.486   3.595  11.978 -0.6748 -0.5276  0.1581
 9993SOL    HW131420   4.457   3.590  11.888 -1.1475 -0.2421  0.2931
 9993SOL    HW231421   4.543   3.672  11.981  1.0697 -1.7316 -0.3672
 9994SOL     OW31422   2.200   6.322   9.123 -0.1924 -0.0577  0.4377
 9994SOL    HW131423   2.191   6.411   9.089  0.9891 -0.1399 -0.1201
 9994SOL    HW231424   2.262   6.279   9.065  2.2463 -0.0936  2.8571
 9995SOL     OW31425   3.032   6.076   8.949  0.5935 -0.2170 -0.3369
 9995SOL    HW131426   3.010   6.148   9.008  0.8463 -0.8567  0.5581
 9995SOL    HW231427   3.100   6.112   8.892  1.7632 -0.1512  1.0372
 9996SOL     OW31428   2.467   3.768   9.092 -0.2158  0.2022 -0.2240
 9996SOL    HW131429   2.505   3.807   9.170  1.7187 -2.3820  0.2528
 9996SOL    HW231430   2.458   3.841   9.030  3.6834  1.4013  0.3742
 9997SOL     OW31431   2.052   2.835  10.591  0.2603  0.0184  0.2964
 9997SOL    HW131432   2.026   2.912  10.540  0.5056 -0.0591  0.0493
 9997SOL    HW231433   1.970   2.797  10.622  0.1282  0.2697  0.2580
 9998SOL     OW31434   3.278   6.729  10.565 -0.2982  0.2681 -0.8675
 9998SOL    HW131435   3.240   6.672  10.498 -2.3616  0.5020  0.0083
 9998SOL    HW231436   3.355   6.767  10.524  0.8797 -2.6901 -1.6841
 9999SOL     OW31437   2.992   4.522  10.857 -0.7751  0.2783  0.0414
 9999SOL    HW131438   2.996   4.543  10.764 -0.1507  2.4621  0.4834
 9999SOL    HW231439   2.918   4.573  10.890 -1.1204 -0.6341  0.7072
10000SOL     OW31440   3.883   4.837  10.850 -0.3242 -0.4837  0.0242
10000SOL    HW131441   3.832   4.765  10.815  0.0706 -1.1816  0.8390
10000SOL    HW231442   3.830   4.872  10.922 -0.4373 -0.0715 -0.2579
10001SOL     OW31443   3.265   5.728   9.253  0.6909  0.3273  0.5580
10001SOL    HW131444   3.251   5.822   9.244  1.1498  0.3704  0.2420
10001SOL    HW231445   3.311   5.719   9.336 -0.2206  0.2829  1.0745
10002SOL     OW31446   3.346   2.234   9.149  0.2520 -0.6502  0.3007
10002SOL    HW131447   3.252   2.225   9.134  0.3435 -1.1998  0.0197
10002SOL    HW231448   3.373   2.307   9.093  0.0899 -0.8580 -0.0503
10003SOL     OW31449   2.232   4.201   8.428  0.4018 -0.3462 -0.0245
10003SOL    HW131450   2.170   4.163   8.366 -1.0166  0.6171  0.7337
10003SOL    HW231451   2.177   4.253   8.487  1.9430  0.5054  0.7102
10004SOL     OW31452   2.023   4.961  11.500 -0.4973  0.6845  0.0926
10004SOL    HW131453   1.947   4.905  11.491 -1.0930  1.5543 -0.4391
10004SOL    HW231454   2.073   4.923  11.573 -0.2188 -1.2682 -1.0387
10005SOL     OW31455   4.327   6.088   9.056  0.3366 -0.1934  0.0294
10005SOL    HW131456   4.264   6.065   8.987 -0.9628 -0.5007  1.2767
10005SOL    HW231457   4.412   6.084   9.013 -0.5237  1.1352 -1.9637
10006SOL     OW31458   1.503   5.627  11.602 -0.5113  0.2115 -0.1743
10006SOL    HW131459   1.596   5.614  11.585  0.1821  3.6073  0.3282
10006SOL    HW231460   1.464   5.540  11.590  2.7016 -1.3679 -0.1904
10007SOL     OW31461   3.351   5.616   9.801  0.7925 -0.3747  0.3037
10007SOL    HW131462   3.306   5.643   9.721 -0.6971  2.4584  1.9204
10007SOL    HW231463   3.433   5.664   9.800  1.4570 -1.4828 -0.1675
10008SOL     OW31464   2.807   5.015  10.949 -0.0647  0.3725  0.0354
10008SOL    HW131465   2.859   4.950  10.995  0.3878  0.4201 -0.3997
10008SOL    HW231466   2.757   4.965  10.884  0.2973  0.4548 -0.3122
10009SOL     OW31467   1.909   6.197  11.319  0.3411 -0.1538  0.3520
10009SOL    HW131468   1.834   6.139  11.304  0.6057 -0.2277 -0.7729
10009SOL    HW231469   1.962   6.152  11.385  0.4112 -1.0684 -0.3173
10010SOL     OW31470   5.645   4.927  11.993 -0.1565  0.0403  0.7040
10010SOL    HW131471   5.636   4.908  11.900  0.1061 -0.0185  0.6904
10010SOL    HW231472   5.573   4.987  12.012  0.7020  1.3217  0.1098
10011SOL     OW31473   3.455   2.248   0.395 -0.0476 -0.3445 -0.0136
10011SOL    HW131474   3.381   2.307   0.375 -0.7038 -1.0772  0.2093
10011SOL    HW231475   3.473   2.264   0.487 -0.8870 -1.1972  0.3140
10012SOL     OW31476   2.612   5.448   9.562 -0.5428 -0.4958 -0.4353
10012SOL    HW131477   2.660   5.397   9.626 -1.8522 -0.4263  0.6532
10012SOL    HW231478   2.520   5.434   9.584 -0.9801  1.0852 -1.0869
10013SOL     OW31479   7.707   5.227   9.463 -0.7373 -0.1717 -0.5310
10013SOL    HW131480   7.625   5.202   9.505 -0.1668  0.8367  1.3071
10013SOL    HW231481   7.771   5.230   9.534  0.7411 -0.2132 -1.7918
10014SOL     OW31482   3.231   6.366   9.816 -0.9729  0.5335  0.2024
10014SOL    HW131483   3.235   6.392   9.724  1.7515 -1.1031 -0.2619
10014SOL    HW231484   3.138   6.352   9.833 -1.6244  1.6231 -2.0528
10015SOL     OW31485   4.073   4.598  10.804 -0.7266 -0.2471  0.3766
10015SOL    HW131486   4.075   4.536  10.876  0.9702  0.9741  1.4717
10015SOL    HW231487   4.027   4.674  10.840  1.1452  0.8220  0.6419
10016SOL     OW31488   0.602   6.403  10.913 -0.2312  0.5084 -0.0541
10016SOL    HW131489   0.581   6.361  10.830 -0.1895  0.4486 -0.0342
10016SOL    HW231490   0.525   6.457  10.933 -0.6499 -0.2299  0.3549
10017SOL     OW31491   2.747   3.833  11.948 -0.4475 -0.1520  0.3627
10017SOL    HW131492   2.653   3.850  11.935 -0.8036 -1.5634  0.8114
10017SOL    HW231493   2.758   3.741  11.922  1.1449  0.4317 -1.1995
10018SOL     OW31494   2.599   6.269  10.948 -0.0634 -0.0507 -0.2134
10018SOL    HW131495   2.538   6.288  10.878  1.0775 -1.8735 -1.7983
10018SOL    HW231496   2.681   6.249  10.904  1.5646  1.6497  1.7992
10019SOL     OW31497   3.401   4.073  10.346 -0.2793  0.2587 -0.0320
10019SOL    HW131498   3.478   4.087  10.401  1.1703  2.1220 -2.3465
10019SOL    HW231499   3.429   4.006  10.283 -1.0715 -0.1190  0.0132
10020SOL     OW31500   2.530   5.291  10.497 -0.1949  0.4549 -0.1171
10020SOL    HW131501   2.577   5.250  10.570  0.0087  1.8494  0.5800
10020SOL    HW231502   2.438   5.272  10.514 -0.0293 -0.6438 -0.4191
10021SOL     OW31503   0.890   4.179  10.123 -0.0577 -0.0958  0.0181
10021SOL    HW131504   0.850   4.248  10.177 -0.6194  0.3089 -0.8841
10021SOL    HW231505   0.984   4.197  10.127 -0.2897  1.9479 -1.7389
10022SOL     OW31506   2.423   5.812  10.272 -0.0666  0.0441  0.1820
10022SOL    HW131507   2.489   5.774  10.331  0.0726  2.1249  1.4558
10022SOL    HW231508   2.351   5.750  10.275  0.9058 -1.1210  0.6126
10023SOL     OW31509   2.981   5.855  10.174  0.2427 -0.3556 -0.2016
10023SOL    HW131510   2.967   5.794  10.247  0.7189 -0.7537 -0.4455
10023SOL    HW231511   3.029   5.805  10.109 -2.4159 -0.8389 -1.9359
10024SOL     OW31512   2.766   5.379   9.865 -0.3552  0.2335 -0.2473
10024SOL    HW131513   2.788   5.356   9.955  0.5692  0.8212 -0.3162
10024SOL    HW231514   2.742   5.296   9.824 -1.1888  0.0155  0.6355
10025SOL     OW31515   0.405   5.530   9.521  0.7595  0.0153 -0.4029
10025SOL    HW131516   0.334   5.478   9.485  1.5557 -0.4727 -1.3099
10025SOL    HW231517   0.477   5.519   9.459  2.2654 -1.0261  1.4464
10026SOL     OW31518   3.846   3.991  11.500  0.1847 -0.1378 -0.0109
10026SOL    HW131519   3.877   3.918  11.554  3.7242  0.2530 -1.2571
10026SOL    HW231520   3.778   3.953  11.444  0.0254 -1.7666  1.2167
10027SOL     OW31521   1.519   4.878   9.070 -0.0133 -0.2093  0.3859
10027SOL    HW131522   1.498   4.810   9.134 -1.1120 -1.2150 -1.0057
10027SOL    HW231523   1.539   4.955   9.124 -2.3545 -0.5895  1.9508
10028SOL     OW31524   3.372   5.126  12.293  0.7154 -0.3215  0.4080
10028SOL    HW131525   3.355   5.156  12.382  1.7836  0.3254  0.4127
10028SOL    HW231526   3.450   5.070  12.300  1.0516  0.0592 -0.1613
10029SOL     OW31527   2.061   4.088   9.846 -0.9300  0.3979  0.5464
10029SOL    HW131528   2.017   4.008   9.816 -0.1144  0.5716 -1.3189
10029SOL    HW231529   2.000   4.128   9.907 -2.0026 -0.8998  0.3805
10030SOL     OW31530   3.220   5.704  10.408 -0.5054 -0.2684 -0.6075
10030SOL    HW131531   3.200   5.785  10.455 -0.5757  0.9207 -2.5650
10030SOL    HW231532   3.306   5.720  10.370 -1.0784 -0.5741 -2.0845
10031SOL     OW31533   2.066   4.235   9.123 -0.2433 -0.0719 -0.0301
10031SOL    HW131534   2.140   4.264   9.070 -0.5626  0.3728 -0.2419
10031SOL    HW231535   2.090   4.258   9.213  0.2562 -0.7363  0.0142
10032SOL     OW31536   3.248   5.869  11.657  0.2509 -0.0990  0.7812
10032SOL    HW131537   3.269   5.962  11.648  0.8101 -0.2983 -0.1589
10032SOL    HW231538   3.192   5.849  11.582  2.2388 -1.0687 -0.5511
10033SOL     OW31539   4.033   7.202   9.701  0.7422  0.0798  0.4324
10033SOL    HW131540   4.117   7.212   9.655 -0.3145  1.0072 -1.4367
10033SOL    HW231541   4.056   7.199   9.793  2.8920 -0.4513 -0.0587
10034SOL     OW31542   2.302   5.678  12.171 -0.0930 -0.0248 -0.3447
10034SOL    HW131543   2.321   5.585  12.186  0.6903 -0.3244 -2.7650
10034SOL    HW231544   2.206   5.684  12.175 -0.2450 -1.2336 -1.4995
10035SOL     OW31545   2.336   4.453   8.754 -0.4180  0.0087  0.3709
10035SOL    HW131546   2.428   4.429   8.741 -0.6169  0.0493 -1.4937
10035SOL    HW231547   2.323   4.528   8.695 -2.0888 -1.1658 -0.8487
10036SOL     OW31548   2.893   4.632  10.080  0.6429  0.0333  0.2997
10036SOL    HW131549   2.948   4.587  10.016 -0.8448 -1.0165 -0.2978
10036SOL    HW231550   2.937   4.715  10.095  1.8222 -0.3272 -0.9566
10037SOL     OW31551   2.342   5.670   9.214 -0.0706 -0.0410  0.2482
10037SOL    HW131552   2.329   5.708   9.127  0.5172  1.2143  0.6915
10037SOL    HW231553   2.316   5.579   9.203  1.3392 -0.2947 -1.6031
10038SOL     OW31554   3.588   5.420  11.192  0.0039 -0.0219 -0.2923
10038SOL    HW131555   3.668   5.473  11.192  0.3645 -0.5058  1.5920
10038SOL    HW231556   3.618   5.332  11.172 -0.2236  0.0018 -0.7405
10039SOL     OW31557   5.244   3.462  10.148 -0.0237  0.3858  0.3187
10039SOL    HW131558   5.240   3.408  10.227 -1.2686  0.5295  0.3611
10039SOL    HW231559   5.191   3.538  10.168  1.1949  1.3553  0.0183
10040SOL     OW31560   1.354   2.924  10.244  0.1532 -0.0056 -0.0887
10040SOL    HW131561   1.279   2.865  10.246 -0.1787  0.3671 -1.1982
10040SOL    HW231562   1.324   3.002  10.291 -0.2749  0.2733 -0.8124
10041SOL     OW31563   0.936   5.545   7.892 -0.2131  0.1712 -0.1810
10041SOL    HW131564   1.028   5.522   7.904 -0.4447 -1.6666 -1.5394
10041SOL    HW231565   0.906   5.574   7.978  1.5595  0.5984  0.3213
10042SOL     OW31566   1.959   4.542   9.636 -0.6866 -0.3476 -0.0797
10042SOL    HW131567   2.020   4.588   9.693 -1.0919 -1.1331  1.0421
10042SOL    HW231568   2.000   4.456   9.622 -0.3345  0.0244 -1.4423
10043SOL     OW31569   3.103   4.117   8.708 -0.3353 -0.2741  0.2065
10043SOL    HW131570   3.103   4.076   8.621 -0.4427  2.1253 -1.0186
10043SOL    HW231571   3.189   4.097   8.744  0.7630  0.9024 -1.6314
10044SOL     OW31572   2.191   5.145   8.752  0.0312  0.1956  0.4451
10044SOL    HW131573   2.277   5.178   8.727 -0.2308  0.2866 -0.3462
10044SOL    HW231574   2.149   5.219   8.795 -0.2332  0.6542 -0.5679
10045SOL     OW31575   3.761   5.681  10.024 -0.7004  0.4535  0.1585
10045SOL    HW131576   3.774   5.611   9.960 -1.9866  0.0988  0.2529
10045SOL    HW231577   3.688   5.731   9.989  0.2817  1.8411  0.0364
10046SOL     OW31578   2.798   6.116  10.641 -0.1600 -0.2544  0.6789
10046SOL    HW131579   2.851   6.180  10.689 -0.0899 -0.8986  1.4838
10046SOL    HW231580   2.822   6.129  10.549 -1.9791  2.6126  0.4826
10047SOL     OW31581   1.472   2.412  10.930 -0.3165  0.0506 -0.1073
10047SOL    HW131582   1.418   2.355  10.875  0.8467  1.9379 -3.5326
10047SOL    HW231583   1.411   2.446  10.996 -2.0895 -1.5664 -0.8108
10048SOL     OW31584   2.009   5.579  11.035 -0.9634 -0.2590  0.2344
10048SOL    HW131585   2.001   5.611  11.125 -1.5994  0.2602  0.0069
10048SOL    HW231586   1.919   5.583  11.001 -0.3122  2.8078 -1.4916
10049SOL     OW31587   3.393   5.618  10.980 -0.0551  0.0485  0.2079
10049SOL    HW131588   3.378   5.697  11.031 -0.4986  0.2274 -0.1910
10049SOL    HW231589   3.488   5.614  10.968 -0.0390  0.5476  0.1756
10050SOL     OW31590   0.935   5.904   9.756  0.6397 -0.1721 -0.0203
10050SOL    HW131591   0.861   5.901   9.695  1.2511  1.3124 -0.8896
10050SOL    HW231592   0.932   5.820   9.801 -0.4961 -0.8705 -1.3182
10051SOL     OW31593   3.552   6.199  11.095 -0.3320  0.6199 -0.4483
10051SOL    HW131594   3.600   6.270  11.053  0.0851  0.8684  0.4317
10051SOL    HW231595   3.588   6.119  11.058  2.0464  0.7125  1.4604
10052SOL     OW31596   3.155   2.697  10.677  0.1981  0.2591  0.2380
10052SOL    HW131597   3.118   2.716  10.591  0.7542 -0.9401 -0.2823
10052SOL    HW231598   3.084   2.656  10.725  0.3762 -0.5979 -0.2223
10053SOL     OW31599   0.183   4.301   8.534 -0.0259  0.1878  0.0994
10053SOL    HW131600   0.105   4.290   8.479 -0.7335 -0.8277  1.2548
10053SOL    HW231601   0.236   4.366   8.488 -0.7753 -0.3199 -1.5761
10054SOL     OW31602   3.047   4.030   9.842  0.0916 -0.3488  0.6021
10054SOL    HW131603   3.066   3.944   9.805 -0.1117  0.8693 -2.7260
10054SOL    HW231604   3.131   4.074   9.845 -0.2454  0.7151 -1.9997
10055SOL     OW31605   1.148   4.746   7.550 -0.0985 -0.1328  0.7015
10055SOL    HW131606   1.091   4.785   7.615 -0.5431  0.9088 -0.2825
10055SOL    HW231607   1.093   4.679   7.507 -0.7317  1.0915 -0.4669
10056SOL     OW31608   3.805   4.617   9.398  0.9646 -0.4652  0.2790
10056SOL    HW131609   3.791   4.569   9.316  0.4310 -0.6431  0.4669
10056SOL    HW231610   3.894   4.592   9.425  1.5660  0.4194 -0.7762
10057SOL     OW31611   2.302   3.392  11.235 -0.1696 -0.0050 -0.4380
10057SOL    HW131612   2.241   3.418  11.305 -2.0914  0.1587 -2.0656
10057SOL    HW231613   2.359   3.468  11.223  0.5504 -0.2389  1.2710
10058SOL     OW31614   3.131   5.459  10.491  1.0155 -0.0305  0.3914
10058SOL    HW131615   3.049   5.485  10.534  1.4518  1.3130  0.4532
10058SOL    HW231616   3.156   5.535  10.439  0.1070 -1.8136 -2.9876
10059SOL     OW31617   1.386   1.970  11.102 -0.1436 -0.1618 -0.8301
10059SOL    HW131618   1.339   1.933  11.176 -1.6991 -0.7433 -2.0490
10059SOL    HW231619   1.461   1.912  11.089  1.2178  0.9639  1.3484
10060SOL     OW31620   4.090   4.289  12.180 -0.0446 -0.0795  0.3250
10060SOL    HW131621   4.086   4.313  12.087 -0.4634 -1.0385  0.0849
10060SOL    HW231622   4.036   4.355  12.223 -1.7771 -0.9491 -0.4132
10061SOL     OW31623   3.957   5.621   8.531  0.2619  0.7664 -0.1966
10061SOL    HW131624   3.958   5.611   8.436 -0.5911  3.0194 -0.4935
10061SOL    HW231625   3.959   5.531   8.564  2.7008 -0.0739 -2.2620
10062SOL     OW31626   2.496   4.227  11.496  0.4356  0.4016 -0.0260
10062SOL    HW131627   2.589   4.231  11.514  0.5255  0.0604 -0.3927
10062SOL    HW231628   2.455   4.282  11.563  1.0034  1.6256 -0.6536
10063SOL     OW31629   2.780   4.719   9.491  0.2995 -0.4293  0.2192
10063SOL    HW131630   2.784   4.794   9.550  0.1143 -1.7465  1.9899
10063SOL    HW231631   2.866   4.718   9.448 -0.0761  1.3958 -0.6866
10064SOL     OW31632   1.999   5.506   9.872 -0.0532  0.0326  0.7940
10064SOL    HW131633   2.071   5.446   9.894 -0.7437 -1.6207 -1.1093
10064SOL    HW231634   1.939   5.453   9.820 -0.9908  2.2525 -0.5413
10065SOL     OW31635   3.430   4.803  10.224  0.0081 -0.0286  0.5074
10065SOL    HW131636   3.394   4.873  10.170  1.5399 -1.4710 -2.6794
10065SOL    HW231637   3.382   4.724  10.197  0.1701 -0.6873  2.0126
10066SOL     OW31638   3.824   3.316  10.399  0.1336  0.1407 -0.3787
10066SOL    HW131639   3.732   3.290  10.414  0.3543  0.2323  1.3335
10066SOL    HW231640   3.827   3.341  10.307 -1.6626  0.5055 -0.3766
10067SOL     OW31641   2.369   7.093   7.280 -0.0483  0.5072 -0.1537
10067SOL    HW131642   2.409   7.165   7.328  2.5181  0.4389 -2.0034
10067SOL    HW231643   2.422   7.084   7.201 -2.5873 -0.9672 -1.8294
10068SOL     OW31644   2.952   5.892   8.764  0.3871 -0.4840  0.0254
10068SOL    HW131645   3.018   5.824   8.776  0.1784 -0.4576  1.5082
10068SOL    HW231646   2.983   5.966   8.816  0.1022  0.2010 -0.7495
10069SOL     OW31647   0.341   5.166  10.219 -0.4846 -0.0582 -0.1178
10069SOL    HW131648   0.426   5.123  10.218  0.0223  0.6086  3.0267
10069SOL    HW231649   0.305   5.145  10.305 -1.8166  2.7342  0.1154
10070SOL     OW31650   3.892   4.368   9.877 -0.0931  0.1768 -0.0596
10070SOL    HW131651   3.811   4.333   9.839 -1.6861  1.8239  1.6372
10070SOL    HW231652   3.935   4.292   9.916 -0.4357 -0.8414 -1.5970
10071SOL     OW31653   3.638   5.714   0.327 -0.0296  0.2900 -0.1100
10071SOL    HW131654   3.644   5.699   0.233 -0.1822  0.8923 -0.2232
10071SOL    HW231655   3.546   5.740   0.341  0.0990  0.6178  0.1392
10072SOL     OW31656   3.578   6.384   7.665  0.5909 -0.0636  0.0764
10072SOL    HW131657   3.633   6.462   7.654 -0.0454  0.3949  0.1046
10072SOL    HW231658   3.577   6.344   7.579  3.8633 -2.0687  0.8172
10073SOL     OW31659   3.246   4.930   8.540 -0.1607 -0.0628 -0.0815
10073SOL    HW131660   3.234   4.840   8.572 -0.3574 -0.4188 -1.1141
10073SOL    HW231661   3.285   4.977   8.613 -1.2039 -0.6893  0.9042
10074SOL     OW31662   0.826   4.469  11.807  0.0267  0.1239 -0.3233
10074SOL    HW131663   0.818   4.415  11.885 -0.2436  1.1769  0.4021
10074SOL    HW231664   0.920   4.475  11.791  0.0358 -1.1472 -0.8525
10075SOL     OW31665   5.206   5.149   9.237  0.6998 -0.4538 -0.7556
10075SOL    HW131666   5.136   5.114   9.291  0.1119  0.5880 -0.8293
10075SOL    HW231667   5.280   5.090   9.253  0.8897  0.4071  1.9995
10076SOL     OW31668   2.795   4.355   7.902  0.3988 -0.0246  0.0489
10076SOL    HW131669   2.817   4.323   7.989  0.4084 -0.3731 -0.0776
10076SOL    HW231670   2.849   4.302   7.843  0.9616  0.7313 -0.1226
10077SOL     OW31671   3.734   6.745  10.967 -0.4703 -0.0779 -0.1048
10077SOL    HW131672   3.681   6.807  10.917 -0.0756  0.6263  0.3303
10077SOL    HW231673   3.793   6.706  10.903 -0.8409 -0.1382 -0.4112
10078SOL     OW31674   7.246   6.254  10.655  0.1660  0.4731 -0.9701
10078SOL    HW131675   7.171   6.310  10.633 -0.0178  0.2367 -0.9455
10078SOL    HW231676   7.230   6.228  10.746 -1.4748 -2.3078 -1.9485
10079SOL     OW31677   2.811   4.381   9.348  0.1602 -0.7259  0.2141
10079SOL    HW131678   2.897   4.422   9.339 -1.1692  2.3461  0.1530
10079SOL    HW231679   2.794   4.342   9.262  0.0079  1.9772 -1.0860
10080SOL     OW31680   5.740   3.721  10.696  0.5781  0.1641 -0.1234
10080SOL    HW131681   5.711   3.641  10.651  0.4274  0.1255  0.0400
10080SOL    HW231682   5.749   3.786  10.626  2.3488 -0.4378 -0.5114
10081SOL     OW31683   2.942   4.603  10.365  0.5027 -0.6341 -0.1049
10081SOL    HW131684   2.931   4.560  10.449  2.9363  0.8303  1.0995
10081SOL    HW231685   3.001   4.546  10.316 -1.2369 -1.6921 -1.0501
10082SOL     OW31686   2.165   4.847  10.153 -0.2455  0.6944  0.0998
10082SOL    HW131687   2.093   4.793  10.184 -0.3973 -0.0853 -1.5083
10082SOL    HW231688   2.133   4.886  10.072  1.3921 -0.3389 -1.1062
10083SOL     OW31689   2.682   5.564   8.579  0.4052 -0.4646  0.2216
10083SOL    HW131690   2.707   5.528   8.664  0.9231  0.6627  0.5605
10083SOL    HW231691   2.586   5.568   8.582  0.4088 -0.6670  0.6598
10084SOL     OW31692   1.698   4.460   9.555 -0.2282  0.2650 -0.6344
10084SOL    HW131693   1.726   4.372   9.528  1.6105  0.8650 -0.8250
10084SOL    HW231694   1.775   4.497   9.597 -0.5517  2.2838 -1.7106
10085SOL     OW31695   3.780   3.435  10.127  0.6006  0.4192 -0.3046
10085SOL    HW131696   3.715   3.505  10.140  0.6527 -0.0059  3.3071
10085SOL    HW231697   3.728   3.355  10.118  0.5992  0.4846 -0.9180
10086SOL     OW31698   1.314   4.803   9.500 -0.1098 -0.2457 -0.5914
10086SOL    HW131699   1.356   4.774   9.419 -1.3243  0.5892 -1.5710
10086SOL    HW231700   1.222   4.778   9.489 -1.0671  3.0029 -1.1262
10087SOL     OW31701   1.482   6.360   9.373 -0.1017  0.3145  0.3731
10087SOL    HW131702   1.407   6.414   9.398 -0.7317 -0.0577 -0.6676
10087SOL    HW231703   1.512   6.321   9.455  0.2436  2.0630  1.1295
10088SOL     OW31704   0.210   2.940   1.405 -0.1127 -0.2140  0.0142
10088SOL    HW131705   0.253   2.866   1.449 -0.2369  0.2774  0.9850
10088SOL    HW231706   0.240   3.017   1.453 -0.5864  0.3002 -0.5053
10089SOL     OW31707   2.447   4.457   9.908  0.0629  0.0093 -0.1860
10089SOL    HW131708   2.425   4.466   9.815 -1.2472  0.9101  0.1884
10089SOL    HW231709   2.380   4.399   9.943 -0.2909  0.8127  0.4862
10090SOL     OW31710   1.806   3.882   0.539 -1.1378  0.1904 -0.1981
10090SOL    HW131711   1.853   3.949   0.588 -2.8064  0.3331  1.2919
10090SOL    HW231712   1.836   3.799   0.578 -0.0236  0.1037 -1.1885
10091SOL     OW31713   2.207   5.072   0.416  0.7493 -0.3364 -0.3029
10091SOL    HW131714   2.181   5.148   0.469 -0.7708 -0.6115 -0.6091
10091SOL    HW231715   2.195   4.997   0.474 -0.2330 -0.5689 -0.7768
10092SOL     OW31716   4.900   4.942   0.361  0.1995  0.6014  0.0439
10092SOL    HW131717   4.848   4.992   0.298 -0.1157  1.6753  1.1213
10092SOL    HW231718   4.983   4.925   0.316 -1.3382 -2.0531 -2.1250
10093SOL     OW31719   3.360   4.153   0.491 -0.1013  0.1432  0.0795
10093SOL    HW131720   3.436   4.099   0.514  0.1063 -0.1386 -1.2078
10093SOL    HW231721   3.332   4.191   0.575  1.0642 -0.2472  0.6742
10094SOL     OW31722   3.295   4.478   9.614  0.3144  0.4068 -0.1226
10094SOL    HW131723   3.288   4.383   9.623 -0.1506  0.3499 -1.0028
10094SOL    HW231724   3.301   4.493   9.519  1.5189  1.1822  0.0590
10095SOL     OW31725   1.282   5.107  12.092 -0.2299  0.1034  0.7001
10095SOL    HW131726   1.266   5.196  12.062  0.3548  0.0769  0.2929
10095SOL    HW231727   1.230   5.099  12.172  0.0683  0.9654  0.9945
10096SOL     OW31728   1.790   4.822  11.406  0.3682  0.3301  0.5208
10096SOL    HW131729   1.715   4.853  11.457 -0.3280  0.6189 -0.6441
10096SOL    HW231730   1.798   4.730  11.428 -0.9015  0.0814 -0.0176
10097SOL     OW31731   2.454   6.911   1.463  0.1823  0.4705 -0.5041
10097SOL    HW131732   2.509   6.881   1.534 -0.9447 -0.0746  0.1618
10097SOL    HW231733   2.424   6.998   1.491  0.7845  0.8148 -0.9163
10098SOL     OW31734   4.351   4.484   0.458 -0.3686  0.5233 -0.3589
10098SOL    HW131735   4.433   4.527   0.433  0.5644 -0.8066  0.2873
10098SOL    HW231736   4.286   4.519   0.397  1.2328 -0.4914 -2.8521
10099SOL     OW31737   1.573   5.565  12.054 -0.9465  0.2648  0.2258
10099SOL    HW131738   1.609   5.618  12.125 -2.3945 -0.6701  1.7386
10099SOL    HW231739   1.551   5.481  12.095  0.0941 -1.1001 -1.8056
10100SOL     OW31740   2.048   4.030  11.274 -0.6456  0.3485 -0.5082
10100SOL    HW131741   2.129   4.078  11.290 -0.6420  0.2568 -0.2444
10100SOL    HW231742   1.998   4.039  11.356  0.3990 -2.1480  0.5019
10101SOL     OW31743   2.397   5.708  11.151 -1.1432 -0.5787 -0.1338
10101SOL    HW131744   2.340   5.781  11.175  0.3655  0.2165  1.2321
10101SOL    HW231745   2.462   5.704  11.221  0.5868 -1.3324 -1.6825
10102SOL     OW31746   1.818   4.260  10.942 -0.3658 -0.1327  0.0024
10102SOL    HW131747   1.814   4.275  11.037 -1.1809  0.6441 -0.1343
10102SOL    HW231748   1.784   4.171  10.930  0.3453 -0.4761  0.4893
10103SOL     OW31749   4.286   5.267   0.011 -0.5503 -0.0048  0.2389
10103SOL    HW131750   4.372   5.309   0.012 -0.3399 -0.4498  0.6544
10103SOL    HW231751   4.249   5.291  -0.075  0.3221 -0.4932 -0.2830
10104SOL     OW31752   2.501   5.143   0.520 -0.0823 -0.1549  0.4304
10104SOL    HW131753   2.506   5.216   0.458 -0.6802  0.0099  0.5673
10104SOL    HW231754   2.446   5.176   0.591  0.4206 -0.4175  0.9520
10105SOL     OW31755   2.610   5.891  10.663  0.5070 -0.1066 -0.1266
10105SOL    HW131756   2.623   5.858  10.751  0.2192 -1.2141 -0.4869
10105SOL    HW231757   2.650   5.979  10.664  0.6823 -0.1859  1.0305
10106SOL     OW31758   0.624   2.726   9.455  0.3198  0.3663  0.2646
10106SOL    HW131759   0.628   2.820   9.438  1.6968  0.1471 -0.7885
10106SOL    HW231760   0.639   2.685   9.370 -1.4344 -0.8428  0.4712
10107SOL     OW31761   4.821   2.957   0.122 -0.1110  0.4269  0.1245
10107SOL    HW131762   4.786   2.979   0.208 -1.2922 -0.5968 -0.0665
10107SOL    HW231763   4.758   2.895   0.085  0.6614  0.4109 -1.2532
10108SOL     OW31764   2.284   5.825   0.582  0.1799  0.4799  0.2360
10108SOL    HW131765   2.253   5.739   0.554  0.2362  1.1503 -2.1278
10108SOL    HW231766   2.344   5.807   0.655 -0.1424 -1.4257  0.0791
10109SOL     OW31767   1.737   5.078  11.984  0.6790 -0.1303  0.0284
10109SOL    HW131768   1.748   5.047  11.895 -0.8041 -1.3617  0.2306
10109SOL    HW231769   1.820   5.058  12.027  0.8387 -1.0194 -0.6590
10110SOL     OW31770   2.421   5.535   0.308  0.0169 -0.4516 -0.3510
10110SOL    HW131771   2.404   5.482   0.229 -1.4276 -0.9513  0.2626
10110SOL    HW231772   2.334   5.553   0.343  0.4640  2.2948 -0.4719
10111SOL     OW31773   5.079   3.850  11.650  0.2557 -0.3420  0.0680
10111SOL    HW131774   5.106   3.941  11.662 -2.1511  0.5144 -0.5689
10111SOL    HW231775   5.155   3.809  11.608  1.3589  1.3602  0.2805
10112SOL     OW31776   4.412   7.206  12.489  0.3378  0.1109 -0.0165
10112SOL    HW131777   4.506   7.225  12.486  0.4802 -0.0881  1.8016
10112SOL    HW231778   4.372   7.292  12.504  0.2723  0.1200 -0.2440
10113SOL     OW31779   4.007   5.623  11.753 -0.2897  0.1036  0.1112
10113SOL    HW131780   4.099   5.613  11.777 -0.6776  0.6527  1.9415
10113SOL    HW231781   3.959   5.578  11.822 -1.4398  0.7779 -0.2288
10114SOL     OW31782   2.705   3.675  11.237 -0.0573 -0.0570  0.0814
10114SOL    HW131783   2.763   3.735  11.190 -0.5136  0.0631 -0.3284
10114SOL    HW231784   2.715   3.700  11.329 -0.6423  1.0090 -0.1250
10115SOL     OW31785   3.326   4.296   0.959 -0.1936 -0.2803 -0.2576
10115SOL    HW131786   3.411   4.330   0.932 -1.0226  0.5709 -1.9287
10115SOL    HW231787   3.303   4.346   1.038  0.4228  0.1510 -0.3497
10116SOL     OW31788   4.040   4.518   1.002 -0.2530 -0.2894 -0.0560
10116SOL    HW131789   4.083   4.602   1.017 -1.1422  0.1122  0.3029
10116SOL    HW231790   4.087   4.457   1.059  0.4550 -0.0633 -0.3883
10117SOL     OW31791   2.609   5.043  12.037 -0.2883  0.0658  0.2426
10117SOL    HW131792   2.682   4.998  11.993 -0.6350 -0.6252  0.3550
10117SOL    HW231793   2.555   5.077  11.966  0.9943  2.0435  0.1477
10118SOL     OW31794   2.471   4.885   0.467 -0.2149 -0.3175 -0.0859
10118SOL    HW131795   2.436   4.873   0.379  1.0796 -0.4677 -0.6023
10118SOL    HW231796   2.481   4.980   0.477 -0.0385 -0.3190 -0.2396
10119SOL     OW31797   1.682   2.893  11.571  0.3535 -0.2178 -0.4648
10119SOL    HW131798   1.632   2.866  11.494 -0.4002  1.0797 -0.4529
10119SOL    HW231799   1.623   2.880  11.645  1.2185 -1.8618 -0.0168
10120SOL     OW31800   3.160   3.603  10.989  0.8966  0.5336  0.2594
10120SOL    HW131801   3.228   3.539  10.971  1.1613  1.2603 -1.5399
10120SOL    HW231802   3.095   3.556  11.042  2.0279 -0.6084  0.6654
10121SOL     OW31803   3.105   5.648   1.497  0.5906  0.3028 -0.2165
10121SOL    HW131804   3.014   5.652   1.524  1.0845 -1.8505  2.1481
10121SOL    HW231805   3.147   5.722   1.539  0.2486  0.3118  0.1086
10122SOL     OW31806   0.296   3.045   0.890 -0.2087  0.6552  0.0221
10122SOL    HW131807   0.286   3.055   0.985  1.1427  1.1714  0.1330
10122SOL    HW231808   0.391   3.049   0.876 -0.2707 -1.1126 -1.1771
10123SOL     OW31809   2.432   4.274  11.757 -0.6687  0.4118 -0.3119
10123SOL    HW131810   2.338   4.268  11.738 -1.1081  2.0041  1.0738
10123SOL    HW231811   2.450   4.198  11.812 -0.5363 -1.2895 -2.5793
10124SOL     OW31812   4.829   4.312  11.760  0.2999  0.1666  0.6256
10124SOL    HW131813   4.773   4.239  11.735 -0.4514  0.1887  2.1344
10124SOL    HW231814   4.870   4.341  11.678 -0.8088 -0.7530 -0.2738
10125SOL     OW31815   4.807   4.643  10.298  0.0202  0.3686 -0.1407
10125SOL    HW131816   4.804   4.610  10.388 -1.9526  1.0953  0.0923
10125SOL    HW231817   4.821   4.565  10.244 -2.2881 -0.6199  0.5647
10126SOL     OW31818   0.295   5.255   0.080 -0.2126 -0.2577  0.0084
10126SOL    HW131819   0.208   5.222   0.058 -0.2882 -0.4014  0.5217
10126SOL    HW231820   0.290   5.348   0.059  0.4134 -0.7505 -2.7081
10127SOL     OW31821   1.351   5.853   0.944  0.1980 -0.2192 -0.1762
10127SOL    HW131822   1.406   5.922   0.982  1.2918 -0.3669 -1.4340
10127SOL    HW231823   1.344   5.876   0.851  0.3714 -1.6533 -0.5698
10128SOL     OW31824   2.985   5.198  10.412  0.1269  0.0605  0.0179
10128SOL    HW131825   3.060   5.257  10.424 -0.4680  0.8259  0.0735
10128SOL    HW231826   2.914   5.255  10.382 -0.7795 -0.4239  1.1530
10129SOL     OW31827   3.584   5.751   9.109  0.2054  0.2016 -0.4373
10129SOL    HW131828   3.493   5.730   9.128 -0.5105  2.1082 -1.4421
10129SOL    HW231829   3.625   5.760   9.195 -1.0620  1.2414  0.0957
10130SOL     OW31830   3.724   5.780  10.341 -0.4933  0.3155  0.1535
10130SOL    HW131831   3.814   5.780  10.308 -0.7640  1.0592 -0.6163
10130SOL    HW231832   3.732   5.816  10.429 -0.0655  0.6212 -0.0029
10131SOL     OW31833   4.028   3.558  11.869 -0.4069 -0.0147  0.0170
10131SOL    HW131834   4.078   3.503  11.809 -0.0981 -0.7011  0.8836
10131SOL    HW231835   3.937   3.531  11.856 -0.2597 -0.7325  0.4254
10132SOL     OW31836   2.673   4.741  11.998  0.2461  0.2150 -0.4885
10132SOL    HW131837   2.754   4.788  12.020  0.0479  0.2734  0.1519
10132SOL    HW231838   2.699   4.649  11.995  0.0964  0.0865  1.0545
10133SOL     OW31839   4.324   5.567   1.799  0.1278 -0.3311 -0.5120
10133SOL    HW131840   4.349   5.506   1.730  0.2842 -0.2977 -0.4837
10133SOL    HW231841   4.289   5.511   1.869  0.6396 -0.4215 -0.3230
10134SOL     OW31842   1.811   3.393  10.163  0.3770  0.6444  0.0962
10134SOL    HW131843   1.807   3.359  10.252  1.4208 -0.1823 -0.1523
10134SOL    HW231844   1.891   3.445  10.161 -1.1089  3.1191  0.4313
10135SOL     OW31845   1.143   4.638  12.460  0.0012 -0.4780 -0.2840
10135SOL    HW131846   1.119   4.548  12.443  0.7803 -0.2350 -3.1743
10135SOL    HW231847   1.071   4.690  12.424 -1.6205  0.1907  3.4149
10136SOL     OW31848   3.113   3.235  12.486 -0.2010  0.0824  0.1339
10136SOL    HW131849   3.157   3.206  12.566  0.1173 -1.8817 -0.6976
10136SOL    HW231850   3.138   3.327  12.477 -1.1374  0.6930  2.8489
10137SOL     OW31851   2.981   4.652   1.539 -0.0164 -0.3967  0.0647
10137SOL    HW131852   2.909   4.705   1.505 -0.2175 -0.5525  0.2506
10137SOL    HW231853   3.060   4.694   1.503 -0.1425  0.3734  0.6583
10138SOL     OW31854   2.233   5.148   0.150  0.1589  0.2467 -0.1817
10138SOL    HW131855   2.248   5.101   0.232  0.8080 -0.1304 -0.5105
10138SOL    HW231856   2.144   5.183   0.159  0.1461  0.0389  0.5942
10139SOL     OW31857   3.406   3.619  12.351 -0.5448 -0.5020 -0.2203
10139SOL    HW131858   3.429   3.538  12.306  1.7017  1.8209 -3.8311
10139SOL    HW231859   3.476   3.630  12.416 -1.5287 -1.8940  1.1628
10140SOL     OW31860   7.779   3.207   8.922  0.1697  0.0790  0.3648
10140SOL    HW131861   7.816   3.137   8.976  1.2134  0.5064  0.2348
10140SOL    HW231862   7.838   3.281   8.936  0.5675  0.1559 -1.4849
10141SOL     OW31863   4.147   2.267   0.337  0.3952  0.3949 -0.3912
10141SOL    HW131864   4.108   2.235   0.256  0.6811 -0.5143 -0.1785
10141SOL    HW231865   4.198   2.343   0.311 -0.4511  0.8117 -0.8764
10142SOL     OW31866   2.667   6.808  12.417  0.0465  0.1695 -0.3959
10142SOL    HW131867   2.675   6.886  12.471  0.1583  0.4448 -0.8093
10142SOL    HW231868   2.744   6.756  12.438 -0.5987 -0.3685  0.7294
10143SOL     OW31869   2.352   5.356  10.803  0.0568 -0.0470 -0.2266
10143SOL    HW131870   2.304   5.418  10.749  0.4072 -1.7575 -2.6249
10143SOL    HW231871   2.316   5.368  10.891 -0.7958  2.5811 -0.8468
10144SOL     OW31872   1.840   5.957  12.274  0.0220  0.2670  0.1799
10144SOL    HW131873   1.826   6.043  12.313  0.7249  1.1595 -1.4219
10144SOL    HW231874   1.771   5.950  12.208  0.2483 -0.1883 -0.0111
10145SOL     OW31875   2.930   4.224  11.084 -0.6155  0.1246  0.4542
10145SOL    HW131876   2.899   4.156  11.024 -3.5291  0.3830  1.4826
10145SOL    HW231877   2.951   4.178  11.165  0.1430  0.1603  0.2882
10146SOL     OW31878   0.849   4.875   0.357  0.4075  0.4423 -0.7588
10146SOL    HW131879   0.888   4.944   0.410 -0.5442  1.2653 -1.0758
10146SOL    HW231880   0.899   4.797   0.377  0.1354  0.7398  1.2934
10147SOL     OW31881   2.051   5.420  11.983 -0.4804 -0.2787  0.1104
10147SOL    HW131882   2.043   5.419  11.888 -1.7736  0.0339  0.1919
10147SOL    HW231883   2.005   5.341  12.012  0.1217 -0.5005  0.4587
10148SOL     OW31884   3.030   4.028   1.130 -0.6309  0.0276 -1.1561
10148SOL    HW131885   3.107   4.066   1.174 -0.7585  1.2192 -1.8915
10148SOL    HW231886   2.960   4.033   1.195  0.0138 -1.5973 -0.2779
10149SOL     OW31887   2.697   5.060  11.565  0.2082 -0.5445 -0.3299
10149SOL    HW131888   2.643   4.981  11.573 -1.9174  0.9876  1.3916
10149SOL    HW231889   2.635   5.130  11.548  1.8066  1.0957  0.3345
10150SOL     OW31890   2.364   5.634   0.055 -0.4949 -0.4015 -0.1675
10150SOL    HW131891   2.360   5.547   0.096 -1.2506  0.3408  1.4316
10150SOL    HW231892   2.447   5.634   0.008  0.9061 -1.0383  2.1162
10151SOL     OW31893   5.178   3.748  11.949  0.2322 -0.2752 -0.0480
10151SOL    HW131894   5.136   3.792  11.875  0.9061 -1.3266 -1.0876
10151SOL    HW231895   5.251   3.805  11.973 -1.2577  1.1826  1.2779
10152SOL     OW31896   3.175   3.070   9.688 -0.0740  0.2209 -0.4400
10152SOL    HW131897   3.203   3.146   9.740  0.8764 -0.1661 -0.3729
10152SOL    HW231898   3.210   3.087   9.601 -1.7967  0.9439 -1.0301
10153SOL     OW31899   3.173   5.012  11.938 -0.1552  0.2146 -0.3376
10153SOL    HW131900   3.160   4.944  12.003  0.0604  0.3845 -0.1134
10153SOL    HW231901   3.087   5.052  11.927 -0.2566 -0.0135 -0.3842
10154SOL     OW31902   2.396   4.980  10.617  0.0755 -0.2680  0.2181
10154SOL    HW131903   2.325   4.918  10.634  0.6571 -1.2727 -0.8843
10154SOL    HW231904   2.351   5.060  10.590 -0.6544 -0.6364  0.3097
10155SOL     OW31905   2.869   2.176   0.354  0.0606 -0.4826 -0.3564
10155SOL    HW131906   2.844   2.264   0.385  0.7954 -0.7613  1.1293
10155SOL    HW231907   2.873   2.185   0.259  1.0458  1.3683 -0.1985
10156SOL     OW31908   2.858   4.927   0.188 -0.2925 -0.3132  0.4590
10156SOL    HW131909   2.915   4.872   0.242  1.3812  1.6234  0.7832
10156SOL    HW231910   2.854   5.010   0.235 -0.6325  0.6890 -1.2836
10157SOL     OW31911   3.756   3.263  12.033  0.0067 -0.3767 -0.0700
10157SOL    HW131912   3.664   3.239  12.029  0.2310 -1.7136  1.6183
10157SOL    HW231913   3.760   3.350  11.993 -1.9194 -0.4211 -0.4499
10158SOL     OW31914   2.070   2.897  11.793 -0.2055 -0.1283  0.2390
10158SOL    HW131915   2.055   2.881  11.886  0.0553 -1.1382  0.1235
10158SOL    HW231916   2.107   2.985  11.790 -3.2501  1.2698  0.7667
10159SOL     OW31917   1.155   4.829   0.229 -0.4695  0.4440  0.1541
10159SOL    HW131918   1.157   4.790   0.142 -0.7852  1.2231 -0.2069
10159SOL    HW231919   1.119   4.917   0.216  1.5940  1.4207  0.7481
10160SOL     OW31920   4.073   4.352  11.898  0.1698 -0.0925  0.0870
10160SOL    HW131921   4.047   4.325  11.810  0.0953  2.6831 -0.8521
10160SOL    HW231922   4.168   4.363  11.894 -0.0704  2.3905 -0.4756
10161SOL     OW31923   2.099   4.501  11.376  0.2053 -0.0337 -0.6789
10161SOL    HW131924   2.179   4.527  11.421 -0.8062  1.5372  0.3217
10161SOL    HW231925   2.076   4.417  11.416  0.7745  0.0336 -0.1991
10162SOL     OW31926   3.618   4.987  12.192  0.1412 -0.1329 -0.2474
10162SOL    HW131927   3.672   5.060  12.224 -0.9964  1.1899 -1.1994
10162SOL    HW231928   3.652   4.970  12.104  0.1204 -0.4439 -0.1939
10163SOL     OW31929   4.523   4.610  12.409  0.3170 -0.3786 -0.0055
10163SOL    HW131930   4.617   4.611  12.388  0.0473 -2.1403 -1.5422
10163SOL    HW231931   4.498   4.702  12.410  2.0265  0.1264  0.3313
10164SOL     OW31932   2.795   4.523   0.107  0.6910 -0.2777  0.5806
10164SOL    HW131933   2.732   4.583   0.147  0.2736  0.0687 -0.5772
10164SOL    HW231934   2.871   4.528   0.165  0.3056  0.6160  1.0450
10165SOL     OW31935   4.715   5.300   0.713  0.2266  0.0926 -0.1961
10165SOL    HW131936   4.707   5.284   0.807  1.5033  0.6588  0.0413
10165SOL    HW231937   4.765   5.225   0.680  0.3830  0.2397 -0.2951
10166SOL     OW31938   1.185   5.625   0.976 -0.5311 -0.2022  0.5742
10166SOL    HW131939   1.243   5.569   1.028  1.7410  0.6584 -0.8982
10166SOL    HW231940   1.234   5.706   0.964 -1.6177  0.2092 -1.5478
10167SOL     OW31941   2.078   3.620  11.931 -0.2266 -0.3143 -0.5702
10167SOL    HW131942   2.022   3.681  11.883 -0.9012 -1.0934 -0.7975
10167SOL    HW231943   2.119   3.566  11.864 -1.4662 -1.6588 -0.2949
10168SOL     OW31944   3.031   4.836  10.623 -0.7892  0.1555  0.0318
10168SOL    HW131945   3.017   4.765  10.561 -0.0920 -0.7879  0.9251
10168SOL    HW231946   2.951   4.888  10.619 -1.0275 -0.2657 -1.1455
10169SOL     OW31947   4.022   4.291  11.638  0.1253 -0.4952  0.0007
10169SOL    HW131948   4.090   4.248  11.586 -0.5380 -0.3918 -0.9724
10169SOL    HW231949   3.940   4.268  11.594 -0.3244  0.9980  0.0071
10170SOL     OW31950   2.758   4.048   9.839 -0.6220  0.0961  0.5229
10170SOL    HW131951   2.754   4.110   9.766 -0.9934  1.9949  2.0686
10170SOL    HW231952   2.851   4.035   9.854 -0.4864 -1.7879 -1.3794
10171SOL     OW31953   2.470   5.348  11.538 -0.1523 -0.0908 -0.4027
10171SOL    HW131954   2.397   5.300  11.577  1.0457 -1.3329  0.3798
10171SOL    HW231955   2.452   5.345  11.444 -1.5049  0.3117 -0.1769
10172SOL     OW31956   1.752   3.283  10.934 -0.0549 -0.1602  0.2266
10172SOL    HW131957   1.764   3.280  10.840 -1.5715  2.0092 -0.1122
10172SOL    HW231958   1.821   3.341  10.966 -0.3034  0.1006  0.2888
10173SOL     OW31959   1.297   4.390  11.399  0.4457 -0.4131 -0.4552
10173SOL    HW131960   1.256   4.306  11.419 -0.1315  0.4213  2.2737
10173SOL    HW231961   1.292   4.397  11.303 -1.8634 -2.3117 -0.5718
10174SOL     OW31962   2.842   3.046  12.287 -0.4318  0.4357 -0.4236
10174SOL    HW131963   2.934   3.044  12.261 -0.1516  0.5861  0.4954
10174SOL    HW231964   2.808   2.960  12.262  0.1817  0.0719 -0.0442
10175SOL     OW31965   4.221   5.099  12.255  0.4583  0.2037 -0.4213
10175SOL    HW131966   4.202   5.146  12.174  0.1540 -0.5310 -0.7782
10175SOL    HW231967   4.317   5.099  12.261  0.4673  1.9479  0.2300
10176SOL     OW31968   2.563   4.763  11.263  0.8013  0.2819  0.0360
10176SOL    HW131969   2.532   4.699  11.198 -2.3987 -0.2094  1.8135
10176SOL    HW231970   2.651   4.734  11.285 -0.9201 -4.6930  1.8338
10177SOL     OW31971   1.546   4.935  12.164  0.2500  0.2790  0.5584
10177SOL    HW131972   1.608   4.981  12.108  0.6167 -0.7231  0.1209
10177SOL    HW231973   1.461   4.947  12.121  0.5277 -0.4821 -0.2269
10178SOL     OW31974   4.227   5.225   2.305 -0.6021 -1.0163 -0.3878
10178SOL    HW131975   4.217   5.226   2.401 -0.2204 -4.2783 -0.1826
10178SOL    HW231976   4.144   5.257   2.272 -1.2452 -1.0924  1.0702
10179SOL     OW31977   3.967   3.764  11.626  0.3803 -0.0804 -0.1656
10179SOL    HW131978   3.965   3.688  11.568  0.4577  0.4113 -0.8208
10179SOL    HW231979   4.049   3.754  11.675  0.3884 -0.4195 -0.2427
10180SOL     OW31980   2.739   3.754  11.506  0.0956 -0.5206  0.5824
10180SOL    HW131981   2.777   3.694  11.569 -1.6420 -0.4394  1.7821
10180SOL    HW231982   2.653   3.777  11.543 -0.0328  1.3128 -0.6905
10181SOL     OW31983   3.680   4.888   0.504  0.2439 -0.6230 -0.4199
10181SOL    HW131984   3.652   4.971   0.465  0.8539 -1.0785 -1.8914
10181SOL    HW231985   3.644   4.890   0.593 -0.3928  0.8732 -0.6806
10182SOL     OW31986   3.422   4.380  11.987  0.1144 -0.1745  0.0084
10182SOL    HW131987   3.452   4.396  11.898 -0.9967  0.4495 -0.2708
10182SOL    HW231988   3.385   4.464  12.015 -0.9779 -0.7913  0.4690
10183SOL     OW31989   3.351   5.728   0.849 -0.1879  0.3199  0.4241
10183SOL    HW131990   3.269   5.692   0.881 -0.1944  0.6250  0.7574
10183SOL    HW231991   3.417   5.663   0.874 -0.1809  0.5915  1.1392
10184SOL     OW31992   3.929   4.600   0.398  0.4071 -0.0813  0.4757
10184SOL    HW131993   3.850   4.579   0.448 -1.5719  0.9767 -1.9494
10184SOL    HW231994   3.947   4.521   0.347 -0.0962  0.1893 -0.1427
10185SOL     OW31995   4.646   4.929  11.915  0.0130 -0.1684  0.1113
10185SOL    HW131996   4.675   4.962  11.999  2.3977 -0.9712 -0.3201
10185SOL    HW231997   4.646   4.834  11.925 -1.1586 -0.2441 -0.3746
10186SOL     OW31998   3.150   4.496  11.703 -0.3553  0.3134 -0.2031
10186SOL    HW131999   3.077   4.438  11.681  0.1446 -0.7816  0.8885
10186SOL    HW232000   3.177   4.535  11.620  0.6066 -2.5785 -1.3435
10187SOL     OW32001   2.433   4.074   0.140  0.4369  0.2050  0.2222
10187SOL    HW132002   2.526   4.052   0.134  0.2241 -1.6160  2.3273
10187SOL    HW232003   2.388   4.004   0.093  0.0267 -0.5991  1.7600
10188SOL     OW32004   4.042   3.742  12.330 -0.2534  0.5107 -0.1373
10188SOL    HW132005   3.958   3.778  12.359  0.1437  1.5177 -0.2029
10188SOL    HW232006   4.061   3.788  12.249 -0.4269 -0.9211 -1.0296
10189SOL     OW32007   4.199   5.639  12.186  0.2787  0.0692 -0.4595
10189SOL    HW132008   4.103   5.646  12.185  0.2523 -0.2482 -0.0755
10189SOL    HW232009   4.228   5.718  12.232  0.2360  0.4727 -1.0996
10190SOL     OW32010   2.687   5.931  11.450 -0.3726  0.0532 -0.9300
10190SOL    HW132011   2.653   6.017  11.424  1.1784  0.3675 -2.0855
10190SOL    HW232012   2.752   5.951  11.517 -2.0536 -0.5019  0.9414
10191SOL     OW32013   0.785   5.141  10.796  0.2722 -0.1844  0.0964
10191SOL    HW132014   0.871   5.147  10.837  0.3838 -0.5621 -0.0872
10191SOL    HW232015   0.733   5.088  10.857  0.1924 -0.0348  0.1614
10192SOL     OW32016   1.677   4.385  12.372 -0.2723  0.0281 -0.3988
10192SOL    HW132017   1.594   4.373  12.418 -0.2176  1.4748  0.1079
10192SOL    HW232018   1.703   4.296  12.348 -0.5325 -0.7687  1.9627
10193SOL     OW32019   1.417   4.070  10.244 -0.0410 -0.6774  0.0227
10193SOL    HW132020   1.454   4.079  10.156  0.1832  0.4023  0.2170
10193SOL    HW232021   1.447   4.148  10.291  1.0555 -1.9231  1.5110
10194SOL     OW32022   3.918   3.986   0.597  0.5186 -0.1778  0.0277
10194SOL    HW132023   3.999   3.952   0.559  0.1293  1.4539 -2.4554
10194SOL    HW232024   3.936   4.079   0.612 -0.2356 -0.2383  1.4692
10195SOL     OW32025   4.537   3.262  11.983 -0.1253 -0.0558  0.4532
10195SOL    HW132026   4.625   3.226  11.998  0.7335  1.9982  0.6597
10195SOL    HW232027   4.553   3.347  11.943 -2.0829 -0.0854 -0.4753
10196SOL     OW32028   1.756   5.580  10.901 -0.1466 -0.6601 -0.0274
10196SOL    HW132029   1.698   5.656  10.910 -0.7173 -0.6707 -2.6670
10196SOL    HW232030   1.722   5.516  10.963 -2.9526 -0.6153 -1.3795
10197SOL     OW32031   4.783   4.130  10.494  0.1569  0.6559  0.3366
10197SOL    HW132032   4.709   4.155  10.439 -0.7014 -2.3155 -0.0137
10197SOL    HW232033   4.813   4.047  10.458  2.0043  0.4822  2.0999
10198SOL     OW32034   3.369   3.050  11.564  0.4796 -0.0011  0.2983
10198SOL    HW132035   3.411   3.069  11.480 -0.4001 -1.1847 -0.4327
10198SOL    HW232036   3.275   3.046  11.544  0.4182 -2.6988  0.8109
10199SOL     OW32037   2.914   5.767   0.731 -0.2017 -1.0693  0.0634
10199SOL    HW132038   2.829   5.796   0.765  0.4336  0.4883  0.3844
10199SOL    HW232039   2.962   5.848   0.714  1.5530 -1.9263  0.6941
10200SOL     OW32040   1.678   4.926   9.633 -0.0258 -0.0681  0.3236
10200SOL    HW132041   1.590   4.930   9.670  0.4149  0.6920  1.3262
10200SOL    HW232042   1.676   4.990   9.561 -0.5707 -0.7702 -0.2968
10201SOL     OW32043   3.750   6.506   0.206  0.1852  0.1258 -0.0682
10201SOL    HW132044   3.764   6.581   0.149  0.4022 -0.7537 -1.2282
10201SOL    HW232045   3.740   6.543   0.294  0.2216  1.4932 -0.6185
10202SOL     OW32046   4.235   3.533  12.335  0.4198 -0.7725 -0.0754
10202SOL    HW132047   4.157   3.586  12.355  0.8780 -0.4622  0.9650
10202SOL    HW232048   4.217   3.495  12.249  0.6703  2.1815 -1.5642
10203SOL     OW32049   0.293   4.055   0.458 -0.1281  0.5539 -0.2203
10203SOL    HW132050   0.317   4.066   0.366 -3.1226  0.9645 -1.0732
10203SOL    HW232051   0.276   3.962   0.468  2.5060  0.1012  0.6386
10204SOL     OW32052   2.842   5.278  10.119  0.0862  0.2122  0.0518
10204SOL    HW132053   2.830   5.282  10.214  0.6132 -0.1190  0.1366
10204SOL    HW232054   2.926   5.322  10.104  0.6614 -0.8963 -0.1133
10205SOL     OW32055   4.028   4.969  11.645 -0.3881 -0.2609 -0.3072
10205SOL    HW132056   4.111   5.015  11.631  1.3003 -1.1061  4.8547
10205SOL    HW232057   3.964   5.038  11.661  0.1076  0.3245 -0.8029
10206SOL     OW32058   3.945   4.198  12.405  0.0952  0.3439  0.0523
10206SOL    HW132059   3.875   4.215  12.342  0.6350  0.2067 -0.6011
10206SOL    HW232060   4.023   4.189  12.351  0.2086 -2.0995  0.4868
10207SOL     OW32061   2.899   4.118  11.367 -0.3150 -0.2449  0.0461
10207SOL    HW132062   2.944   4.041  11.401  1.5353  0.8842  0.2553
10207SOL    HW232063   2.825   4.130  11.426  1.3323  0.1306  2.1524
10208SOL     OW32064   2.530   5.667  12.018  0.3817  0.7795  0.0701
10208SOL    HW132065   2.450   5.697  12.062  0.2137 -0.2534  0.4840
10208SOL    HW232066   2.510   5.578  11.990  2.0125 -0.2254  1.8735
10209SOL     OW32067   4.766   4.138  12.281  0.2330 -0.5160 -0.6769
10209SOL    HW132068   4.713   4.160  12.204  0.9068  0.5092 -0.8681
10209SOL    HW232069   4.752   4.211  12.341  0.5302 -0.8067 -0.2503
10210SOL     OW32070   4.272   3.935  11.909 -0.0292  0.0290  0.0939
10210SOL    HW132071   4.353   3.920  11.957  0.0617 -2.2049 -0.6565
10210SOL    HW232072   4.205   3.943  11.977  0.5146 -0.2275  0.6706
10211SOL     OW32073   1.768   4.659   0.005 -0.3414 -0.0102 -0.1446
10211SOL    HW132074   1.739   4.585  -0.048 -0.2808  0.5609 -1.0158
10211SOL    HW232075   1.709   4.661   0.079  0.9935 -2.2282  1.0788
10212SOL     OW32076   1.839   4.308  11.229  0.1507  0.0407 -0.3634
10212SOL    HW132077   1.891   4.312  11.310  0.4256  2.3002 -0.5915
10212SOL    HW232078   1.837   4.398  11.197 -3.3434 -0.0285 -0.7517
10213SOL     OW32079   1.611   3.984  11.891 -0.5985 -0.4922  0.3462
10213SOL    HW132080   1.562   3.995  11.809  2.0614 -0.1791 -1.3202
10213SOL    HW232081   1.559   3.921  11.942 -3.3469  0.7966 -0.6699
10214SOL     OW32082   4.376   4.869  11.877  0.4717  0.3529 -0.4981
10214SOL    HW132083   4.469   4.892  11.883  0.4294  0.6829 -1.1103
10214SOL    HW232084   4.345   4.872  11.968  1.3916 -1.1635 -0.0991
10215SOL     OW32085   3.565   7.376   0.740 -0.7773  0.0518 -0.2713
10215SOL    HW132086   3.610   7.303   0.784 -2.3442 -1.5393 -1.2016
10215SOL    HW232087   3.624   7.450   0.753  1.8910 -1.7737 -0.9575
10216SOL     OW32088   3.041   4.982  12.326 -0.3889 -0.3760 -0.2303
10216SOL    HW132089   3.077   4.929  12.396  1.1650 -1.2876 -1.6334
10216SOL    HW232090   3.071   5.071  12.345  0.7820 -0.7616 -0.1866
10217SOL     OW32091   3.753   5.228  11.766 -0.1402 -0.3001  0.0704
10217SOL    HW132092   3.678   5.182  11.730 -0.2469 -1.0091  1.1872
10217SOL    HW232093   3.717   5.311  11.797 -0.0727  0.2645 -1.2762
10218SOL     OW32094   2.387   2.673  11.373 -0.0533  0.2937 -0.2230
10218SOL    HW132095   2.292   2.673  11.376 -0.1497  0.8934 -1.9020
10218SOL    HW232096   2.411   2.765  11.377  0.3769  0.2192 -0.8531
10219SOL     OW32097   5.228   5.805  11.736  0.9165 -0.2331  0.3468
10219SOL    HW132098   5.200   5.717  11.709  0.4851 -0.1374  0.4769
10219SOL    HW232099   5.308   5.790  11.786  0.9690 -0.5344  0.1767
10220SOL     OW32100   2.886   5.816  10.472 -0.0807  0.1888 -0.0619
10220SOL    HW132101   2.978   5.832  10.493 -0.1094  0.9965 -0.5130
10220SOL    HW232102   2.840   5.893  10.507 -0.2731  0.9951 -1.9404
10221SOL     OW32103   2.586   5.225  10.777  0.2364  0.0887 -1.5326
10221SOL    HW132104   2.573   5.130  10.782 -1.3864  0.1998 -2.6926
10221SOL    HW232105   2.510   5.261  10.823  1.7691  0.8651  0.5285
10222SOL     OW32106   3.172   4.825   0.976 -0.6815 -0.2478  0.4918
10222SOL    HW132107   3.199   4.860   1.061 -2.3101 -0.0055  0.9501
10222SOL    HW232108   3.247   4.773   0.946  0.1876  0.2422  1.7357
10223SOL     OW32109   0.931   5.826  10.952  0.5638 -0.3291  0.3073
10223SOL    HW132110   1.004   5.870  10.996  0.5339  2.4852 -2.0667
10223SOL    HW232111   0.972   5.764  10.892  0.8795 -0.3760  0.5736
10224SOL     OW32112   4.700   4.908  12.448  0.1085  0.1829  0.1058
10224SOL    HW132113   4.772   4.846  12.458  0.3532  0.6761  1.7714
10224SOL    HW232114   4.733   4.989  12.486 -1.0940  0.6039  0.2885
10225SOL     OW32115   2.156   4.171  11.808 -0.3431 -0.2036 -0.1019
10225SOL    HW132116   2.080   4.206  11.853  0.0344  1.0170 -0.3608
10225SOL    HW232117   2.126   4.090  11.768 -0.7678 -1.1522  2.0235
10226SOL     OW32118   4.761   5.291  12.387 -0.1366 -0.1249  0.0789
10226SOL    HW132119   4.714   5.368  12.355  0.8157  1.1287  1.4829
10226SOL    HW232120   4.840   5.287  12.334 -0.0447  0.0680  0.1976
10227SOL     OW32121   0.721   2.943   0.403  0.2328 -0.0485  0.1437
10227SOL    HW132122   0.643   2.979   0.360  0.1781 -0.2093  0.1039
10227SOL    HW232123   0.687   2.868   0.453  0.6169 -1.2583 -1.3241
10228SOL     OW32124   4.096   6.276   1.097 -0.2366 -0.4723 -0.1054
10228SOL    HW132125   4.015   6.227   1.082 -0.2410 -0.6238  0.3960
10228SOL    HW232126   4.088   6.309   1.187  0.4743 -0.9083  0.1258
10229SOL     OW32127   2.468   5.191  11.819  0.1683 -0.2855  0.1303
10229SOL    HW132128   2.523   5.225  11.749  0.8309 -0.5411  0.5176
10229SOL    HW232129   2.379   5.195  11.784  0.4231  0.1809 -0.4828
10230SOL     OW32130   2.981   3.492   0.525  0.0517 -0.0516  0.3848
10230SOL    HW132131   3.021   3.555   0.584  1.1425 -0.5052  0.1540
10230SOL    HW232132   3.017   3.407   0.552 -0.1817 -0.3781 -0.3011
10231SOL     OW32133   2.932   4.633  12.374 -0.2945  0.6425 -0.1010
10231SOL    HW132134   2.874   4.606  12.444  0.5119 -1.7398 -0.2750
10231SOL    HW232135   2.877   4.687  12.317 -1.2903  1.5582  1.6440
10232SOL     OW32136   2.300   4.202  10.750 -0.2135  0.7510  0.2001
10232SOL    HW132137   2.216   4.246  10.766 -1.3693 -0.9277 -0.9214
10232SOL    HW232138   2.335   4.185  10.837 -1.5138  0.6227  0.7263
10233SOL     OW32139   2.570   3.826   0.556  0.0170 -0.3021 -0.0617
10233SOL    HW132140   2.550   3.919   0.568 -1.0526 -0.4039 -0.8464
10233SOL    HW232141   2.608   3.798   0.639 -0.9370  0.5246  0.6801
10234SOL     OW32142   2.580   4.857  10.911  0.2400  0.5939 -0.7358
10234SOL    HW132143   2.490   4.837  10.884  0.2089 -0.7276  0.2373
10234SOL    HW232144   2.570   4.904  10.993  0.4273  1.0103 -0.9504
10235SOL     OW32145   4.912   3.934  11.880 -0.3676  0.1753 -0.1777
10235SOL    HW132146   4.972   3.982  11.938  0.0629  0.4326 -0.8258
10235SOL    HW232147   4.944   3.952  11.792 -0.6659 -0.6861 -0.4733
10236SOL     OW32148   2.970   5.975   1.101 -0.3195  0.7724 -0.2405
10236SOL    HW132149   3.031   5.980   1.175  0.0730  1.4288 -0.5953
10236SOL    HW232150   2.919   5.896   1.117 -0.2236  0.8927  0.7223
10237SOL     OW32151   3.961   6.218   0.340  0.2581  0.6031  0.4506
10237SOL    HW132152   3.953   6.305   0.380  2.6930  0.8075  0.6292
10237SOL    HW232153   3.968   6.158   0.414  0.3490  0.4499  0.3180
10238SOL     OW32154   1.273   5.958   0.234  0.2982 -0.4238 -0.2972
10238SOL    HW132155   1.317   5.920   0.310  2.2582  0.5879 -0.8662
10238SOL    HW232156   1.343   5.979   0.173 -0.8916  1.9565 -0.9766
10239SOL     OW32157   1.947   5.385   1.067 -0.8050  0.5508  0.3481
10239SOL    HW132158   1.879   5.321   1.049 -0.3240 -0.2202  1.1830
10239SOL    HW232159   2.028   5.342   1.040 -0.6296  1.4467 -0.6092
10240SOL     OW32160   2.244   6.136   1.633  0.0542  0.7414 -0.1270
10240SOL    HW132161   2.308   6.203   1.655 -0.5762  1.7849 -1.3656
10240SOL    HW232162   2.176   6.145   1.700  1.9886 -1.6635  2.3992
10241SOL     OW32163   2.421   0.036   2.050 -0.5782  0.0665  0.3079
10241SOL    HW132164   2.466  -0.047   2.066 -1.0161 -0.5171 -1.2756
10241SOL    HW232165   2.488   0.093   2.011 -0.3324  0.4133  1.2035
10242SOL     OW32166   3.314   0.394   1.893  0.2940 -0.1436 -0.7933
10242SOL    HW132167   3.237   0.446   1.917 -0.4603 -2.0184  1.1583
10242SOL    HW232168   3.381   0.420   1.956  0.4869 -0.2942 -0.9356
10243SOL     OW32169   0.861   5.892   1.321  0.0196 -0.6301 -0.0085
10243SOL    HW132170   0.930   5.935   1.371 -1.7455  0.5066  1.5726
10243SOL    HW232171   0.897   5.807   1.298  1.8165 -0.1876  1.0293
10244SOL     OW32172   2.511   5.463  11.855 -0.7758 -1.0303  0.4715
10244SOL    HW132173   2.559   5.455  11.773  0.5771 -0.2451  1.1597
10244SOL    HW232174   2.536   5.385  11.905 -1.3066 -1.3179  0.2949
10245SOL     OW32175   1.770   7.477   1.690  0.1180  0.0511  0.5748
10245SOL    HW132176   1.811   7.479   1.776 -1.3367 -1.8864  1.3901
10245SOL    HW232177   1.687   7.524   1.702  0.7398  1.4435 -0.3108
10246SOL     OW32178   2.228   5.658   2.729 -0.3389 -1.1325 -0.0010
10246SOL    HW132179   2.311   5.687   2.691 -0.1165 -0.5402  0.9160
10246SOL    HW232180   2.161   5.696   2.672 -0.0868  1.7635  1.4855
10247SOL     OW32181   3.228   5.322   0.471  0.1842  0.4271 -0.3885
10247SOL    HW132182   3.284   5.379   0.524 -0.7431  0.1857  0.9088
10247SOL    HW232183   3.139   5.354   0.487 -0.3407 -1.2149  0.2238
10248SOL     OW32184   2.398   6.366   2.169 -0.1491 -0.2377 -0.1711
10248SOL    HW132185   2.450   6.316   2.107  2.1021  1.6611  0.0512
10248SOL    HW232186   2.343   6.423   2.115 -1.6575 -1.8189 -0.3962
10249SOL     OW32187   3.236   0.129  12.243 -0.9420 -0.0712 -0.1340
10249SOL    HW132188   3.325   0.155  12.217 -0.4831 -1.2925  0.1547
10249SOL    HW232189   3.237   0.132  12.339 -0.6158 -1.8690 -0.0469
10250SOL     OW32190   3.110   7.986   1.257  0.0336  0.1707 -0.3197
10250SOL    HW132191   3.115   8.027   1.343  2.0955 -1.8276  0.6479
10250SOL    HW232192   3.100   7.893   1.276 -2.4646 -0.0815 -2.3619
10251SOL     OW32193   1.587   0.278   0.054 -0.0019  0.4218 -0.0091
10251SOL    HW132194   1.637   0.317   0.126 -0.4761  0.6687  0.1930
10251SOL    HW232195   1.498   0.268   0.089 -1.3182  4.1021 -1.6554
10252SOL     OW32196   1.833   7.780  12.072 -0.0639  0.0583 -0.2497
10252SOL    HW132197   1.852   7.850  12.134  0.8844 -0.2919 -0.1217
10252SOL    HW232198   1.918   7.739  12.056 -0.5410 -0.8114 -0.6290
10253SOL     OW32199   2.327   7.335  12.462 -0.1588  0.5896 -0.6469
10253SOL    HW132200   2.385   7.320  12.536 -0.2863  1.5659 -0.3370
10253SOL    HW232201   2.385   7.340  12.386  0.2896  2.5523 -0.2136
10254SOL     OW32202   1.315   6.952   0.352  0.5189  0.5753 -0.3565
10254SOL    HW132203   1.381   6.993   0.407  2.4897 -3.2865  0.5387
10254SOL    HW232204   1.261   6.901   0.413 -2.4071  2.3092 -1.2617
10255SOL     OW32205   2.318   7.443  11.874  0.1475 -0.4386  0.2963
10255SOL    HW132206   2.370   7.443  11.794  0.9343  0.7809  0.7824
10255SOL    HW232207   2.315   7.535  11.901  0.2925 -0.8730  1.9150
10256SOL     OW32208   1.901   6.719   1.024  0.3485 -0.1571  0.0681
10256SOL    HW132209   1.958   6.767   1.083  0.7257 -1.1139  0.4972
10256SOL    HW232210   1.928   6.627   1.033 -0.1528 -0.4239 -0.9489
10257SOL     OW32211   7.866   5.520   3.059 -0.1204 -0.9863  0.4232
10257SOL    HW132212   7.913   5.525   2.976 -1.4666 -1.0258 -0.3773
10257SOL    HW232213   7.930   5.548   3.125  0.3223  1.2875 -0.8704
10258SOL     OW32214   0.931   6.500  12.165 -0.1541 -0.2571  0.2458
10258SOL    HW132215   0.957   6.533  12.251  0.5325  0.1370 -0.0989
10258SOL    HW232216   0.990   6.544  12.104  1.7875 -3.1079 -0.1480
10259SOL     OW32217   1.936   6.416   2.013 -0.4482  0.0692  0.2720
10259SOL    HW132218   1.916   6.422   2.106  0.4315 -0.7778  0.5303
10259SOL    HW232219   1.865   6.465   1.970 -3.1947 -2.8058  1.1082
10260SOL     OW32220   2.232   6.859   2.764 -0.1225  0.4961 -0.1828
10260SOL    HW132221   2.262   6.905   2.842 -0.9552  0.7959 -0.0360
10260SOL    HW232222   2.159   6.805   2.794  1.0569 -1.2468 -0.2654
10261SOL     OW32223   2.859   0.573   2.155 -0.1397  0.1174 -0.1268
10261SOL    HW132224   2.938   0.522   2.169  0.0588  0.5699  0.4411
10261SOL    HW232225   2.788   0.516   2.185 -0.2794 -1.1305 -2.5704
10262SOL     OW32226   1.845   5.880  11.484 -0.0715  0.6190  0.1165
10262SOL    HW132227   1.833   5.958  11.539 -0.5073  0.9990 -0.5052
10262SOL    HW232228   1.810   5.905  11.399  1.0805  0.2197 -0.5008
10263SOL     OW32229   3.113   5.805  12.028 -0.1157 -0.0807 -0.1741
10263SOL    HW132230   3.150   5.882  12.071 -1.1500  0.8048 -0.8222
10263SOL    HW232231   3.094   5.745  12.100  0.0912  0.5392  0.4107
10264SOL     OW32232   2.333   6.631   0.938  0.4951  0.1887 -0.2409
10264SOL    HW132233   2.405   6.593   0.988  0.7237  0.2437 -0.5280
10264SOL    HW232234   2.287   6.687   1.001 -0.3472 -1.1912  0.4208
10265SOL     OW32235   0.532   7.455   2.816 -0.2399 -0.1554 -0.5081
10265SOL    HW132236   0.603   7.455   2.879 -0.7761  0.4697  0.1113
10265SOL    HW232237   0.573   7.474   2.732  0.2546  0.7383 -0.0736
10266SOL     OW32238   1.636   6.670   1.087  0.2638 -0.5157  0.3213
10266SOL    HW132239   1.728   6.673   1.060  0.4292  0.9204  0.9531
10266SOL    HW232240   1.594   6.741   1.036  0.1418  0.8126  2.1826
10267SOL     OW32241   0.139   6.207   1.477 -0.4691  0.1932  0.8254
10267SOL    HW132242   0.220   6.166   1.449  0.2871  0.7136  2.1690
10267SOL    HW232243   0.138   6.292   1.433 -0.4405  0.0651  0.5747
10268SOL     OW32244   0.278   5.010  11.168  0.0303  0.1238  0.3335
10268SOL    HW132245   0.202   5.028  11.223  1.5436 -0.1911  2.6541
10268SOL    HW232246   0.323   5.094  11.159  1.1540 -0.2724  1.8256
10269SOL     OW32247   2.604   6.286   0.056  0.2060  0.2368  0.5802
10269SOL    HW132248   2.548   6.310   0.131  0.9764 -0.6834  1.4880
10269SOL    HW232249   2.604   6.190   0.057  1.1530  0.2300  0.1067
10270SOL     OW32250   3.166   0.381   0.524  0.0843  0.3160 -0.4282
10270SOL    HW132251   3.167   0.473   0.550 -0.6317  0.3670 -0.5658
10270SOL    HW232252   3.214   0.336   0.593  0.6343  0.8195 -0.4739
10271SOL     OW32253   3.756   1.161   2.236  0.2410 -0.1936  0.5441
10271SOL    HW132254   3.828   1.180   2.176  0.2401 -1.9233 -0.0460
10271SOL    HW232255   3.725   1.075   2.211 -2.5831  0.7954  0.2962
10272SOL     OW32256   0.862   4.749  12.379 -0.4919 -0.2754  0.7099
10272SOL    HW132257   0.893   4.831  12.340 -1.5910 -0.8821 -1.6069
10272SOL    HW232258   0.808   4.776  12.453  0.0388  1.0236  0.6447
10273SOL     OW32259   2.337   7.603   0.069  0.2071  0.8173  0.3967
10273SOL    HW132260   2.303   7.516   0.050  0.0242  0.5686  1.7599
10273SOL    HW232261   2.393   7.624  -0.006 -0.7529  0.0701 -0.5471
10274SOL     OW32262   1.621   5.356  11.055 -0.3616  0.0246  0.5534
10274SOL    HW132263   1.557   5.329  10.990  1.7692 -2.6664 -0.6534
10274SOL    HW232264   1.575   5.352  11.139 -2.2765  0.3274 -0.4394
10275SOL     OW32265   3.210   6.131   1.571 -0.2071  0.4148 -0.0775
10275SOL    HW132266   3.289   6.151   1.520 -0.0108 -0.0679  0.0315
10275SOL    HW232267   3.140   6.176   1.524 -0.2915 -1.2899 -1.6931
10276SOL     OW32268   4.143   6.662   0.341 -0.2673  0.1340  0.4443
10276SOL    HW132269   4.164   6.625   0.254 -1.4997 -0.1676  0.2587
10276SOL    HW232270   4.226   6.699   0.371  0.2936 -0.1483 -0.6722
10277SOL     OW32271   1.221   5.849   2.907  0.5575  0.2457  0.0796
10277SOL    HW132272   1.251   5.912   2.972  0.0984  0.2664  0.2748
10277SOL    HW232273   1.157   5.794   2.953  1.7907 -1.1170  0.2382
10278SOL     OW32274   2.571   5.872   3.731 -0.3682 -0.1685  0.4152
10278SOL    HW132275   2.663   5.877   3.754 -0.3226 -2.4917  0.9759
10278SOL    HW232276   2.530   5.824   3.803 -1.9461  0.4792 -0.0077
10279SOL     OW32277   3.468   6.574   1.419  0.7382  0.7825  0.7462
10279SOL    HW132278   3.549   6.540   1.382 -0.0399 -0.5972  0.2340
10279SOL    HW232279   3.497   6.640   1.483  2.2562  0.1449  0.7650
10280SOL     OW32280   1.000   7.018   1.036 -0.1219  0.4857  0.2213
10280SOL    HW132281   1.040   7.001   0.950  0.1546  0.4877  0.3475
10280SOL    HW232282   0.955   6.937   1.058  0.4024  0.2356  0.3933
10281SOL     OW32283   2.094   7.276  12.303 -0.0561 -0.4071 -0.0268
10281SOL    HW132284   2.025   7.265  12.367 -0.7818 -0.1882 -0.7519
10281SOL    HW232285   2.166   7.317  12.351  0.3060 -2.3441  1.1906
10282SOL     OW32286   0.322   5.614   1.485  0.0851 -0.2443  0.3034
10282SOL    HW132287   0.304   5.528   1.448  0.3128 -0.8510  1.5492
10282SOL    HW232288   0.293   5.608   1.576  0.9647  0.6891  0.6706
10283SOL     OW32289   1.346   7.708   2.878  0.3583  0.2626 -0.2796
10283SOL    HW132290   1.345   7.662   2.962 -0.0592  0.4726 -0.1640
10283SOL    HW232291   1.254   7.731   2.863 -0.0500 -2.0754 -2.0693
10284SOL     OW32292   3.063   5.204  11.660  0.0022 -0.6669  0.2193
10284SOL    HW132293   2.990   5.231  11.715  0.3660 -0.8080  0.7716
10284SOL    HW232294   3.023   5.189  11.574 -0.6297 -0.7975  0.5267
10285SOL     OW32295   2.653   6.085   1.069 -0.1156 -0.3526  0.4962
10285SOL    HW132296   2.716   6.132   1.124  1.0945 -0.3852 -0.8107
10285SOL    HW232297   2.590   6.048   1.131  0.8815  0.0760  1.8059
10286SOL     OW32298   3.340   7.838   0.280 -0.0873 -0.6014 -0.6951
10286SOL    HW132299   3.362   7.799   0.195  0.6032 -0.6020 -0.5233
10286SOL    HW232300   3.257   7.799   0.304 -0.2049 -0.7314 -1.2938
10287SOL     OW32301   1.496   6.885   0.958 -0.6591 -0.4517 -0.3722
10287SOL    HW132302   1.460   6.913   1.042 -0.5646  0.0287 -0.4892
10287SOL    HW232303   1.425   6.897   0.895 -0.0951  1.2539 -0.7526
10288SOL     OW32304   2.581   0.091   0.377 -0.6417  0.4345 -0.4452
10288SOL    HW132305   2.584   0.004   0.338 -0.9369  0.7687 -1.2478
10288SOL    HW232306   2.615   0.080   0.465 -0.8405 -0.5235 -0.4829
10289SOL     OW32307   2.024   7.469  11.453  0.0139 -0.0271 -0.4490
10289SOL    HW132308   2.083   7.544  11.463  0.7087 -0.6824  0.4874
10289SOL    HW232309   2.012   7.435  11.542 -2.3954  0.5302 -0.4979
10290SOL     OW32310   5.198   7.326   0.882 -0.0837  0.0307  0.7487
10290SOL    HW132311   5.252   7.400   0.855  0.3754 -0.9520 -1.2047
10290SOL    HW232312   5.174   7.345   0.972 -0.4773  2.8259  0.1285
10291SOL     OW32313   2.273   0.466   2.959  0.4950  0.6787 -0.2342
10291SOL    HW132314   2.222   0.424   3.029 -0.9970 -0.7737 -2.1036
10291SOL    HW232315   2.315   0.394   2.913  2.0127  1.6656 -0.4693
10292SOL     OW32316   2.291   7.550   1.719 -0.1410  0.1537 -0.1292
10292SOL    HW132317   2.224   7.519   1.781 -0.2445  0.7212  0.0454
10292SOL    HW232318   2.327   7.628   1.760  1.0110 -0.4422  0.0257
10293SOL     OW32319   3.019   7.762   0.920  0.3912 -0.7876 -0.0218
10293SOL    HW132320   3.021   7.767   0.824  0.0076 -2.1736 -0.1322
10293SOL    HW232321   2.945   7.816   0.946  2.0367  1.7725 -0.2671
10294SOL     OW32322   1.428   6.100   1.063  0.5479 -0.1534  0.3059
10294SOL    HW132323   1.383   6.153   0.998  0.5503 -1.0596 -0.4614
10294SOL    HW232324   1.505   6.151   1.087 -0.2086  0.8368  0.6836
10295SOL     OW32325   3.510   0.909   0.028  0.5204 -1.0546  0.0889
10295SOL    HW132326   3.548   0.915  -0.060  0.7263 -0.3585  0.2186
10295SOL    HW232327   3.584   0.924   0.087  0.1372 -0.1080  0.3516
10296SOL     OW32328   1.065   5.318   1.205  0.3136 -0.3844  0.4074
10296SOL    HW132329   1.007   5.393   1.220  1.4947  0.5730  0.3730
10296SOL    HW232330   1.022   5.245   1.250 -1.3088  0.0906 -0.2917
10297SOL     OW32331   4.193   7.161  12.278  0.2340 -0.1123  0.2270
10297SOL    HW132332   4.257   7.186  12.345 -0.6973 -2.2642  2.0676
10297SOL    HW232333   4.119   7.128  12.328 -1.8462  1.1126 -1.8758
10298SOL     OW32334   4.011   6.465   0.115 -0.3280  0.9614 -0.0658
10298SOL    HW132335   3.951   6.405   0.159 -2.9222  1.8876 -2.0877
10298SOL    HW232336   4.082   6.409   0.083 -1.2498 -0.5636  0.4356
10299SOL     OW32337   1.812   6.502   0.790 -0.1386  0.6010 -0.1276
10299SOL    HW132338   1.781   6.549   0.713 -2.2993  0.7147  0.7572
10299SOL    HW232339   1.872   6.563   0.833  2.3946 -0.0349 -2.4554
10300SOL     OW32340   1.088   7.050   0.770 -0.2264  0.1151 -0.3673
10300SOL    HW132341   1.049   6.974   0.725  0.9269 -0.0475 -1.1425
10300SOL    HW232342   1.027   7.121   0.754 -0.9365 -0.4645 -0.2981
10301SOL     OW32343   4.929   1.287   0.177 -0.4661  0.1260  0.2672
10301SOL    HW132344   4.876   1.208   0.186 -1.6127  0.5698 -1.9637
10301SOL    HW232345   5.007   1.258   0.130 -0.6614  0.2095 -0.1152
10302SOL     OW32346   1.361   5.952   1.355 -0.3101 -0.0081 -0.5224
10302SOL    HW132347   1.372   5.973   1.262 -1.6985  1.4389 -0.4199
10302SOL    HW232348   1.270   5.977   1.374  0.1297  0.3088  1.3676
10303SOL     OW32349   3.211   5.319   2.882  0.2151 -0.1990  0.5642
10303SOL    HW132350   3.196   5.397   2.828 -1.3520 -1.2446 -0.5764
10303SOL    HW232351   3.241   5.252   2.820  0.5308 -0.8116  1.3626
10304SOL     OW32352   0.252   4.809  12.438  0.1143 -0.1852  0.0006
10304SOL    HW132353   0.251   4.784  12.530  1.1520  0.2079  0.1303
10304SOL    HW232354   0.177   4.867  12.428  0.1986  0.0509  0.6875
10305SOL     OW32355   3.163   5.650   1.009 -0.3767  0.2095 -0.1431
10305SOL    HW132356   3.140   5.558   1.020  0.8010  0.1226  2.1183
10305SOL    HW232357   3.090   5.698   1.047  0.2325  0.1067  1.1979
10306SOL     OW32358   1.345   7.205   2.498  0.0939 -0.4639  0.1458
10306SOL    HW132359   1.308   7.148   2.565 -0.2907 -0.8245 -0.3645
10306SOL    HW232360   1.417   7.155   2.460 -0.2736 -0.6365 -0.3350
10307SOL     OW32361   3.619   6.935   1.828  0.3661  0.2356  0.0386
10307SOL    HW132362   3.525   6.926   1.842  0.3558  0.8682  0.4455
10307SOL    HW232363   3.627   6.987   1.748  0.3881 -0.5884 -0.5075
10308SOL     OW32364   3.423   6.923   0.679 -0.0787 -0.2808 -0.4881
10308SOL    HW132365   3.474   6.842   0.677 -1.9428 -1.6238  1.0559
10308SOL    HW232366   3.358   6.912   0.609 -0.7948 -0.5177  0.1859
10309SOL     OW32367   0.094   5.477   1.713 -0.5249 -0.2389 -0.0754
10309SOL    HW132368   0.090   5.381   1.705 -1.7548 -0.1960 -0.1472
10309SOL    HW232369   0.025   5.509   1.654 -0.7765  0.6463  0.6813
10310SOL     OW32370   1.011   6.084  12.046 -0.5866  0.6226  0.2653
10310SOL    HW132371   1.008   6.146  11.974 -0.1223  0.2555 -0.0771
10310SOL    HW232372   0.974   6.132  12.120 -3.7130  0.1022 -0.8156
10311SOL     OW32373   2.419   0.659   0.225  0.3542 -0.4666  0.2675
10311SOL    HW132374   2.413   0.747   0.262  1.3278  0.5704 -1.8261
10311SOL    HW232375   2.347   0.656   0.161  0.8933 -0.8264 -0.3307
10312SOL     OW32376   1.914   6.760   0.352 -0.1595  0.5046  0.1323
10312SOL    HW132377   1.889   6.834   0.408 -1.6304 -1.6778  2.6089
10312SOL    HW232378   1.837   6.744   0.297  0.4300  1.2005 -0.9366
10313SOL     OW32379   2.363   5.740   1.253 -0.1256 -0.5376 -0.4638
10313SOL    HW132380   2.308   5.730   1.175  0.4179  1.2610 -1.1207
10313SOL    HW232381   2.374   5.651   1.287 -1.5587 -1.1780 -1.6107
10314SOL     OW32382   3.129   6.088   0.910 -0.5803 -0.1263  0.4179
10314SOL    HW132383   3.057   6.053   0.962 -1.7069  2.2758  0.6137
10314SOL    HW232384   3.097   6.085   0.820  0.2738 -1.7221  0.1367
10315SOL     OW32385   4.687   0.565   0.968 -0.2101 -0.3419  0.2640
10315SOL    HW132386   4.644   0.549   1.052 -1.3064  0.2876 -0.1546
10315SOL    HW232387   4.699   0.660   0.965  0.4406 -0.4234 -0.0168
10316SOL     OW32388   2.518   6.537   0.263 -0.3924  0.6971  0.1767
10316SOL    HW132389   2.463   6.476   0.312  0.4229  0.3071  0.6218
10316SOL    HW232390   2.487   6.530   0.172 -1.0827  0.5010  0.4209
10317SOL     OW32391   4.101   5.899  11.960  0.1766 -0.4434 -0.0253
10317SOL    HW132392   4.182   5.931  11.921  1.6433 -2.1757  1.4170
10317SOL    HW232393   4.044   5.879  11.886  0.5711  1.8563 -1.0407
10318SOL     OW32394   4.654   6.784   0.017 -0.0199  0.3614  0.7778
10318SOL    HW132395   4.633   6.725   0.089 -1.6802  2.1820  1.9060
10318SOL    HW232396   4.673   6.868   0.060  1.1335  0.9568 -0.8058
10319SOL     OW32397   1.956   7.749   0.460 -0.1999 -0.4054 -0.1958
10319SOL    HW132398   1.916   7.811   0.400 -0.4030 -1.0037 -0.6894
10319SOL    HW232399   1.960   7.667   0.411  1.0935 -0.5098  0.0401
10320SOL     OW32400   1.509   6.275   0.354 -0.9621 -0.1560  0.2023
10320SOL    HW132401   1.491   6.211   0.424 -1.1384 -0.6093 -0.2538
10320SOL    HW232402   1.600   6.257   0.330 -1.0458 -0.3097 -0.0008
10321SOL     OW32403   4.521   6.723   1.456 -0.2201 -0.4117 -0.9486
10321SOL    HW132404   4.468   6.799   1.483  0.5011  0.5534 -2.1595
10321SOL    HW232405   4.609   6.743   1.487  0.0030 -0.6829 -1.4037
10322SOL     OW32406   1.707   6.167   0.170  0.3321  0.3335  0.1812
10322SOL    HW132407   1.627   6.115   0.175 -0.8252  1.9482 -0.4919
10322SOL    HW232408   1.737   6.156   0.079  0.7732 -0.1164  0.3789
10323SOL     OW32409   3.485   6.775  11.126  0.2760  0.3167 -0.5133
10323SOL    HW132410   3.458   6.684  11.137  3.7317 -0.6905  1.0674
10323SOL    HW232411   3.534   6.776  11.044  1.8793  0.2173  0.4014
10324SOL     OW32412   4.404   6.479   1.069 -0.2192  0.3060 -0.0441
10324SOL    HW132413   4.389   6.401   1.123  1.9777 -0.4264 -0.3722
10324SOL    HW232414   4.413   6.445   0.980 -1.3690  1.2228 -0.5330
10325SOL     OW32415   3.100   6.342   0.987  0.2501 -0.1307 -0.5806
10325SOL    HW132416   3.157   6.381   0.921 -0.6461  1.1021 -0.6390
10325SOL    HW232417   3.104   6.248   0.969  1.7663 -0.0235 -0.9684
10326SOL     OW32418   4.328   7.212   0.440  0.0348  0.1845 -0.3457
10326SOL    HW132419   4.267   7.209   0.366  0.4927 -0.0952 -0.7145
10326SOL    HW232420   4.297   7.285   0.493  0.4270  1.1651 -1.4369
10327SOL     OW32421   2.748   7.690  12.196 -0.1460 -0.3161 -0.4223
10327SOL    HW132422   2.811   7.762  12.201 -0.1517 -0.1873 -1.8381
10327SOL    HW232423   2.787   7.620  12.248  0.1747  0.4774  0.4292
10328SOL     OW32424   3.486   7.120  11.559 -0.0563 -0.1241 -0.1514
10328SOL    HW132425   3.550   7.102  11.490  0.7708  0.8488  0.3326
10328SOL    HW232426   3.401   7.109  11.516  0.3585  3.3155 -2.2307
10329SOL     OW32427   2.252   5.455  11.063 -0.3871 -0.1195  0.6979
10329SOL    HW132428   2.322   5.518  11.082  0.2361 -0.0004 -1.6217
10329SOL    HW232429   2.175   5.510  11.049 -0.5378 -0.1125  1.5230
10330SOL     OW32430   4.129   7.271   1.150  0.1667 -0.6464 -0.2339
10330SOL    HW132431   4.041   7.286   1.183  0.7088  2.1087  0.2057
10330SOL    HW232432   4.182   7.261   1.229  0.4431 -1.0898 -0.4702
10331SOL     OW32433   1.803   1.169   3.002 -0.6106  0.5977 -0.5792
10331SOL    HW132434   1.785   1.103   3.070  1.7045 -1.1595 -1.5317
10331SOL    HW232435   1.722   1.220   2.996 -2.0537 -1.3174  1.1477
10332SOL     OW32436   3.927   7.713   0.700  0.6032  0.1573 -0.1618
10332SOL    HW132437   3.940   7.806   0.716 -3.2429  1.2165 -2.0545
10332SOL    HW232438   3.896   7.708   0.610 -0.7353 -2.7555  0.3493
10333SOL     OW32439   2.255   7.841   1.592  0.0515 -0.0696 -0.2586
10333SOL    HW132440   2.161   7.827   1.600  0.0321  0.3916  0.3250
10333SOL    HW232441   2.275   7.914   1.650  0.9611 -0.9430  0.5956
10334SOL     OW32442   2.919   7.140   0.432 -0.2964 -0.3552 -0.9027
10334SOL    HW132443   2.972   7.219   0.437  0.4413 -0.8698 -0.0181
10334SOL    HW232444   2.977   7.075   0.392 -0.9255 -0.4308 -1.7110
10335SOL     OW32445   3.135   7.114   2.560 -0.9942 -0.5139  0.3235
10335SOL    HW132446   3.169   7.176   2.496 -2.2225  1.3708  1.3991
10335SOL    HW232447   3.192   7.126   2.636  0.5934 -2.8865 -0.3737
10336SOL     OW32448   1.190   6.029   1.669 -0.7761 -0.4569 -0.8869
10336SOL    HW132449   1.122   6.062   1.728 -0.1973 -0.3980 -0.2255
10336SOL    HW232450   1.225   5.952   1.714  1.4407  1.0488  0.1736
10337SOL     OW32451   1.670   6.632  12.445  0.2978  0.0705  0.3663
10337SOL    HW132452   1.743   6.648  12.505  0.6183  1.1088 -0.2826
10337SOL    HW232453   1.640   6.719  12.419 -0.1481 -0.3574 -0.6088
10338SOL     OW32454   0.851   7.207  12.240  0.0019 -0.1651 -0.3207
10338SOL    HW132455   0.769   7.226  12.194 -0.4634 -0.8344  0.2246
10338SOL    HW232456   0.826   7.191  12.331  0.6220 -1.2271 -0.3125
10339SOL     OW32457   3.288   6.284   2.069 -0.3026 -0.5088 -0.1032
10339SOL    HW132458   3.337   6.272   1.987  0.5700  0.9947  0.1687
10339SOL    HW232459   3.327   6.361   2.109 -1.0203 -0.9592  1.5351
10340SOL     OW32460   2.534   6.997   2.351  0.0446 -0.3055  0.1019
10340SOL    HW132461   2.531   6.954   2.436  1.7630  1.4031  1.1022
10340SOL    HW232462   2.579   6.935   2.294  2.0086 -0.1296  1.3643
10341SOL     OW32463   3.096   5.609   3.101 -0.5134 -0.3411 -0.0285
10341SOL    HW132464   3.176   5.558   3.113  0.8152  1.8812  1.1589
10341SOL    HW232465   3.111   5.659   3.020 -0.6849  0.1017  0.2103
10342SOL     OW32466   2.525   5.991   0.522 -0.1922 -0.7091  0.3090
10342SOL    HW132467   2.517   5.918   0.461  0.1222 -0.0012 -0.6017
10342SOL    HW232468   2.436   6.006   0.554 -0.2548 -1.5035  0.5449
10343SOL     OW32469   3.291   7.455   0.597 -0.4105 -0.1602  0.3116
10343SOL    HW132470   3.377   7.434   0.633  0.3759  1.3904 -0.5187
10343SOL    HW232471   3.258   7.525   0.653 -0.9291 -0.4434  0.3605
10344SOL     OW32472   2.678   7.390   0.732  0.0182  0.4377  0.0311
10344SOL    HW132473   2.725   7.308   0.720 -0.3844  0.1222  0.5260
10344SOL    HW232474   2.657   7.419   0.643 -0.5121 -0.4040 -0.1351
10345SOL     OW32475   3.895   6.745   1.916  0.4292 -0.3872  0.1079
10345SOL    HW132476   3.806   6.777   1.928 -0.1102 -0.8888 -2.1900
10345SOL    HW232477   3.889   6.651   1.932  0.3790 -0.5388 -0.7849
10346SOL     OW32478   0.145   6.336   1.841 -0.3598  0.0357 -0.4081
10346SOL    HW132479   0.184   6.371   1.761  1.6694  0.4456  0.7002
10346SOL    HW232480   0.149   6.241   1.831 -2.0939  0.0442 -1.6554
10347SOL     OW32481   0.519   6.931   2.144  0.6357  0.1548  0.1560
10347SOL    HW132482   0.485   6.950   2.056  2.0313 -0.0133 -0.4496
10347SOL    HW232483   0.553   6.842   2.137  0.6500  0.0970  0.9168
10348SOL     OW32484   2.046   5.855   1.222 -0.1908  0.9040  0.3602
10348SOL    HW132485   1.961   5.875   1.184  0.5537  2.0341 -0.8149
10348SOL    HW232486   2.097   5.818   1.150 -0.0228 -0.8952  1.3397
10349SOL     OW32487   1.601   5.157   0.606 -0.0268 -0.2035  1.0308
10349SOL    HW132488   1.561   5.136   0.522  0.9087  0.7613  0.3274
10349SOL    HW232489   1.546   5.227   0.642 -0.2041 -0.3535  1.0541
10350SOL     OW32490   1.686   7.463  12.041 -0.1673 -0.1071 -0.5749
10350SOL    HW132491   1.629   7.497  11.972  0.5749  0.6135 -0.8439
10350SOL    HW232492   1.641   7.487  12.122 -1.3446 -1.4796 -0.7827
10351SOL     OW32493   3.755   6.820   2.438 -0.1653  0.0023  0.1676
10351SOL    HW132494   3.745   6.725   2.433  0.2262 -0.4503  4.3607
10351SOL    HW232495   3.665   6.854   2.440 -0.3391 -0.4577  0.2487
10352SOL     OW32496   2.102   6.109  12.437 -0.4688 -0.2009 -0.5809
10352SOL    HW132497   2.081   6.016  12.424  1.8307 -0.8835 -0.0368
10352SOL    HW232498   2.147   6.135  12.357  1.4613 -0.4545  0.3497
10353SOL     OW32499   4.470   6.426   0.752 -0.1496 -0.2410 -0.5167
10353SOL    HW132500   4.520   6.361   0.801  0.9183  2.2388  1.9299
10353SOL    HW232501   4.534   6.494   0.730 -1.8090  1.5557 -0.0530
10354SOL     OW32502   1.432   7.264   0.145  0.0392  0.3535  0.8594
10354SOL    HW132503   1.351   7.242   0.192  0.1130 -2.1637  0.0025
10354SOL    HW232504   1.402   7.301   0.062 -0.1697  1.3925  1.3893
10355SOL     OW32505   2.927   6.574   2.183  0.5103 -0.0887  0.1115
10355SOL    HW132506   2.864   6.505   2.162 -0.2175  0.4321  0.4932
10355SOL    HW232507   2.898   6.607   2.268  0.1965  1.3610 -0.5186
10356SOL     OW32508   1.470   5.350   0.713  0.9052  0.0985  0.3229
10356SOL    HW132509   1.379   5.320   0.719  1.1666 -0.4390  1.9834
10356SOL    HW232510   1.465   5.445   0.725  0.4160  0.3473 -1.4872
10357SOL     OW32511   4.249   6.949   1.376  0.1931  0.2390 -0.2121
10357SOL    HW132512   4.254   6.930   1.282 -2.3709  0.2048 -0.4294
10357SOL    HW232513   4.229   7.043   1.381 -1.6548 -0.1163  0.1277
10358SOL     OW32514   7.504   6.033   0.325 -0.2703  0.1276  0.6544
10358SOL    HW132515   7.590   6.069   0.304 -1.7318  3.1013 -0.8087
10358SOL    HW232516   7.507   5.942   0.294  2.1548  0.3006  0.2276
10359SOL     OW32517   3.025   7.124   1.786 -0.3719 -0.5595  0.0853
10359SOL    HW132518   3.016   7.131   1.691  0.2253 -1.1341 -0.0258
10359SOL    HW232519   2.989   7.205   1.820  1.3918  0.6543 -0.7772
10360SOL     OW32520   3.167   1.052   0.858  0.8618  0.5772 -0.1411
10360SOL    HW132521   3.215   0.985   0.905  0.3781 -0.4410 -1.0503
10360SOL    HW232522   3.085   1.063   0.906  1.6079  1.7037  0.9246
10361SOL     OW32523   2.328   5.863   2.190 -0.2860  0.0013 -0.0111
10361SOL    HW132524   2.238   5.863   2.156  0.1445 -0.2434 -1.1718
10361SOL    HW232525   2.342   5.773   2.218  0.2038 -0.4182 -1.5214
10362SOL     OW32526   2.322   7.199   1.821  0.1416  0.0075 -0.7453
10362SOL    HW132527   2.364   7.208   1.735  1.5172 -0.1347 -0.1009
10362SOL    HW232528   2.379   7.139   1.869 -1.3929 -1.0886 -0.2067
10363SOL     OW32529   1.265   7.619   1.237 -0.1293 -0.1073 -0.5111
10363SOL    HW132530   1.339   7.658   1.283 -0.2060 -0.5129 -0.0362
10363SOL    HW232531   1.275   7.648   1.146  0.5913 -0.1320 -0.4417
10364SOL     OW32532   2.836   7.856   1.215  0.9337 -0.3485 -0.3634
10364SOL    HW132533   2.881   7.804   1.282 -0.1082  0.3619  0.9363
10364SOL    HW232534   2.843   7.946   1.246 -2.1892 -0.2741  0.4397
10365SOL     OW32535   3.508   5.002   1.037  0.2355 -0.2390  0.2346
10365SOL    HW132536   3.485   5.090   1.068 -0.0289  0.2767 -1.3373
10365SOL    HW232537   3.438   4.946   1.069  0.1400  0.2128  0.8276
10366SOL     OW32538   3.107   7.110   2.045  0.0565 -0.1202 -0.5218
10366SOL    HW132539   3.089   7.104   1.951  0.1883  0.5247 -0.5926
10366SOL    HW232540   3.039   7.056   2.086 -0.6156  0.3988 -0.9320
10367SOL     OW32541   1.435   5.228   1.551  0.3442  0.0158  0.7330
10367SOL    HW132542   1.417   5.134   1.551 -0.2302  0.0920 -0.7531
10367SOL    HW232543   1.350   5.269   1.570 -0.1500  0.2696 -1.7173
10368SOL     OW32544   1.063   6.971  10.536  0.6020  0.5752  0.5740
10368SOL    HW132545   1.150   7.010  10.529  0.7389  0.0321 -1.7907
10368SOL    HW232546   1.031   6.969  10.446 -0.7570 -1.7088  1.0241
10369SOL     OW32547   2.205   6.179  12.174  0.4466 -0.3699 -0.2542
10369SOL    HW132548   2.277   6.242  12.175  0.5664 -0.4762  1.7357
10369SOL    HW232549   2.129   6.230  12.144  0.6710  0.5707  0.7261
10370SOL     OW32550   2.877   6.249   0.133  0.1134 -0.2602  0.6242
10370SOL    HW132551   2.787   6.244   0.101  0.3636 -0.2381 -0.1211
10370SOL    HW232552   2.909   6.334   0.101  0.1827  0.0388  1.4746
10371SOL     OW32553   2.574   0.593   0.585 -0.2554  0.2537 -0.1003
10371SOL    HW132554   2.571   0.552   0.498 -1.5373 -0.7561  0.3899
10371SOL    HW232555   2.618   0.528   0.640 -0.1329  0.5631  0.1652
10372SOL     OW32556   2.676   7.316   1.298  0.0025  0.3865  0.2470
10372SOL    HW132557   2.756   7.344   1.342  0.1472  1.5189 -0.6777
10372SOL    HW232558   2.706   7.283   1.213 -0.5242  1.3352 -0.3321
10373SOL     OW32559   4.427   6.970   0.484 -0.0875  0.4276 -0.1353
10373SOL    HW132560   4.518   6.998   0.475 -0.1628  1.7569  2.4228
10373SOL    HW232561   4.378   7.051   0.496 -1.2920 -0.3909  0.7012
10374SOL     OW32562   7.317   6.550  12.447 -0.0994  0.3755 -0.1110
10374SOL    HW132563   7.356   6.585  12.527 -1.1223 -1.7573  1.4179
10374SOL    HW232564   7.309   6.456  12.463 -2.9966  0.2580 -1.5235
10375SOL     OW32565   2.292   7.216   0.306 -0.2927 -0.3855 -0.4025
10375SOL    HW132566   2.232   7.173   0.367  0.3532 -1.0426 -0.2241
10375SOL    HW232567   2.238   7.282   0.263 -0.9751 -0.4996  0.2517
10376SOL     OW32568   2.614   6.109   2.186 -0.8114  0.2056  0.2435
10376SOL    HW132569   2.669   6.157   2.248 -2.9948  2.1427  0.8455
10376SOL    HW232570   2.536   6.085   2.237 -1.3010 -0.9334 -0.9795
10377SOL     OW32571   2.224   7.499  12.161  0.2768 -0.1802 -1.3682
10377SOL    HW132572   2.131   7.488  12.144 -0.2737  1.4804  0.2773
10377SOL    HW232573   2.256   7.410  12.175 -1.3599 -0.6881 -0.5736
10378SOL     OW32574   1.967   6.113   1.424  1.3159  0.2153  0.1433
10378SOL    HW132575   1.941   6.086   1.512 -3.2747  0.5554 -0.8592
10378SOL    HW232576   1.946   6.039   1.368  0.0377  1.4825 -1.1457
10379SOL     OW32577   2.397   5.767   1.916  0.3715  0.1387  0.0889
10379SOL    HW132578   2.352   5.852   1.913  0.1388  0.0092 -0.1396
10379SOL    HW232579   2.407   5.742   1.824  1.7982  0.6229  0.0945
10380SOL     OW32580   0.881   6.425   0.576  0.2127 -0.8630  0.8469
10380SOL    HW132581   0.801   6.473   0.597  0.6417  0.4881 -0.4072
10380SOL    HW232582   0.912   6.392   0.660 -0.2055  0.9381  1.7744
10381SOL     OW32583   3.810   7.354   2.358  0.1185 -0.3914  0.0154
10381SOL    HW132584   3.833   7.264   2.336 -0.4956 -0.6685  0.4666
10381SOL    HW232585   3.822   7.403   2.277  1.9363 -0.5747  0.1304
10382SOL     OW32586   1.742   1.476  11.092 -0.3220 -0.0168 -0.4177
10382SOL    HW132587   1.823   1.519  11.066 -0.7892  0.9212 -0.3345
10382SOL    HW232588   1.766   1.424  11.169  0.4751 -0.7577 -1.1439
10383SOL     OW32589   1.060   5.573   1.574  0.0140 -0.3372 -0.8289
10383SOL    HW132590   1.129   5.631   1.542 -1.5592  2.3047  0.1969
10383SOL    HW232591   0.986   5.591   1.516 -1.4413  1.0909  1.2928
10384SOL     OW32592   1.979   6.194   0.271 -0.3032 -0.9738 -0.5741
10384SOL    HW132593   2.044   6.129   0.296  2.5058  0.8949 -2.4641
10384SOL    HW232594   1.900   6.143   0.253  0.8820 -3.4706  0.8442
10385SOL     OW32595   3.878   6.653  11.894  0.2420 -0.0261 -0.0534
10385SOL    HW132596   3.911   6.730  11.847 -0.1881  0.6091  0.6592
10385SOL    HW232597   3.823   6.607  11.831 -0.1221  0.6757 -0.2561
10386SOL     OW32598   3.302   0.287   0.311 -0.2062  0.2716 -0.1465
10386SOL    HW132599   3.396   0.304   0.318  0.0852 -1.2725 -0.0910
10386SOL    HW232600   3.266   0.326   0.391  0.6121 -0.5782  0.6635
10387SOL     OW32601   1.880   7.455   1.927  0.3358  0.4766  0.0048
10387SOL    HW132602   1.974   7.464   1.907  0.7744 -1.2361  1.0867
10387SOL    HW232603   1.870   7.363   1.950 -1.3461  0.9573  1.3512
10388SOL     OW32604   2.860   6.505   1.050 -0.0297 -0.2349 -0.1910
10388SOL    HW132605   2.788   6.462   1.006  0.1941  1.2516 -2.1275
10388SOL    HW232606   2.938   6.459   1.019 -0.0506 -1.8680  1.9301
10389SOL     OW32607   5.136   6.579   2.670 -0.5287  0.0190  0.0101
10389SOL    HW132608   5.145   6.499   2.617 -2.5237 -0.6387  0.5810
10389SOL    HW232609   5.158   6.551   2.759 -1.1848  0.1006  0.2023
10390SOL     OW32610   3.284   5.949   1.962 -0.0060  0.3270  0.4102
10390SOL    HW132611   3.283   5.861   1.926 -0.5425  0.3572  0.3291
10390SOL    HW232612   3.222   5.998   1.907 -1.4716  0.1731  1.8235
10391SOL     OW32613   5.115   7.329   0.084  0.1571  0.1227  0.1762
10391SOL    HW132614   5.128   7.423   0.079  0.6876  0.0649  0.3164
10391SOL    HW232615   5.143   7.296  -0.001  2.4304 -0.1511  0.9570
10392SOL     OW32616   3.187   6.355   0.400 -0.1380 -0.0959 -0.5861
10392SOL    HW132617   3.168   6.392   0.487 -1.0456  0.2491 -0.9226
10392SOL    HW232618   3.204   6.432   0.345  1.4496 -0.3438 -0.5117
10393SOL     OW32619   2.890   0.013   1.946 -0.3805  0.6251 -0.2145
10393SOL    HW132620   2.974   0.057   1.961 -0.5811  1.0056 -0.1934
10393SOL    HW232621   2.849   0.010   2.033 -0.7701  1.2363 -0.3681
10394SOL     OW32622   3.011   1.226  11.912  0.1489 -0.0305  0.1559
10394SOL    HW132623   3.011   1.193  12.002  1.0319 -0.7218 -0.0801
10394SOL    HW232624   3.102   1.216  11.883 -0.0588  0.4973 -0.6989
10395SOL     OW32625   0.327   6.188   3.382  0.3958  0.8815 -0.1079
10395SOL    HW132626   0.280   6.259   3.424  0.2323  0.8454 -0.2291
10395SOL    HW232627   0.357   6.225   3.298 -0.7075  0.4560 -0.7084
10396SOL     OW32628   2.847   0.403   1.364  0.4102 -0.1911 -0.1664
10396SOL    HW132629   2.898   0.428   1.288  1.8604  0.5178  0.9926
10396SOL    HW232630   2.912   0.385   1.432 -0.8462  1.5616  1.6093
10397SOL     OW32631   4.486   5.787   0.052  0.0536 -0.5930 -0.2624
10397SOL    HW132632   4.482   5.878   0.083  1.2428 -0.9917  1.1268
10397SOL    HW232633   4.520   5.794  -0.037 -2.2444  0.4756 -1.1561
10398SOL     OW32634   2.339   5.962   0.229 -0.7199  0.6131 -0.7953
10398SOL    HW132635   2.251   5.963   0.265 -0.2722 -2.7760  0.8008
10398SOL    HW232636   2.330   5.915   0.146 -0.3889 -0.2302 -0.3671
10399SOL     OW32637   0.805   5.610   1.448  0.0075  0.0402 -0.3599
10399SOL    HW132638   0.803   5.549   1.375  0.1092 -1.9924  1.2562
10399SOL    HW232639   0.738   5.578   1.508  0.1078  1.4981  0.5858
10400SOL     OW32640   6.258   0.977  11.791 -0.1105  0.0889 -0.1433
10400SOL    HW132641   6.308   1.058  11.807  0.2696 -0.5048  1.9590
10400SOL    HW232642   6.325   0.912  11.769 -0.2053 -0.1023  0.1243
10401SOL     OW32643   2.926   6.768   0.939  0.2779 -0.1221 -0.1998
10401SOL    HW132644   2.895   6.693   0.991  0.6038  0.1068  0.3383
10401SOL    HW232645   2.931   6.840   1.002 -0.5291  0.4990 -0.8239
10402SOL     OW32646   3.630   7.958  11.581 -0.2281 -0.2399  0.5396
10402SOL    HW132647   3.620   8.052  11.592 -3.1324 -0.5295  1.0987
10402SOL    HW232648   3.685   7.949  11.503  0.5833  1.8925  0.7958
10403SOL     OW32649   3.916   1.626   0.346  0.5191  0.1518 -0.4648
10403SOL    HW132650   3.968   1.546   0.352  0.7489  0.3214 -0.1647
10403SOL    HW232651   3.892   1.632   0.254 -0.9395 -1.1688 -0.2216
10404SOL     OW32652   1.780   5.557   0.710  1.1323 -0.0162 -0.6967
10404SOL    HW132653   1.750   5.501   0.781 -1.1772  0.0936 -1.5163
10404SOL    HW232654   1.853   5.607   0.748  0.2259 -0.2295  1.4697
10405SOL     OW32655   2.114   6.761   1.674 -0.2334 -0.2490  0.5518
10405SOL    HW132656   2.109   6.746   1.769  1.3228 -0.6468  0.5897
10405SOL    HW232657   2.173   6.693   1.642  0.3547  0.7289 -0.5049
10406SOL     OW32658   4.741   6.837  11.469 -0.4598 -0.0458  0.0325
10406SOL    HW132659   4.787   6.907  11.422 -0.9267  0.9198  0.9698
10406SOL    HW232660   4.776   6.841  11.558 -1.9280  0.3585  0.6303
10407SOL     OW32661   0.637   6.398   2.549 -0.2195 -0.0746  0.1524
10407SOL    HW132662   0.647   6.303   2.545  0.3792 -0.0237  0.3586
10407SOL    HW232663   0.693   6.431   2.478 -1.6160  0.0616 -0.9384
10408SOL     OW32664   1.442   7.686   2.123 -0.8205  0.0804  0.0685
10408SOL    HW132665   1.511   7.734   2.077  0.1546  0.2681  1.6638
10408SOL    HW232666   1.369   7.684   2.061  0.4051  0.3690 -1.4561
10409SOL     OW32667   3.490   6.079   2.149 -0.1183 -0.1381 -0.1999
10409SOL    HW132668   3.472   6.162   2.194 -0.4705 -0.8988  1.1281
10409SOL    HW232669   3.411   6.062   2.098 -0.2088  0.1484 -0.1593
10410SOL     OW32670   2.351   5.894  12.474 -0.1995  0.0664  0.5049
10410SOL    HW132671   2.347   5.799  12.479 -0.0700  0.0656  0.5994
10410SOL    HW232672   2.270   5.919  12.429  0.0965 -0.1333 -0.1510
10411SOL     OW32673   2.339   7.194   2.372 -0.3719  0.5111  0.2269
10411SOL    HW132674   2.366   7.207   2.463 -2.2509 -2.6055  1.4081
10411SOL    HW232675   2.407   7.138   2.335 -0.1644  0.8784  0.0506
10412SOL     OW32676   1.684   5.662   1.775 -0.9743 -0.1187 -0.3002
10412SOL    HW132677   1.766   5.621   1.802 -0.6808  0.3678 -0.4222
10412SOL    HW232678   1.620   5.632   1.838 -0.4624  0.3704  0.4788
10413SOL     OW32679   1.594   7.561  12.277 -0.1824  0.3656  0.2803
10413SOL    HW132680   1.568   7.596  12.362 -2.8880 -1.2592  0.2418
10413SOL    HW232681   1.672   7.508  12.295  0.2998  1.4326  1.4113
10414SOL     OW32682   1.762   6.548  11.457  0.6220  0.0160 -0.4707
10414SOL    HW132683   1.757   6.644  11.452 -0.2535  0.1326  1.6556
10414SOL    HW232684   1.674   6.518  11.436  0.4638 -0.2055  0.4665
10415SOL     OW32685   3.181   0.692   0.205  0.3694 -0.4304 -0.2842
10415SOL    HW132686   3.112   0.635   0.238  0.7999 -0.9960 -0.3490
10415SOL    HW232687   3.146   0.780   0.216 -0.4628 -0.7175 -0.5498
10416SOL     OW32688   1.000   6.440   1.782  0.2758 -0.4045 -0.1333
10416SOL    HW132689   1.087   6.420   1.815  0.1320  1.9815  1.9710
10416SOL    HW232690   0.948   6.361   1.800  1.0538 -0.4080  2.3532
10417SOL     OW32691   3.628   0.614   0.463 -0.2114 -0.7390  0.1924
10417SOL    HW132692   3.602   0.649   0.378 -0.7709  0.5920  0.8782
10417SOL    HW232693   3.605   0.521   0.459 -1.9669 -0.3241 -0.4744
10418SOL     OW32694   2.926   7.380   1.858 -0.1311 -0.1520 -0.4604
10418SOL    HW132695   2.876   7.461   1.847  0.6162  0.3501 -0.2060
10418SOL    HW232696   2.950   7.379   1.951  0.9983  0.0216 -0.7358
10419SOL     OW32697   3.329   6.220   2.775  0.8294 -0.1328  0.0354
10419SOL    HW132698   3.364   6.130   2.771 -1.9899 -1.2957 -2.5094
10419SOL    HW232699   3.267   6.218   2.848 -0.8063 -0.9793 -1.3251
10420SOL     OW32700   1.192   7.813   4.445  0.3752  1.0224  0.2818
10420SOL    HW132701   1.212   7.749   4.377 -0.9075  2.5661 -1.6766
10420SOL    HW232702   1.106   7.788   4.478 -0.4351  2.0180 -0.9594
10421SOL     OW32703   4.455   5.729   1.957 -0.7042 -0.9818 -0.3197
10421SOL    HW132704   4.536   5.746   1.908 -2.6424  3.8082 -2.4910
10421SOL    HW232705   4.406   5.668   1.901  0.3536 -1.9714 -0.1993
10422SOL     OW32706   4.548   7.183   0.715  0.3317  0.2600  0.2650
10422SOL    HW132707   4.545   7.249   0.785 -0.6862  1.8586 -1.1973
10422SOL    HW232708   4.594   7.226   0.643  1.2433 -1.2977 -0.1251
10423SOL     OW32709   2.604   6.938  11.659 -0.4684  0.1180  0.5132
10423SOL    HW132710   2.528   6.937  11.718  0.1128 -3.7685  1.4466
10423SOL    HW232711   2.673   6.980  11.711 -1.0970  0.7742  0.8582
10424SOL     OW32712   4.359   6.026   2.386 -0.1223 -0.0421 -1.1082
10424SOL    HW132713   4.356   6.071   2.301 -2.1457  1.8876 -0.1100
10424SOL    HW232714   4.430   6.068   2.433  1.7108 -1.8200 -2.0977
10425SOL     OW32715   5.159   0.606   1.073 -0.5817 -0.2442  0.1570
10425SOL    HW132716   5.128   0.609   1.163  1.4390  0.0293  0.8925
10425SOL    HW232717   5.243   0.560   1.078  0.5215  1.5009 -1.2726
10426SOL     OW32718   2.138   6.808   0.646 -0.2325 -0.0263 -0.2409
10426SOL    HW132719   2.141   6.868   0.721  1.9883  0.3413 -0.5457
10426SOL    HW232720   2.200   6.739   0.669 -0.0980 -0.3126 -1.4097
10427SOL     OW32721   1.371   7.017   1.845  0.4449  0.0550 -0.1429
10427SOL    HW132722   1.429   7.019   1.769 -0.7894 -1.2401 -1.1428
10427SOL    HW232723   1.312   7.091   1.832  0.5577  0.1450 -0.1558
10428SOL     OW32724   2.616   5.400   0.448  0.6641  0.2596 -0.6759
10428SOL    HW132725   2.547   5.442   0.395  0.0679 -0.3358 -0.3818
10428SOL    HW232726   2.657   5.473   0.495 -1.5117  0.3923  1.1756
10429SOL     OW32727   3.562   7.009  11.844  0.0149 -0.1705 -0.7239
10429SOL    HW132728   3.576   7.054  11.761  1.0495  1.2508  0.1745
10429SOL    HW232729   3.562   7.079  11.909 -1.6828 -1.1388  0.4148
10430SOL     OW32730   4.219   0.768   0.814 -0.0270 -0.3701 -0.2200
10430SOL    HW132731   4.205   0.836   0.748  1.9507  0.8997  0.5885
10430SOL    HW232732   4.259   0.814   0.887 -0.4649 -2.0894  1.1541
10431SOL     OW32733   1.911   6.769   3.917  0.1330 -0.3836 -0.4357
10431SOL    HW132734   1.959   6.840   3.959  0.1586 -0.8117  0.2720
10431SOL    HW232735   1.976   6.722   3.865  0.1946 -0.1194 -0.5935
10432SOL     OW32736   3.127   5.864   1.304  0.6747  0.4337 -0.2854
10432SOL    HW132737   3.140   5.831   1.393 -1.5832  1.0188  0.3149
10432SOL    HW232738   3.214   5.861   1.264  1.6804 -0.1214  1.8409
10433SOL     OW32739   2.963   4.666   2.399 -0.1767  0.2843  0.1561
10433SOL    HW132740   3.006   4.581   2.406 -1.0387 -0.0664  1.8420
10433SOL    HW232741   3.006   4.719   2.467  0.2254  1.1511 -0.7551
10434SOL     OW32742   3.907   5.607  12.243  0.7595  0.2358  0.0571
10434SOL    HW132743   3.840   5.634  12.305  1.5447  1.3895  0.4348
10434SOL    HW232744   3.880   5.519  12.214 -0.7802  0.5967  0.3490
10435SOL     OW32745   1.199   6.772   0.527  0.4781  0.1554 -0.1362
10435SOL    HW132746   1.115   6.815   0.542  0.2486 -0.0181 -0.8790
10435SOL    HW232747   1.176   6.681   0.509  0.9048 -0.1139  0.6726
10436SOL     OW32748   1.617   7.189   1.611  0.3411 -0.0422 -0.4659
10436SOL    HW132749   1.657   7.276   1.602 -0.2866  0.5618  1.8294
10436SOL    HW232750   1.524   7.205   1.594  0.0427  0.0228  1.0415
10437SOL     OW32751   1.419   5.468  10.878 -1.0064  0.4810  0.6213
10437SOL    HW132752   1.469   5.549  10.868 -0.1075 -0.2798 -1.9476
10437SOL    HW232753   1.332   5.496  10.906 -0.4551  2.2388  0.6588
10438SOL     OW32754   3.049   6.930  11.871  0.1699  0.0173 -0.7671
10438SOL    HW132755   3.119   6.994  11.859  0.3886 -0.2700 -1.0625
10438SOL    HW232756   3.063   6.866  11.801 -0.4157 -0.0217 -0.8525
10439SOL     OW32757   4.241   6.375   0.633  0.0705 -0.2023  0.2068
10439SOL    HW132758   4.322   6.400   0.677 -0.5181 -0.0456  1.2418
10439SOL    HW232759   4.172   6.412   0.688 -0.6886  0.6446 -1.2506
10440SOL     OW32760   0.972   6.454   0.096 -0.1238 -0.3244 -0.3378
10440SOL    HW132761   0.970   6.464   0.001 -0.1428 -2.3640 -0.5893
10440SOL    HW232762   1.028   6.378   0.111  1.5893  1.1769  1.4336
10441SOL     OW32763   2.623   0.256  11.588  0.1817 -0.1958  0.2809
10441SOL    HW132764   2.536   0.264  11.549  0.7283 -0.2652 -0.9766
10441SOL    HW232765   2.656   0.346  11.593  0.6483 -0.3046 -0.6850
10442SOL     OW32766   0.946   7.201   1.695  0.1063  0.5185 -0.1278
10442SOL    HW132767   0.899   7.205   1.778  1.7273 -0.1635  0.8811
10442SOL    HW232768   0.913   7.121   1.652  1.3528 -0.8071  1.2605
10443SOL     OW32769   3.654   5.358   0.699  0.5426 -0.0882  0.1122
10443SOL    HW132770   3.678   5.425   0.635 -0.3624 -0.8500 -1.0642
10443SOL    HW232771   3.738   5.333   0.739  1.5831 -1.5075 -2.6918
10444SOL     OW32772   0.178   5.984   0.442  0.0823  0.2661 -0.0116
10444SOL    HW132773   0.152   5.962   0.531  0.2208 -0.7435 -0.2068
10444SOL    HW232774   0.115   5.938   0.387 -0.1736  1.1124 -0.4373
10445SOL     OW32775   4.480   5.544   0.186  0.3763 -0.1177 -0.2648
10445SOL    HW132776   4.551   5.486   0.158 -0.0356  0.1008 -1.8470
10445SOL    HW232777   4.497   5.626   0.140  0.3298  0.6899  1.0963
10446SOL     OW32778   1.919   7.202   2.045 -0.4876 -0.0318 -0.0226
10446SOL    HW132779   1.957   7.231   2.128 -0.2529  1.7307 -0.7029
10446SOL    HW232780   1.986   7.145   2.007 -0.0287  0.2281  0.3848
10447SOL     OW32781   2.905   6.394   2.697 -0.5870  0.2717  0.4389
10447SOL    HW132782   2.937   6.341   2.623  0.1817 -0.9849  1.6160
10447SOL    HW232783   2.983   6.440   2.729 -0.7456  0.1888  0.9543
10448SOL     OW32784   1.440   6.593   2.409  0.0960 -0.0226  0.4170
10448SOL    HW132785   1.385   6.651   2.461  2.0372  0.6978  1.7826
10448SOL    HW232786   1.518   6.646   2.389  1.0787 -1.5387  0.0603
10449SOL     OW32787   1.867   6.239   0.763  0.0102  0.3127  0.8034
10449SOL    HW132788   1.817   6.309   0.805 -0.4236  0.0910  0.6688
10449SOL    HW232789   1.820   6.158   0.787 -0.6988  0.2415 -0.7023
10450SOL     OW32790   1.585   5.937   1.727  0.4968  0.7458 -0.1396
10450SOL    HW132791   1.567   5.937   1.633 -0.6077  0.8417  0.0567
10450SOL    HW232792   1.674   5.903   1.734  0.1434 -0.4530 -1.1412
10451SOL     OW32793   0.842   7.377   1.422 -0.2176  0.1029  0.0911
10451SOL    HW132794   0.886   7.461   1.437 -1.1427  0.5129  0.6317
10451SOL    HW232795   0.867   7.324   1.498 -1.7441  0.8238  1.1459
10452SOL     OW32796   2.318   0.282   2.257 -0.1239 -0.2125 -0.4914
10452SOL    HW132797   2.266   0.265   2.178 -0.5342  2.7526 -0.9873
10452SOL    HW232798   2.391   0.335   2.226  1.6227 -1.8382  0.6815
10453SOL     OW32799   2.214   6.044   1.335 -0.0018 -0.2640 -0.4190
10453SOL    HW132800   2.173   5.965   1.299 -0.0132  0.2523 -1.5712
10453SOL    HW232801   2.147   6.081   1.393 -0.8353  0.0439 -1.5361
10454SOL     OW32802   3.006   7.593   1.162  0.2988  0.2069  0.1515
10454SOL    HW132803   2.955   7.553   1.091 -2.5527  2.0887  0.9186
10454SOL    HW232804   3.006   7.686   1.140  1.6779  0.4942  1.2905
10455SOL     OW32805   2.232   6.392   3.248  0.2658 -0.1946 -0.3650
10455SOL    HW132806   2.294   6.462   3.272 -1.0427  0.7329  0.4536
10455SOL    HW232807   2.266   6.315   3.294  0.9943  0.2144 -0.1860
10456SOL     OW32808   2.798   5.888   3.888 -0.2468  1.0588  0.2455
10456SOL    HW132809   2.831   5.820   3.947 -2.5617  1.0777  1.6792
10456SOL    HW232810   2.866   5.955   3.889  1.0115 -0.1621  0.6578
10457SOL     OW32811   3.247   5.838   4.119 -0.5537 -0.2134 -0.3867
10457SOL    HW132812   3.336   5.808   4.100  0.5029  2.2923  0.1827
10457SOL    HW232813   3.217   5.781   4.189  0.3640 -1.4531 -0.9611
10458SOL     OW32814   2.800   5.853   5.139 -0.1696 -0.0737 -0.0348
10458SOL    HW132815   2.811   5.759   5.131 -1.1892 -0.0934 -1.3851
10458SOL    HW232816   2.706   5.866   5.151 -0.2350  0.8424 -1.3070
10459SOL     OW32817   1.402   7.271   3.364 -0.2056  0.2282 -0.6368
10459SOL    HW132818   1.436   7.196   3.412 -0.6909  0.7097  0.5108
10459SOL    HW232819   1.318   7.241   3.329 -0.6067  0.3620  0.1947
10460SOL     OW32820   2.486   5.651   5.219 -0.5429  0.5609 -0.0289
10460SOL    HW132821   2.551   5.626   5.153 -0.0075  1.4235  0.1550
10460SOL    HW232822   2.535   5.653   5.301 -1.4840 -1.8569  0.6966
10461SOL     OW32823   2.146   5.965   3.257 -0.0161 -0.1491  0.9088
10461SOL    HW132824   2.056   5.932   3.260 -0.4843  0.6760 -1.3781
10461SOL    HW232825   2.178   5.940   3.170  1.6939  0.2722  1.3731
10462SOL     OW32826   2.044   6.466   3.462  0.2065 -0.7054  0.4341
10462SOL    HW132827   2.057   6.418   3.381  0.5058 -1.9037  1.1585
10462SOL    HW232828   2.050   6.558   3.437  2.8825 -1.0378 -0.5190
10463SOL     OW32829   2.081   7.959   3.692 -0.1140  0.3195  0.0619
10463SOL    HW132830   2.006   7.954   3.751 -1.1521  0.8471 -1.1753
10463SOL    HW232831   2.066   7.889   3.629  0.2586  0.6574 -0.4018
10464SOL     OW32832   1.083   6.189   2.590 -0.3124  0.2735 -0.3710
10464SOL    HW132833   1.124   6.119   2.640 -3.8444  0.7458  3.9005
10464SOL    HW232834   1.144   6.263   2.597  1.0122 -0.8067 -0.1087
10465SOL     OW32835   1.554   7.370   1.966 -0.8484  0.3279  0.5020
10465SOL    HW132836   1.638   7.416   1.960 -0.9843  0.4949 -0.1322
10465SOL    HW232837   1.492   7.426   1.920 -0.8925 -0.7723 -0.8409
10466SOL     OW32838   2.209   5.079   1.919  0.2233 -0.3307  0.0543
10466SOL    HW132839   2.246   5.022   1.851  1.0296 -0.5381  0.6599
10466SOL    HW232840   2.222   5.168   1.885  0.3585 -0.4454 -0.1968
10467SOL     OW32841   2.272   6.250   2.389 -0.2362  0.0819 -0.1336
10467SOL    HW132842   2.305   6.306   2.319 -1.4196  0.6491 -0.2650
10467SOL    HW232843   2.334   6.177   2.393  0.0645  0.2392 -1.5096
10468SOL     OW32844   1.901   4.166   2.904 -0.3703 -0.3358  0.4894
10468SOL    HW132845   1.913   4.089   2.959 -0.6085 -1.1314 -0.5239
10468SOL    HW232846   1.807   4.170   2.887 -0.0644 -1.8968 -2.2282
10469SOL     OW32847   0.606   5.526   1.630  0.3948  0.0346 -0.0814
10469SOL    HW132848   0.555   5.603   1.655  0.1339 -0.1868  0.0810
10469SOL    HW232849   0.639   5.492   1.714 -0.0654 -0.4241 -0.0832
10470SOL     OW32850   4.279   7.060   2.100  0.2923 -0.5915 -0.2037
10470SOL    HW132851   4.197   7.013   2.089 -0.3648  0.5619 -0.4068
10470SOL    HW232852   4.280   7.124   2.029  1.7852 -1.1506 -0.7242
10471SOL     OW32853   2.035   6.391   1.446 -0.0450  0.1621  0.1928
10471SOL    HW132854   2.025   6.302   1.479 -0.0054  0.0652 -0.0562
10471SOL    HW232855   1.951   6.412   1.405 -0.5297  0.7361  1.4322
10472SOL     OW32856   3.969   7.289   2.847  0.6574 -0.2046 -0.2660
10472SOL    HW132857   3.887   7.283   2.797  1.4962  3.4077 -2.4307
10472SOL    HW232858   3.969   7.378   2.883  2.2067 -1.2008  2.5583
10473SOL     OW32859   4.603   5.250   2.545  0.1480  0.1023 -0.0686
10473SOL    HW132860   4.563   5.331   2.577  0.6279 -0.1129  1.1003
10473SOL    HW232861   4.553   5.180   2.585  0.8333 -0.1704  0.3203
10474SOL     OW32862   1.618   5.013   1.793  0.1774  0.2640  0.5147
10474SOL    HW132863   1.531   4.986   1.765  0.5882  0.5626 -1.1340
10474SOL    HW232864   1.615   5.009   1.889 -1.6601  0.3479  0.4838
10475SOL     OW32865   3.810   5.515   4.174 -0.0558 -0.2294 -0.0061
10475SOL    HW132866   3.891   5.496   4.127  0.4058  0.2741  0.5809
10475SOL    HW232867   3.817   5.467   4.256 -0.8144 -1.0168 -0.3785
10476SOL     OW32868   1.510   6.457   4.617  0.3780 -0.4486 -0.0700
10476SOL    HW132869   1.520   6.396   4.690 -0.0724 -0.9264 -0.4008
10476SOL    HW232870   1.521   6.403   4.539  0.9363  0.0738 -0.3645
10477SOL     OW32871   1.442   6.801   3.473  0.3412  0.2987  1.0936
10477SOL    HW132872   1.401   6.812   3.388 -0.7544  0.7271  1.6536
10477SOL    HW232873   1.441   6.706   3.487 -1.7999  0.3467  1.6811
10478SOL     OW32874   1.875   7.426   3.391  0.1066 -0.2262  0.1289
10478SOL    HW132875   1.968   7.417   3.370 -0.0119  1.9355 -1.6491
10478SOL    HW232876   1.831   7.422   3.306 -1.4663 -1.2727  0.9426
10479SOL     OW32877   3.304   5.128   2.720 -0.3259  0.3843 -0.5604
10479SOL    HW132878   3.257   5.078   2.653 -2.2808 -0.9770  1.6619
10479SOL    HW232879   3.332   5.062   2.783  0.6540  1.7201  0.4656
10480SOL     OW32880   3.162   6.855   2.712  0.2759 -0.1994 -0.0357
10480SOL    HW132881   3.140   6.789   2.646 -2.2506  0.8833 -0.4224
10480SOL    HW232882   3.131   6.937   2.673  1.3725  0.9020  1.3249
10481SOL     OW32883   1.503   6.002   1.977  0.0537 -0.5292 -0.3253
10481SOL    HW132884   1.565   6.064   2.016 -1.1538  0.0584  0.7334
10481SOL    HW232885   1.536   5.987   1.888  2.1994 -0.9458  0.4983
10482SOL     OW32886   1.363   6.520   2.833  0.2263  0.7432 -0.1504
10482SOL    HW132887   1.269   6.508   2.832  0.4024 -0.6952 -0.4798
10482SOL    HW232888   1.397   6.457   2.770  1.4021  1.3861 -0.1989
10483SOL     OW32889   2.745   0.127   1.358 -0.3813  0.0350  0.1665
10483SOL    HW132890   2.766   0.220   1.365  0.0029 -0.0835  0.6759
10483SOL    HW232891   2.661   0.124   1.312  0.3834  0.5624 -1.3280
10484SOL     OW32892   1.211   6.114   1.984  0.7220 -0.2102 -0.0909
10484SOL    HW132893   1.222   6.196   1.935 -0.8808  0.2071  0.2041
10484SOL    HW232894   1.300   6.079   1.992  1.3158  0.9862 -1.0950
10485SOL     OW32895   3.404   4.556   3.214  0.0232  0.2738  0.5414
10485SOL    HW132896   3.480   4.497   3.211  1.2498  1.7865  0.8704
10485SOL    HW232897   3.402   4.587   3.304 -1.6276 -0.5087  0.8061
10486SOL     OW32898   1.473   7.747   3.606 -0.0731  0.2211  0.0118
10486SOL    HW132899   1.500   7.655   3.605 -1.4605 -0.3022  2.2319
10486SOL    HW232900   1.415   7.754   3.681 -1.2245  2.6103 -0.9846
10487SOL     OW32901   2.428   5.857   5.882  0.2202 -0.0655 -0.1351
10487SOL    HW132902   2.374   5.936   5.885 -0.0323 -0.2317 -0.2653
10487SOL    HW232903   2.457   5.844   5.972 -1.3683 -0.9440  0.2901
10488SOL     OW32904   4.039   4.491   3.022 -0.1699  0.5289  0.4832
10488SOL    HW132905   4.075   4.456   3.104 -0.3402 -0.5725  0.1152
10488SOL    HW232906   3.981   4.562   3.049 -2.1106 -1.3434  1.5474
10489SOL     OW32907   0.281   7.273   4.120  0.0386  0.3942  0.0676
10489SOL    HW132908   0.235   7.197   4.082  0.3781 -0.1779  0.7674
10489SOL    HW232909   0.224   7.301   4.192 -1.0974  2.0870 -1.3992
10490SOL     OW32910   2.417   5.941   2.915 -0.2214  0.2173  0.4153
10490SOL    HW132911   2.432   6.004   2.986  2.6424  1.1518 -0.8400
10490SOL    HW232912   2.481   5.871   2.931 -1.4910 -1.0246  0.2640
10491SOL     OW32913   2.533   5.010   1.366 -0.0202 -0.0393  0.4051
10491SOL    HW132914   2.465   4.967   1.314 -0.6643  2.0138 -0.5760
10491SOL    HW232915   2.485   5.071   1.422  0.6981 -1.8542  3.1835
10492SOL     OW32916   1.491   4.640   1.776  0.1300  0.1050 -0.5708
10492SOL    HW132917   1.531   4.554   1.790  1.0470  0.6355  0.1289
10492SOL    HW232918   1.445   4.659   1.857  0.3489  0.5002 -0.5391
10493SOL     OW32919   1.934   6.417   4.758  0.1814  0.3073  0.3756
10493SOL    HW132920   1.869   6.485   4.778  0.0629  0.3614 -0.1841
10493SOL    HW232921   1.935   6.362   4.836 -1.0863 -0.1241  0.0986
10494SOL     OW32922   1.665   3.283   2.621 -0.0696 -0.1906  0.0731
10494SOL    HW132923   1.732   3.312   2.681 -0.4154  2.0763 -0.5539
10494SOL    HW232924   1.711   3.267   2.539 -0.0176 -0.5636  0.1724
10495SOL     OW32925   2.482   5.208   4.369 -0.4881 -0.0730 -0.1821
10495SOL    HW132926   2.509   5.139   4.309  1.2078  0.2352  0.1823
10495SOL    HW232927   2.539   5.198   4.445 -1.6689  0.4057  0.8141
10496SOL     OW32928   3.556   5.557   3.081  0.0967  0.7732 -0.2767
10496SOL    HW132929   3.542   5.465   3.057 -0.7277  0.7858  0.1212
10496SOL    HW232930   3.651   5.563   3.097  0.2492  0.1357 -0.8580
10497SOL     OW32931   0.437   5.361   3.152 -0.0989 -0.1012 -0.1909
10497SOL    HW132932   0.432   5.455   3.170 -1.6220 -0.2929  0.6114
10497SOL    HW232933   0.497   5.327   3.217 -0.8382  0.0952  0.6095
10498SOL     OW32934   1.884   6.961   3.054  0.4683 -0.1032 -0.4622
10498SOL    HW132935   1.793   6.958   3.023  0.9974 -0.9547 -2.0549
10498SOL    HW232936   1.910   7.052   3.043  0.6396 -0.3460 -2.7518
10499SOL     OW32937   2.154   5.393   2.743 -0.4425  0.0373  0.2383
10499SOL    HW132938   2.193   5.480   2.734 -1.9862  1.0414  2.2818
10499SOL    HW232939   2.181   5.363   2.830  1.3493 -2.3072 -1.0031
10500SOL     OW32940   4.301   5.701   3.027 -0.5297  0.8789  0.4263
10500SOL    HW132941   4.332   5.649   3.101  0.5292  0.6824 -0.1418
10500SOL    HW232942   4.227   5.651   2.992  0.8437 -0.5906 -0.4848
10501SOL     OW32943   3.615   7.996   2.004 -0.3466  0.4594  0.1921
10501SOL    HW132944   3.696   7.949   2.025 -0.0884  0.4727 -0.7552
10501SOL    HW232945   3.610   8.065   2.070 -0.4609 -0.5532  1.2825
10502SOL     OW32946   2.341   6.043   1.940 -0.4561 -0.8119 -0.6123
10502SOL    HW132947   2.286   6.076   2.011  0.0879 -1.4555  0.1258
10502SOL    HW232948   2.370   6.122   1.894  0.5370 -0.2512  0.8978
10503SOL     OW32949   1.550   6.395   2.183  0.1010  0.1693 -0.2609
10503SOL    HW132950   1.604   6.423   2.257 -0.1834  0.3078 -0.1029
10503SOL    HW232951   1.491   6.330   2.219 -0.4255  0.6514 -0.2319
10504SOL     OW32952   1.477   5.670   2.860 -0.0069 -0.1032  0.1264
10504SOL    HW132953   1.521   5.703   2.938 -0.5187 -0.0044  0.3788
10504SOL    HW232954   1.390   5.710   2.862 -0.1275 -0.3267 -0.3394
10505SOL     OW32955   4.944   7.452   1.437  0.1243  0.0254 -0.3745
10505SOL    HW132956   4.904   7.501   1.365 -0.0605  0.8665  0.2840
10505SOL    HW232957   4.939   7.511   1.512  0.8888 -0.5923  0.1813
10506SOL     OW32958   2.742   4.629   3.123  0.6439 -0.4766  0.1779
10506SOL    HW132959   2.653   4.645   3.153  0.3907 -0.8730 -0.3355
10506SOL    HW232960   2.798   4.664   3.192  0.0886 -0.3965  0.5925
10507SOL     OW32961   3.122   6.937   2.331 -0.0715  0.2122 -0.4881
10507SOL    HW132962   3.137   7.011   2.391 -0.9680  0.2770 -0.3281
10507SOL    HW232963   3.108   6.862   2.389 -2.5988  0.5680 -0.4847
10508SOL     OW32964   2.824   7.633   2.248  0.4366  0.2973 -0.2421
10508SOL    HW132965   2.749   7.688   2.225 -0.0456  0.1856  0.9849
10508SOL    HW232966   2.900   7.680   2.213 -0.2161  0.2888 -1.7091
10509SOL     OW32967   4.030   3.894   2.850  0.1243  0.2524  0.4725
10509SOL    HW132968   3.963   3.841   2.895  1.3872  0.1878  2.3822
10509SOL    HW232969   4.028   3.978   2.896  2.3893 -0.2654  1.6579
10510SOL     OW32970   1.599   7.878   1.988  0.0378 -0.0010  0.3435
10510SOL    HW132971   1.676   7.832   1.957 -0.2235 -0.3665  0.2271
10510SOL    HW232972   1.629   7.925   2.066  0.4999  0.2852 -0.0009
10511SOL     OW32973   3.342   4.694   2.490  0.1754 -0.4017  0.9296
10511SOL    HW132974   3.356   4.738   2.574  1.2757 -0.3618  0.7378
10511SOL    HW232975   3.327   4.602   2.514 -0.5833 -0.2007  1.2319
10512SOL     OW32976   0.803   5.473   1.226 -0.0349  0.7163  0.8913
10512SOL    HW132977   0.825   5.551   1.176 -0.5250 -0.5572 -1.4844
10512SOL    HW232978   0.712   5.455   1.202  0.5650 -1.4761  0.0518
10513SOL     OW32979   3.214   5.842   3.831 -0.1990  0.4083  0.2569
10513SOL    HW132980   3.256   5.757   3.816  0.0817  0.1926  2.0246
10513SOL    HW232981   3.182   5.837   3.921  0.1764  2.3186  0.5279
10514SOL     OW32982   1.757   6.314   2.359 -0.1500 -0.3887  0.2382
10514SOL    HW132983   1.760   6.363   2.442 -0.3690  1.0528 -0.5610
10514SOL    HW232984   1.847   6.285   2.345 -0.1886 -0.9808  1.1662
10515SOL     OW32985   0.068   6.620   3.715 -0.1892 -0.3652 -0.4298
10515SOL    HW132986   0.051   6.526   3.718 -1.0399 -0.1918  0.5724
10515SOL    HW232987   0.027   6.649   3.633  0.8700 -0.9920 -1.2099
10516SOL     OW32988   3.332   6.987   3.850  0.1915 -0.0582  0.2042
10516SOL    HW132989   3.293   6.922   3.791  0.2241 -0.2633  0.4086
10516SOL    HW232990   3.385   6.936   3.911  2.9569  0.3675 -1.6706
10517SOL     OW32991   2.305   3.196   5.263  0.2214 -0.2267  0.6661
10517SOL    HW132992   2.337   3.264   5.323 -1.4585 -1.2166  2.8233
10517SOL    HW232993   2.371   3.127   5.268  0.2457 -0.1704  1.1316
10518SOL     OW32994   4.139   6.902   2.630  0.3673 -0.0204 -0.4537
10518SOL    HW132995   4.063   6.931   2.680 -0.8502 -3.5745  0.0461
10518SOL    HW232996   4.150   6.968   2.562 -1.9619  1.5739  0.5850
10519SOL     OW32997   0.940   7.053   2.472  0.0820  0.2087  0.5287
10519SOL    HW132998   0.866   7.041   2.413  1.3196 -1.5694 -0.7589
10519SOL    HW232999   0.917   7.002   2.550 -0.9449  1.4278  1.0554
10520SOL     OW33000   1.377   5.058   2.813  0.5687  0.4916 -0.3101
10520SOL    HW133001   1.439   5.093   2.877 -0.3444 -1.5001  1.7850
10520SOL    HW233002   1.291   5.077   2.850  0.0312 -2.0484 -0.0862
10521SOL     OW33003   1.721   5.764   2.187  0.3740 -0.2723  0.0246
10521SOL    HW133004   1.739   5.740   2.278  1.1629  1.9072  0.5081
10521SOL    HW233005   1.748   5.855   2.180 -2.4236  0.5599 -1.6451
10522SOL     OW33006   1.312   6.421  12.242  0.1343  0.3987  0.6636
10522SOL    HW133007   1.395   6.466  12.232  0.6344 -0.4136  1.0512
10522SOL    HW233008   1.319   6.344  12.186 -0.4509  0.4404  0.5216
10523SOL     OW33009   1.388   6.511   1.184 -0.4712  0.0128 -0.2582
10523SOL    HW133010   1.467   6.540   1.139 -1.5293  0.9083 -1.6580
10523SOL    HW233011   1.391   6.415   1.178 -0.7746  0.0856 -2.7594
10524SOL     OW33012   2.636   5.472   3.514  0.5647  0.0229 -0.1997
10524SOL    HW133013   2.673   5.516   3.591  2.2165 -1.6370 -0.0027
10524SOL    HW233014   2.710   5.430   3.472 -0.5679 -0.3921 -1.8705
10525SOL     OW33015   2.253   6.341   2.651 -0.6289 -0.4353 -0.2721
10525SOL    HW133016   2.241   6.306   2.563 -0.3487  0.0411 -0.5034
10525SOL    HW233017   2.182   6.404   2.662 -0.3727 -0.1340 -0.3427
10526SOL     OW33018   1.740   5.584   2.427  0.1253 -0.3699 -0.0097
10526SOL    HW133019   1.824   5.571   2.473  0.6753 -0.1993 -0.9382
10526SOL    HW233020   1.710   5.496   2.406 -0.5325 -0.4983  1.3417
10527SOL     OW33021   3.606   7.791   1.586  0.1189 -0.0550 -0.1630
10527SOL    HW133022   3.667   7.846   1.636  1.4292 -2.0107  0.5148
10527SOL    HW233023   3.656   7.764   1.509  0.3100 -1.8974  0.5326
10528SOL     OW33024   1.194   5.324   1.563  0.3758 -0.2708 -0.6684
10528SOL    HW133025   1.159   5.410   1.587 -0.4564 -1.1378  1.4989
10528SOL    HW233026   1.122   5.281   1.517  0.1113 -0.4754 -0.0727
10529SOL     OW33027   2.632   7.848   2.836 -0.0540  0.2746  0.0081
10529SOL    HW133028   2.643   7.887   2.922  1.3682  0.3097 -0.1615
10529SOL    HW233029   2.570   7.905   2.791 -1.0455  0.0796  1.0957
10530SOL     OW33030   1.881   4.949   1.808  0.2255  0.4241  0.3200
10530SOL    HW133031   1.793   4.982   1.789  0.0217  0.5110  1.3587
10530SOL    HW233032   1.867   4.858   1.835  0.5825  0.0832 -0.5749
10531SOL     OW33033   0.498   6.754   3.376  0.2062  0.2811  0.4692
10531SOL    HW133034   0.568   6.819   3.375 -0.7119  1.3036  0.3880
10531SOL    HW233035   0.445   6.777   3.452  0.1750 -0.7462  0.7816
10532SOL     OW33036   3.437   6.001   3.291 -0.1364 -0.0426 -0.1301
10532SOL    HW133037   3.521   5.971   3.258  0.5597  1.4746  0.1644
10532SOL    HW233038   3.409   6.069   3.229 -0.6799  0.1298  0.2889
10533SOL     OW33039   6.123   4.774   3.567 -0.1159 -0.8571  0.5928
10533SOL    HW133040   6.208   4.764   3.610 -1.1374 -1.5361  2.5883
10533SOL    HW233041   6.062   4.726   3.623 -1.8595 -0.2194 -0.6691
10534SOL     OW33042   3.843   5.587   3.079  0.4936  0.0379  0.0116
10534SOL    HW133043   3.932   5.556   3.098  0.9547  0.0358 -1.9504
10534SOL    HW233044   3.817   5.633   3.159  1.7031 -1.1409  1.1541
10535SOL     OW33045   2.431   6.115   3.101 -0.0387 -0.5046  0.3658
10535SOL    HW133046   2.383   6.169   3.038  1.1485  0.4043  0.2112
10535SOL    HW233047   2.376   6.117   3.180 -0.1124  0.8133  0.3082
10536SOL     OW33048   1.885   4.897   2.417 -0.3815 -0.0929  0.3433
10536SOL    HW133049   1.822   4.952   2.463 -0.7015  0.0109 -0.2081
10536SOL    HW233050   1.852   4.893   2.327  1.2597  1.2896 -0.3736
10537SOL     OW33051   3.553   7.476   1.128  0.5136  0.0354  0.1435
10537SOL    HW133052   3.599   7.420   1.066  0.0242 -1.0104  0.6924
10537SOL    HW233053   3.531   7.418   1.201 -1.8448  0.4125 -0.1662
10538SOL     OW33054   2.940   6.575   1.640  0.1757 -0.2680 -0.3740
10538SOL    HW133055   3.028   6.612   1.636  1.3261 -2.7649 -0.0368
10538SOL    HW233056   2.899   6.619   1.715  0.1706  2.6794 -1.9742
10539SOL     OW33057   1.713   5.061   1.522  0.2367 -0.6281 -0.0923
10539SOL    HW133058   1.651   4.989   1.509 -1.3891  0.9464 -1.4037
10539SOL    HW233059   1.687   5.101   1.605  1.6156 -1.9130  1.0342
10540SOL     OW33060   5.523   6.091   3.206  0.2595 -0.1879  0.1179
10540SOL    HW133061   5.590   6.042   3.158  0.9096  0.6254  0.1624
10540SOL    HW233062   5.443   6.039   3.196  1.2777 -2.2569  1.7400
10541SOL     OW33063   1.833   7.075   4.641 -0.1176 -0.1106  0.5886
10541SOL    HW133064   1.909   7.061   4.697  1.4867  0.7449 -1.2704
10541SOL    HW233065   1.810   6.987   4.610  1.4407 -0.1898 -0.4386
10542SOL     OW33066   4.095   7.148   3.338 -0.1606  0.1560 -0.2355
10542SOL    HW133067   4.094   7.225   3.395  0.0797  0.6871 -0.9305
10542SOL    HW233068   4.018   7.098   3.363 -0.4820  0.7745  0.0286
10543SOL     OW33069   3.834   5.660   2.818  0.2404 -0.2911  0.9226
10543SOL    HW133070   3.830   5.621   2.905  1.0553 -1.2432  0.5520
10543SOL    HW233071   3.750   5.637   2.778  0.5561 -1.3363  0.8483
10544SOL     OW33072   5.223   6.880   2.025  0.6619 -0.0811 -0.1284
10544SOL    HW133073   5.157   6.845   1.965  0.4153 -0.1970  0.2074
10544SOL    HW233074   5.212   6.829   2.105  1.0361  0.0250 -0.0080
10545SOL     OW33075   1.323   3.312   6.174 -0.1163 -0.2482  0.0824
10545SOL    HW133076   1.407   3.297   6.130  0.2139  2.6481 -0.5129
10545SOL    HW233077   1.260   3.319   6.103 -0.2907  0.5505  0.3025
10546SOL     OW33078   1.611   5.396   2.608  0.7711  0.5464 -0.3133
10546SOL    HW133079   1.654   5.465   2.659  0.7463 -0.8891  1.7820
10546SOL    HW233080   1.593   5.327   2.672  1.0612 -1.5406 -2.3599
10547SOL     OW33081   2.868   6.667   2.868  0.7177  0.2183  0.0759
10547SOL    HW133082   2.854   6.695   2.959  1.7691  0.1714  0.2696
10547SOL    HW233083   2.787   6.622   2.844  1.4692 -2.4343  2.0237
10548SOL     OW33084   1.530   7.167   2.779 -0.3294 -0.2053 -0.5594
10548SOL    HW133085   1.534   7.113   2.858  0.7772 -0.7211 -0.9451
10548SOL    HW233086   1.438   7.191   2.772 -0.5246 -0.4930  0.6558
10549SOL     OW33087   2.395   4.934   4.010  0.1036  0.6637 -0.3363
10549SOL    HW133088   2.341   4.928   4.088 -1.5888 -0.2597 -1.5212
10549SOL    HW233089   2.460   4.865   4.021  1.3334  1.9807  1.2391
10550SOL     OW33090   1.851   1.038   4.442 -1.1731 -0.5406  0.1989
10550SOL    HW133091   1.886   1.101   4.379  1.0276 -0.8325  1.0371
10550SOL    HW233092   1.844   0.956   4.392  2.1356 -1.1994  0.6062
10551SOL     OW33093   2.111   7.061   1.920 -0.4108 -0.2914 -0.5871
10551SOL    HW133094   2.192   7.071   1.969 -0.4381  1.3083 -0.8371
10551SOL    HW233095   2.138   7.060   1.828 -0.5372 -1.4680 -0.6345
10552SOL     OW33096   1.183   4.935   4.510 -0.0127  0.0327 -0.4351
10552SOL    HW133097   1.274   4.935   4.481  0.3252 -1.1606  0.5237
10552SOL    HW233098   1.187   4.960   4.602 -0.5545 -0.7960 -0.1719
10553SOL     OW33099   3.235   5.404   1.581  0.0710  0.0081 -0.5484
10553SOL    HW133100   3.214   5.433   1.670  1.6099  1.5009 -0.6192
10553SOL    HW233101   3.201   5.473   1.525 -1.2526 -1.1206 -1.2073
10554SOL     OW33102   3.597   6.972   3.024 -0.1128 -0.7136 -0.1239
10554SOL    HW133103   3.630   7.041   3.082 -0.3128 -1.7082  1.2297
10554SOL    HW233104   3.592   6.894   3.080 -1.6228 -1.3906 -1.1322
10555SOL     OW33105   3.503   6.880   1.128  0.6683  0.0982  0.7049
10555SOL    HW133106   3.423   6.924   1.100  0.9600 -0.0540 -0.4202
10555SOL    HW233107   3.501   6.885   1.223 -1.4797 -1.3011  0.8203
10556SOL     OW33108   2.048   7.519   4.192 -0.1765 -0.2302 -0.1722
10556SOL    HW133109   2.022   7.566   4.271  1.8162  2.9337 -1.1976
10556SOL    HW233110   2.021   7.576   4.120  1.6104 -1.0637 -1.5862
10557SOL     OW33111   1.959   7.202   3.510 -0.7346 -0.1276  0.0119
10557SOL    HW133112   1.989   7.204   3.601 -1.7888  1.6887  0.3660
10557SOL    HW233113   1.919   7.288   3.496 -1.7238 -0.8313 -1.7849
10558SOL     OW33114   1.775   5.322   4.964 -0.5856 -0.4131  0.0820
10558SOL    HW133115   1.845   5.257   4.962 -1.6846 -1.6378 -0.3261
10558SOL    HW233116   1.737   5.313   5.052 -0.9715 -0.5910 -0.0994
10559SOL     OW33117   1.601   4.276   3.712  0.4166 -0.0281 -0.7422
10559SOL    HW133118   1.666   4.247   3.647  1.2648 -0.7751  0.3922
10559SOL    HW233119   1.517   4.259   3.671  0.9281 -0.2633 -1.7394
10560SOL     OW33120   2.433   4.533   4.084  0.1187 -0.1712 -0.9995
10560SOL    HW133121   2.466   4.521   4.173 -0.3584  0.6335 -0.7097
10560SOL    HW233122   2.452   4.624   4.063 -0.7132 -0.0718 -1.3331
10561SOL     OW33123   6.862   7.160   3.361 -0.4545  0.4378 -0.2527
10561SOL    HW133124   6.871   7.194   3.450 -0.1031  0.0721 -0.1445
10561SOL    HW233125   6.828   7.234   3.311 -0.2016  0.7937  0.0884
10562SOL     OW33126   2.903   4.720   2.085  0.3876 -0.1355 -0.5324
10562SOL    HW133127   2.858   4.681   2.010  0.6831  2.6110 -2.2844
10562SOL    HW233128   2.982   4.666   2.096 -0.2890 -1.3570 -1.3621
10563SOL     OW33129   2.922   4.992   1.780 -0.2791  0.4698  0.8095
10563SOL    HW133130   2.828   4.986   1.796 -0.4632  0.7188 -0.1473
10563SOL    HW233131   2.956   5.040   1.855 -1.2578  2.5156  0.0192
10564SOL     OW33132   0.620   5.493   2.036  0.2440  0.0502 -0.0830
10564SOL    HW133133   0.593   5.581   2.010 -1.4665 -1.0296 -2.3480
10564SOL    HW233134   0.688   5.470   1.972  0.8973 -0.1807  0.6843
10565SOL     OW33135   1.585   5.233   2.244  0.4036 -0.6538  0.8351
10565SOL    HW133136   1.672   5.273   2.258 -0.1521  0.7168  0.5810
10565SOL    HW233137   1.591   5.147   2.285  1.4086  0.0250  2.1932
10566SOL     OW33138   4.056   5.594   4.393 -0.4916 -0.3237 -0.3634
10566SOL    HW133139   4.087   5.673   4.438 -0.8403 -0.8805  0.8928
10566SOL    HW233140   4.118   5.582   4.320 -0.6254  1.2728 -0.7834
10567SOL     OW33141   3.994   6.434   3.591 -0.7714  0.1125  0.4983
10567SOL    HW133142   4.017   6.479   3.510 -4.3385  2.1994  0.4655
10567SOL    HW233143   3.980   6.343   3.565  0.0459  0.3331 -0.8104
10568SOL     OW33144   0.192   6.965   3.274  0.0513  0.0763 -0.2565
10568SOL    HW133145   0.144   7.012   3.343  1.2648  1.6444 -0.4485
10568SOL    HW233146   0.157   6.876   3.279 -1.3606  0.6406  1.0129
10569SOL     OW33147   3.456   5.339   2.037  0.2889  0.4770  0.0588
10569SOL    HW133148   3.403   5.417   2.022  0.7028  0.7399 -0.0275
10569SOL    HW233149   3.431   5.279   1.966 -0.5328  0.2592  0.5206
10570SOL     OW33150   3.573   6.363   3.105  0.0962  0.3762  0.5898
10570SOL    HW133151   3.612   6.343   3.019 -1.6437  1.1667 -0.4313
10570SOL    HW233152   3.516   6.288   3.123  1.0883 -0.1913  1.4982
10571SOL     OW33153   1.093   7.488   3.098 -0.2741  0.1328 -0.1503
10571SOL    HW133154   1.156   7.553   3.128  1.7652 -1.1041 -1.5422
10571SOL    HW233155   1.052   7.455   3.179  1.1896  0.6527  0.8308
10572SOL     OW33156   2.528   6.318   2.553  0.2292  0.1022 -0.5307
10572SOL    HW133157   2.572   6.299   2.636 -0.2161  1.4506  0.0498
10572SOL    HW233158   2.436   6.299   2.570  0.2545 -0.4536 -1.0001
10573SOL     OW33159   0.292   6.578   4.207 -0.0465  0.3703 -0.0332
10573SOL    HW133160   0.216   6.607   4.157 -0.2480  1.0777  0.6552
10573SOL    HW233161   0.264   6.583   4.299  0.3066 -0.9118  0.1740
10574SOL     OW33162   3.749   6.272   1.686  0.2842 -0.3009 -0.4260
10574SOL    HW133163   3.715   6.184   1.673  0.9797 -0.7058  0.3544
10574SOL    HW233164   3.807   6.264   1.762  0.8119  0.7032 -0.7004
10575SOL     OW33165   2.493   6.263   1.361 -0.0006  0.3610 -0.7264
10575SOL    HW133166   2.401   6.258   1.336 -1.0586 -0.6426  2.7937
10575SOL    HW233167   2.502   6.352   1.397  0.6221  0.6792 -1.6343
10576SOL     OW33168   2.885   5.677   3.530 -0.4920  0.1188 -0.1011
10576SOL    HW133169   2.897   5.595   3.579  0.3383  0.7189  0.7140
10576SOL    HW233170   2.928   5.744   3.582 -3.3646  1.6039  0.5949
10577SOL     OW33171   3.425   5.034   3.142 -0.5864  0.1541 -0.0974
10577SOL    HW133172   3.516   5.062   3.131 -0.5771 -0.1434 -0.8999
10577SOL    HW233173   3.402   5.060   3.231  0.4633 -0.2775  0.3114
10578SOL     OW33174   3.117   6.685   2.502 -1.0562  0.7185 -0.8848
10578SOL    HW133175   3.187   6.655   2.444 -2.0580 -3.0016 -0.4096
10578SOL    HW233176   3.042   6.631   2.480 -2.6764  1.9595  1.1981
10579SOL     OW33177   4.895   5.502   4.308  0.3282  0.3690  1.0283
10579SOL    HW133178   4.897   5.420   4.259 -0.6065  0.4053  0.9051
10579SOL    HW233179   4.906   5.475   4.400  2.2719  0.3209  0.8227
10580SOL     OW33180   3.261   6.657   4.674  0.2518 -0.5399 -0.0666
10580SOL    HW133181   3.251   6.629   4.765  2.3755  1.0200  0.7229
10580SOL    HW233182   3.216   6.741   4.671  0.4411 -0.4511 -0.3753
10581SOL     OW33183   2.129   5.339   1.640 -0.3042 -0.0371 -0.1912
10581SOL    HW133184   2.037   5.311   1.640 -0.4218  0.3242 -0.5822
10581SOL    HW233185   2.125   5.433   1.622  0.2144 -0.3160 -2.0328
10582SOL     OW33186   1.277   7.983   0.716  0.0642 -0.4455 -0.2456
10582SOL    HW133187   1.350   7.943   0.669  1.5511  0.2871  1.3354
10582SOL    HW233188   1.318   8.048   0.773 -1.5055 -1.8529  2.6955
10583SOL     OW33189   0.895   7.338   2.381 -0.2456  0.0321 -0.3511
10583SOL    HW133190   0.869   7.327   2.290 -0.2048  1.1043 -0.5032
10583SOL    HW233191   0.978   7.291   2.389 -0.6151 -0.6986 -0.6655
10584SOL     OW33192   1.314   6.406   3.289 -0.1802 -0.0754 -0.1431
10584SOL    HW133193   1.236   6.436   3.243  0.1693 -1.2359 -1.5739
10584SOL    HW233194   1.303   6.311   3.296  2.0220 -0.5680 -2.2855
10585SOL     OW33195   1.803   5.525   2.056  0.0029 -0.3274 -0.1832
10585SOL    HW133196   1.742   5.590   2.092 -1.0506 -1.1587 -0.4227
10585SOL    HW233197   1.799   5.452   2.117  1.5445 -0.0195  0.3438
10586SOL     OW33198   2.310   5.921   3.898 -0.0518  0.0503  0.0076
10586SOL    HW133199   2.370   5.889   3.965  0.1814  0.3487 -0.0600
10586SOL    HW233200   2.363   5.978   3.842  0.0827 -1.2276 -1.2313
10587SOL     OW33201   2.392   5.649   4.257  0.3114 -0.0003 -0.3251
10587SOL    HW133202   2.375   5.608   4.172 -0.4014  1.6010 -0.9992
10587SOL    HW233203   2.357   5.586   4.321  1.7813 -1.7001 -1.1128
10588SOL     OW33204   1.441   4.273   0.951 -0.5602  0.4105 -0.0767
10588SOL    HW133205   1.420   4.211   1.022 -1.1198 -0.5283 -1.0393
10588SOL    HW233206   1.488   4.219   0.887 -1.6629  0.8254 -1.2454
10589SOL     OW33207   3.536   4.117   2.373  0.1407  0.0329  0.0981
10589SOL    HW133208   3.598   4.165   2.318 -0.6224  0.9828  0.0472
10589SOL    HW233209   3.590   4.050   2.416  1.0516  0.3313 -0.5421
10590SOL     OW33210   3.628   6.633   2.849 -0.3754  0.5564 -0.7141
10590SOL    HW133211   3.703   6.691   2.839  0.9648 -1.1669 -1.3165
10590SOL    HW233212   3.599   6.615   2.760 -0.4880 -0.0089 -0.5725
10591SOL     OW33213   2.576   5.453   3.061 -0.2894  0.3768 -0.2277
10591SOL    HW133214   2.665   5.485   3.046 -0.6415  1.3303 -0.4026
10591SOL    HW233215   2.521   5.529   3.042 -0.9543  0.8867  3.2188
10592SOL     OW33216   1.018   0.709   3.490 -0.0609  0.0048  0.6972
10592SOL    HW133217   1.113   0.718   3.479  0.1165 -0.7619  1.4770
10592SOL    HW233218   0.986   0.799   3.492  0.2489  0.2884 -2.5382
10593SOL     OW33219   2.629   5.158   3.615 -0.0359  0.1896 -0.1166
10593SOL    HW133220   2.576   5.219   3.564  0.1664  0.3216 -0.1753
10593SOL    HW233221   2.719   5.188   3.601 -0.0482  0.9680  1.2693
10594SOL     OW33222   1.031   7.381   4.070 -0.0488 -0.1121 -0.2855
10594SOL    HW133223   1.127   7.386   4.064  0.2017  0.4387  2.6234
10594SOL    HW233224   1.010   7.292   4.044  1.2679 -0.2849 -0.8282
10595SOL     OW33225   1.800   7.410   3.130  0.0460  0.0162 -0.2405
10595SOL    HW133226   1.705   7.415   3.114  0.2642  1.4777 -1.1690
10595SOL    HW233227   1.833   7.497   3.111  1.4453 -0.1562  1.1790
10596SOL     OW33228   1.314   6.781   2.565  0.0875 -0.0890  0.4529
10596SOL    HW133229   1.395   6.821   2.599  0.5036 -1.9252  1.8072
10596SOL    HW233230   1.280   6.844   2.503  2.0356  1.2039  0.6183
10597SOL     OW33231   2.040   0.716   2.052  0.1835  0.1110 -0.0961
10597SOL    HW133232   2.086   0.784   2.100 -1.2385  0.0950  1.3816
10597SOL    HW233233   2.096   0.639   2.058  0.1749  0.2017  1.3134
10598SOL     OW33234   3.235   0.232   2.687 -0.6238  0.0460 -0.0126
10598SOL    HW133235   3.149   0.218   2.727 -1.2609  0.5864 -1.1231
10598SOL    HW233236   3.248   0.156   2.631  0.2220 -0.6666  1.1245
10599SOL     OW33237   0.846   4.715   1.965  0.9758 -0.6110 -0.0844
10599SOL    HW133238   0.750   4.726   1.964  0.8240 -1.7664  0.2776
10599SOL    HW233239   0.877   4.770   1.893  0.1093  0.3653  0.2691
10600SOL     OW33240   4.784   6.637   4.265 -0.6578  0.5998  0.3335
10600SOL    HW133241   4.846   6.671   4.330 -0.0460  2.1729 -1.0018
10600SOL    HW233242   4.738   6.714   4.232 -2.3310 -0.3792  0.2478
10601SOL     OW33243   1.927   5.218   0.531 -0.6011 -0.3633  0.0638
10601SOL    HW133244   1.933   5.136   0.580 -1.8602  0.2903  1.3593
10601SOL    HW233245   1.834   5.239   0.530 -0.2688  1.2232  0.0149
10602SOL     OW33246   1.980   5.863   0.825 -0.2967 -0.1775  0.7831
10602SOL    HW133247   1.885   5.851   0.823 -0.1382 -1.5846 -1.4865
10602SOL    HW233248   2.016   5.775   0.824  0.9943  0.3111 -1.2556
10603SOL     OW33249   3.585   6.413   4.093 -0.1934  0.1700  0.3626
10603SOL    HW133250   3.554   6.432   4.004  0.2879  0.8850  0.3446
10603SOL    HW233251   3.631   6.492   4.120 -2.4732  0.9958  2.2204
10604SOL     OW33252   5.229   5.210   2.464  0.4697 -0.0918 -0.0623
10604SOL    HW133253   5.295   5.213   2.394  0.3049  2.5662 -0.1966
10604SOL    HW233254   5.148   5.237   2.422  0.3216  1.3355  1.0765
10605SOL     OW33255   1.910   5.699   2.918  0.0070 -0.4931  0.8477
10605SOL    HW133256   1.969   5.760   2.962  0.9741  0.4421 -1.5868
10605SOL    HW233257   1.881   5.745   2.840 -0.6032 -2.5328 -0.2045
10606SOL     OW33258   1.090   7.502   3.751 -0.2609 -0.3882  0.0209
10606SOL    HW133259   1.073   7.409   3.765  0.9749 -0.3876  1.8270
10606SOL    HW233260   1.165   7.522   3.806  0.7239  1.2807 -1.7803
10607SOL     OW33261   1.183   7.133   3.264  0.1644  0.5909  0.3320
10607SOL    HW133262   1.116   7.156   3.199 -0.0611 -1.4842 -0.2425
10607SOL    HW233263   1.136   7.130   3.347 -0.6346 -1.2689 -0.1283
10608SOL     OW33264   3.555   5.536   2.765 -0.5077  0.0918  0.1920
10608SOL    HW133265   3.504   5.515   2.687 -1.8461  0.3817  0.9533
10608SOL    HW233266   3.543   5.460   2.823 -1.2979  0.7761  0.9564
10609SOL     OW33267   2.869   4.107   1.350 -0.3353 -0.2187 -0.2584
10609SOL    HW133268   2.841   4.030   1.399  1.5829 -0.9165 -0.1615
10609SOL    HW233269   2.792   4.134   1.300 -1.0090 -2.3274 -0.4471
10610SOL     OW33270   1.991   4.173   0.586 -0.1269 -0.0772 -0.2973
10610SOL    HW133271   2.057   4.107   0.604  1.4070  1.3174 -0.6068
10610SOL    HW233272   1.950   4.144   0.504  0.6094 -0.5805 -0.4945
10611SOL     OW33273   3.102   4.821   3.760  0.0014  0.5551 -0.2071
10611SOL    HW133274   3.015   4.784   3.748  0.1642 -0.2205  0.8897
10611SOL    HW233275   3.161   4.758   3.719  0.0976  0.7991 -0.4489
10612SOL     OW33276   3.211   5.389   0.956 -0.4199 -0.3741 -0.0814
10612SOL    HW133277   3.156   5.325   1.000  0.6481 -0.6777  0.8443
10612SOL    HW233278   3.301   5.362   0.976  0.0725  0.3765 -1.1690
10613SOL     OW33279   2.743   6.634   1.425 -0.2920  0.0460 -0.2642
10613SOL    HW133280   2.797   6.612   1.500  0.6093  1.3646 -0.4890
10613SOL    HW233281   2.800   6.623   1.349 -1.0241 -0.7188 -0.7281
10614SOL     OW33282   1.613   6.673   4.480  0.3594  0.4219 -0.1154
10614SOL    HW133283   1.575   6.623   4.552 -0.6729  1.8745  0.3979
10614SOL    HW233284   1.590   6.623   4.401  0.2462 -0.4300  0.4477
10615SOL     OW33285   3.787   5.333   4.374  0.0058 -0.5139  0.1350
10615SOL    HW133286   3.759   5.249   4.336  0.6416 -0.0450 -1.4490
10615SOL    HW233287   3.833   5.309   4.454 -0.5821 -1.6189  0.1598
10616SOL     OW33288   4.031   6.311   4.232 -0.9012  0.2905  0.5342
10616SOL    HW133289   4.042   6.406   4.223 -0.0806  0.1804  0.3054
10616SOL    HW233290   4.113   6.274   4.200  0.4541 -0.3696  4.3150
10617SOL     OW33291   4.778   5.292   3.851  0.5918 -0.1259 -0.2056
10617SOL    HW133292   4.778   5.331   3.938  1.4183  0.4475 -0.4514
10617SOL    HW233293   4.692   5.313   3.815 -0.0869 -1.1088  0.7846
10618SOL     OW33294   0.875   7.104   4.191  0.3764 -0.4789  0.3723
10618SOL    HW133295   0.838   7.056   4.265 -1.4947 -0.5249 -0.5524
10618SOL    HW233296   0.833   7.189   4.193  0.5992 -0.3400 -0.4118
10619SOL     OW33297   2.913   5.008   2.798  0.0034  0.1983 -0.4874
10619SOL    HW133298   2.820   5.021   2.817 -0.4523  1.1679 -2.9889
10619SOL    HW233299   2.952   4.989   2.883 -2.4857 -0.3623  0.6305
10620SOL     OW33300   2.457   6.664   2.051 -0.2684 -0.2336  0.0991
10620SOL    HW133301   2.487   6.610   1.977  1.2652 -0.6543  0.9909
10620SOL    HW233302   2.362   6.655   2.049 -0.1126 -2.6125 -0.0966
10621SOL     OW33303   7.674   7.645   3.734  0.3276  0.2684  0.3952
10621SOL    HW133304   7.581   7.647   3.759  0.6130 -0.0475  1.5394
10621SOL    HW233305   7.703   7.556   3.753  0.6098  0.0336 -1.0117
10622SOL     OW33306   2.128   3.692   2.137 -0.5576  0.3970 -0.2233
10622SOL    HW133307   2.170   3.608   2.117  1.0259  0.3621  2.6463
10622SOL    HW233308   2.035   3.678   2.117  0.0780 -1.0808 -2.4264
10623SOL     OW33309   4.063   4.227   2.701  0.0513  0.1535 -0.2686
10623SOL    HW133310   4.140   4.174   2.724 -1.2966 -2.2309 -0.9185
10623SOL    HW233311   4.002   4.212   2.773 -0.0652  1.5917 -0.0381
10624SOL     OW33312   1.931   6.476   0.468  0.5151  0.3283  0.2276
10624SOL    HW133313   1.890   6.563   0.463 -1.5051 -0.6481 -1.7583
10624SOL    HW233314   2.015   6.488   0.424  1.3331  1.7567  2.0293
10625SOL     OW33315   2.889   5.548   2.206 -0.1265 -0.3601  0.0994
10625SOL    HW133316   2.899   5.637   2.171  1.5540 -1.4065 -2.3482
10625SOL    HW233317   2.915   5.556   2.298  0.1143  1.6592 -0.0823
10626SOL     OW33318   3.168   6.319   2.979  0.3826 -0.4901 -0.7511
10626SOL    HW133319   3.099   6.321   3.045  0.7109 -1.8666 -0.3509
10626SOL    HW233320   3.144   6.390   2.919  0.2564  1.0198  0.9914
10627SOL     OW33321   4.536   7.118   2.136 -0.0453  0.0949 -0.0531
10627SOL    HW133322   4.519   7.212   2.147  0.0640  0.1050  0.0341
10627SOL    HW233323   4.452   7.082   2.106  0.5483  0.6296 -2.6095
10628SOL     OW33324   2.337   5.791   4.992  0.9961 -0.1479  0.0427
10628SOL    HW133325   2.392   5.729   5.039  0.8135 -1.1134 -0.9742
10628SOL    HW233326   2.266   5.811   5.053  0.4343 -1.8342 -0.0172
10629SOL     OW33327   3.848   6.982   3.714 -0.0617 -0.6169 -0.1359
10629SOL    HW133328   3.933   7.005   3.752  0.3965 -1.1703 -0.7996
10629SOL    HW233329   3.828   6.895   3.750 -1.0331  0.0880  1.1207
10630SOL     OW33330   3.287   6.638   3.875  0.0974 -0.6203 -0.1695
10630SOL    HW133331   3.251   6.561   3.830  0.4541 -0.4134 -0.8195
10630SOL    HW233332   3.380   6.616   3.889  0.0866 -0.5061  0.0853
10631SOL     OW33333   4.350   6.435   2.975 -0.1525  0.0018  0.4988
10631SOL    HW133334   4.414   6.450   3.044 -1.3652  0.7386  1.5227
10631SOL    HW233335   4.281   6.383   3.017 -1.1926  0.9662  0.0588
10632SOL     OW33336   2.265   7.812   2.745  0.0132 -0.1955 -0.5324
10632SOL    HW133337   2.229   7.774   2.666 -0.3332  0.2992 -0.6188
10632SOL    HW233338   2.214   7.774   2.816  0.1245 -0.4101 -0.5667
10633SOL     OW33339   4.334   4.806   3.434  0.4237  0.0667 -0.3008
10633SOL    HW133340   4.404   4.747   3.460 -1.2982 -1.9283  0.1020
10633SOL    HW233341   4.274   4.806   3.509 -1.0177  0.0319 -1.4177
10634SOL     OW33342   3.767   5.920   3.530 -0.0516  0.2427  0.1505
10634SOL    HW133343   3.797   5.916   3.621 -0.0417 -0.6905  0.1136
10634SOL    HW233344   3.718   6.002   3.525 -0.4626  0.0729  1.1204
10635SOL     OW33345   3.825   5.387   3.875 -0.6564  0.2882 -0.1762
10635SOL    HW133346   3.893   5.426   3.930 -1.4810 -0.0909  1.1745
10635SOL    HW233347   3.816   5.297   3.908 -1.6960  0.2840 -0.4207
10636SOL     OW33348   3.237   5.867   1.595  1.0326 -0.0036  0.0075
10636SOL    HW133349   3.330   5.868   1.616  0.3224  0.5239  3.8739
10636SOL    HW233350   3.215   5.960   1.581  1.1395 -0.1853 -1.5503
10637SOL     OW33351   2.635   0.146   3.982  0.0370  0.3343  0.4003
10637SOL    HW133352   2.688   0.226   3.983 -0.1511  0.4566  1.0016
10637SOL    HW233353   2.552   0.172   4.021 -0.3439  0.0525 -0.2157
10638SOL     OW33354   2.309   6.158   3.370  0.0440  0.0176 -0.6773
10638SOL    HW133355   2.251   6.085   3.347 -0.1794  0.2609 -0.8943
10638SOL    HW233356   2.309   6.159   3.466  0.7141 -0.7918 -0.6550
10639SOL     OW33357   3.334   6.490   1.194  0.2542  0.3693 -0.1772
10639SOL    HW133358   3.385   6.511   1.272 -0.5138 -1.1001  0.7596
10639SOL    HW233359   3.397   6.448   1.135  0.2759 -0.9868  0.7701
10640SOL     OW33360   2.973   6.986   3.805 -0.1821 -0.7361  0.2263
10640SOL    HW133361   2.890   7.022   3.773 -0.2552  0.2157  1.4280
10640SOL    HW233362   3.021   6.963   3.725  0.3193  3.0073 -0.7466
10641SOL     OW33363   1.811   6.431   4.496 -0.3072 -0.9027  0.0067
10641SOL    HW133364   1.752   6.357   4.484  0.1222 -1.2923  0.2700
10641SOL    HW233365   1.855   6.414   4.580 -0.3830 -0.2276  0.1925
10642SOL     OW33366   2.330   5.309   1.831  0.6484 -0.5717 -0.0608
10642SOL    HW133367   2.290   5.371   1.892 -1.9690 -1.6676 -0.5449
10642SOL    HW233368   2.289   5.329   1.747  2.5064 -0.5971 -1.0214
10643SOL     OW33369   2.831   5.582   5.165 -0.2515 -0.0782  0.5496
10643SOL    HW133370   2.834   5.503   5.219 -1.1806 -1.3412 -1.1567
10643SOL    HW233371   2.804   5.551   5.079  2.1852  1.6964 -0.9823
10644SOL     OW33372   3.913   5.173   3.418  0.3704 -0.3710  0.0901
10644SOL    HW133373   3.941   5.094   3.370 -0.3681 -0.6782  0.1614
10644SOL    HW233374   3.818   5.169   3.418  0.2389  1.3684 -1.3313
10645SOL     OW33375   3.070   5.883   3.606 -0.2895 -0.4689 -0.3519
10645SOL    HW133376   3.106   5.861   3.692 -0.5602 -1.8488 -0.5649
10645SOL    HW233377   3.137   5.853   3.544  0.5615  1.7962 -0.6315
10646SOL     OW33378   4.159   6.662   3.923 -0.4399 -0.3945 -0.1615
10646SOL    HW133379   4.112   6.665   3.839  0.7274 -2.5678 -0.9778
10646SOL    HW233380   4.196   6.750   3.932 -2.1044  0.4493 -0.9711
10647SOL     OW33381   2.571   5.734   3.302  0.0435 -0.1016 -0.0789
10647SOL    HW133382   2.501   5.708   3.362 -0.4926  2.7076  0.6486
10647SOL    HW233383   2.627   5.656   3.296 -1.1108 -1.2285  2.2898
10648SOL     OW33384   7.833   5.859   1.380 -0.1550  0.0671 -0.1838
10648SOL    HW133385   7.787   5.778   1.395 -0.3722  0.1176 -0.5530
10648SOL    HW233386   7.806   5.886   1.292 -0.9270  1.0946  0.3516
10649SOL     OW33387   2.674   5.683   1.827  0.5618  0.1216 -0.3529
10649SOL    HW133388   2.722   5.634   1.893  0.0728 -0.4049 -0.3701
10649SOL    HW233389   2.673   5.773   1.858  2.8160  0.4533 -1.0792
10650SOL     OW33390   5.113   5.157   3.451 -0.1907  0.0899  0.4283
10650SOL    HW133391   5.072   5.196   3.528 -1.9839  1.2821 -1.0552
10650SOL    HW233392   5.200   5.197   3.447 -1.1096  2.2190  0.3093
10651SOL     OW33393   2.868   7.605   4.237  0.2550  0.0552 -0.1041
10651SOL    HW133394   2.915   7.544   4.179 -0.2539 -1.1950  0.7390
10651SOL    HW233395   2.777   7.601   4.207  0.3654  1.0866 -0.5968
10652SOL     OW33396   2.239   7.763   3.223 -0.2955  0.0293 -0.2342
10652SOL    HW133397   2.228   7.735   3.132 -0.9320 -1.1539  0.1806
10652SOL    HW233398   2.161   7.815   3.242  1.0270  2.5077 -1.0970
10653SOL     OW33399   2.138   5.364   0.620 -0.3167  0.0106  0.3930
10653SOL    HW133400   2.149   5.440   0.563 -0.6100 -0.4441 -0.2863
10653SOL    HW233401   2.055   5.325   0.592 -0.3812 -0.3232  1.0207
10654SOL     OW33402   2.249   4.787   1.469 -0.4070  0.0030  0.5860
10654SOL    HW133403   2.306   4.712   1.489 -0.4009  0.5573  2.8973
10654SOL    HW233404   2.165   4.748   1.444  0.3469 -0.7785 -0.8547
10655SOL     OW33405   2.007   4.955   2.790  0.1474  0.0321  0.1522
10655SOL    HW133406   2.026   4.898   2.864  1.0663  1.2242  0.8751
10655SOL    HW233407   1.914   4.939   2.770 -0.2828  0.0910  1.9516
10656SOL     OW33408   2.553   7.764   1.653  0.0701 -0.0095 -0.6816
10656SOL    HW133409   2.462   7.757   1.625 -0.1879 -0.8552  0.3044
10656SOL    HW233410   2.580   7.852   1.625 -1.7677  1.2018  1.0773
10657SOL     OW33411   0.551   6.558   1.768  0.2934  0.6333 -0.1995
10657SOL    HW133412   0.617   6.592   1.828  0.4711  1.5593 -0.8877
10657SOL    HW233413   0.469   6.597   1.798  0.3305  0.8270 -0.3440
10658SOL     OW33414   1.086   5.491   2.167 -0.3075  0.2960 -0.1604
10658SOL    HW133415   1.030   5.452   2.100  0.3707  1.2941 -1.3528
10658SOL    HW233416   1.163   5.522   2.119  0.1291  1.1873  1.0623
10659SOL     OW33417   1.160   6.054   4.616 -0.5741 -1.1902 -0.5459
10659SOL    HW133418   1.164   6.121   4.685  0.8815 -0.6578 -1.1097
10659SOL    HW233419   1.096   5.991   4.648 -1.6946  0.2462  0.2106
10660SOL     OW33420   2.597   6.182   2.797 -0.5528  0.2603 -0.2020
10660SOL    HW133421   2.553   6.151   2.876  0.8496  0.7680  0.8114
10660SOL    HW233422   2.669   6.121   2.783  0.0952  1.0083 -0.2200
10661SOL     OW33423   0.616   7.029   3.189 -0.3039 -0.0127  0.4578
10661SOL    HW133424   0.610   6.942   3.148  2.7262 -0.0069 -0.2302
10661SOL    HW233425   0.604   7.012   3.282 -0.2457 -1.1199  0.2872
10662SOL     OW33426   3.147   5.249   3.167 -0.1433 -0.5516 -0.3137
10662SOL    HW133427   3.166   5.278   3.078 -0.9851 -0.3301 -0.4209
10662SOL    HW233428   3.093   5.171   3.156  0.9464 -1.3879 -0.0043
10663SOL     OW33429   2.624   6.165   3.671 -0.4043  0.1391  0.8071
10663SOL    HW133430   2.579   6.086   3.642  0.1098  0.4470 -0.9049
10663SOL    HW233431   2.715   6.138   3.683  0.3294  0.9212 -2.1703
10664SOL     OW33432   5.156   6.680   3.586  0.2393 -0.2772 -0.2304
10664SOL    HW133433   5.110   6.597   3.579  0.0523 -0.2051  0.1172
10664SOL    HW233434   5.220   6.679   3.515  1.2353 -1.3372  0.6415
10665SOL     OW33435   1.964   6.440   5.657 -0.2525  0.2349 -0.1292
10665SOL    HW133436   1.994   6.374   5.595  0.4168  0.5185 -0.1215
10665SOL    HW233437   1.879   6.468   5.624 -0.1680 -0.0400 -0.5888
10666SOL     OW33438   2.885   4.711   3.341 -0.1036 -0.3239 -0.1926
10666SOL    HW133439   2.928   4.642   3.391  0.4091 -0.0926 -0.3091
10666SOL    HW233440   2.897   4.790   3.394  1.6995  0.2221 -1.3075
10667SOL     OW33441   2.847   7.432   4.442  0.3681 -0.2810  0.1370
10667SOL    HW133442   2.849   7.495   4.370  2.0930  0.1644  0.5382
10667SOL    HW233443   2.931   7.442   4.486 -1.2632  0.7742  3.3517
10668SOL     OW33444   1.992   5.197   6.293  0.3359  0.5774  0.0748
10668SOL    HW133445   1.966   5.247   6.371  0.7371  4.1050 -1.8526
10668SOL    HW233446   2.083   5.174   6.308  0.1216  0.3001  1.0441
10669SOL     OW33447   1.727   6.521   3.029 -0.3648  0.1106 -0.1980
10669SOL    HW133448   1.802   6.571   3.060 -0.7882 -0.0733  1.1561
10669SOL    HW233449   1.668   6.586   2.990 -0.0868  0.4206 -0.0946
10670SOL     OW33450   3.239   7.761   5.887  0.1677  0.1475  0.2935
10670SOL    HW133451   3.192   7.714   5.955 -0.9167  1.1074  0.2400
10670SOL    HW233452   3.234   7.853   5.913  1.4215  0.3550 -0.0907
10671SOL     OW33453   2.925   4.793   5.790 -0.0470 -0.4320 -0.3177
10671SOL    HW133454   2.931   4.726   5.722 -1.6736 -0.4541 -0.4953
10671SOL    HW233455   2.839   4.833   5.777  0.5111  1.0773  0.3613
10672SOL     OW33456   3.255   6.017   5.055 -0.4382 -0.2780  0.6761
10672SOL    HW133457   3.184   5.978   5.105 -2.0449  2.0597  0.3800
10672SOL    HW233458   3.225   6.106   5.035  2.8612  1.1059  1.1640
10673SOL     OW33459   1.225   7.190   2.923  0.4169 -0.1424  0.1071
10673SOL    HW133460   1.218   7.286   2.917 -1.9591 -0.2800 -0.0767
10673SOL    HW233461   1.161   7.165   2.989  0.7422 -1.6495 -0.1122
10674SOL     OW33462   4.549   6.537   6.590 -0.5638 -0.1093  0.0175
10674SOL    HW133463   4.475   6.570   6.641 -0.7694  1.6341 -1.3234
10674SOL    HW233464   4.626   6.564   6.639 -0.7524  1.8206 -0.6702
10675SOL     OW33465   1.456   5.750   3.382 -0.2390  0.7342  0.2435
10675SOL    HW133466   1.396   5.688   3.425  0.6700 -0.3700 -0.0141
10675SOL    HW233467   1.484   5.705   3.302  1.1976  1.0519  0.5256
10676SOL     OW33468   1.509   5.703   4.875 -1.3255 -0.2462  0.5150
10676SOL    HW133469   1.444   5.634   4.890  0.0490 -2.3196 -2.1438
10676SOL    HW233470   1.473   5.755   4.802 -1.6585  0.9710  1.5139
10677SOL     OW33471   1.533   5.796   4.312  0.2705 -0.4336 -0.6476
10677SOL    HW133472   1.623   5.765   4.301  0.6195 -0.9729  2.6756
10677SOL    HW233473   1.540   5.891   4.310  1.1441 -0.4434  0.5617
10678SOL     OW33474   3.112   5.444   3.919 -0.2608  0.0471 -0.0433
10678SOL    HW133475   3.151   5.366   3.956 -2.8627 -0.4216  2.0160
10678SOL    HW233476   3.083   5.417   3.831 -1.8525 -1.6578  0.9267
10679SOL     OW33477   1.898   5.260   4.636  0.2336  0.2023 -0.2937
10679SOL    HW133478   1.986   5.298   4.626  0.0700  0.3710 -1.2281
10679SOL    HW233479   1.899   5.221   4.723  1.3900 -0.1943 -0.4629
10680SOL     OW33480   3.653   5.051   3.425 -0.3777  0.6359  0.0897
10680SOL    HW133481   3.650   4.967   3.471 -1.1640  2.1757  3.1600
10680SOL    HW233482   3.573   5.096   3.452 -0.8479  1.7890 -2.8351
10681SOL     OW33483   2.248   7.035   5.209 -0.5627  0.4511 -0.4449
10681SOL    HW133484   2.340   7.050   5.234 -1.0963  1.7498  0.8937
10681SOL    HW233485   2.251   6.957   5.154  1.2183 -0.2276  0.5014
10682SOL     OW33486   1.654   7.525   2.846 -0.6206  0.2216  0.2820
10682SOL    HW133487   1.599   7.555   2.774 -1.1992  0.4126  0.7885
10682SOL    HW233488   1.737   7.498   2.805 -0.5936  1.2252 -0.3347
10683SOL     OW33489   4.682   5.685   4.315 -0.2059  0.4488  0.0486
10683SOL    HW133490   4.656   5.724   4.232  1.1275 -0.4734 -0.8386
10683SOL    HW233491   4.770   5.652   4.300 -0.1755 -0.3140  1.6431
10684SOL     OW33492   2.878   7.839   4.651  0.1616 -0.5560 -0.1917
10684SOL    HW133493   2.888   7.925   4.692  0.2433 -1.0164  0.7985
10684SOL    HW233494   2.967   7.807   4.640  0.1219 -0.6253 -0.3081
10685SOL     OW33495   0.940   5.390   5.649 -0.2643 -0.5423  0.1105
10685SOL    HW133496   0.952   5.414   5.741 -1.0020  0.2024  0.0275
10685SOL    HW233497   0.861   5.336   5.647 -0.6035 -0.0488 -0.1540
10686SOL     OW33498   4.873   6.501   5.200  0.2071  0.3620 -0.0546
10686SOL    HW133499   4.942   6.510   5.266 -0.0778 -0.3825  0.3582
10686SOL    HW233500   4.835   6.414   5.217 -0.7740  0.7274 -0.3308
10687SOL     OW33501   1.840   5.815   2.693  0.1429 -0.5747  0.4195
10687SOL    HW133502   1.863   5.822   2.600  1.8241  0.3777  0.8609
10687SOL    HW233503   1.758   5.864   2.702  2.0740  3.0816  0.0834
10688SOL     OW33504   2.180   4.950   4.480 -0.0640  0.3819 -0.1210
10688SOL    HW133505   2.103   5.003   4.455 -0.8406  0.2416  1.8387
10688SOL    HW233506   2.240   5.013   4.519  0.5593  0.3806 -1.0588
10689SOL     OW33507   2.567   7.147   6.175 -0.7048  0.0269  1.0836
10689SOL    HW133508   2.507   7.210   6.215 -2.4349 -0.3601 -0.7338
10689SOL    HW233509   2.510   7.075   6.147  0.5793 -0.3502 -0.7352
10690SOL     OW33510   4.094   6.094   3.826 -0.2612 -0.1277 -0.1899
10690SOL    HW133511   4.147   6.107   3.748  0.2819  1.9885  0.4605
10690SOL    HW233512   4.014   6.144   3.808 -1.3899 -1.9644 -0.5047
10691SOL     OW33513   1.727   6.332   5.421 -0.6059 -0.1656 -0.2451
10691SOL    HW133514   1.694   6.256   5.374 -0.5933  0.5227 -1.4194
10691SOL    HW233515   1.737   6.399   5.353  0.6636  0.4635  0.5317
10692SOL     OW33516   1.350   4.481   5.478  0.0033  0.3941  0.0879
10692SOL    HW133517   1.300   4.555   5.512  0.0723  0.2141  0.5830
10692SOL    HW233518   1.303   4.454   5.399  0.3766  1.4198 -0.5096
10693SOL     OW33519   4.136   5.336   5.098 -0.2809 -0.0729 -0.3221
10693SOL    HW133520   4.200   5.332   5.027 -0.2213 -1.5947 -0.2153
10693SOL    HW233521   4.066   5.277   5.071  0.1730 -1.4255  1.2628
10694SOL     OW33522   2.813   6.526   5.354 -0.1175  0.0897  0.1460
10694SOL    HW133523   2.873   6.581   5.304 -0.5567 -0.0365 -0.5354
10694SOL    HW233524   2.845   6.531   5.444  1.5191 -0.7602 -0.3430
10695SOL     OW33525   2.015   6.935   4.142  0.2570  0.1898 -0.1340
10695SOL    HW133526   1.985   6.856   4.187 -1.4333  1.0765  0.3672
10695SOL    HW233527   2.031   6.998   4.212  1.1595  0.4476 -0.5591
10696SOL     OW33528   3.098   7.229   3.708  0.2840  0.4794 -0.1264
10696SOL    HW133529   3.140   7.160   3.760  0.6490  1.1356  0.4621
10696SOL    HW233530   3.032   7.266   3.766  0.2897  0.8227 -0.3377
10697SOL     OW33531   2.346   6.315   4.887  0.2682 -0.3425 -0.4240
10697SOL    HW133532   2.318   6.229   4.919  0.4902 -0.2835 -0.0674
10697SOL    HW233533   2.286   6.334   4.815  0.1182 -0.7262 -0.4059
10698SOL     OW33534   2.587   5.268   6.418 -0.2681 -0.3969 -0.2776
10698SOL    HW133535   2.562   5.360   6.411  2.6759  0.3822 -2.5171
10698SOL    HW233536   2.658   5.266   6.482 -0.4621 -1.1843 -0.0678
10699SOL     OW33537   3.862   6.198   4.748 -0.3404  0.3474  0.1598
10699SOL    HW133538   3.790   6.233   4.695  0.3831  1.2583 -0.2548
10699SOL    HW233539   3.855   6.103   4.738 -1.4574  0.4247  0.0971
10700SOL     OW33540   2.377   6.514   3.674  0.2596 -0.9273  0.1712
10700SOL    HW133541   2.453   6.474   3.718  1.2744 -0.7314 -1.3280
10700SOL    HW233542   2.408   6.601   3.648 -0.8794 -0.3939  0.5517
10701SOL     OW33543   1.903   5.099   4.844 -0.2478 -0.1912  0.6106
10701SOL    HW133544   1.980   5.065   4.891 -1.3976 -0.8515  2.0890
10701SOL    HW233545   1.878   5.027   4.786  0.6909  0.3218 -0.4676
10702SOL     OW33546   2.220   4.986   5.818 -0.2901 -0.3186  0.0368
10702SOL    HW133547   2.243   5.079   5.816 -1.5660 -0.0063 -1.6475
10702SOL    HW233548   2.205   4.962   5.727 -0.9879 -1.9327  0.5270
10703SOL     OW33549   3.282   5.425   3.386  0.2267 -0.6939  0.8298
10703SOL    HW133550   3.252   5.391   3.302 -0.5792 -1.5812  1.4693
10703SOL    HW233551   3.329   5.506   3.363  0.5381 -1.2261 -0.5217
10704SOL     OW33552   0.672   6.785   5.197  0.0056 -0.5614 -0.1785
10704SOL    HW133553   0.712   6.712   5.150  1.9992  0.6750 -0.5175
10704SOL    HW233554   0.681   6.763   5.290 -0.0377 -1.0563 -0.2935
10705SOL     OW33555   1.904   5.498   4.484  0.3314 -0.5588 -0.4804
10705SOL    HW133556   1.918   5.427   4.547  0.5159 -2.2261 -2.3010
10705SOL    HW233557   1.936   5.463   4.400  0.3170  1.6468 -1.4822
10706SOL     OW33558   4.160   6.136   4.981  0.0093 -0.1115 -0.1874
10706SOL    HW133559   4.232   6.074   4.984 -1.3636 -1.8030 -0.3039
10706SOL    HW233560   4.135   6.149   5.072  0.2325  0.1829 -0.1690
10707SOL     OW33561   2.936   5.693   4.036 -0.1341 -0.4445 -0.4203
10707SOL    HW133562   2.867   5.665   4.096 -1.1092  1.1081 -0.7523
10707SOL    HW233563   3.015   5.694   4.089 -0.6464 -0.8067  0.3722
10708SOL     OW33564   2.752   4.754   5.081 -0.1546 -0.3500 -0.0446
10708SOL    HW133565   2.730   4.675   5.032 -2.1526 -0.5508  1.0668
10708SOL    HW233566   2.687   4.819   5.052  0.1406  0.2378  0.5771
10709SOL     OW33567   2.940   7.657   2.508  0.0333  0.2972  0.2557
10709SOL    HW133568   2.853   7.690   2.530 -0.4498 -0.6037 -0.2610
10709SOL    HW233569   2.926   7.598   2.434  1.2798  1.3192 -0.8596
10710SOL     OW33570   0.160   0.256   4.665  0.4844 -0.6931 -0.6962
10710SOL    HW133571   0.130   0.347   4.668  0.0153 -0.8721  0.5133
10710SOL    HW233572   0.118   0.219   4.588  0.5512  0.0738 -1.1061
10711SOL     OW33573   3.145   5.560   5.413 -0.0682 -0.3322 -0.2764
10711SOL    HW133574   3.116   5.479   5.370 -3.0434  0.7214 -0.5229
10711SOL    HW233575   3.235   5.572   5.384  0.4199 -3.4421 -0.3582
10712SOL     OW33576   4.178   5.344   4.268  0.0577  0.5156 -0.4332
10712SOL    HW133577   4.241   5.279   4.299  0.5965  1.1661 -0.1473
10712SOL    HW233578   4.104   5.337   4.329  0.3211  0.5085 -0.1142
10713SOL     OW33579   0.455   6.648   5.016  0.1400  0.3186  0.0175
10713SOL    HW133580   0.402   6.580   5.056  0.9283 -0.5229 -0.3295
10713SOL    HW233581   0.543   6.635   5.052  0.9416 -0.6275 -2.0717
10714SOL     OW33582   2.194   5.165   3.691  0.3026 -0.7707 -0.4331
10714SOL    HW133583   2.166   5.097   3.752 -0.6284 -1.1738 -1.2832
10714SOL    HW233584   2.260   5.215   3.739 -0.4142 -1.0748  0.9061
10715SOL     OW33585   1.766   5.607   4.964  0.1197 -0.1072  0.0297
10715SOL    HW133586   1.742   5.515   4.974 -0.4234  0.1135  0.8743
10715SOL    HW233587   1.687   5.650   4.933 -0.6635  0.6065  2.7339
10716SOL     OW33588   3.225   6.462   4.485 -0.4500  0.0948  0.0015
10716SOL    HW133589   3.319   6.455   4.475 -0.4320  0.0698  0.1866
10716SOL    HW233590   3.212   6.532   4.550 -0.5577  0.1058 -0.0308
10717SOL     OW33591   1.348   5.677   6.238  0.0454 -0.1578 -0.7746
10717SOL    HW133592   1.262   5.710   6.212  0.2675  1.3065  0.2073
10717SOL    HW233593   1.406   5.702   6.167  0.2183  1.7322 -0.0320
10718SOL     OW33594   3.560   6.747   3.184  0.0685  0.1276 -0.8146
10718SOL    HW133595   3.502   6.671   3.178  1.2735 -1.1908  2.0563
10718SOL    HW233596   3.522   6.801   3.253 -0.5812  2.0573 -2.5872
10719SOL     OW33597   1.178   6.941   2.382 -0.3374 -0.4589  0.2783
10719SOL    HW133598   1.143   7.014   2.434  0.7312 -0.3463  0.8691
10719SOL    HW233599   1.101   6.902   2.341 -1.1063  0.0433  1.1918
10720SOL     OW33600   1.622   4.629   4.986  0.5566 -0.3670 -0.0753
10720SOL    HW133601   1.589   4.596   5.070 -0.5150 -0.9993 -0.7314
10720SOL    HW233602   1.687   4.695   5.011 -0.3928  0.1062  1.2525
10721SOL     OW33603   0.709   7.500   2.585 -0.1057 -0.1355  0.3138
10721SOL    HW133604   0.663   7.431   2.538 -3.0184  2.0618 -0.3931
10721SOL    HW233605   0.801   7.488   2.561 -0.7857 -2.3681 -1.5736
10722SOL     OW33606   3.799   5.977   4.566  0.6373  0.9310  0.3974
10722SOL    HW133607   3.826   5.908   4.506 -1.9227 -1.1246  1.4351
10722SOL    HW233608   3.789   6.054   4.510  0.7873 -0.2507 -1.3493
10723SOL     OW33609   2.832   4.724   3.754  0.0240 -0.3538  0.2057
10723SOL    HW133610   2.777   4.649   3.778  1.0580 -0.6552  1.7779
10723SOL    HW233611   2.868   4.756   3.837 -0.0047  1.6082 -0.4714
10724SOL     OW33612   2.700   5.139   5.565  0.3803 -0.0746  0.1848
10724SOL    HW133613   2.793   5.116   5.556 -0.0637 -1.6356 -0.8136
10724SOL    HW233614   2.663   5.066   5.614 -0.9427 -1.2445 -2.3793
10725SOL     OW33615   2.619   5.825   4.694 -0.3140  0.0296  0.5667
10725SOL    HW133616   2.702   5.785   4.719 -0.1747  1.3561  2.4527
10725SOL    HW233617   2.607   5.897   4.756 -1.5812  1.5617 -1.3080
10726SOL     OW33618   2.460   4.383   5.553 -0.0036  0.1838  0.0195
10726SOL    HW133619   2.408   4.307   5.529 -0.1500  0.0036  0.8667
10726SOL    HW233620   2.550   4.358   5.533 -0.1112  0.0037 -0.2389
10727SOL     OW33621   0.517   6.721   4.225  0.5010  0.1344 -0.4348
10727SOL    HW133622   0.439   6.668   4.207 -0.0156  0.1904  1.4672
10727SOL    HW233623   0.573   6.664   4.278  0.0103  1.3753  1.4948
10728SOL     OW33624   1.035   6.689   6.494 -0.2045 -0.5202 -0.6499
10728SOL    HW133625   0.961   6.734   6.452  1.1371  1.0130 -1.4624
10728SOL    HW233626   1.072   6.635   6.424 -1.5033 -2.6314  0.1915
10729SOL     OW33627   7.774   1.012   4.447  0.2784 -0.0992 -0.7012
10729SOL    HW133628   7.834   0.950   4.407  1.1885  0.3987 -0.1464
10729SOL    HW233629   7.760   1.079   4.380  1.0162  0.2209 -0.5393
10730SOL     OW33630   3.401   5.716   4.390  0.2265 -0.3196  0.2603
10730SOL    HW133631   3.335   5.688   4.454 -0.7438 -0.2846 -0.6874
10730SOL    HW233632   3.425   5.636   4.344  0.0886 -0.1769 -0.0677
10731SOL     OW33633   1.297   5.363   4.108  0.3884  0.1068 -0.2418
10731SOL    HW133634   1.204   5.372   4.090 -0.1591 -0.2030  2.1659
10731SOL    HW233635   1.334   5.448   4.086 -0.6731  0.6281 -0.0495
10732SOL     OW33636   5.456   6.305   5.567 -0.2770  0.0895 -0.0929
10732SOL    HW133637   5.449   6.397   5.542 -0.1639  0.4522  1.1329
10732SOL    HW233638   5.541   6.277   5.533 -0.6896  0.1727 -1.2344
10733SOL     OW33639   0.741   5.887   3.225  0.0374 -0.0479  0.2089
10733SOL    HW133640   0.665   5.908   3.172 -0.0833  1.8811  1.0651
10733SOL    HW233641   0.732   5.942   3.303  1.2287 -1.3280  1.3068
10734SOL     OW33642   1.325   4.844   5.960  0.3150  0.0634  0.6899
10734SOL    HW133643   1.269   4.864   6.034 -0.2634 -1.9654  0.8420
10734SOL    HW233644   1.414   4.862   5.991 -0.0858  1.7145  0.9803
10735SOL     OW33645   3.634   5.210   5.159  0.1763  0.4744 -0.0651
10735SOL    HW133646   3.598   5.285   5.205  0.0124 -0.6668  1.7609
10735SOL    HW233647   3.679   5.159   5.226 -0.3801 -1.4755 -1.0674
10736SOL     OW33648   3.649   5.917   3.145 -0.2653 -0.5711  0.5689
10736SOL    HW133649   3.701   5.854   3.195  2.0169 -0.6773 -1.7294
10736SOL    HW233650   3.628   5.872   3.064 -1.8472  0.3798  0.4164
10737SOL     OW33651   0.924   6.426   3.429  0.4699  0.1770  0.9276
10737SOL    HW133652   0.917   6.521   3.418 -4.0384 -0.0842 -0.4149
10737SOL    HW233653   0.951   6.394   3.343  2.5570  0.1564  1.5309
10738SOL     OW33654   2.813   5.575   3.147 -0.1409 -0.5659 -0.2288
10738SOL    HW133655   2.903   5.605   3.132 -0.6431  1.3190  0.2874
10738SOL    HW233656   2.822   5.509   3.216  0.6687  1.1480  1.4010
10739SOL     OW33657   2.960   4.569   4.298  0.0411 -0.3849 -0.0150
10739SOL    HW133658   2.912   4.549   4.379  0.4119  0.4190  0.4063
10739SOL    HW233659   3.049   4.587   4.326 -0.0996  1.1087 -0.4587
10740SOL     OW33660   1.361   6.315   5.299  0.3035  0.1907  0.7477
10740SOL    HW133661   1.278   6.355   5.272  0.8561  0.3241 -0.8500
10740SOL    HW233662   1.350   6.299   5.392 -2.1948 -1.3435  0.2976
10741SOL     OW33663   2.559   5.957   5.227 -0.2312 -0.1959  0.3653
10741SOL    HW133664   2.533   6.025   5.290  0.0272 -0.6224  0.9404
10741SOL    HW233665   2.494   5.888   5.238  0.1656 -0.5341  0.6016
10742SOL     OW33666   3.194   5.088   3.624 -0.2950  0.0792  0.7846
10742SOL    HW133667   3.221   5.062   3.713  2.8381 -0.1157 -0.1060
10742SOL    HW233668   3.160   5.008   3.585  0.4789 -0.4163  1.0961
10743SOL     OW33669   2.533   4.793   4.451 -0.2288 -0.3540  0.2496
10743SOL    HW133670   2.468   4.818   4.384 -0.1289  0.6811  0.5339
10743SOL    HW233671   2.511   4.702   4.471 -1.3950 -0.1284  0.1018
10744SOL     OW33672   3.358   6.615   3.033  0.2149  0.2488 -0.1258
10744SOL    HW133673   3.332   6.705   3.009 -2.0796  0.0514  1.2566
10744SOL    HW233674   3.431   6.595   2.975 -0.1225  2.4976 -1.4712
10745SOL     OW33675   4.230   6.903   4.188  0.3878 -0.1907  0.8988
10745SOL    HW133676   4.166   6.894   4.258 -0.0809 -2.1985  0.2750
10745SOL    HW233677   4.177   6.916   4.109  0.7428 -1.3144  0.4586
10746SOL     OW33678   3.009   6.564   4.110  0.6430  0.2055 -0.1370
10746SOL    HW133679   2.937   6.580   4.170  1.8551 -1.3428  1.8388
10746SOL    HW233680   2.987   6.616   4.032 -1.8201  0.9411  0.9512
10747SOL     OW33681   2.308   5.939   3.562 -0.0355 -0.2226  0.5635
10747SOL    HW133682   2.354   5.903   3.638  0.7035  0.2711  0.3611
10747SOL    HW233683   2.370   5.931   3.490 -0.5608 -0.2591  0.1051
10748SOL     OW33684   3.478   6.937   3.388 -0.4797  0.3407  0.7039
10748SOL    HW133685   3.488   7.020   3.340  1.7402 -0.7184 -0.8571
10748SOL    HW233686   3.486   6.961   3.480  2.3811  1.7150  0.2216
10749SOL     OW33687   4.759   7.063   2.705 -0.4979 -0.1350 -0.5731
10749SOL    HW133688   4.707   7.056   2.785 -0.4121  1.8190 -0.3051
10749SOL    HW233689   4.700   7.102   2.641  0.0679  0.3186 -0.8269
10750SOL     OW33690   1.397   5.727   4.064 -0.4209 -0.8270  0.1386
10750SOL    HW133691   1.452   5.658   4.028 -0.3625 -0.6794 -0.0605
10750SOL    HW233692   1.432   5.742   4.152 -0.4898 -1.1098  0.2129
10751SOL     OW33693   4.008   6.764   5.948 -0.0602  0.0359  0.1720
10751SOL    HW133694   4.089   6.721   5.923 -0.2793  0.0735 -0.6277
10751SOL    HW233695   3.998   6.835   5.885 -0.3418  0.4954  0.7153
10752SOL     OW33696   1.561   5.504   5.816  0.1053  0.4105 -0.1441
10752SOL    HW133697   1.547   5.454   5.735  0.1760 -3.1519  1.8708
10752SOL    HW233698   1.480   5.494   5.865  1.1327 -0.1544  1.5208
10753SOL     OW33699   3.525   6.264   6.262  0.1855  0.4373  0.1820
10753SOL    HW133700   3.540   6.192   6.201 -1.8864  0.8365 -0.8719
10753SOL    HW233701   3.513   6.341   6.207 -0.0201  1.1522  1.1883
10754SOL     OW33702   1.611   6.052   4.266 -0.6318 -0.4062  0.2762
10754SOL    HW133703   1.563   6.057   4.183  0.0610  2.2392 -0.0588
10754SOL    HW233704   1.701   6.032   4.241  0.0340  2.4422  0.0942
10755SOL     OW33705   3.589   6.308   4.656 -0.2841  0.3830  0.5878
10755SOL    HW133706   3.505   6.308   4.703 -0.5324  0.0990  0.1507
10755SOL    HW233707   3.567   6.279   4.568  0.4537 -0.8969  0.7961
10756SOL     OW33708   1.275   5.266   4.482  0.1619 -0.2010 -0.0072
10756SOL    HW133709   1.341   5.205   4.516 -0.5936 -0.0019  1.9365
10756SOL    HW233710   1.266   5.241   4.389  3.3066  0.1180 -0.5292
10757SOL     OW33711   4.782   5.821   5.308 -1.0592 -0.2726  0.4222
10757SOL    HW133712   4.820   5.753   5.364  0.6322  0.7206  0.5528
10757SOL    HW233713   4.710   5.777   5.262  1.2866 -2.7932 -1.1061
10758SOL     OW33714   1.447   5.049   3.505 -0.3166  0.2763  0.2354
10758SOL    HW133715   1.418   5.039   3.595 -1.5349 -1.0504 -0.2614
10758SOL    HW233716   1.498   5.130   3.504  0.5444 -0.1810  2.3023
10759SOL     OW33717   1.974   5.000   3.813 -0.2018 -0.2731 -0.2093
10759SOL    HW133718   1.949   5.092   3.802 -0.8563 -0.2214  1.4275
10759SOL    HW233719   1.918   4.953   3.752 -0.3558  0.3440 -0.5570
10760SOL     OW33720   1.525   6.501   4.307  0.2245  0.6785  0.3103
10760SOL    HW133721   1.537   6.406   4.302 -5.3277 -0.2236 -2.1022
10760SOL    HW233722   1.546   6.532   4.219  0.7988  1.5273  0.7408
10761SOL     OW33723   0.299   7.877   5.790  0.1062  0.2967  0.5739
10761SOL    HW133724   0.315   7.784   5.771 -0.5805 -0.4893  3.3480
10761SOL    HW233725   0.250   7.876   5.873  0.3696  3.1576  0.8525
10762SOL     OW33726   1.858   6.055   3.670  0.4806 -0.1375 -0.3449
10762SOL    HW133727   1.922   6.125   3.656  0.3499  0.1651  0.4834
10762SOL    HW233728   1.896   6.003   3.740 -0.3331  0.2493  0.3980
10763SOL     OW33729   2.213   6.101   5.056 -0.2171  0.2451  0.0777
10763SOL    HW133730   2.122   6.131   5.061 -0.4979 -0.7402  1.2136
10763SOL    HW233731   2.227   6.052   5.137  0.6290 -1.5372 -1.0793
10764SOL     OW33732   1.671   6.063   2.783 -0.3582 -0.0924  0.0419
10764SOL    HW133733   1.602   6.058   2.717  1.8368  1.6528 -2.6345
10764SOL    HW233734   1.693   6.157   2.788  0.4896 -0.3246  2.3260
10765SOL     OW33735   3.267   6.122   4.104 -0.0349  0.6783 -0.0123
10765SOL    HW133736   3.332   6.122   4.033  0.7860  0.1652  0.7194
10765SOL    HW233737   3.221   6.039   4.094  1.0118 -0.0406  0.8549
10766SOL     OW33738   1.987   5.286   3.551 -0.2013 -0.3715 -0.6590
10766SOL    HW133739   1.985   5.217   3.485  1.3170  0.6467 -1.8456
10766SOL    HW233740   2.070   5.273   3.597  0.0286  0.5488 -0.7952
10767SOL     OW33741   1.000   5.075   4.358  0.0387  0.1494 -0.3206
10767SOL    HW133742   1.048   5.108   4.282  0.1670  0.8071  0.0376
10767SOL    HW233743   1.063   5.020   4.404 -0.3976 -1.2502 -1.3181
10768SOL     OW33744   2.523   5.227   6.047 -0.1300 -0.0580  0.0064
10768SOL    HW133745   2.616   5.243   6.036  0.1245 -0.2640  1.6852
10768SOL    HW233746   2.510   5.138   6.014  0.1812  0.1167 -0.5948
10769SOL     OW33747   3.489   5.275   6.491 -0.1790  0.0173 -0.0440
10769SOL    HW133748   3.500   5.219   6.415  1.1612  0.5155 -0.2495
10769SOL    HW233749   3.505   5.218   6.566  2.3669  0.2747 -0.2756
10770SOL     OW33750   2.569   6.376   6.813  0.0628  0.4716  0.6127
10770SOL    HW133751   2.561   6.308   6.746  1.5601 -0.7856  1.6592
10770SOL    HW233752   2.643   6.350   6.866  0.0423  2.4045  1.6976
10771SOL     OW33753   2.391   5.715   6.713 -0.3304 -0.0353  0.0157
10771SOL    HW133754   2.470   5.661   6.722 -0.4264 -0.0206  1.0648
10771SOL    HW233755   2.406   5.790   6.770 -0.4145  0.8221 -1.0429
10772SOL     OW33756   3.421   5.675   3.284 -0.2500 -0.1297  0.0064
10772SOL    HW133757   3.496   5.629   3.246  0.5967 -0.0702  1.5307
10772SOL    HW233758   3.415   5.756   3.234  0.6994 -0.1414 -0.1466
10773SOL     OW33759   2.842   6.267   4.189  0.1236 -0.5864 -0.1140
10773SOL    HW133760   2.885   6.320   4.256 -1.0388 -0.7309  0.7826
10773SOL    HW233761   2.897   6.276   4.112  0.9250  0.4483  0.5570
10774SOL     OW33762   2.377   6.898   4.851  0.2168 -0.3352  0.2188
10774SOL    HW133763   2.469   6.884   4.873  0.2936  2.1306  1.7661
10774SOL    HW233764   2.329   6.850   4.919  0.4375  1.0682  1.4249
10775SOL     OW33765   0.972   5.114   3.429  0.7210 -0.0814 -0.0193
10775SOL    HW133766   0.920   5.144   3.354  0.9812 -0.3794 -0.3197
10775SOL    HW233767   0.999   5.025   3.406  1.4379  0.1035  0.1013
10776SOL     OW33768   1.937   6.029   6.201  0.3140 -0.1244  0.7190
10776SOL    HW133769   1.964   6.064   6.286  0.7676 -3.7127  2.2233
10776SOL    HW233770   2.006   5.967   6.178 -0.7228 -0.5807 -1.3850
10777SOL     OW33771   2.573   6.537   4.693 -0.0787  0.7053 -1.0289
10777SOL    HW133772   2.574   6.603   4.761 -1.8901 -0.3413  0.0796
10777SOL    HW233773   2.589   6.585   4.612  1.5633  2.0430  0.0370
10778SOL     OW33774   3.628   7.351   4.865 -0.0320 -0.0006 -0.6530
10778SOL    HW133775   3.613   7.445   4.868 -0.4745 -0.0745 -0.3941
10778SOL    HW233776   3.645   7.327   4.956 -0.6603 -0.2804 -0.5990
10779SOL     OW33777   7.994   5.815   6.028 -0.0879 -0.3113  0.3639
10779SOL    HW133778   8.073   5.819   5.973 -0.4619  1.0660 -0.0923
10779SOL    HW233779   7.951   5.734   6.001  0.3382 -0.2465 -0.5410
10780SOL     OW33780   5.219   5.764   3.253  0.3484  0.5247 -0.6706
10780SOL    HW133781   5.193   5.672   3.249  2.5350 -0.1315 -1.3186
10780SOL    HW233782   5.169   5.800   3.326 -1.2283 -0.9250 -0.9730
10781SOL     OW33783   1.427   7.251   3.796 -0.3403  0.0241 -0.1394
10781SOL    HW133784   1.499   7.192   3.820  1.0134  2.3250  1.8774
10781SOL    HW233785   1.451   7.283   3.709  0.4807 -0.1004  0.0296
10782SOL     OW33786   3.036   7.273   6.220 -0.7811 -0.3038  0.5257
10782SOL    HW133787   3.030   7.318   6.136  0.8988 -2.2910 -0.7643
10782SOL    HW233788   2.945   7.258   6.246 -1.3290  0.3853 -0.9244
10783SOL     OW33789   3.754   6.249   5.022 -0.0687  0.1766  0.0930
10783SOL    HW133790   3.801   6.218   4.945 -0.3566  0.7470 -0.3136
10783SOL    HW233791   3.710   6.170   5.056  0.5862 -0.2086  0.0672
10784SOL     OW33792   1.881   6.006   4.907 -0.1067  0.2317  0.7555
10784SOL    HW133793   1.877   5.959   4.990  1.2503  1.0004  1.2815
10784SOL    HW233794   1.966   5.984   4.870 -0.1135  0.9962  0.2475
10785SOL     OW33795   4.099   4.566   3.532 -0.5727 -0.5128 -0.7745
10785SOL    HW133796   4.183   4.520   3.537 -0.0768  0.4542  0.4691
10785SOL    HW233797   4.065   4.563   3.621 -1.8297 -0.8047 -1.2507
10786SOL     OW33798   3.501   5.840   2.264 -0.8147 -0.1130 -0.1038
10786SOL    HW133799   3.574   5.787   2.231 -1.1214 -0.1315 -0.7641
10786SOL    HW233800   3.508   5.922   2.216 -2.3254 -0.7864 -1.5826
10787SOL     OW33801   3.677   6.984   5.700 -0.6695  0.3291 -0.1211
10787SOL    HW133802   3.729   6.971   5.779  0.4042  1.5706 -0.5770
10787SOL    HW233803   3.608   6.918   5.705  1.7609 -2.3759 -0.2017
10788SOL     OW33804   2.165   5.331   4.619 -0.2030  0.1991  0.0805
10788SOL    HW133805   2.184   5.375   4.702  0.2089  0.7965 -0.3182
10788SOL    HW233806   2.214   5.249   4.624 -1.1019 -0.3035  0.8989
10789SOL     OW33807   1.736   4.928   5.014 -0.2705  1.1763  0.4895
10789SOL    HW133808   1.672   4.926   5.086 -0.0282 -1.8821  0.7713
10789SOL    HW233809   1.820   4.944   5.058 -0.2177  0.0094  0.8660
10790SOL     OW33810   3.005   5.778   5.728 -0.0384  0.0591 -0.6425
10790SOL    HW133811   3.028   5.685   5.737  2.7553  0.7782  0.4588
10790SOL    HW233812   3.044   5.804   5.644  1.7129  0.8622  0.3748
10791SOL     OW33813   1.211   5.117   4.205  0.2477 -0.0154  0.3097
10791SOL    HW133814   1.279   5.183   4.196  0.9042 -0.7228 -0.0757
10791SOL    HW233815   1.167   5.116   4.120  0.3111 -0.1568  0.2787
10792SOL     OW33816   1.464   7.523   3.304  0.2817  0.1231  0.6115
10792SOL    HW133817   1.434   7.434   3.320  1.7683 -0.2835  1.3148
10792SOL    HW233818   1.525   7.541   3.376  1.6700  0.9071 -0.7005
10793SOL     OW33819   2.799   6.319   5.146 -0.6725  0.4107  0.0504
10793SOL    HW133820   2.733   6.363   5.199 -0.5187  1.6090 -0.7293
10793SOL    HW233821   2.834   6.251   5.203 -1.9020  0.3767  0.8018
10794SOL     OW33822   1.132   6.382   3.629  0.2874  0.3341  0.3370
10794SOL    HW133823   1.203   6.344   3.578 -0.2358 -2.1764  1.3678
10794SOL    HW233824   1.058   6.384   3.568  0.2067 -0.7261  0.3961
10795SOL     OW33825   1.659   6.112   3.457 -0.6134 -0.1636 -0.0909
10795SOL    HW133826   1.642   6.206   3.458 -1.4581 -0.3171  0.8933
10795SOL    HW233827   1.723   6.098   3.527  0.6056 -0.1477 -1.1628
10796SOL     OW33828   0.753   6.772   5.462  0.1908  0.2030  0.5250
10796SOL    HW133829   0.769   6.866   5.470  0.7150  0.2763 -1.1068
10796SOL    HW233830   0.676   6.757   5.517  0.8718  1.3330  1.8487
10797SOL     OW33831   0.450   6.439   2.872  0.7026  0.0869 -0.1752
10797SOL    HW133832   0.513   6.436   2.944  1.5533 -0.5101 -0.9232
10797SOL    HW233833   0.491   6.495   2.807  0.1639  0.2109 -0.4128
10798SOL     OW33834   2.215   6.972   6.490  0.3271  0.4531 -0.4379
10798SOL    HW133835   2.167   6.923   6.424  3.3422 -0.1187 -2.4373
10798SOL    HW233836   2.251   6.905   6.549  0.2770  0.7073 -0.1122
10799SOL     OW33837   1.695   6.374   3.518  0.3136 -0.1208 -0.6246
10799SOL    HW133838   1.774   6.356   3.467  1.0545 -0.8097  0.7032
10799SOL    HW233839   1.727   6.407   3.602 -0.8648  0.8271 -0.5254
10800SOL     OW33840   3.387   4.965   5.316 -0.0663  0.8347  0.9008
10800SOL    HW133841   3.475   4.998   5.334  0.1445  1.2877 -0.7684
10800SOL    HW233842   3.330   5.013   5.376  0.8864 -0.0844  2.6187
10801SOL     OW33843   1.219   7.852   6.678  0.0140  0.2055 -0.2132
10801SOL    HW133844   1.173   7.773   6.706  0.1484 -0.0227 -0.6246
10801SOL    HW233845   1.279   7.871   6.750 -0.1550  0.0418 -0.0263
10802SOL     OW33846   2.165   6.581   5.804 -0.7287 -0.1337 -0.0050
10802SOL    HW133847   2.201   6.611   5.720 -0.8470 -0.2065 -0.0817
10802SOL    HW233848   2.083   6.537   5.781  0.1079 -1.7310 -0.0307
10803SOL     OW33849   1.358   0.101   4.834  0.0211  1.1759 -0.3501
10803SOL    HW133850   1.276   0.072   4.793 -0.3018  0.1434  0.9630
10803SOL    HW233851   1.346   0.195   4.847  0.0570  1.5154 -2.3883
10804SOL     OW33852   1.473   4.883   3.240  0.6944 -0.4151 -0.1150
10804SOL    HW133853   1.532   4.828   3.292 -0.5865 -1.6342  0.0943
10804SOL    HW233854   1.435   4.943   3.304  1.2081 -0.0528 -0.1418
10805SOL     OW33855   0.054   6.345   3.734 -0.3554 -0.3687  0.5645
10805SOL    HW133856   0.105   6.372   3.657 -0.0811  0.9286  1.1739
10805SOL    HW233857   0.074   6.252   3.745  1.6344  0.0263  0.5932
10806SOL     OW33858   2.666   6.997   3.774 -0.1182 -0.3255 -0.4701
10806SOL    HW133859   2.575   6.967   3.782 -1.0791  0.9397 -4.4487
10806SOL    HW233860   2.697   6.958   3.692  2.3123  0.7370 -0.1413
10807SOL     OW33861   3.015   5.578   4.554 -0.0545  0.0156  0.0778
10807SOL    HW133862   3.055   5.501   4.514  0.1585 -0.6542  1.5056
10807SOL    HW233863   3.088   5.637   4.571 -0.0425 -0.0292  0.1805
10808SOL     OW33864   4.528   5.908   5.751 -0.5257  0.2340  0.2401
10808SOL    HW133865   4.484   5.907   5.666  0.7707 -0.3058 -0.4553
10808SOL    HW233866   4.617   5.939   5.732 -0.1774 -0.0159  1.3778
10809SOL     OW33867   2.263   5.458   4.852  0.2133 -0.1521  0.2044
10809SOL    HW133868   2.328   5.523   4.823 -1.4711  0.8900 -1.4781
10809SOL    HW233869   2.188   5.511   4.878 -0.5299 -1.3796  0.5863
10810SOL     OW33870   0.049   5.753   1.852  0.5990  0.0415  0.0954
10810SOL    HW133871   0.007   5.806   1.785 -0.1109  0.4966  0.8831
10810SOL    HW233872   0.016   5.664   1.837 -1.2591  0.4969  1.1193
10811SOL     OW33873   2.638   6.804   5.313 -0.4508 -0.2749 -0.4383
10811SOL    HW133874   2.646   6.769   5.402  2.1583  1.3760  0.0764
10811SOL    HW233875   2.717   6.773   5.268 -0.3835  1.1280 -1.3524
10812SOL     OW33876   3.858   6.972   2.665 -0.1378  0.4778  0.3300
10812SOL    HW133877   3.839   6.930   2.748 -0.1196  0.2000  0.1926
10812SOL    HW233878   3.850   6.903   2.600  2.2799  0.1000  0.3445
10813SOL     OW33879   2.075   5.091   2.539  0.1687  0.3961 -0.1760
10813SOL    HW133880   2.059   5.047   2.623  1.8135 -0.8105 -0.4510
10813SOL    HW233881   2.024   5.040   2.476  1.7341 -0.9513 -0.4260
10814SOL     OW33882   1.752   7.403   5.995 -0.1912  0.4710 -0.2527
10814SOL    HW133883   1.773   7.485   5.949 -0.1218  0.6013  0.0069
10814SOL    HW233884   1.793   7.335   5.942  2.3015  0.8427  1.0847
10815SOL     OW33885   2.430   6.178   5.334  0.6220  0.0643 -0.1117
10815SOL    HW133886   2.339   6.206   5.329  0.3068 -0.8832  0.2607
10815SOL    HW233887   2.476   6.253   5.373  0.1015  0.7332 -0.7546
10816SOL     OW33888   2.567   0.147   4.722 -0.1522 -0.0585  0.0814
10816SOL    HW133889   2.533   0.075   4.776 -0.0478  0.4626  0.8727
10816SOL    HW233890   2.624   0.196   4.782 -1.0487  1.2811 -0.1147
10817SOL     OW33891   2.032   5.790   3.489  0.6588  0.0146 -0.1428
10817SOL    HW133892   2.099   5.859   3.491 -0.9142  1.6982 -1.7412
10817SOL    HW233893   1.957   5.831   3.445 -1.7997 -1.4922  2.3805
10818SOL     OW33894   2.634   5.659   5.464  0.4147 -0.1912 -0.5333
10818SOL    HW133895   2.661   5.692   5.550 -0.7458 -0.8209  0.1104
10818SOL    HW233896   2.711   5.669   5.409  1.4196 -0.4031  0.7691
10819SOL     OW33897   4.960   6.349   4.887  0.3863 -0.1573  0.1174
10819SOL    HW133898   4.979   6.369   4.978  0.8826 -1.4814  0.3265
10819SOL    HW233899   4.872   6.384   4.872  1.0085  1.7031  0.5539
10820SOL     OW33900   0.549   4.489   5.016 -0.3236 -0.5846 -0.0906
10820SOL    HW133901   0.515   4.571   4.979  1.0720  1.1486  2.1676
10820SOL    HW233902   0.630   4.473   4.968 -1.0030 -1.1305 -1.0873
10821SOL     OW33903   3.530   5.762   2.928 -0.1706 -0.3841  0.2865
10821SOL    HW133904   3.497   5.721   2.848  2.2824 -0.4703 -0.7758
10821SOL    HW233905   3.531   5.691   2.992 -0.5871 -0.7359 -0.0887
10822SOL     OW33906   2.542   6.701   4.921 -0.1085 -0.0723  0.1862
10822SOL    HW133907   2.503   6.619   4.950  1.2949 -0.8629 -0.0810
10822SOL    HW233908   2.603   6.725   4.991  0.5072 -0.0021 -0.3600
10823SOL     OW33909   2.647   6.357   3.470  0.7095 -0.6270 -0.6531
10823SOL    HW133910   2.702   6.399   3.536 -1.9146  1.8136  0.1744
10823SOL    HW233911   2.608   6.282   3.516  0.9464 -0.5214 -0.2726
10824SOL     OW33912   3.448   0.700   1.751 -0.2041 -0.2585 -0.0827
10824SOL    HW133913   3.483   0.707   1.840  0.8769 -1.2926 -0.3911
10824SOL    HW233914   3.353   0.708   1.762 -0.0063  1.0132  0.9891
10825SOL     OW33915   0.988   6.531   4.324 -0.0749  0.2911  0.0672
10825SOL    HW133916   1.057   6.539   4.390  0.8321 -0.0518 -0.8023
10825SOL    HW233917   1.024   6.575   4.247 -1.0211  0.4932 -0.2696
10826SOL     OW33918   3.308   6.391   4.156 -0.1801 -0.0727 -0.2844
10826SOL    HW133919   3.267   6.310   4.127 -0.1840 -0.2731  0.2614
10826SOL    HW233920   3.402   6.377   4.139 -0.1691 -0.2346 -0.0980
10827SOL     OW33921   1.257   5.841   5.963  0.2429 -0.2200 -0.3748
10827SOL    HW133922   1.204   5.829   6.042  0.5865  0.5581 -0.0105
10827SOL    HW233923   1.348   5.831   5.994  0.3419 -0.9186 -0.8699
10828SOL     OW33924   1.500   5.564   3.162 -0.2425  0.0210  0.4417
10828SOL    HW133925   1.518   5.473   3.186  0.6756  0.0059 -0.2518
10828SOL    HW233926   1.585   5.601   3.141 -0.5663  1.1623  1.0744
10829SOL     OW33927   0.449   6.237   3.831 -0.0031  0.2756 -0.0826
10829SOL    HW133928   0.397   6.163   3.799  0.9599 -0.3554 -0.2105
10829SOL    HW233929   0.457   6.222   3.925 -0.2153  0.4793 -0.0310
10830SOL     OW33930   3.174   4.636   5.158  0.1260  0.2957  0.1907
10830SOL    HW133931   3.212   4.722   5.140  0.6908  0.3084  1.3809
10830SOL    HW233932   3.246   4.574   5.145 -0.1774  0.0322 -0.2785
10831SOL     OW33933   2.821   6.542   4.945 -0.1607  0.3008 -0.0594
10831SOL    HW133934   2.804   6.486   5.020  0.4097 -0.8350 -0.7458
10831SOL    HW233935   2.870   6.616   4.980  1.5505 -1.0268  0.4598
10832SOL     OW33936   1.733   5.283   6.503 -0.0607 -0.1043  0.2744
10832SOL    HW133937   1.758   5.261   6.593 -2.5389 -0.7089  0.8700
10832SOL    HW233938   1.766   5.372   6.490  0.1285  0.0805  1.8656
10833SOL     OW33939   2.258   5.687   6.323  0.0705  0.1329  0.2085
10833SOL    HW133940   2.232   5.656   6.409  1.2487 -1.7161 -0.0368
10833SOL    HW233941   2.321   5.622   6.292 -0.5975  0.5167 -2.2100
10834SOL     OW33942   1.007   6.502   4.967  0.3246 -0.2390  0.1348
10834SOL    HW133943   1.021   6.413   4.934  0.3686 -0.0766 -0.2990
10834SOL    HW233944   1.086   6.550   4.941 -1.4396  1.0480 -3.5774
10835SOL     OW33945   3.273   7.325   5.995  0.1304 -0.3424 -0.2162
10835SOL    HW133946   3.290   7.391   5.929  1.2328  0.7135  1.0463
10835SOL    HW233947   3.295   7.242   5.953 -0.8826  0.1158 -1.6958
10836SOL     OW33948   1.317   5.465   4.900  0.0653  0.0649 -0.3046
10836SOL    HW133949   1.245   5.524   4.924  0.1064  0.2002 -0.5082
10836SOL    HW233950   1.281   5.377   4.909 -0.0644  0.1277 -0.2131
10837SOL     OW33951   5.157   6.376   3.813 -0.1654  0.4187 -0.0100
10837SOL    HW133952   5.243   6.417   3.826 -0.5238  0.7370  1.5842
10837SOL    HW233953   5.112   6.389   3.897 -1.1404 -1.2279 -0.2415
10838SOL     OW33954   4.116   6.721   5.010  0.0957  0.2567  0.0550
10838SOL    HW133955   4.081   6.690   4.927  1.4822  1.4191 -1.0083
10838SOL    HW233956   4.121   6.643   5.065  0.3087 -0.7722 -1.3721
10839SOL     OW33957   3.379   7.426   5.398 -0.2352 -0.2513  0.0228
10839SOL    HW133958   3.304   7.464   5.444 -0.1804  0.3775 -0.3904
10839SOL    HW233959   3.342   7.355   5.346 -0.6506  0.4273 -0.6280
10840SOL     OW33960   2.098   5.445   6.181 -0.0576 -0.2836  0.4153
10840SOL    HW133961   2.061   5.356   6.174 -1.5193  0.3410 -0.2628
10840SOL    HW233962   2.185   5.432   6.219 -0.5579 -1.9388  1.0951
10841SOL     OW33963   4.758   6.744   4.654  0.5671 -0.3026  0.0301
10841SOL    HW133964   4.827   6.714   4.594  0.6436  2.5074 -1.4898
10841SOL    HW233965   4.683   6.687   4.634  1.8082 -2.1397  0.3256
10842SOL     OW33966   2.729   6.586   4.192  0.2827 -0.0140  0.3110
10842SOL    HW133967   2.664   6.633   4.245  0.4484 -0.1509  0.6368
10842SOL    HW233968   2.713   6.494   4.211  0.9202 -0.0255  0.8028
10843SOL     OW33969   0.728   5.223   5.658 -0.0802 -0.1823 -0.4494
10843SOL    HW133970   0.718   5.128   5.652 -1.8350 -0.0864  0.1971
10843SOL    HW233971   0.658   5.250   5.718 -0.4008  1.6355 -1.5675
10844SOL     OW33972   1.814   6.142   4.669  0.2650 -0.4167  0.1603
10844SOL    HW133973   1.836   6.095   4.749 -0.2515  0.3127  0.7343
10844SOL    HW233974   1.867   6.221   4.671 -0.8516  0.3346  0.5312
10845SOL     OW33975   2.913   5.625   2.491  0.7595 -0.1722 -0.1520
10845SOL    HW133976   2.996   5.672   2.482  0.6792  0.2561  1.1697
10845SOL    HW233977   2.911   5.597   2.582  1.2256 -3.6077 -1.0638
10846SOL     OW33978   2.948   4.987   5.528  0.1581 -0.4327  0.6740
10846SOL    HW133979   2.949   4.989   5.432 -1.9516  2.8192  0.5621
10846SOL    HW233980   2.910   4.902   5.549 -0.9473 -0.5528 -1.4731
10847SOL     OW33981   4.926   6.193   4.607  0.2895 -0.4042  0.2937
10847SOL    HW133982   4.938   6.243   4.526 -0.0895  0.2503  0.6286
10847SOL    HW233983   4.837   6.215   4.635  0.4627 -0.5221  0.9530
10848SOL     OW33984   1.617   7.511   4.929  0.0919  0.0840 -0.7232
10848SOL    HW133985   1.669   7.432   4.914  1.0428  0.3042  1.1469
10848SOL    HW233986   1.533   7.479   4.961  0.0763 -0.1928 -1.0330
10849SOL     OW33987   0.789   5.293   2.650 -0.1254  0.2946  0.2648
10849SOL    HW133988   0.836   5.287   2.733 -0.0032 -0.3326  0.1597
10849SOL    HW233989   0.711   5.344   2.669  0.6349  1.4192  0.4276
10850SOL     OW33990   2.825   5.363   5.342  0.6868  0.4002 -0.0983
10850SOL    HW133991   2.916   5.334   5.356  0.8584  0.9800  0.0209
10850SOL    HW233992   2.795   5.312   5.267  1.4847  0.9897 -0.8488
10851SOL     OW33993   3.935   7.582   3.544  0.1474  0.1585 -0.4924
10851SOL    HW133994   3.898   7.572   3.456 -1.2406  0.6179  0.0170
10851SOL    HW233995   4.019   7.536   3.540 -0.0386 -0.1023 -1.9627
10852SOL     OW33996   2.898   5.461   4.240 -0.7105 -0.4724 -0.2927
10852SOL    HW133997   2.992   5.476   4.253 -0.6134  0.4647 -1.8776
10852SOL    HW233998   2.876   5.395   4.306  1.3663 -1.8191 -0.8313
10853SOL     OW33999   1.254   6.532   4.407  0.1836 -0.3043 -0.0297
10853SOL    HW134000   1.347   6.529   4.383  0.6755 -0.8312  1.7887
10853SOL    HW234001   1.253   6.512   4.500 -1.8480 -1.2022 -0.1892
10854SOL     OW34002   2.036   5.963   5.290  0.3894  0.1107  0.3810
10854SOL    HW134003   1.951   5.919   5.293  0.4308  0.0024  0.0303
10854SOL    HW234004   2.015   6.056   5.296  0.3828  0.0074  2.4172
10855SOL     OW34005   1.562   5.479   3.662  0.2074 -0.3015 -0.4656
10855SOL    HW134006   1.620   5.462   3.587  0.0571 -0.0200 -0.6465
10855SOL    HW234007   1.543   5.392   3.696  1.8537 -0.3481  0.4677
10856SOL     OW34008   4.008   5.579   4.859 -0.2015  0.5181  0.0857
10856SOL    HW134009   3.953   5.501   4.851 -1.0139  1.1671 -0.9751
10856SOL    HW234010   4.081   5.564   4.799 -0.2136  0.4576  0.0861
10857SOL     OW34011   1.978   6.035   2.855  0.5182  0.1433 -0.0244
10857SOL    HW134012   1.954   6.127   2.857 -0.5629 -0.1291  0.2057
10857SOL    HW234013   1.917   5.996   2.793  1.3250 -0.3253 -0.5345
10858SOL     OW34014   4.406   6.753   4.891 -0.2876 -0.0195 -0.0334
10858SOL    HW134015   4.370   6.803   4.817 -0.5093  2.2384  1.5007
10858SOL    HW234016   4.369   6.796   4.968 -0.1976 -2.4237  1.4203
10859SOL     OW34017   1.431   4.271   5.059 -1.2092 -0.0788 -0.4753
10859SOL    HW134018   1.339   4.245   5.064 -1.7773  1.9430  1.3508
10859SOL    HW234019   1.478   4.205   5.109 -1.9745  0.0143  0.3800
10860SOL     OW34020   2.993   6.417   4.365 -0.6240 -0.6201 -0.2330
10860SOL    HW134021   3.073   6.427   4.417  0.0773 -0.4392 -1.3057
10860SOL    HW234022   2.922   6.420   4.429  0.1120  1.1776  0.5610
10861SOL     OW34023   1.903   5.911   5.869  0.1829  0.1509  0.5017
10861SOL    HW134024   1.849   5.942   5.796  1.6480  2.9346  0.4438
10861SOL    HW234025   1.850   5.927   5.947 -0.6469 -1.0461  0.2031
10862SOL     OW34026   1.023   5.710   3.876  0.7069 -0.1489 -0.4608
10862SOL    HW134027   1.073   5.710   3.794  0.4377  0.8327 -0.6394
10862SOL    HW234028   0.985   5.798   3.881 -1.4645 -1.0167 -0.6045
10863SOL     OW34029   2.209   6.149   4.242 -0.2286  0.3804  0.5672
10863SOL    HW134030   2.282   6.184   4.293  0.3835 -1.8573  1.3754
10863SOL    HW234031   2.237   6.060   4.220 -1.4997  0.4568 -1.6611
10864SOL     OW34032   1.141   5.145   5.179 -0.3233  0.0688 -0.0466
10864SOL    HW134033   1.097   5.191   5.108 -0.2772 -0.6845 -0.5731
10864SOL    HW234034   1.233   5.144   5.155 -0.1867  0.5134  0.4273
10865SOL     OW34035   2.265   4.706   3.092 -0.7406 -0.1337  1.0293
10865SOL    HW134036   2.281   4.636   3.029  0.2132  0.2616  0.8273
10865SOL    HW234037   2.349   4.750   3.102 -1.3557  1.1024  1.0195
10866SOL     OW34038   5.704   5.414   3.317 -0.5037 -0.3403 -0.8873
10866SOL    HW134039   5.627   5.448   3.271  0.0609  0.8302 -0.9894
10866SOL    HW234040   5.671   5.387   3.403 -0.9673  0.4640 -0.8070
10867SOL     OW34041   3.890   5.203   5.043 -0.2709  0.6026  0.1098
10867SOL    HW134042   3.820   5.265   5.061 -0.5636 -0.3001  2.5125
10867SOL    HW234043   3.846   5.118   5.036  0.5939 -0.4648  4.5113
10868SOL     OW34044   0.845   5.845   3.641  0.2316  0.1477  0.2961
10868SOL    HW134045   0.897   5.895   3.578  1.1711  1.2127  1.8436
10868SOL    HW234046   0.853   5.894   3.723 -1.6003 -0.7669  1.0731
10869SOL     OW34047   0.800   5.340   4.633  0.3390  0.0745  0.1916
10869SOL    HW134048   0.885   5.302   4.655  0.8545  1.3012  0.3806
10869SOL    HW234049   0.740   5.265   4.632  1.0887 -0.5978  1.6996
10870SOL     OW34050   1.773   5.956   5.628 -0.1803 -0.0552  0.1391
10870SOL    HW134051   1.704   5.890   5.634 -1.7742  1.4774 -0.3783
10870SOL    HW234052   1.790   5.964   5.534 -0.4521  0.6798  0.1437
10871SOL     OW34053   3.758   5.942   6.596 -0.2680 -0.0512 -0.0889
10871SOL    HW134054   3.683   5.912   6.545 -0.0960  0.7922 -0.8582
10871SOL    HW234055   3.789   5.864   6.642 -0.6139 -0.7528 -1.0366
10872SOL     OW34056   2.629   6.920   7.787  0.1958  0.0135  0.2635
10872SOL    HW134057   2.624   6.886   7.877  0.2844 -0.9175 -0.0709
10872SOL    HW234058   2.569   6.864   7.737 -0.1832  0.8035 -0.1803
10873SOL     OW34059   3.031   5.646   6.486  0.2474  0.0461 -0.5588
10873SOL    HW134060   3.081   5.599   6.553  1.5964  0.0758 -1.5016
10873SOL    HW234061   3.034   5.589   6.409  0.8718  1.0866 -1.3463
10874SOL     OW34062   1.901   6.790   5.539 -0.1524  0.0808 -0.8797
10874SOL    HW134063   1.824   6.836   5.506 -0.7229 -0.6742 -0.6347
10874SOL    HW234064   1.867   6.730   5.606  1.0222  1.9029  1.4974
10875SOL     OW34065   1.859   7.380   5.413  0.2791  0.1585 -0.0754
10875SOL    HW134066   1.893   7.323   5.345 -0.8621 -2.2879  1.2814
10875SOL    HW234067   1.779   7.418   5.377  0.5014  0.1137 -0.6148
10876SOL     OW34068   2.080   6.940   6.096 -0.0711  0.1951 -0.1714
10876SOL    HW134069   2.023   6.975   6.164 -2.7930 -1.1449 -1.5824
10876SOL    HW234070   2.124   6.866   6.137  0.5013  1.0951  0.8786
10877SOL     OW34071   0.566   5.525   7.965 -0.1511  0.0507  0.1508
10877SOL    HW134072   0.622   5.466   7.914  2.0466  1.7342  0.5020
10877SOL    HW234073   0.488   5.535   7.911  1.1620  0.0596 -1.8814
10878SOL     OW34074   2.913   6.107   5.264 -0.5567  0.0804 -0.4258
10878SOL    HW134075   2.844   6.045   5.242 -0.5792  0.3978 -1.2614
10878SOL    HW234076   2.994   6.062   5.240 -0.5278  0.0710 -0.3115
10879SOL     OW34077   2.201   5.842   8.569 -0.1390  0.6553  0.1226
10879SOL    HW134078   2.164   5.918   8.523  0.2600  1.4509  1.0795
10879SOL    HW234079   2.154   5.767   8.533 -1.7355  1.5092  0.3414
10880SOL     OW34080   7.642   1.011   5.035 -0.2146  0.0522 -0.2922
10880SOL    HW134081   7.554   1.039   5.062  0.1145  0.3384  0.5196
10880SOL    HW234082   7.676   1.084   4.985  1.0842  1.7171  2.7790
10881SOL     OW34083   2.279   6.493   7.138 -0.1697  0.0005  0.1792
10881SOL    HW134084   2.302   6.437   7.064  0.0882 -0.9690  0.9772
10881SOL    HW234085   2.212   6.552   7.104  0.3039 -0.0996 -0.9596
10882SOL     OW34086   3.338   5.926   5.914  0.0933 -0.4984  0.1235
10882SOL    HW134087   3.292   5.842   5.907  0.1842 -0.6199  0.9661
10882SOL    HW234088   3.294   5.982   5.849  0.9775 -1.6024 -1.5052
10883SOL     OW34089   4.125   5.810   6.938 -0.4815 -0.1943  0.1146
10883SOL    HW134090   4.039   5.831   6.903 -0.1557 -1.6031 -1.6740
10883SOL    HW234091   4.127   5.714   6.942  0.2056 -0.1472  2.3032
10884SOL     OW34092   2.120   7.287   5.801  0.3178 -0.0313  0.1910
10884SOL    HW134093   2.213   7.267   5.809  0.3065  0.4286  1.9040
10884SOL    HW234094   2.117   7.366   5.746  0.9143 -0.1610 -0.0295
10885SOL     OW34095   2.675   0.038   6.521  0.1278  0.1328 -0.0868
10885SOL    HW134096   2.705   0.076   6.603  0.3122 -0.4660  0.1323
10885SOL    HW234097   2.583   0.064   6.515  0.1721  0.3586  0.2084
10886SOL     OW34098   0.784   5.728   5.257 -0.1028 -0.6138 -0.1671
10886SOL    HW134099   0.785   5.673   5.335  2.3994 -1.0608 -0.4137
10886SOL    HW234100   0.836   5.805   5.282 -0.8289  0.1072 -0.8300
10887SOL     OW34101   2.045   6.394   7.294  0.1785 -0.5800  0.0681
10887SOL    HW134102   2.130   6.414   7.255 -0.1153  0.1129 -0.2359
10887SOL    HW234103   2.052   6.303   7.323  0.8154 -0.7187 -0.5025
10888SOL     OW34104   1.036   7.098   7.472  0.4796 -0.6926  0.0898
10888SOL    HW134105   1.055   7.057   7.388  0.8284 -1.4093  0.5026
10888SOL    HW234106   0.952   7.142   7.459  0.1891 -1.3836 -0.4344
10889SOL     OW34107   1.366   6.623   5.852  0.6487 -0.1224 -0.2509
10889SOL    HW134108   1.322   6.644   5.934  0.6289 -0.8065 -0.0784
10889SOL    HW234109   1.418   6.700   5.831  1.4097 -0.3115  0.9042
10890SOL     OW34110   4.185   6.191   7.026 -0.0322  0.0550  0.1298
10890SOL    HW134111   4.177   6.202   7.121  2.5373 -0.5295  0.4655
10890SOL    HW234112   4.096   6.171   6.998 -1.0444  1.1388  2.2605
10891SOL     OW34113   1.305   5.545   3.498 -0.0315 -0.0247 -0.1123
10891SOL    HW134114   1.377   5.526   3.558 -0.8535  0.5498  1.1158
10891SOL    HW234115   1.240   5.590   3.553 -1.2546 -0.3886 -1.2157
10892SOL     OW34116   4.726   7.975   5.646  0.4728 -0.0772 -0.1957
10892SOL    HW134117   4.764   8.034   5.711 -0.6572  0.2470  0.1975
10892SOL    HW234118   4.734   8.023   5.563 -0.8880  0.8839  0.1954
10893SOL     OW34119   1.872   6.267   4.969  0.5397  0.0935 -0.1780
10893SOL    HW134120   1.891   6.288   5.061  0.0555 -0.0772 -0.0404
10893SOL    HW234121   1.848   6.174   4.970 -0.3414  0.3200 -0.3505
10894SOL     OW34122   1.508   4.837   5.527  0.3688  0.1572 -0.2412
10894SOL    HW134123   1.548   4.839   5.614 -0.8144  4.5773  0.4368
10894SOL    HW234124   1.415   4.854   5.542  0.4186  3.0042 -2.2978
10895SOL     OW34125   5.096   7.554   6.419  0.1877 -0.1160 -0.5070
10895SOL    HW134126   5.118   7.641   6.387  1.1210 -0.1842 -0.0989
10895SOL    HW234127   5.151   7.495   6.367  1.2804 -0.2725  0.7675
10896SOL     OW34128   1.505   5.596   5.217  0.4524 -0.4366 -0.1562
10896SOL    HW134129   1.465   5.665   5.166  1.3047 -0.1347 -0.4261
10896SOL    HW234130   1.433   5.561   5.270 -0.0758  0.3649 -0.3236
10897SOL     OW34131   2.123   5.933   5.590  0.3428  0.4899 -0.5511
10897SOL    HW134132   2.042   5.885   5.604  0.2677  0.7760  0.0032
10897SOL    HW234133   2.138   5.980   5.671  0.1108  1.8775 -1.2825
10898SOL     OW34134   2.954   7.620   6.536 -0.4580  0.2941  0.2803
10898SOL    HW134135   3.041   7.590   6.563  0.1610  2.1552  0.5035
10898SOL    HW234136   2.893   7.563   6.583  0.6386  0.2586  1.7266
10899SOL     OW34137   0.758   3.462   6.309  1.1543  0.2162  0.1377
10899SOL    HW134138   0.803   3.389   6.352 -0.0099 -0.5466  0.1068
10899SOL    HW234139   0.802   3.540   6.342  1.8180 -0.4639  0.9015
10900SOL     OW34140   7.879   6.358   6.185  0.4158  0.3047  0.3070
10900SOL    HW134141   7.906   6.267   6.171 -0.9505  0.0555 -0.9075
10900SOL    HW234142   7.815   6.352   6.257 -0.7821  0.0733 -0.7470
10901SOL     OW34143   1.795   4.987   6.336  0.7191 -0.0153  0.0577
10901SOL    HW134144   1.812   4.994   6.243  0.8574  1.0818  0.1523
10901SOL    HW234145   1.878   4.955   6.373  0.4071 -1.2652 -0.2755
10902SOL     OW34146   3.592   7.369   8.140 -0.5557 -0.1150  0.0227
10902SOL    HW134147   3.520   7.400   8.085 -0.3673 -0.2051 -0.2751
10902SOL    HW234148   3.572   7.277   8.156 -1.8612  0.4346  2.0597
10903SOL     OW34149   1.760   5.034   8.790  0.0701  0.0939 -0.3318
10903SOL    HW134150   1.737   4.958   8.737  2.9106 -0.3864 -1.0339
10903SOL    HW234151   1.760   5.002   8.880 -1.0242 -0.0973 -0.3922
10904SOL     OW34152   3.018   6.446   7.826 -0.8572  0.1341 -0.3111
10904SOL    HW134153   2.926   6.466   7.846 -0.8191 -0.2699  0.2790
10904SOL    HW234154   3.014   6.370   7.768 -0.9882  1.5831 -2.2907
10905SOL     OW34155   4.199   7.330   7.404 -0.2125  0.2582 -0.4702
10905SOL    HW134156   4.272   7.269   7.398 -1.0580 -0.7828 -0.3324
10905SOL    HW234157   4.234   7.411   7.366  0.8638 -0.3487 -0.8407
10906SOL     OW34158   2.784   5.685   6.917  1.0733  0.3555 -0.0720
10906SOL    HW134159   2.820   5.745   6.852  0.1658  0.9269 -0.0595
10906SOL    HW234160   2.831   5.706   6.997  1.4633  0.3617 -0.3011
10907SOL     OW34161   5.335   6.967   7.355  0.3004 -0.8441  0.0179
10907SOL    HW134162   5.383   7.049   7.368 -0.3646 -0.3866 -0.3298
10907SOL    HW234163   5.243   6.992   7.364  0.1182 -2.1516  3.3507
10908SOL     OW34164   4.476   6.774   6.391  0.6857  0.2559  0.2788
10908SOL    HW134165   4.534   6.728   6.451 -0.4118 -1.1444  0.3333
10908SOL    HW234166   4.392   6.729   6.401  0.2676  0.5193 -1.6934
10909SOL     OW34167   0.814   7.015   6.540 -0.1010 -0.1854  0.0665
10909SOL    HW134168   0.813   7.105   6.507  0.2927  0.4857  1.7908
10909SOL    HW234169   0.724   6.996   6.564 -0.0805 -0.0468  0.2478
10910SOL     OW34170   2.248   5.213   7.112  0.5401 -0.4493 -0.1801
10910SOL    HW134171   2.263   5.126   7.075  0.1623 -0.1867 -0.9862
10910SOL    HW234172   2.329   5.235   7.157  0.9663 -0.8482 -0.7414
10911SOL     OW34173   1.368   6.178   9.171  0.0066 -0.6462  0.1180
10911SOL    HW134174   1.419   6.245   9.215  0.3425  0.9197 -2.4367
10911SOL    HW234175   1.284   6.176   9.217  0.5157  0.4732  1.1339
10912SOL     OW34176   2.199   6.350   6.664  0.7200 -0.0701  0.5920
10912SOL    HW134177   2.228   6.351   6.755  0.9241 -0.4386  0.5331
10912SOL    HW234178   2.200   6.257   6.640 -0.8198 -0.1437  0.6900
10913SOL     OW34179   0.875   6.238   6.795  0.0726  0.0819  0.2943
10913SOL    HW134180   0.908   6.299   6.730 -0.7543 -0.2062 -0.4250
10913SOL    HW234181   0.784   6.221   6.768  0.4618 -1.9228  0.1062
10914SOL     OW34182   1.054   7.510   6.475 -0.1270  0.2738  0.4064
10914SOL    HW134183   1.131   7.563   6.458 -0.6254  1.0621  0.5221
10914SOL    HW234184   1.086   7.420   6.478  0.6750  0.5332 -0.1833
10915SOL     OW34185   1.749   6.755   6.336 -0.0219 -0.1180 -0.4359
10915SOL    HW134186   1.681   6.704   6.381  0.1937  0.5816  0.6909
10915SOL    HW234187   1.773   6.700   6.261 -1.3343 -0.6928 -0.4781
10916SOL     OW34188   1.567   4.492   5.227  0.3030 -0.2147  0.0356
10916SOL    HW134189   1.542   4.399   5.230 -2.2197  0.4093  1.6557
10916SOL    HW234190   1.564   4.520   5.319  0.5146  1.5942 -0.4736
10917SOL     OW34191   4.506   5.370   6.535  0.0613 -0.4316 -0.4445
10917SOL    HW134192   4.436   5.363   6.470  0.6249  4.5887 -2.0007
10917SOL    HW234193   4.586   5.355   6.486  0.3799  1.1290 -0.4252
10918SOL     OW34194   3.973   6.413   6.526  0.8164  0.4481  0.1288
10918SOL    HW134195   3.890   6.369   6.512  0.7906  0.6747 -0.4387
10918SOL    HW234196   4.038   6.355   6.486  0.8651  0.5606  0.0448
10919SOL     OW34197   3.324   6.297   5.925 -0.6797  0.2138  0.4732
10919SOL    HW134198   3.374   6.315   5.845 -1.6390  2.0544  0.2157
10919SOL    HW234199   3.386   6.316   5.996 -0.7524  1.8222  0.1570
10920SOL     OW34200   4.272   5.458   6.046 -0.7414 -0.0673 -0.2217
10920SOL    HW134201   4.328   5.381   6.061  0.2240  0.6948  0.1968
10920SOL    HW234202   4.184   5.428   6.068 -0.3065 -0.9207  0.4293
10921SOL     OW34203   1.731   6.758   7.304  0.7414 -0.3392 -0.2173
10921SOL    HW134204   1.784   6.792   7.231  0.9609 -0.8894 -0.3221
10921SOL    HW234205   1.676   6.690   7.264 -1.2100  1.2869 -0.4240
10922SOL     OW34206   2.511   5.533   6.450 -0.2582 -0.2283  0.0651
10922SOL    HW134207   2.574   5.597   6.417 -0.0269 -0.3122  0.3403
10922SOL    HW234208   2.529   5.527   6.544 -0.0389 -0.9624 -0.0162
10923SOL     OW34209   4.732   6.027   8.351 -0.1136  0.2837  0.7268
10923SOL    HW134210   4.787   5.971   8.404  1.0888  0.5884 -0.1567
10923SOL    HW234211   4.657   5.972   8.327 -1.3110  0.4752  3.6098
10924SOL     OW34212   1.988   5.819   7.461  0.4844 -0.1752  0.0007
10924SOL    HW134213   2.076   5.843   7.489  0.9641 -0.8449 -0.8695
10924SOL    HW234214   1.995   5.726   7.439 -0.8178 -0.6282  1.3755
10925SOL     OW34215   1.539   6.260   4.431 -0.2343 -0.0954  0.7009
10925SOL    HW134216   1.466   6.249   4.371 -0.3600 -0.7732  0.9719
10925SOL    HW234217   1.580   6.174   4.436  0.2166  0.1301  1.0210
10926SOL     OW34218   2.290   6.184   8.703  0.0471 -0.0931  0.0187
10926SOL    HW134219   2.228   6.142   8.763 -1.6169  3.5618  1.1565
10926SOL    HW234220   2.238   6.201   8.624 -0.0712  1.6830  0.4298
10927SOL     OW34221   3.615   6.594   5.908  0.1692  0.0760  0.0041
10927SOL    HW134222   3.544   6.645   5.869  1.6761 -0.1257 -3.3069
10927SOL    HW234223   3.692   6.617   5.857  2.0291 -1.5368  1.8900
10928SOL     OW34224   2.041   6.140   6.423  0.2115  0.0596  0.4103
10928SOL    HW134225   1.983   6.214   6.404  2.1373  1.6694  0.4611
10928SOL    HW234226   2.033   6.127   6.518 -1.9115 -1.4438  0.1038
10929SOL     OW34227   3.578   0.190   6.444 -0.6334  0.3287 -0.4566
10929SOL    HW134228   3.649   0.203   6.507 -0.0878 -2.2602 -0.4112
10929SOL    HW234229   3.498   0.200   6.495 -0.2814  1.5439 -0.1149
10930SOL     OW34230   2.039   1.588   6.717  0.2424 -0.1775 -0.0345
10930SOL    HW134231   2.074   1.540   6.642 -1.9828  1.6043 -2.3915
10930SOL    HW234232   2.000   1.667   6.680 -1.9884  0.2726  2.8541
10931SOL     OW34233   4.223   6.734   7.266 -0.1251  0.3400 -0.6098
10931SOL    HW134234   4.273   6.741   7.347 -0.8073  0.4516 -0.1924
10931SOL    HW234235   4.252   6.652   7.227 -0.2330 -0.0214  0.0523
10932SOL     OW34236   2.835   6.964   6.678 -0.0461  0.0951 -0.1562
10932SOL    HW134237   2.748   6.990   6.709  0.0115 -0.8059  0.8448
10932SOL    HW234238   2.876   7.046   6.651 -0.3635  0.8787  1.5633
10933SOL     OW34239   3.099   6.241   6.093  0.1871 -0.0433  0.1306
10933SOL    HW134240   3.085   6.329   6.128 -0.5792 -0.2044  0.2447
10933SOL    HW234241   3.163   6.254   6.023 -1.7453  1.0381 -1.5773
10934SOL     OW34242   0.776   5.170   6.273  0.3646  0.3981  0.1353
10934SOL    HW134243   0.801   5.222   6.197 -0.4799  1.6489  0.6912
10934SOL    HW234244   0.851   5.175   6.332  1.6944 -1.8890 -1.2111
10935SOL     OW34245   3.709   6.658   7.720 -0.2836  0.0881  0.1793
10935SOL    HW134246   3.803   6.674   7.733 -0.5754  0.8476  1.5565
10935SOL    HW234247   3.701   6.641   7.626  1.6497 -3.1168  0.4467
10936SOL     OW34248   1.995   5.124   4.393 -0.6009  0.0356  0.0462
10936SOL    HW134249   2.003   5.130   4.297  1.8805  1.2043  0.2301
10936SOL    HW234250   1.970   5.212   4.420  0.5836  0.2437  0.5452
10937SOL     OW34251   1.684   5.494  10.131  0.5742  0.5085 -0.1903
10937SOL    HW134252   1.605   5.536  10.095  0.5934  0.8914  0.2130
10937SOL    HW234253   1.694   5.414  10.079  0.9990  1.3974 -1.5365
10938SOL     OW34254   2.584   7.238   6.884 -0.4327  0.0156  0.0846
10938SOL    HW134255   2.669   7.259   6.922 -1.0212  0.8462  0.9961
10938SOL    HW234256   2.600   7.233   6.790  0.5677  0.3868  0.2227
10939SOL     OW34257   2.851   5.876   7.187  0.0116  0.1296  0.3374
10939SOL    HW134258   2.940   5.907   7.202  0.3139  0.7147 -2.2335
10939SOL    HW234259   2.802   5.954   7.161 -0.5041 -0.6544 -1.1499
10940SOL     OW34260   3.060   5.683   4.954 -0.1130  0.0862  0.0434
10940SOL    HW134261   3.144   5.654   4.918 -0.5655 -2.5562  0.9345
10940SOL    HW234262   3.077   5.697   5.047 -0.0304  2.4943 -0.2555
10941SOL     OW34263   4.029   5.762   5.217  0.4620  0.3417  0.5688
10941SOL    HW134264   3.977   5.780   5.138  2.4577 -0.9967 -1.1734
10941SOL    HW234265   4.015   5.669   5.235  0.1097  0.6104  1.7739
10942SOL     OW34266   2.366   4.771   6.666  0.2781  0.0204  0.4981
10942SOL    HW134267   2.388   4.735   6.580 -1.2220  0.9641 -0.3285
10942SOL    HW234268   2.385   4.699   6.727  2.0986 -0.4055 -0.5007
10943SOL     OW34269   3.493   6.010   6.120 -0.0234  0.1361 -0.1442
10943SOL    HW134270   3.449   5.996   6.204  1.5264  1.7396  1.0288
10943SOL    HW234271   3.430   5.982   6.054 -2.2767  1.1111  1.4665
10944SOL     OW34272   4.151   5.857   4.880  0.3428  0.4348 -0.2347
10944SOL    HW134273   4.072   5.824   4.923  0.7791  0.3607  0.5280
10944SOL    HW234274   4.217   5.790   4.898  0.6138  0.5543 -0.7670
10945SOL     OW34275   2.828   5.487   5.861 -0.2191 -0.1188  0.2376
10945SOL    HW134276   2.912   5.516   5.827 -1.7096  1.3270 -2.5520
10945SOL    HW234277   2.782   5.452   5.786 -2.2335 -0.6107  1.6096
10946SOL     OW34278   2.604   6.927   7.397  0.6778 -0.2296 -0.7445
10946SOL    HW134279   2.616   6.846   7.347  0.3620 -2.6344  2.7304
10946SOL    HW234280   2.510   6.943   7.395  0.2665 -1.9984  1.2952
10947SOL     OW34281   3.782   6.709   6.126  0.0090 -0.3283 -0.0518
10947SOL    HW134282   3.858   6.739   6.076 -0.2500 -1.1934 -1.0144
10947SOL    HW234283   3.716   6.688   6.059 -0.8820 -0.1109  0.7377
10948SOL     OW34284   1.654   4.535   6.415  0.4323  0.0940  0.3998
10948SOL    HW134285   1.684   4.445   6.408  0.6202  0.1335  0.6816
10948SOL    HW234286   1.718   4.578   6.472  0.2994  0.3843  0.3360
10949SOL     OW34287   2.842   0.166   4.353  0.0471  0.1314 -0.0304
10949SOL    HW134288   2.819   0.095   4.413  0.1274  0.5979  0.5679
10949SOL    HW234289   2.878   0.122   4.276 -1.9808 -0.5853 -0.6386
10950SOL     OW34290   3.804   5.647   6.043  0.0906  0.4285  0.0305
10950SOL    HW134291   3.790   5.564   5.997  0.7596  0.4748 -0.2646
10950SOL    HW234292   3.800   5.624   6.136 -1.4347  0.3583 -0.0207
10951SOL     OW34293   4.207   6.952   6.742 -0.3739 -0.1504 -0.1619
10951SOL    HW134294   4.178   7.033   6.784 -1.2949 -0.1646 -0.7568
10951SOL    HW234295   4.140   6.888   6.762  0.0620 -0.6245 -0.1887
10952SOL     OW34296   3.732   0.336   6.847 -0.4843 -0.5979 -0.2319
10952SOL    HW134297   3.674   0.407   6.820 -1.3541 -1.2026  0.0246
10952SOL    HW234298   3.763   0.298   6.765 -0.8730 -0.6190 -0.3686
10953SOL     OW34299   2.550   6.770   5.640 -0.4605 -0.0812  0.1779
10953SOL    HW134300   2.592   6.706   5.697 -1.5184 -0.6875  0.3051
10953SOL    HW234301   2.616   6.837   5.626  0.0914 -0.3331  1.4575
10954SOL     OW34302   5.679   6.325   6.711 -0.9638 -0.2151 -0.1782
10954SOL    HW134303   5.670   6.266   6.786  0.2521 -0.2895 -0.0722
10954SOL    HW234304   5.683   6.413   6.749  0.5284 -0.3117 -0.0632
10955SOL     OW34305   3.265   5.630   6.262 -0.4171  0.5079  0.1836
10955SOL    HW134306   3.171   5.618   6.250 -0.2920 -1.2982  0.6405
10955SOL    HW234307   3.305   5.562   6.207  0.6468  1.5521 -0.3698
10956SOL     OW34308   3.721   5.660   5.213 -0.8931 -0.3890 -0.1290
10956SOL    HW134309   3.744   5.704   5.131  0.2565  1.1845  0.9729
10956SOL    HW234310   3.767   5.576   5.207  1.1851  0.6622 -0.1442
10957SOL     OW34311   2.823   6.627   4.580 -0.0517 -1.0466  0.1620
10957SOL    HW134312   2.820   6.538   4.615  1.0284 -0.3413  2.2074
10957SOL    HW234313   2.764   6.625   4.505 -0.5421 -3.3125  0.5308
10958SOL     OW34314   2.138   5.255   5.004 -0.2721 -0.4704  0.0204
10958SOL    HW134315   2.064   5.314   4.990  1.3440  1.7825  0.4575
10958SOL    HW234316   2.215   5.305   4.973  1.3748 -1.6994  1.8905
10959SOL     OW34317   3.614   5.415   5.960 -0.2467 -0.3588  0.0353
10959SOL    HW134318   3.664   5.359   6.020  0.2989  0.1838  0.1021
10959SOL    HW234319   3.653   5.398   5.874 -2.2245 -2.5195 -0.5319
10960SOL     OW34320   3.526   5.703   6.937 -0.8610 -0.0888 -0.0792
10960SOL    HW134321   3.572   5.623   6.912 -1.0784 -0.0445 -0.6183
10960SOL    HW234322   3.504   5.746   6.854 -2.9620 -0.7158  0.1023
10961SOL     OW34323   2.181   5.603   6.590  0.0847 -0.2351 -0.6017
10961SOL    HW134324   2.211   5.512   6.597  0.7958  0.0383  0.0566
10961SOL    HW234325   2.246   5.653   6.640  0.5739  0.8223 -2.2277
10962SOL     OW34326   3.544   6.858   7.868 -0.1145 -0.2689 -0.2646
10962SOL    HW134327   3.603   6.870   7.943 -2.0991 -0.5527  1.4571
10962SOL    HW234328   3.589   6.794   7.813  0.8573 -1.0715  1.3637
10963SOL     OW34329   1.128   6.112   9.310  0.0110  0.2930  0.3824
10963SOL    HW134330   1.086   6.113   9.396  0.0444  2.7486  0.4340
10963SOL    HW234331   1.068   6.161   9.254 -1.0519 -2.9853 -1.6231
10964SOL     OW34332   4.253   5.278   6.764 -0.3038  0.3216  0.0631
10964SOL    HW134333   4.297   5.205   6.719 -0.1123  0.2271  0.3999
10964SOL    HW234334   4.162   5.274   6.733  0.4424  2.1601 -2.7549
10965SOL     OW34335   3.735   6.207   6.477  0.1061 -0.8057 -0.2722
10965SOL    HW134336   3.708   6.193   6.387 -1.0950 -1.0293  0.1052
10965SOL    HW234337   3.756   6.119   6.510  2.4487 -0.5383 -0.8742
10966SOL     OW34338   3.412   6.148   6.489  0.1277 -0.2963  0.5465
10966SOL    HW134339   3.487   6.110   6.442  0.7441  3.2030 -1.6673
10966SOL    HW234340   3.335   6.114   6.443  0.5543 -0.5237 -0.0100
10967SOL     OW34341   2.308   6.292   6.906  0.0576  0.0093  0.0631
10967SOL    HW134342   2.386   6.343   6.883 -0.3553 -0.3007 -2.2926
10967SOL    HW234343   2.336   6.201   6.897 -0.0832 -0.1521  1.1159
10968SOL     OW34344   3.543   6.333   6.896  0.3808 -0.5078  0.1729
10968SOL    HW134345   3.485   6.270   6.855  0.3366 -0.0145 -0.5353
10968SOL    HW234346   3.533   6.317   6.990  0.9525 -2.0663  0.0054
10969SOL     OW34347   4.090   0.385   7.015 -0.3179 -0.0362 -0.1956
10969SOL    HW134348   4.165   0.389   7.074 -0.6650  0.1041  0.2524
10969SOL    HW234349   4.120   0.336   6.939  0.1758 -0.1168  0.0526
10970SOL     OW34350   0.859   6.503   7.163 -0.4985 -0.0027 -0.2491
10970SOL    HW134351   0.923   6.530   7.098 -0.8815  0.2295 -0.5355
10970SOL    HW234352   0.863   6.408   7.163 -2.3135 -0.1755 -2.5131
10971SOL     OW34353   3.066   5.476   7.379 -0.2244 -0.0278  0.6858
10971SOL    HW134354   3.130   5.434   7.437 -0.0938  1.0174  1.3180
10971SOL    HW234355   2.998   5.509   7.438  0.3768  1.8825  0.3668
10972SOL     OW34356   0.895   6.348   6.362 -0.3957 -0.2727 -0.1252
10972SOL    HW134357   0.954   6.288   6.316 -1.7124 -1.4461 -0.3333
10972SOL    HW234358   0.942   6.370   6.443  0.7716 -0.3331 -0.7715
10973SOL     OW34359   2.054   5.556   7.408 -0.0229  0.0951 -0.5684
10973SOL    HW134360   2.011   5.504   7.340 -1.5386  1.0125 -0.3557
10973SOL    HW234361   2.147   5.535   7.400 -0.5106 -2.1252 -0.9199
10974SOL     OW34362   1.958   5.239   5.956 -0.3386  0.4103 -0.2962
10974SOL    HW134363   2.049   5.223   5.931 -0.3436  1.7211 -1.2114
10974SOL    HW234364   1.955   5.331   5.980 -1.6481  0.6449 -1.2757
10975SOL     OW34365   3.070   5.885   5.232 -0.5205  0.2261 -0.5490
10975SOL    HW134366   2.980   5.855   5.215 -0.8124  0.4900  0.4262
10975SOL    HW234367   3.089   5.853   5.320 -0.8869  2.9143  0.5931
10976SOL     OW34368   3.584   6.569   5.566  0.3876 -0.5433 -0.2329
10976SOL    HW134369   3.540   6.642   5.610 -2.4014 -2.4021  0.2743
10976SOL    HW234370   3.676   6.578   5.593 -0.1249  1.8930  1.0133
10977SOL     OW34371   5.199   6.527   7.724  0.9324  0.3429  0.2999
10977SOL    HW134372   5.267   6.590   7.746  3.0864 -0.1645 -3.8763
10977SOL    HW234373   5.221   6.448   7.774  2.4918  0.7006  0.2156
10978SOL     OW34374   3.493   7.914   7.639  0.0105  0.3090  0.4065
10978SOL    HW134375   3.475   7.834   7.589 -3.0949  0.7571  0.6004
10978SOL    HW234376   3.587   7.927   7.630  0.3187 -2.2611 -1.2815
10979SOL     OW34377   3.161   5.286   8.627 -0.0467  0.3493  0.2883
10979SOL    HW134378   3.228   5.248   8.684 -0.2545 -0.4400  0.0085
10979SOL    HW234379   3.079   5.278   8.677 -0.0008  0.9969  0.4834
10980SOL     OW34380   4.639   5.214   7.338 -1.0834 -0.1539 -0.1252
10980SOL    HW134381   4.613   5.140   7.394 -0.9052 -0.1021  0.0270
10980SOL    HW234382   4.641   5.177   7.249 -1.9165 -0.0960 -0.1778
10981SOL     OW34383   2.743   5.145   6.872 -0.2165  0.6425  0.1965
10981SOL    HW134384   2.792   5.214   6.916  0.5966 -1.7555  3.4247
10981SOL    HW234385   2.808   5.100   6.818 -0.2306  0.9968 -0.1197
10982SOL     OW34386   3.585   7.128   6.948 -0.1217 -0.0660 -0.2219
10982SOL    HW134387   3.529   7.067   6.996  0.8776 -0.9481 -0.1463
10982SOL    HW234388   3.529   7.205   6.933 -1.9618 -1.5664 -1.6907
10983SOL     OW34389   0.822   7.200   6.808  0.1686 -0.5330 -0.2382
10983SOL    HW134390   0.728   7.196   6.793 -0.6023  2.4207  2.5114
10983SOL    HW234391   0.855   7.262   6.743 -0.7438  1.9674  1.5230
10984SOL     OW34392   3.786   5.537   6.272  0.4428  0.5226  0.6504
10984SOL    HW134393   3.707   5.551   6.324  0.6802  0.4503  1.0300
10984SOL    HW234394   3.789   5.442   6.257  0.1851  0.5825  0.2036
10985SOL     OW34395   3.984   5.698   5.511  0.8141 -0.1739 -0.0870
10985SOL    HW134396   4.043   5.640   5.560  0.9456  0.6181  0.7141
10985SOL    HW234397   4.006   5.682   5.420  2.3295  0.1459  0.1919
10986SOL     OW34398   3.253   6.873   6.865  0.3027 -0.7240 -0.0221
10986SOL    HW134399   3.283   6.797   6.816  0.0227 -1.0856  0.3579
10986SOL    HW234400   3.166   6.891   6.830  0.9885  0.4047 -1.2158
10987SOL     OW34401   1.205   7.241   6.204 -0.2012 -0.3651 -0.4210
10987SOL    HW134402   1.284   7.251   6.257 -1.8363  0.7708  1.9823
10987SOL    HW234403   1.209   7.312   6.141 -0.0819  0.7650  0.8114
10988SOL     OW34404   2.791   5.380   9.071 -0.6475 -0.2422  0.5876
10988SOL    HW134405   2.821   5.290   9.062 -0.6421 -0.4015  1.9589
10988SOL    HW234406   2.808   5.402   9.162 -2.0651  0.6245  0.6750
10989SOL     OW34407   6.040   5.535   8.398 -0.2595 -0.2601 -0.7748
10989SOL    HW134408   5.982   5.470   8.437 -0.2801  1.5846  2.7006
10989SOL    HW234409   6.121   5.529   8.450  0.2351  1.5421 -1.2725
10990SOL     OW34410   1.594   4.145   7.527 -0.1129 -0.0681 -0.1143
10990SOL    HW134411   1.542   4.199   7.467 -2.2580 -1.2916  0.5266
10990SOL    HW234412   1.635   4.079   7.472 -0.4769 -0.0024 -0.4642
10991SOL     OW34413   5.100   6.862   6.377 -0.6643  0.3804 -0.3800
10991SOL    HW134414   5.107   6.798   6.306 -3.2824  1.3120 -1.5945
10991SOL    HW234415   5.025   6.832   6.428  1.3838 -0.4864  2.3488
10992SOL     OW34416   1.805   6.229   6.021  0.0228  0.2179 -0.6188
10992SOL    HW134417   1.855   6.180   6.086  1.6794  0.3780 -1.7103
10992SOL    HW234418   1.724   6.254   6.066  0.0726 -1.6823  0.6041
10993SOL     OW34419   3.160   7.021   5.003  0.0382 -0.6819  0.4160
10993SOL    HW134420   3.210   6.998   5.081  1.6087  2.2210  0.4271
10993SOL    HW234421   3.226   7.033   4.935 -1.1079 -1.0652 -0.8091
10994SOL     OW34422   3.834   7.217   8.163 -0.2360  0.0594 -0.0874
10994SOL    HW134423   3.904   7.228   8.098 -0.4292  0.6356 -0.2020
10994SOL    HW234424   3.770   7.285   8.141  0.0514  0.7585  1.1560
10995SOL     OW34425   7.885   4.763   7.887  0.1696 -0.2415  0.5480
10995SOL    HW134426   7.831   4.836   7.919 -0.3301 -0.9981  1.4811
10995SOL    HW234427   7.885   4.773   7.792 -0.0754  0.8488  0.6488
10996SOL     OW34428   2.026   5.385   4.259  0.7785 -0.7693 -0.3897
10996SOL    HW134429   2.106   5.410   4.303  1.0176 -1.3797 -0.4680
10996SOL    HW234430   2.055   5.350   4.175  0.2688  1.6365 -1.6713
10997SOL     OW34431   5.166   6.166   5.107  0.0869  0.3711  0.3093
10997SOL    HW134432   5.205   6.151   5.193 -1.4887 -5.1023  0.4170
10997SOL    HW234433   5.073   6.180   5.124  0.0352  1.0324 -0.4562
10998SOL     OW34434   3.942   6.777   7.267  0.3204 -0.1279 -0.1331
10998SOL    HW134435   4.035   6.760   7.282  0.2730 -1.0380 -0.7524
10998SOL    HW234436   3.930   6.869   7.291  1.0331 -0.4208  1.4857
10999SOL     OW34437   0.813   6.983   5.045  0.1819  0.1695 -0.8186
10999SOL    HW134438   0.760   6.918   5.091  1.7168 -1.5801 -1.3809
10999SOL    HW234439   0.861   7.028   5.114 -0.1081 -0.0406 -0.4784
11000SOL     OW34440   3.577   0.542   6.751 -0.2882  0.3084 -0.2867
11000SOL    HW134441   3.609   0.616   6.802 -1.1754  0.4066  0.1577
11000SOL    HW234442   3.501   0.511   6.800  0.0551 -0.8821 -0.4843
11001SOL     OW34443   2.911   6.528   5.900  0.0618 -0.1155  0.4873
11001SOL    HW134444   2.970   6.459   5.869 -1.3977 -1.6547  0.9722
11001SOL    HW234445   2.917   6.523   5.996 -2.2943 -1.6992  0.6195
11002SOL     OW34446   1.863   5.507   6.514 -0.2298 -0.2038  0.1561
11002SOL    HW134447   1.958   5.516   6.513 -0.2252 -0.1954 -0.7692
11002SOL    HW234448   1.839   5.507   6.606  0.7414 -0.9813  0.4208
11003SOL     OW34449   1.088   5.981   3.574  0.4500  0.4753 -0.2308
11003SOL    HW134450   1.122   6.012   3.658  0.2583  1.4621 -0.4979
11003SOL    HW234451   1.105   6.053   3.514  0.9772 -0.3929 -1.1427
11004SOL     OW34452   1.060   6.648   7.415  0.1157 -0.2787  0.3381
11004SOL    HW134453   0.964   6.646   7.415  0.1211 -0.7051 -0.1346
11004SOL    HW234454   1.082   6.718   7.353  0.1105 -2.5981 -2.5448
11005SOL     OW34455   2.557   6.463   5.288 -0.1675 -0.0309 -0.1678
11005SOL    HW134456   2.514   6.471   5.374 -1.8410  0.4729 -1.0159
11005SOL    HW234457   2.640   6.508   5.299 -1.1609  1.7287  0.6780
11006SOL     OW34458   4.486   5.957   5.032  0.2105 -0.0406 -0.1121
11006SOL    HW134459   4.509   5.977   5.122 -0.8410 -1.5853  0.5443
11006SOL    HW234460   4.419   5.888   5.039 -1.0012  0.8480 -2.0108
11007SOL     OW34461   3.313   5.860   7.652  0.0572 -0.5857  0.0777
11007SOL    HW134462   3.398   5.882   7.615 -0.3672  1.8051  0.3711
11007SOL    HW234463   3.264   5.822   7.578  1.7907 -3.5497  0.2760
11008SOL     OW34464   1.124   0.694   7.592 -0.3269 -0.0718 -0.1654
11008SOL    HW134465   1.035   0.673   7.563  0.1559 -1.2167 -0.8641
11008SOL    HW234466   1.122   0.678   7.687 -0.8273 -0.2118 -0.1951
11009SOL     OW34467   2.664   6.756   6.949 -0.0899  0.1001 -0.2867
11009SOL    HW134468   2.624   6.717   7.027 -0.0293 -1.6751 -1.1004
11009SOL    HW234469   2.706   6.836   6.981 -0.8734 -0.0898  1.3121
11010SOL     OW34470   3.022   6.147   4.689 -0.2259 -0.4360 -0.3096
11010SOL    HW134471   3.015   6.243   4.696 -1.4277 -0.6072  1.3038
11010SOL    HW234472   2.988   6.114   4.772  0.1292 -2.2931 -0.8517
11011SOL     OW34473   2.853   4.602   8.559 -0.7742 -0.3647 -0.0941
11011SOL    HW134474   2.779   4.651   8.522  0.8678  1.3898 -1.2839
11011SOL    HW234475   2.895   4.665   8.618  1.6199 -0.1160 -1.9409
11012SOL     OW34476   2.582   6.635   6.038  0.4093  0.1657 -0.3473
11012SOL    HW134477   2.560   6.638   6.131  0.9833  0.3066 -0.2082
11012SOL    HW234478   2.498   6.634   5.993  0.1225  1.1989  0.1396
11013SOL     OW34479   2.972   6.551   5.595 -0.2721 -0.2708 -0.4912
11013SOL    HW134480   3.008   6.496   5.664  0.2239  1.5717  0.7780
11013SOL    HW234481   3.049   6.584   5.548 -0.2112  2.7172  1.4766
11014SOL     OW34482   2.453   6.856   3.008 -0.5745  0.3605  0.0423
11014SOL    HW134483   2.397   6.875   3.083  1.5891 -0.4676  2.0165
11014SOL    HW234484   2.534   6.904   3.026  0.4802 -0.9037 -1.0951
11015SOL     OW34485   0.924   4.298   6.001  0.4271  0.3301  0.1086
11015SOL    HW134486   1.012   4.271   5.976  0.6672  0.5224  0.7428
11015SOL    HW234487   0.930   4.319   6.094 -0.2919  0.3267  0.1625
11016SOL     OW34488   1.344   0.344   7.542  0.4664 -0.1187  0.0477
11016SOL    HW134489   1.305   0.308   7.622  0.3063 -1.8487 -0.7622
11016SOL    HW234490   1.437   0.349   7.561  0.2027  1.4681  1.0511
11017SOL     OW34491   4.711   4.797   7.262  0.5438  0.6722 -0.2273
11017SOL    HW134492   4.660   4.841   7.194 -0.7466  1.5554  1.2289
11017SOL    HW234493   4.645   4.762   7.321  1.6283  0.4692  0.8946
11018SOL     OW34494   3.327   5.821   6.434  0.2011 -0.1902 -0.1628
11018SOL    HW134495   3.253   5.882   6.437 -0.6103 -0.8953 -2.6649
11018SOL    HW234496   3.298   5.752   6.374  1.9059 -1.9046  0.8786
11019SOL     OW34497   3.015   6.240   7.639  0.3485  0.1109 -0.2138
11019SOL    HW134498   3.102   6.199   7.642 -0.3593 -1.3889  1.0841
11019SOL    HW234499   2.982   6.220   7.552  1.6323  1.4600 -1.0487
11020SOL     OW34500   3.191   6.608   5.147 -0.6466 -0.0226 -0.1751
11020SOL    HW134501   3.243   6.632   5.071 -1.6584 -0.1804 -0.9477
11020SOL    HW234502   3.244   6.545   5.194 -0.6484 -1.1834 -1.6458
11021SOL     OW34503   2.923   7.920   5.558 -0.2134  0.0397  0.1695
11021SOL    HW134504   2.945   7.833   5.590  2.0034  0.2118 -0.7206
11021SOL    HW234505   2.832   7.913   5.529 -1.1430 -1.0923  2.9590
11022SOL     OW34506   3.206   5.074   7.374 -0.5443 -0.2277  0.0193
11022SOL    HW134507   3.227   4.981   7.364 -0.1286 -0.1712  0.3058
11022SOL    HW234508   3.212   5.109   7.285  2.0494  0.0637  0.2107
11023SOL     OW34509   4.704   5.118   5.112 -0.4102 -0.7132  0.5164
11023SOL    HW134510   4.635   5.110   5.178  0.3152 -0.1657  1.3660
11023SOL    HW234511   4.780   5.150   5.161 -0.0337  0.3281 -0.7070
11024SOL     OW34512   2.171   6.423   3.994  0.8888 -0.2757  0.8685
11024SOL    HW134513   2.117   6.494   3.957  0.1760  0.0442  2.4261
11024SOL    HW234514   2.108   6.354   4.016  1.4174 -0.8549  0.5694
11025SOL     OW34515   2.571   6.646   7.644  0.0144 -0.4101  0.1573
11025SOL    HW134516   2.498   6.677   7.697  0.1979  0.3483 -0.0273
11025SOL    HW234517   2.574   6.552   7.661  0.0125 -0.2007  1.4231
11026SOL     OW34518   3.296   6.907   5.494 -0.1504  0.3360  0.3420
11026SOL    HW134519   3.230   6.954   5.544 -0.5324  1.2935 -0.9938
11026SOL    HW234520   3.355   6.871   5.560 -1.6640 -0.0686  1.5468
11027SOL     OW34521   3.093   6.571   7.555  0.4423  0.3156  0.4463
11027SOL    HW134522   3.126   6.483   7.536  1.6664  0.9417 -0.4961
11027SOL    HW234523   3.002   6.557   7.583  0.5834 -1.2321  0.2347
11028SOL     OW34524   1.410   5.837   4.634  0.1389 -0.1450  0.2925
11028SOL    HW134525   1.357   5.917   4.633 -0.6937 -0.6927  0.3699
11028SOL    HW234526   1.500   5.869   4.623  0.0012  0.9361  1.8813
11029SOL     OW34527   2.938   6.740   6.222  0.5275 -0.0685  0.0809
11029SOL    HW134528   2.926   6.811   6.284  0.7836 -0.5881  0.7375
11029SOL    HW234529   2.886   6.766   6.146 -0.1019  0.3968  0.6533
11030SOL     OW34530   3.176   4.337   6.566 -0.2029 -0.6120 -0.1415
11030SOL    HW134531   3.252   4.358   6.620 -0.1003 -0.6902 -0.2559
11030SOL    HW234532   3.180   4.398   6.493 -1.1874  0.5204  0.7208
11031SOL     OW34533   1.423   5.163   5.097 -0.3431 -0.1707 -0.2587
11031SOL    HW134534   1.469   5.240   5.130  0.2940 -0.6285 -0.0603
11031SOL    HW234535   1.460   5.090   5.146 -2.5869 -0.3788  1.2544
11032SOL     OW34536   2.216   5.771   5.246  0.7226 -0.4457 -0.1784
11032SOL    HW134537   2.277   5.759   5.319  0.0192 -1.9918  0.1849
11032SOL    HW234538   2.156   5.839   5.276  2.5302  1.4999 -0.7501
11033SOL     OW34539   1.966   5.898   7.834  0.2090 -0.6196  0.1331
11033SOL    HW134540   2.010   5.823   7.793 -0.2122  0.3812 -2.3043
11033SOL    HW234541   2.037   5.954   7.864  0.6435  0.0765 -2.0565
11034SOL     OW34542   2.215   5.725   7.179  0.9963  0.2346 -0.5112
11034SOL    HW134543   2.276   5.664   7.222  0.6680  0.2695  0.0226
11034SOL    HW234544   2.143   5.669   7.150  0.8451  0.3184 -0.3040
11035SOL     OW34545   2.084   5.247   6.553  0.3469 -0.1302  0.4255
11035SOL    HW134546   2.170   5.287   6.566  0.2770  0.5533 -1.0486
11035SOL    HW234547   2.098   5.153   6.565  1.0622  0.0741  1.2620
11036SOL     OW34548   2.563   5.510   6.731  0.5235  0.2728 -0.1963
11036SOL    HW134549   2.640   5.516   6.787 -0.4307  0.6078  1.1084
11036SOL    HW234550   2.538   5.418   6.735  0.0948  0.4127  0.4362
11037SOL     OW34551   4.364   5.857   7.657 -0.0069  0.3140  0.0171
11037SOL    HW134552   4.318   5.789   7.609  1.4887 -0.1768 -0.7789
11037SOL    HW234553   4.438   5.813   7.698  0.4527  1.2880  0.2754
11038SOL     OW34554   3.038   5.344   4.855  0.1310 -0.8103 -0.2260
11038SOL    HW134555   3.090   5.422   4.836  0.2403 -1.0698 -1.0012
11038SOL    HW234556   3.073   5.276   4.798  0.9825 -1.8384  1.4604
11039SOL     OW34557   2.688   6.578   5.748  0.6397 -0.2611  0.1875
11039SOL    HW134558   2.777   6.579   5.781  0.7371 -1.2654 -0.0276
11039SOL    HW234559   2.651   6.496   5.780  0.1269 -0.3468 -0.6041
11040SOL     OW34560   2.521   6.000   7.311 -0.3643  0.8699 -0.0989
11040SOL    HW134561   2.579   6.042   7.248  0.4275 -0.6379 -0.4225
11040SOL    HW234562   2.511   5.910   7.279 -0.2430  0.1663  1.7040
11041SOL     OW34563   4.431   6.906   8.013  0.4017 -0.1904  0.4448
11041SOL    HW134564   4.484   6.882   7.936  0.7367  0.9208  0.3015
11041SOL    HW234565   4.350   6.858   8.002  0.7839 -0.7259 -0.1564
11042SOL     OW34566   0.250   7.719   5.429  0.3341  0.6326 -0.0966
11042SOL    HW134567   0.324   7.713   5.490 -0.8454  1.6959  1.5448
11042SOL    HW234568   0.237   7.813   5.416 -1.1206  0.5029  0.1962
11043SOL     OW34569   0.221   5.136   7.405 -0.0138 -0.6680 -0.4498
11043SOL    HW134570   0.187   5.055   7.367  1.0134 -0.9107 -0.8773
11043SOL    HW234571   0.270   5.177   7.334  0.8101 -0.4692  0.2203
11044SOL     OW34572   2.147   4.664   7.283  0.4265 -0.0546  0.3036
11044SOL    HW134573   2.217   4.664   7.219 -0.7381  0.0569 -1.0256
11044SOL    HW234574   2.179   4.609   7.354  2.0490  0.4207 -0.0187
11045SOL     OW34575   1.186   5.148   3.584  0.4887  0.4579  0.1727
11045SOL    HW134576   1.214   5.057   3.597  1.7252  0.8342  0.2001
11045SOL    HW234577   1.121   5.143   3.514 -0.9016 -0.6796  1.4500
11046SOL     OW34578   2.218   4.486   6.609  0.5897  0.2339 -0.1096
11046SOL    HW134579   2.145   4.466   6.667  0.0404  1.3654 -0.3785
11046SOL    HW234580   2.293   4.440   6.647 -0.0884 -0.2933  0.6169
11047SOL     OW34581   2.187   5.787   8.024 -0.1242 -0.2281  0.1232
11047SOL    HW134582   2.148   5.758   7.942 -0.6537 -2.0328  0.9541
11047SOL    HW234583   2.114   5.790   8.086  0.1913  1.5443  0.4364
11048SOL     OW34584   2.808   7.505   6.816 -0.4754 -0.2468 -0.6326
11048SOL    HW134585   2.798   7.599   6.827 -0.7109 -0.5818  3.2878
11048SOL    HW234586   2.903   7.490   6.822 -0.6062 -0.4468  2.4210
11049SOL     OW34587   2.953   6.053   6.343 -0.7117  0.0752 -0.1451
11049SOL    HW134588   2.951   6.136   6.391  0.7384 -0.4699  0.9388
11049SOL    HW234589   2.901   6.069   6.265 -0.6020  1.9563  0.1270
11050SOL     OW34590   2.750   7.296   6.056  0.5366  0.3505 -0.0222
11050SOL    HW134591   2.778   7.255   5.975  3.1053  0.9456  0.4794
11050SOL    HW234592   2.701   7.227   6.102  0.4070 -0.4867 -1.3653
11051SOL     OW34593   2.805   6.519   7.587  0.0072 -0.0283 -0.4435
11051SOL    HW134594   2.758   6.438   7.607  0.7600  0.1972  2.6571
11051SOL    HW234595   2.740   6.588   7.599 -0.1914 -0.0341 -1.4082
11052SOL     OW34596   1.456   6.722   6.656  0.6778  0.2241 -0.5794
11052SOL    HW134597   1.501   6.783   6.715 -0.6532  0.0281  0.6950
11052SOL    HW234598   1.374   6.766   6.634  0.2461 -0.5864 -0.6260
11053SOL     OW34599   2.134   7.426   6.299  0.3250 -0.2867  0.0826
11053SOL    HW134600   2.184   7.403   6.221  0.4954 -0.6005  0.2766
11053SOL    HW234601   2.158   7.517   6.318  0.9913 -0.5003  0.2911
11054SOL     OW34602   2.645   5.725   7.225 -0.5195  0.1583 -0.1947
11054SOL    HW134603   2.662   5.646   7.277 -0.0248  0.8547  0.7355
11054SOL    HW234604   2.731   5.764   7.210 -0.5658 -0.4035 -2.2081
11055SOL     OW34605   3.873   7.025   7.349 -0.3926  0.1850 -0.0289
11055SOL    HW134606   3.931   7.073   7.408 -0.3552 -0.4400  0.4628
11055SOL    HW234607   3.844   7.090   7.285  2.2230  0.1640 -1.3647
11056SOL     OW34608   2.199   5.092   6.829  0.5109  0.2518  0.0233
11056SOL    HW134609   2.204   5.079   6.734 -2.0706 -0.8638 -0.0441
11056SOL    HW234610   2.280   5.055   6.862  0.7223 -0.8910 -1.6303
11057SOL     OW34611   5.405   6.067   6.934  0.0196 -0.4050  0.1550
11057SOL    HW134612   5.393   6.020   6.851 -0.7782  2.6924 -1.6419
11057SOL    HW234613   5.320   6.063   6.977 -0.2308 -0.0870 -0.3003
11058SOL     OW34614   1.428   7.629   6.689  0.1688 -0.1154  0.0294
11058SOL    HW134615   1.441   7.535   6.673  2.3905  0.3698 -1.6133
11058SOL    HW234616   1.371   7.658   6.618 -1.0969 -0.3068  0.9394
11059SOL     OW34617   3.078   5.269   5.346  0.1506  0.1362 -0.2192
11059SOL    HW134618   3.109   5.227   5.426  0.9276 -0.3192 -0.7451
11059SOL    HW234619   3.131   5.230   5.277 -0.8826  0.1261 -1.0271
11060SOL     OW34620   1.861   0.347   7.709  0.4075  0.3835  0.1847
11060SOL    HW134621   1.872   0.256   7.683  1.9614  0.5506  0.1840
11060SOL    HW234622   1.943   0.390   7.683 -0.1308  1.6919  0.5576
11061SOL     OW34623   2.792   5.600   6.142 -0.0275  0.1484 -0.1881
11061SOL    HW134624   2.823   5.663   6.076  0.6033 -0.1348 -0.1694
11061SOL    HW234625   2.768   5.523   6.091 -0.5244  0.2960 -0.1817
11062SOL     OW34626   3.561   5.277   5.505  0.0470 -0.1655 -0.4254
11062SOL    HW134627   3.531   5.332   5.433  0.2983  1.2072  0.4781
11062SOL    HW234628   3.545   5.329   5.584  1.4116 -0.8917  0.3733
11063SOL     OW34629   4.156   6.326   6.360  0.7831 -0.0744  0.5977
11063SOL    HW134630   4.150   6.233   6.382 -0.4822 -0.1581 -0.0113
11063SOL    HW234631   4.188   6.327   6.270 -1.5970 -0.0599 -0.3210
11064SOL     OW34632   3.636   7.637   5.863  0.3307  0.5102  0.1614
11064SOL    HW134633   3.578   7.692   5.810  1.0850 -1.3674 -2.8494
11064SOL    HW234634   3.614   7.659   5.953 -1.1978  3.7751 -0.8689
11065SOL     OW34635   0.616   5.804   6.139  0.2741  0.4621  0.3541
11065SOL    HW134636   0.530   5.778   6.174  0.6116 -1.0623  0.1183
11065SOL    HW234637   0.677   5.788   6.211  0.7357 -1.1771 -0.3353
11066SOL     OW34638   2.689   0.093   7.572 -0.3201  0.0002  0.2093
11066SOL    HW134639   2.636   0.103   7.651 -1.2317  0.7502 -0.4717
11066SOL    HW234640   2.707   0.182   7.543  1.6959 -0.2214  0.6397
11067SOL     OW34641   2.678   6.086   6.667  0.1279 -0.0581  0.1026
11067SOL    HW134642   2.636   6.082   6.581  0.3925 -0.1980 -0.0216
11067SOL    HW234643   2.730   6.006   6.672  0.1615 -0.0205  0.3678
11068SOL     OW34644   2.539   6.347   5.903 -0.4445  0.3465  0.0713
11068SOL    HW134645   2.567   6.256   5.895 -0.2990  0.4305 -0.4776
11068SOL    HW234646   2.454   6.350   5.860 -0.2854  0.5389 -0.2360
11069SOL     OW34647   1.585   7.448   6.241 -0.3468  0.4201  0.0273
11069SOL    HW134648   1.622   7.463   6.155  0.0283  2.4410  0.5011
11069SOL    HW234649   1.657   7.465   6.302 -1.1841  1.2454  0.8182
11070SOL     OW34650   2.909   6.570   6.944 -0.2727 -0.0700  0.3445
11070SOL    HW134651   2.960   6.591   6.866  0.8197  0.8480  1.2796
11070SOL    HW234652   2.841   6.637   6.947 -0.1531  0.0513  0.3290
11071SOL     OW34653   4.926   5.470   7.394  0.2045 -0.1493 -0.4404
11071SOL    HW134654   4.950   5.485   7.303  0.0025  0.2828 -0.4258
11071SOL    HW234655   4.996   5.416   7.429  2.6351  3.1657  0.3257
11072SOL     OW34656   3.015   5.501   6.256  0.1871  0.2035 -0.2045
11072SOL    HW134657   2.939   5.553   6.230  0.7831  0.1363 -2.3421
11072SOL    HW234658   2.990   5.410   6.236  0.0556 -0.0674  1.1414
11073SOL     OW34659   1.492   5.153   6.167  0.0070  0.1931  0.0216
11073SOL    HW134660   1.410   5.198   6.148 -0.5724 -1.2413 -1.0599
11073SOL    HW234661   1.560   5.220   6.155 -0.8868  1.0027 -0.6604
11074SOL     OW34662   1.522   7.247   6.062  0.4542  0.1347  0.3590
11074SOL    HW134663   1.536   7.264   6.156  0.0499  0.8471  0.3022
11074SOL    HW234664   1.600   7.282   6.020  1.2815 -1.4256  0.5236
11075SOL     OW34665   2.061   4.511   5.496 -0.1747  0.4896 -0.6972
11075SOL    HW134666   2.021   4.456   5.428 -0.2939  1.4578 -1.4214
11075SOL    HW234667   2.093   4.588   5.450  0.5049  0.7817  0.2243
11076SOL     OW34668   1.923   4.604   6.883 -0.5974  0.4425  0.0793
11076SOL    HW134669   1.919   4.632   6.975  0.3076  0.2877  0.1753
11076SOL    HW234670   1.991   4.658   6.844  0.7973 -1.1933  0.1265
11077SOL     OW34671   3.048   5.278   6.969 -0.2295 -0.8938  0.3553
11077SOL    HW134672   3.029   5.221   6.895  0.4429 -0.0101 -0.5230
11077SOL    HW234673   3.139   5.259   6.992  0.6634  1.1325 -1.2028
11078SOL     OW34674   7.920   6.756   5.382 -0.0234 -0.4359  0.2740
11078SOL    HW134675   7.955   6.673   5.349 -1.2871 -1.0635  0.4367
11078SOL    HW234676   7.982   6.784   5.448  0.2208 -1.4688  0.5024
11079SOL     OW34677   3.086   1.843   4.939 -0.1138  0.1121 -0.1140
11079SOL    HW134678   3.167   1.839   4.887 -1.7903 -0.3437 -2.9179
11079SOL    HW234679   3.082   1.933   4.970  0.8184  0.5028 -1.0623
11080SOL     OW34680   2.751   4.092   8.632 -0.5571  0.2055 -0.2921
11080SOL    HW134681   2.808   4.165   8.655 -0.5516  0.5726 -1.3950
11080SOL    HW234682   2.712   4.117   8.548 -0.7371 -0.9487 -0.5793
11081SOL     OW34683   2.448   7.329   8.634 -0.1509 -0.1078 -0.1189
11081SOL    HW134684   2.544   7.337   8.631 -0.2976  2.2171 -0.3044
11081SOL    HW234685   2.419   7.404   8.686 -1.8258 -1.6045  1.2081
11082SOL     OW34686   2.978   5.798   7.693  0.4219 -0.3823 -0.2964
11082SOL    HW134687   2.924   5.720   7.681 -0.0565  0.0933 -1.5010
11082SOL    HW234688   3.039   5.776   7.763 -0.9386 -1.1610  0.6869
11083SOL     OW34689   3.883   5.086   8.075  0.1120  0.4344  0.1236
11083SOL    HW134690   3.813   5.024   8.094  0.2572  0.2550  0.0778
11083SOL    HW234691   3.865   5.161   8.131  1.5146 -0.7747  2.3579
11084SOL     OW34692   2.627   5.938   6.391  0.0557  0.0804  0.2994
11084SOL    HW134693   2.650   5.845   6.392  0.2670  0.1321  0.3108
11084SOL    HW234694   2.669   5.972   6.312  1.2020  0.4660  1.0443
11085SOL     OW34695   6.123   6.754   7.122  0.4094 -0.3831 -0.2794
11085SOL    HW134696   6.185   6.822   7.095  0.5693 -0.0591  0.8682
11085SOL    HW234697   6.175   6.674   7.126  0.7290 -0.1358  0.5578
11086SOL     OW34698   2.290   6.937   8.780 -0.2338  0.2001  0.1624
11086SOL    HW134699   2.207   6.919   8.825  0.5543 -1.7456  0.9384
11086SOL    HW234700   2.354   6.883   8.826  1.1004  0.0992 -1.7082
11087SOL     OW34701   2.508   6.925   9.075 -0.2414  0.3009  0.0700
11087SOL    HW134702   2.428   6.977   9.071 -0.9652 -0.8017 -0.0564
11087SOL    HW234703   2.480   6.840   9.109  0.8429 -0.1599 -0.1591
11088SOL     OW34704   1.460   7.440   8.974 -0.3591  0.0218  0.2454
11088SOL    HW134705   1.453   7.515   8.914  0.5957  0.1400  0.2612
11088SOL    HW234706   1.396   7.377   8.943  0.3268 -0.0422 -1.0951
11089SOL     OW34707   0.061   1.040   8.517 -0.3657  0.1353 -0.3253
11089SOL    HW134708   0.005   1.073   8.587 -0.0131  0.3097 -0.1241
11089SOL    HW234709   0.138   1.096   8.519 -0.4505  0.2843 -1.0040
11090SOL     OW34710   1.366   7.531   7.711 -0.1813 -0.6095  0.1384
11090SOL    HW134711   1.441   7.488   7.670 -0.4031 -0.4210 -0.4650
11090SOL    HW234712   1.306   7.459   7.733 -0.9876 -0.5672 -1.7386
11091SOL     OW34713   2.767   6.396   6.505 -0.3755 -0.3009 -0.2548
11091SOL    HW134714   2.779   6.489   6.523 -1.5382  0.1776 -1.6853
11091SOL    HW234715   2.672   6.386   6.493 -0.2609 -1.6572 -0.1573
11092SOL     OW34716   1.657   4.948  10.312 -0.0825 -0.0186  0.2911
11092SOL    HW134717   1.572   4.917  10.280 -0.8015  1.1843  0.9399
11092SOL    HW234718   1.690   4.876  10.366 -0.9053 -0.3461  0.3815
11093SOL     OW34719   1.633   4.821   7.861  0.0406 -0.4969 -0.2206
11093SOL    HW134720   1.544   4.817   7.827  0.0555  0.2003 -0.3607
11093SOL    HW234721   1.624   4.860   7.948  0.4578  2.6686 -1.4286
11094SOL     OW34722   2.020   6.688   8.617  0.0641 -0.0267 -0.2942
11094SOL    HW134723   2.024   6.659   8.525  1.5830  0.7780 -0.5047
11094SOL    HW234724   1.987   6.778   8.612 -0.5865 -0.2403  0.0275
11095SOL     OW34725   3.821   5.977   8.271 -0.1672  0.3094  0.0554
11095SOL    HW134726   3.785   5.933   8.194 -1.0491 -0.3554  0.8331
11095SOL    HW234727   3.750   5.976   8.335  0.8012  0.1603  1.1557
11096SOL     OW34728   2.178   0.176   7.465 -0.2808 -0.2789  0.8538
11096SOL    HW134729   2.173   0.182   7.369 -0.1345  1.4808  0.9332
11096SOL    HW234730   2.231   0.098   7.481 -2.3283 -2.0621 -0.4220
11097SOL     OW34731   3.675   5.553   7.770  0.1138 -0.0435  0.8763
11097SOL    HW134732   3.639   5.507   7.846 -1.1634  0.8805  0.8555
11097SOL    HW234733   3.634   5.639   7.771  1.2550  0.5490  0.0067
11098SOL     OW34734   3.115   5.755   7.453 -0.2072  0.2227 -0.1723
11098SOL    HW134735   3.112   5.672   7.406 -2.2487  0.3831 -0.4276
11098SOL    HW234736   3.058   5.742   7.529  1.4886  0.6007  1.2272
11099SOL     OW34737   3.311   5.575   8.213 -0.5485  0.0228  0.4462
11099SOL    HW134738   3.261   5.542   8.287 -1.6466 -0.6967 -0.5767
11099SOL    HW234739   3.305   5.671   8.220  2.2699  0.1528  3.1713
11100SOL     OW34740   3.075   4.417  10.222  0.5358  0.3893 -0.5428
11100SOL    HW134741   3.006   4.370  10.175  0.2487 -0.5067  0.7140
11100SOL    HW234742   3.128   4.347  10.262  1.0364  1.1023  0.0575
11101SOL     OW34743   0.424   6.239   7.710 -0.1192 -0.9349  0.4715
11101SOL    HW134744   0.499   6.300   7.711 -1.2347  0.4876  0.6462
11101SOL    HW234745   0.457   6.161   7.754  0.6408  0.4868  2.6037
11102SOL     OW34746   3.613   1.518   6.158 -0.0513  0.2893 -0.1522
11102SOL    HW134747   3.643   1.609   6.148 -0.0336  0.1536 -1.6327
11102SOL    HW234748   3.694   1.467   6.166 -0.0806  0.4847  1.8861
11103SOL     OW34749   2.828   7.105   7.390  0.1085 -0.5110 -0.7850
11103SOL    HW134750   2.749   7.051   7.394 -0.9086  0.8994 -1.1294
11103SOL    HW234751   2.841   7.135   7.480  0.8415 -1.5315 -0.5373
11104SOL     OW34752   3.699   5.293   7.645 -0.1326 -0.1079  0.8305
11104SOL    HW134753   3.694   5.366   7.708 -0.5514 -0.6960  1.4976
11104SOL    HW234754   3.728   5.219   7.698  2.8556  0.1131 -0.3209
11105SOL     OW34755   4.031   7.734   6.908  0.4399 -0.2902  0.0041
11105SOL    HW134756   3.959   7.790   6.938  0.1677  0.3282 -1.7145
11105SOL    HW234757   3.991   7.647   6.898 -0.9663  0.6195 -3.7918
11106SOL     OW34758   0.211   7.526   9.084  0.8010 -0.1801 -0.5213
11106SOL    HW134759   0.186   7.581   9.158  3.0954 -0.0636  0.2410
11106SOL    HW234760   0.153   7.449   9.090 -0.1666  0.5906  0.3705
11107SOL     OW34761   2.618   7.195   7.718  0.4230  0.5450 -0.0785
11107SOL    HW134762   2.545   7.223   7.774 -1.7737 -1.4993 -1.6717
11107SOL    HW234763   2.640   7.107   7.750  0.6519  0.2512 -1.0159
11108SOL     OW34764   4.207   6.043  10.159  0.5875  0.2286  0.0464
11108SOL    HW134765   4.265   5.967  10.153  0.2110 -0.2636  1.9081
11108SOL    HW234766   4.237   6.102  10.090  2.8041 -0.3428  0.4356
11109SOL     OW34767   1.014   7.431   9.451 -0.4103 -0.1611  0.2628
11109SOL    HW134768   0.973   7.471   9.528  0.2916 -0.1933  0.6621
11109SOL    HW234769   1.107   7.453   9.459  0.1885 -2.6290  1.0009
11110SOL     OW34770   4.808   6.293  10.120  0.0926 -0.3919 -0.6405
11110SOL    HW134771   4.857   6.332  10.193 -1.4911 -0.4752  0.5121
11110SOL    HW234772   4.716   6.298  10.147 -0.3057 -3.6619 -1.0503
11111SOL     OW34773   3.473   6.581   7.411 -0.4412 -0.2157 -0.0417
11111SOL    HW134774   3.504   6.661   7.368 -0.6201 -0.3413 -0.4122
11111SOL    HW234775   3.524   6.511   7.372  0.2933 -0.2132  0.8674
11112SOL     OW34776   3.490   7.123   8.503  0.1161  0.4922  0.0610
11112SOL    HW134777   3.572   7.141   8.551  0.5346 -1.9905  0.4136
11112SOL    HW234778   3.424   7.175   8.548  1.4675  2.6187 -0.2677
11113SOL     OW34779   1.184   4.276   9.728 -0.4602  0.2439  0.3575
11113SOL    HW134780   1.168   4.193   9.771  1.8411 -1.5227 -1.8335
11113SOL    HW234781   1.244   4.322   9.786  3.0355 -2.3148 -0.8319
11114SOL     OW34782   4.021   7.639   8.575 -0.3381  0.5602  0.0460
11114SOL    HW134783   4.042   7.548   8.597  0.3495  0.7372  0.1501
11114SOL    HW234784   4.096   7.689   8.607 -0.5147  1.1175 -0.3939
11115SOL     OW34785   2.122   6.058   8.442  0.5256  0.0541 -0.7456
11115SOL    HW134786   2.069   6.121   8.490  0.4464  0.2987 -1.1498
11115SOL    HW234787   2.085   6.058   8.353  1.3647  0.4293 -1.1105
11116SOL     OW34788   3.988   7.275   8.708  0.8999  0.4942 -0.0436
11116SOL    HW134789   3.992   7.343   8.775  1.9050  1.2921 -0.8895
11116SOL    HW234790   4.055   7.299   8.645  0.3754 -0.5688 -1.0442
11117SOL     OW34791   2.050   5.066   7.952  0.0359 -0.2018  0.4102
11117SOL    HW134792   2.062   5.021   7.868 -0.5120 -0.8524  0.6727
11117SOL    HW234793   1.960   5.099   7.949  0.2877  0.5038  0.4039
11118SOL     OW34794   3.966   6.568   7.799 -0.0043 -0.2021 -0.3576
11118SOL    HW134795   4.015   6.487   7.781 -0.0098  0.0071 -1.3641
11118SOL    HW234796   4.033   6.637   7.800 -0.2037  0.0110 -1.2013
11119SOL     OW34797   2.829   5.437   9.333 -0.0301 -0.7381  0.2859
11119SOL    HW134798   2.919   5.460   9.310 -0.4511 -1.2231 -2.1157
11119SOL    HW234799   2.838   5.372   9.403  1.3186  1.5719  2.4446
11120SOL     OW34800   4.449   7.377   8.235 -0.0616 -0.0254  0.4786
11120SOL    HW134801   4.402   7.312   8.183 -1.4839 -0.0585  1.7239
11120SOL    HW234802   4.501   7.327   8.297  3.9354 -0.1083 -2.5272
11121SOL     OW34803   4.258   7.640   9.078 -0.6147 -0.5304 -0.4288
11121SOL    HW134804   4.252   7.546   9.063 -0.2814 -0.8909  1.4846
11121SOL    HW234805   4.280   7.649   9.170 -1.2606  1.4581 -0.4123
11122SOL     OW34806   3.425   5.446   7.334  0.0444 -0.0466 -0.3347
11122SOL    HW134807   3.388   5.399   7.409  0.0400  0.1303 -0.2237
11122SOL    HW234808   3.388   5.403   7.258 -1.7817  1.2042 -0.2184
11123SOL     OW34809   5.379   5.742   8.332  0.4517  0.3885  0.6119
11123SOL    HW134810   5.453   5.713   8.385  1.6176  1.2919 -0.4548
11123SOL    HW234811   5.326   5.663   8.318  0.7546 -0.0987  2.0687
11124SOL     OW34812   0.789   6.532   8.642  0.2985 -0.5590  0.3689
11124SOL    HW134813   0.835   6.460   8.600 -0.1378 -1.0950  0.7877
11124SOL    HW234814   0.698   6.522   8.613 -0.0144 -0.9618  1.4608
11125SOL     OW34815   1.996   7.420   7.646 -0.2870  0.0715 -0.1029
11125SOL    HW134816   2.040   7.336   7.656 -2.0218 -0.6036  3.4878
11125SOL    HW234817   1.906   7.398   7.626 -0.8388  1.0024  1.2016
11126SOL     OW34818   3.458   6.236   7.419  0.2848  0.5177  0.1138
11126SOL    HW134819   3.511   6.157   7.420  1.5248  1.2983 -0.2774
11126SOL    HW234820   3.381   6.215   7.471  0.4200 -1.0423 -0.2695
11127SOL     OW34821   3.861   7.032   9.835 -0.2832 -0.0492  0.7717
11127SOL    HW134822   3.924   7.102   9.819  0.0344 -0.7005 -1.0276
11127SOL    HW234823   3.779   7.065   9.798 -0.3559 -0.2570  0.7479
11128SOL     OW34824   3.708   5.181   8.316  0.0855 -0.0427 -0.2661
11128SOL    HW134825   3.630   5.237   8.317 -0.3445 -0.5785 -1.4107
11128SOL    HW234826   3.674   5.094   8.295  0.9881 -0.2834 -0.7523
11129SOL     OW34827   3.230   5.308   7.533  0.3906  0.3678  0.2368
11129SOL    HW134828   3.220   5.223   7.492 -1.2475 -0.5822  2.4342
11129SOL    HW234829   3.296   5.294   7.601 -1.4450  0.1952  2.0690
11130SOL     OW34830   1.529   7.826   8.057  0.2658 -0.0092 -0.0962
11130SOL    HW134831   1.460   7.860   8.115  0.0227  0.2241 -0.5183
11130SOL    HW234832   1.609   7.870   8.087  0.2934 -0.5052  0.5900
11131SOL     OW34833   1.277   7.804   7.791 -0.0402 -0.2847 -0.1941
11131SOL    HW134834   1.301   7.723   7.748  1.1068  0.3025 -0.7125
11131SOL    HW234835   1.354   7.827   7.844 -0.0896  0.7582 -0.5370
11132SOL     OW34836   4.964   0.319   9.548  0.5966 -0.0043 -0.1895
11132SOL    HW134837   5.000   0.256   9.611  0.5690  0.7934  0.6344
11132SOL    HW234838   5.039   0.370   9.518  0.3734  0.7003  0.4374
11133SOL     OW34839   2.542   1.121   8.212 -0.2583  0.2784  0.4549
11133SOL    HW134840   2.594   1.179   8.268  0.5356 -0.2721  0.3065
11133SOL    HW234841   2.512   1.176   8.140  2.9997 -0.0666 -1.3440
11134SOL     OW34842   2.941   0.045   8.399  0.4356  0.6364  0.6021
11134SOL    HW134843   3.028   0.046   8.437  2.8481  1.3002 -4.1332
11134SOL    HW234844   2.926  -0.046   8.375  1.1213  0.8634 -0.8464
11135SOL     OW34845   4.598   6.154   6.252  0.4045 -0.1398  0.0898
11135SOL    HW134846   4.573   6.109   6.333  0.2057 -2.3023 -1.0871
11135SOL    HW234847   4.559   6.240   6.260 -0.1045 -0.4874  2.0395
11136SOL     OW34848   1.273   6.207  10.295  0.1639  0.1699  0.3199
11136SOL    HW134849   1.333   6.248  10.357  0.3681 -1.1237  1.0370
11136SOL    HW234850   1.291   6.113  10.304 -0.9242 -0.1428 -0.5501
11137SOL     OW34851   1.142   6.259   5.851 -0.2699 -0.2992  0.5007
11137SOL    HW134852   1.228   6.285   5.882 -0.9071 -0.1631  2.2940
11137SOL    HW234853   1.100   6.341   5.826 -0.6178 -0.1033  1.6775
11138SOL     OW34854   2.824   7.143   8.880 -0.1990 -0.1545  0.3810
11138SOL    HW134855   2.790   7.053   8.885  1.6884 -1.0886 -1.5531
11138SOL    HW234856   2.788   7.177   8.798 -1.8353  1.3547  1.6579
11139SOL     OW34857   3.358   5.861   8.211  0.2659 -0.2645  0.3330
11139SOL    HW134858   3.347   5.902   8.125 -0.0367 -0.5646  0.2271
11139SOL    HW234859   3.354   5.934   8.273  1.7479  0.1232  0.0217
11140SOL     OW34860   2.021   6.778   6.433 -0.5090 -0.2648  0.7623
11140SOL    HW134861   1.949   6.792   6.372 -0.4578 -0.6092  0.6194
11140SOL    HW234862   2.006   6.690   6.469 -0.2583 -0.2699  0.8588
11141SOL     OW34863   3.911   5.447   6.592 -0.4247  0.1512  0.1132
11141SOL    HW134864   3.931   5.421   6.502 -2.8323  0.3802 -0.5781
11141SOL    HW234865   3.929   5.369   6.645  0.5285 -0.1527 -0.6357
11142SOL     OW34866   2.361   7.671   9.925 -0.2699  0.1243  0.4480
11142SOL    HW134867   2.305   7.685   9.848 -2.6903  0.1008  2.0968
11142SOL    HW234868   2.379   7.759   9.958 -0.9443  0.0652  0.9883
11143SOL     OW34869   3.905   6.846   8.535 -0.5336 -0.5389  0.1396
11143SOL    HW134870   3.880   6.863   8.444 -0.3335  1.0333  0.3455
11143SOL    HW234871   3.840   6.784   8.567 -1.9102  0.5303 -0.4725
11144SOL     OW34872   2.198   6.420   8.346  0.2354 -0.0782  0.3774
11144SOL    HW134873   2.260   6.348   8.340 -1.6679 -1.6862 -2.5090
11144SOL    HW234874   2.248   6.497   8.321  1.1181 -1.4274 -2.5332
11145SOL     OW34875   2.545   5.553   7.814  0.0843  0.1827 -0.4897
11145SOL    HW134876   2.588   5.591   7.890  0.6214  1.1430 -1.2448
11145SOL    HW234877   2.528   5.462   7.838  0.5950  0.3692  0.6165
11146SOL     OW34878   1.560   3.849   5.490  0.5218 -0.0317 -0.0131
11146SOL    HW134879   1.617   3.846   5.413  1.0670  0.4583  0.3712
11146SOL    HW234880   1.528   3.760   5.499 -0.1566  0.0617 -1.2669
11147SOL     OW34881   4.491   6.771   7.474  0.1888 -0.7176  0.1849
11147SOL    HW134882   4.547   6.695   7.460  0.0348 -0.6969 -0.6065
11147SOL    HW234883   4.550   6.845   7.474  0.5461 -0.9149  2.4792
11148SOL     OW34884   2.845   6.812   7.636 -0.1627  0.2753  0.2853
11148SOL    HW134885   2.811   6.724   7.650  1.9170 -0.7609 -0.7507
11148SOL    HW234886   2.767   6.867   7.626 -1.6083 -2.0823 -2.8846
11149SOL     OW34887   3.410   6.125   6.762  0.1017 -0.0617 -0.2760
11149SOL    HW134888   3.339   6.073   6.799  0.2515 -0.4477 -0.5244
11149SOL    HW234889   3.395   6.123   6.668  0.1728  0.2520 -0.2953
11150SOL     OW34890   2.085   6.274   7.628 -0.0648 -0.1058  0.1840
11150SOL    HW134891   2.055   6.362   7.605 -1.8863 -0.7707 -0.1428
11150SOL    HW234892   2.104   6.232   7.544  1.6750  0.2255  0.3740
11151SOL     OW34893   5.276   6.957   9.197  0.9966  0.1904 -0.0377
11151SOL    HW134894   5.222   6.953   9.275  2.3498 -0.0722  0.9209
11151SOL    HW234895   5.229   6.904   9.132 -1.6422  2.7607 -0.4284
11152SOL     OW34896   2.589   5.374   7.056 -0.1991  0.3591  0.4466
11152SOL    HW134897   2.603   5.293   7.106  1.9545  0.9785  0.9237
11152SOL    HW234898   2.631   5.358   6.972  1.1823  1.3194  0.9234
11153SOL     OW34899   3.371   7.019   8.770  0.0896  0.8303 -0.5928
11153SOL    HW134900   3.462   7.030   8.798  0.8733 -1.9589 -1.7867
11153SOL    HW234901   3.344   6.935   8.808 -1.2315  0.5247 -2.1214
11154SOL     OW34902   1.219   7.212   9.161  0.0317 -0.2429 -1.1892
11154SOL    HW134903   1.136   7.167   9.178  0.8635 -1.9151 -1.4223
11154SOL    HW234904   1.196   7.305   9.167 -1.5817 -0.6556  0.0943
11155SOL     OW34905   2.383   7.850   6.516  0.1476 -0.5302 -0.3873
11155SOL    HW134906   2.441   7.815   6.448 -0.1648 -0.4095 -0.7200
11155SOL    HW234907   2.434   7.845   6.596  0.1569 -1.6457 -0.4457
11156SOL     OW34908   2.068   7.718   8.919  0.0462 -0.2288  0.0215
11156SOL    HW134909   2.151   7.744   8.959 -0.6629  0.4190  1.1001
11156SOL    HW234910   2.013   7.796   8.925 -1.0045 -0.9782  0.3051
11157SOL     OW34911   3.131   7.008   8.630 -0.0606 -0.2041  0.3502
11157SOL    HW134912   3.223   6.985   8.612 -0.0180  0.3693 -0.2189
11157SOL    HW234913   3.131   7.037   8.721  0.1997 -0.8001  0.5514
11158SOL     OW34914   4.181   6.724   7.615  0.4757  0.8049  0.0909
11158SOL    HW134915   4.271   6.690   7.622  0.0247 -0.5241 -0.2757
11158SOL    HW234916   4.188   6.815   7.644  1.8907  0.6443  0.3512
11159SOL     OW34917   4.049   6.309   7.753  0.2320 -0.3930 -0.1278
11159SOL    HW134918   4.101   6.230   7.761 -0.4926 -0.9374 -0.6954
11159SOL    HW234919   3.960   6.282   7.776  0.2937  0.6907  1.6014
11160SOL     OW34920   2.699   5.289   7.512 -0.1652  0.0956  0.4185
11160SOL    HW134921   2.742   5.218   7.466 -1.3474  0.3397 -1.1505
11160SOL    HW234922   2.756   5.308   7.586  1.3151 -0.9598 -0.4077
11161SOL     OW34923   0.649   5.376   9.370  0.1543 -0.0246  0.3623
11161SOL    HW134924   0.712   5.395   9.300  1.1855  0.0899  1.2749
11161SOL    HW234925   0.581   5.325   9.328  0.5833  0.3041 -0.7894
11162SOL     OW34926   0.331   7.129   9.601 -0.1053  0.1743 -0.1078
11162SOL    HW134927   0.388   7.091   9.533  0.8851 -0.6320  1.1266
11162SOL    HW234928   0.256   7.071   9.605 -0.2130  0.2725 -0.5426
11163SOL     OW34929   2.750   0.394   6.064  0.3852  0.0639 -0.4571
11163SOL    HW134930   2.845   0.399   6.074  0.3263 -1.5515  1.5709
11163SOL    HW234931   2.719   0.363   6.149 -1.7317 -1.7764 -1.8049
11164SOL     OW34932   3.452   6.521   8.010 -0.3573  0.6766  0.1596
11164SOL    HW134933   3.414   6.575   7.941 -0.3213  0.4640 -0.0301
11164SOL    HW234934   3.546   6.539   8.006 -0.3275  0.5014  0.0029
11165SOL     OW34935   4.162   6.994   7.694 -0.0233  0.0303  0.2082
11165SOL    HW134936   4.076   6.984   7.736 -0.1127 -0.7459 -0.1429
11165SOL    HW234937   4.145   7.051   7.619 -0.0660  0.5474  0.6004
11166SOL     OW34938   2.807   5.834   8.545  0.3144 -0.4735 -0.3262
11166SOL    HW134939   2.780   5.744   8.561 -1.6778  0.2130  0.5116
11166SOL    HW234940   2.838   5.865   8.631 -0.5165  0.0782 -0.2068
11167SOL     OW34941   5.638   7.448   6.928  0.0314  0.3913  0.2957
11167SOL    HW134942   5.557   7.399   6.939 -0.8268  1.8892  1.0422
11167SOL    HW234943   5.701   7.404   6.986 -0.3367 -0.5463  0.0052
11168SOL     OW34944   1.807   7.302   7.293  0.1520  0.0339 -0.1802
11168SOL    HW134945   1.728   7.350   7.268  0.0517 -0.1415 -0.2023
11168SOL    HW234946   1.878   7.347   7.248 -0.1198 -0.7923 -1.4787
11169SOL     OW34947   4.749   6.355   7.727  0.5066 -0.2463  1.1046
11169SOL    HW134948   4.746   6.303   7.808 -2.8817 -0.0073  1.2841
11169SOL    HW234949   4.736   6.445   7.755  0.6186 -0.0002  0.3878
11170SOL     OW34950   3.024   6.072   5.737  0.4108  1.1657 -0.5587
11170SOL    HW134951   3.003   6.103   5.648  0.8255 -0.0475 -1.0904
11170SOL    HW234952   3.035   5.978   5.728 -2.4865  0.5278  1.3352
11171SOL     OW34953   3.204   6.644   7.866  0.3869  1.0171 -0.2688
11171SOL    HW134954   3.136   6.585   7.836  0.5655  0.5603  0.2026
11171SOL    HW234955   3.268   6.646   7.796  1.2114 -0.6914  0.3941
11172SOL     OW34956   3.852   5.571   9.375  0.5977  0.3906  0.0813
11172SOL    HW134957   3.831   5.501   9.313  0.1624 -0.1906  0.8796
11172SOL    HW234958   3.943   5.555   9.399  0.8722  0.8142 -0.6586
11173SOL     OW34959   1.238   0.578   8.481  0.2399 -0.3646 -0.0991
11173SOL    HW134960   1.280   0.659   8.509  1.9538 -0.9675 -0.7721
11173SOL    HW234961   1.287   0.552   8.403 -0.1509 -2.1355  0.2093
11174SOL     OW34962   4.002   7.172  11.002 -0.2310 -0.0794 -0.4810
11174SOL    HW134963   4.091   7.150  11.030 -0.2765 -0.7404 -0.8465
11174SOL    HW234964   3.951   7.092  11.019 -0.4929 -0.1127 -1.4039
11175SOL     OW34965   4.054   5.250   7.644  0.5212  0.8802 -0.0212
11175SOL    HW134966   3.991   5.271   7.574  0.3079  2.0625  0.5082
11175SOL    HW234967   4.140   5.265   7.604  0.5267 -1.0031 -0.8328
11176SOL     OW34968   3.216   7.228   9.312  0.6754 -0.3761  0.7284
11176SOL    HW134969   3.295   7.237   9.259 -0.2936  1.6491 -0.4855
11176SOL    HW234970   3.173   7.149   9.278 -0.0511  1.0168 -1.8001
11177SOL     OW34971   1.572   5.882   7.988 -0.5064 -0.1545  0.5319
11177SOL    HW134972   1.489   5.865   8.034 -0.9539 -0.8880 -0.5158
11177SOL    HW234973   1.604   5.795   7.963 -0.8692  0.2736 -1.5530
11178SOL     OW34974   2.097   6.266  10.089  0.1758  0.0895 -0.0882
11178SOL    HW134975   2.024   6.314  10.049 -0.4653 -0.5219  0.3467
11178SOL    HW234976   2.105   6.187  10.036 -0.8182 -0.8300  1.1082
11179SOL     OW34977   3.246   7.343   6.455 -0.0430  0.1683  0.8641
11179SOL    HW134978   3.225   7.333   6.363  1.2729 -0.4584  0.6043
11179SOL    HW234979   3.202   7.270   6.498  1.0380 -0.7924  0.4112
11180SOL     OW34980   2.842   6.532   8.301  0.2235 -0.0801 -0.3644
11180SOL    HW134981   2.777   6.562   8.364 -0.8263  0.8117 -1.8211
11180SOL    HW234982   2.792   6.485   8.235  1.0434  0.6003 -1.5044
11181SOL     OW34983   4.571   5.812   9.315 -0.7185 -0.5854  0.0079
11181SOL    HW134984   4.583   5.794   9.221 -0.6429  0.4928 -0.2068
11181SOL    HW234985   4.495   5.760   9.340 -2.0418  0.7138 -1.1596
11182SOL     OW34986   1.798   0.441   9.374 -0.5313  0.0090 -0.2168
11182SOL    HW134987   1.787   0.493   9.454 -0.4452 -0.2124 -0.0600
11182SOL    HW234988   1.722   0.382   9.374  0.3210 -1.1487  0.5833
11183SOL     OW34989   3.713   6.652   8.624 -0.3645  0.3535 -0.2775
11183SOL    HW134990   3.775   6.590   8.659  1.9371  2.0153 -1.1725
11183SOL    HW234991   3.701   6.625   8.532  1.0485  1.4419 -0.8198
11184SOL     OW34992   2.857   6.005   7.523 -0.1116  0.2374 -0.3394
11184SOL    HW134993   2.876   5.995   7.430  1.5288  0.5382 -0.0708
11184SOL    HW234994   2.909   5.937   7.566  0.7940  1.3760  0.4751
11185SOL     OW34995   2.174   0.014   6.480  0.4000 -0.8849 -0.1468
11185SOL    HW134996   2.257  -0.026   6.507  0.9907 -0.2331 -0.9646
11185SOL    HW234997   2.192   0.108   6.478 -0.6913 -0.6337  0.7756
11186SOL     OW34998   4.785   4.466  10.514  0.3347 -0.2390 -0.1590
11186SOL    HW134999   4.750   4.501  10.596 -1.8046 -0.2337 -1.0038
11186SOL    HW235000   4.769   4.372  10.518  0.1217 -0.2249 -0.6130
11187SOL     OW35001   5.660   7.190   7.805 -0.7354  0.2698  0.3241
11187SOL    HW135002   5.589   7.191   7.870 -0.6740  1.6659  0.4118
11187SOL    HW235003   5.731   7.239   7.847 -0.4898  0.7020 -0.5787
11188SOL     OW35004   2.147   0.225   8.802 -0.4220  0.0133 -0.3471
11188SOL    HW135005   2.152   0.165   8.727 -1.8578 -0.5899 -0.0054
11188SOL    HW235006   2.222   0.283   8.792  1.7112 -2.5369 -0.0761
11189SOL     OW35007   3.501   6.257   8.130  0.3612  0.6293 -0.0368
11189SOL    HW135008   3.590   6.276   8.159 -0.6573  4.2929  1.1510
11189SOL    HW235009   3.480   6.328   8.069 -1.4329 -0.7500 -1.1359
11190SOL     OW35010   4.406   5.040   8.848  0.0817 -0.3973 -0.8074
11190SOL    HW135011   4.374   5.042   8.938  0.2897  0.1456 -0.7389
11190SOL    HW235012   4.361   4.966   8.807 -0.3198 -0.3947 -0.3724
11191SOL     OW35013   2.463   5.314   8.690 -0.4242 -0.0479  0.0674
11191SOL    HW135014   2.487   5.230   8.649  2.6530  1.0797 -0.7418
11191SOL    HW235015   2.502   5.310   8.777  3.0566  1.7624 -1.2073
11192SOL     OW35016   2.905   5.519   9.652 -0.0468  0.8189 -0.3181
11192SOL    HW135017   2.859   5.479   9.726  0.9849 -2.6443 -1.3509
11192SOL    HW235018   2.990   5.545   9.687 -0.6220  1.8808  0.3179
11193SOL     OW35019   5.034   5.581   8.481  0.0214 -0.0288 -0.2663
11193SOL    HW135020   5.118   5.592   8.436 -0.7684  2.2393 -1.3866
11193SOL    HW235021   5.033   5.652   8.546 -0.8293 -0.3029  0.0277
11194SOL     OW35022   1.974   6.762   5.920 -0.4394 -0.0175 -0.3489
11194SOL    HW135023   2.040   6.749   5.852 -0.8418 -0.0121 -0.7420
11194SOL    HW235024   2.013   6.826   5.980 -0.6198  0.9890 -1.2918
11195SOL     OW35025   1.086   4.524   9.996  0.1170 -0.2590  0.2051
11195SOL    HW135026   1.091   4.594  10.061  0.5214 -0.9698  0.9547
11195SOL    HW235027   1.177   4.499   9.981 -0.1244 -2.3306  1.8468
11196SOL     OW35028   2.613   7.052   8.436  0.3567  0.0366 -0.0573
11196SOL    HW135029   2.575   7.137   8.415 -0.9231 -0.8332 -1.4832
11196SOL    HW235030   2.688   7.044   8.376 -0.7322 -0.6408 -1.3919
11197SOL     OW35031   2.569   5.268   8.942 -0.1055  0.0361  0.9951
11197SOL    HW135032   2.537   5.179   8.957 -2.7613  0.9356  1.1645
11197SOL    HW235033   2.620   5.288   9.021 -0.0099 -1.0833  1.2420
11198SOL     OW35034   4.478   5.286   9.138 -0.0717  0.2486 -0.2253
11198SOL    HW135035   4.511   5.346   9.072  1.7189  0.0195  0.4078
11198SOL    HW235036   4.389   5.266   9.110  0.8853 -0.4745 -3.0174
11199SOL     OW35037   4.068   0.001   8.075 -0.2551 -0.2307  0.4204
11199SOL    HW135038   4.158  -0.007   8.107 -0.1894  0.5313  0.4457
11199SOL    HW235039   4.074  -0.023   7.982 -0.5883 -3.2860  1.0642
11200SOL     OW35040   4.334   5.492   8.414 -0.1521 -0.1663  0.0817
11200SOL    HW135041   4.340   5.513   8.321  2.2519  0.0493  0.2138
11200SOL    HW235042   4.385   5.560   8.457 -0.2017 -0.9524  1.4417
11201SOL     OW35043   3.174   5.499   8.424 -0.2751  0.0398  0.0331
11201SOL    HW135044   3.225   5.424   8.454  0.1947 -0.0036 -0.8636
11201SOL    HW235045   3.160   5.551   8.503 -0.4943 -0.9156  0.6444
11202SOL     OW35046   3.592   6.085   8.755  1.1305 -0.1704  0.0253
11202SOL    HW135047   3.682   6.073   8.785  0.1727 -1.5370  2.7531
11202SOL    HW235048   3.540   6.028   8.812 -1.8202  2.9304  0.7701
11203SOL     OW35049   3.274   6.127   7.627  0.0222 -0.6609  0.8055
11203SOL    HW135050   3.343   6.179   7.670 -1.4855 -0.2762  2.8777
11203SOL    HW235051   3.277   6.042   7.671 -0.2186 -0.9546  0.2590
11204SOL     OW35052   1.767   5.072   9.845 -0.6000  0.2245  1.0871
11204SOL    HW135053   1.763   5.020   9.765  1.8105  1.0949  0.3168
11204SOL    HW235054   1.796   5.010   9.912 -2.8741 -0.5679  1.4377
11205SOL     OW35055   4.993   4.938   6.775  0.5110 -0.3453  0.6572
11205SOL    HW135056   4.981   4.891   6.692 -1.2888 -2.0845  1.7922
11205SOL    HW235057   4.954   5.024   6.760 -0.0762 -0.7500 -0.2251
11206SOL     OW35058   3.239   5.084   7.091 -0.1781  0.4793  0.0932
11206SOL    HW135059   3.250   5.006   7.145  0.1548  0.6064  0.2148
11206SOL    HW235060   3.289   5.066   7.012 -2.1926 -0.4860 -1.0392
11207SOL     OW35061   4.139   5.848   7.419 -0.3812 -0.3883  0.2910
11207SOL    HW135062   4.089   5.871   7.341 -1.4114 -0.1037  1.0090
11207SOL    HW235063   4.229   5.836   7.388 -0.1247  2.7565 -0.4601
11208SOL     OW35064   2.754   1.443   8.832  0.2152  0.7935  0.3666
11208SOL    HW135065   2.721   1.357   8.805  1.4552  0.4993 -0.2729
11208SOL    HW235066   2.720   1.455   8.921  3.8156 -2.5162  2.4995
11209SOL     OW35067   3.272   6.580   7.078 -0.0557  0.2637  0.1537
11209SOL    HW135068   3.250   6.558   7.169  0.4808 -0.9026  0.0087
11209SOL    HW235069   3.328   6.657   7.085  0.5979 -0.2698  0.8590
11210SOL     OW35070   2.157   5.613   8.440 -0.0641 -0.1304  0.2518
11210SOL    HW135071   2.084   5.627   8.380 -0.0119  0.3791  0.3004
11210SOL    HW235072   2.217   5.556   8.392 -0.1298  0.0890 -0.0964
11211SOL     OW35073   3.052   4.983   8.352 -0.1689 -0.2201  0.4905
11211SOL    HW135074   3.124   4.944   8.401  0.4540  0.0802 -0.1638
11211SOL    HW235075   2.975   4.970   8.408  0.1511 -1.6731  0.6335
11212SOL     OW35076   1.957   7.651   7.779 -0.1341  0.2455  0.3896
11212SOL    HW135077   1.959   7.566   7.736 -1.3284  0.4396 -0.0851
11212SOL    HW235078   1.884   7.697   7.738  1.4066  2.0819 -0.4456
11213SOL     OW35079   1.907   0.417   8.845 -0.6042  0.0360  0.1964
11213SOL    HW135080   1.962   0.490   8.875 -0.8884  0.2427  0.2284
11213SOL    HW235081   1.969   0.350   8.816 -0.3127 -0.2791  1.4937
11214SOL     OW35082   3.302   6.449   6.655 -0.1483  0.6472 -0.5552
11214SOL    HW135083   3.212   6.458   6.686  0.2101  0.7616  0.4835
11214SOL    HW235084   3.300   6.374   6.596 -0.7864  0.2136  0.0089
11215SOL     OW35085   3.916   5.375   7.948 -0.0535 -0.1108  0.3921
11215SOL    HW135086   3.924   5.465   7.979 -1.7395 -0.0147  0.6431
11215SOL    HW235087   3.822   5.360   7.942  0.1982 -1.8413  0.2875
11216SOL     OW35088   1.827   0.289   8.250  0.1018  0.3782 -0.0708
11216SOL    HW135089   1.765   0.320   8.184  0.1049  0.7409  0.0934
11216SOL    HW235090   1.793   0.323   8.333 -1.4777 -2.3727  0.5375
11217SOL     OW35091   1.309   5.304   8.114  0.1462 -0.0396 -0.1965
11217SOL    HW135092   1.349   5.231   8.066 -0.7983 -1.0773  0.5517
11217SOL    HW235093   1.366   5.318   8.189  0.3402  0.0141 -0.3515
11218SOL     OW35094   2.667   5.161   8.276 -0.1029 -0.0576  0.6005
11218SOL    HW135095   2.603   5.104   8.232  0.9567 -0.1952 -0.8390
11218SOL    HW235096   2.733   5.101   8.311  1.2001  0.2402 -1.2168
11219SOL     OW35097   2.522   4.477   8.081  0.0620 -0.1812  0.1222
11219SOL    HW135098   2.523   4.573   8.076  0.8201 -0.1709  0.2906
11219SOL    HW235099   2.613   4.452   8.064 -0.2053 -0.8958 -0.3049
11220SOL     OW35100   3.093   5.580   8.697 -0.5354  0.3603  0.0679
11220SOL    HW135101   3.048   5.500   8.669 -1.1784  1.2117 -1.4316
11220SOL    HW235102   3.137   5.555   8.779 -2.0807 -1.0533  0.5166
11221SOL     OW35103   2.884   7.750   8.684 -0.2605  0.0279 -0.0930
11221SOL    HW135104   2.798   7.760   8.724 -0.0224  0.2908  0.3609
11221SOL    HW235105   2.933   7.827   8.712  0.9007 -1.2839  1.6620
11222SOL     OW35106   3.552   6.178   5.511  0.0614  0.2448 -0.3651
11222SOL    HW135107   3.580   6.093   5.544  1.3660  1.2928  1.4445
11222SOL    HW235108   3.583   6.180   5.420  0.9306 -0.8183 -0.1103
11223SOL     OW35109   3.099   6.651   8.106  0.4131 -0.2195 -0.3234
11223SOL    HW135110   3.136   6.734   8.135  0.0354  0.0325 -0.5423
11223SOL    HW235111   3.142   6.634   8.022 -1.9109  1.5115 -2.0285
11224SOL     OW35112   2.116   5.357   8.911  0.7683  0.2983 -0.0042
11224SOL    HW135113   2.047   5.416   8.942  0.4063  0.3879 -0.9346
11224SOL    HW235114   2.198   5.402   8.933  0.5304  0.2972  0.9060
11225SOL     OW35115   1.001   6.991   8.316 -0.1760  0.0371 -0.5016
11225SOL    HW135116   1.094   6.995   8.337 -0.1361 -1.2003 -0.3320
11225SOL    HW235117   0.958   7.022   8.395  0.0643 -1.5526  0.3112
11226SOL     OW35118   3.008   5.095   6.759 -0.4862 -0.1899 -0.1248
11226SOL    HW135119   3.085   5.037   6.754  1.4434  2.2296 -0.3515
11226SOL    HW235120   2.963   5.082   6.676 -0.4276 -1.7303  0.0528
11227SOL     OW35121   2.891   5.122   7.397 -0.6212  0.2895  0.0225
11227SOL    HW135122   2.974   5.090   7.431 -1.6661 -0.6499  1.8319
11227SOL    HW235123   2.888   5.090   7.307  0.6795 -0.1896  0.1283
11228SOL     OW35124   3.957   7.709   9.274  0.0841 -0.3679 -0.0227
11228SOL    HW135125   4.000   7.755   9.202 -1.4382 -0.5624 -1.0909
11228SOL    HW235126   3.885   7.662   9.233 -0.3413 -1.1215  1.5253
11229SOL     OW35127   4.339   0.009   8.129 -0.1606  0.7998 -0.2674
11229SOL    HW135128   4.396   0.045   8.197 -0.3366 -1.2149  1.0639
11229SOL    HW235129   4.396  -0.046   8.076 -0.3537  0.9148 -0.5918
11230SOL     OW35130   1.695   7.720   7.778  0.1802  0.3424 -0.1028
11230SOL    HW135131   1.625   7.671   7.821 -0.3553  0.2768 -1.0370
11230SOL    HW235132   1.721   7.786   7.843 -0.7676  0.3808  0.2479
11231SOL     OW35133   2.537   8.000   9.535  0.3505 -0.7890 -0.3965
11231SOL    HW135134   2.609   7.943   9.562  1.4746 -0.2586 -2.1338
11231SOL    HW235135   2.466   7.979   9.596  1.1322 -3.1424 -0.2029
11232SOL     OW35136   4.326   5.269   7.520  0.4319  0.5711 -0.5734
11232SOL    HW135137   4.300   5.177   7.525  3.2883 -0.2442  1.8413
11232SOL    HW235138   4.348   5.283   7.427 -0.2546 -1.0780 -1.0180
11233SOL     OW35139   4.465   6.798   8.766 -0.4926  0.3869  0.5077
11233SOL    HW135140   4.517   6.734   8.717 -0.2381  0.4929  0.6393
11233SOL    HW235141   4.377   6.759   8.770 -1.2215  1.5587 -2.2794
11234SOL     OW35142   3.355   5.501   7.954  0.3881 -0.0722  0.9829
11234SOL    HW135143   3.354   5.550   8.036 -1.4024  1.9394 -0.1164
11234SOL    HW235144   3.304   5.422   7.972 -0.1536  0.4477  1.7627
11235SOL     OW35145   2.131   0.055   8.310  0.3788  0.0474  0.1094
11235SOL    HW135146   2.193   0.029   8.241  0.0466  2.0244 -1.0241
11235SOL    HW235147   2.153   0.146   8.328 -0.0575 -0.2079  2.1325
11236SOL     OW35148   3.583   5.444   8.197 -0.2638  0.1144  0.0582
11236SOL    HW135149   3.591   5.528   8.242 -0.4563 -0.3529  0.9905
11236SOL    HW235150   3.490   5.435   8.178 -0.1764  0.3326 -0.4913
11237SOL     OW35151   1.262   0.105   6.189 -0.0966  0.1690  0.1086
11237SOL    HW135152   1.280   0.071   6.101 -1.8554  1.2859 -0.7287
11237SOL    HW235153   1.201   0.042   6.227  0.2186 -0.0068  0.3337
11238SOL     OW35154   3.862   7.508  12.003  0.2771  0.4201  0.2195
11238SOL    HW135155   3.768   7.518  12.014 -0.1552  0.0063 -2.4534
11238SOL    HW235156   3.879   7.531  11.912  2.5175 -1.0238  0.1702
11239SOL     OW35157   4.843   5.101   7.961  0.1033  0.2652  0.0041
11239SOL    HW135158   4.909   5.090   8.028 -0.0295  0.7639  0.2269
11239SOL    HW235159   4.884   5.157   7.896  0.1491 -0.0196 -0.2126
11240SOL     OW35160   1.828   6.328   6.820  0.3800  0.1861  0.3775
11240SOL    HW135161   1.887   6.301   6.891 -0.8515 -0.4283  1.1855
11240SOL    HW235162   1.768   6.255   6.809 -1.0398  1.3047  0.4397
11241SOL     OW35163   4.541   7.633   4.919  0.3398 -0.3677 -0.0833
11241SOL    HW135164   4.623   7.586   4.909  1.1388  0.8607  0.4031
11241SOL    HW235165   4.515   7.619   5.009 -0.5014 -1.5295 -0.4891
11242SOL     OW35166   1.892   7.906   7.436 -0.0774 -0.4536 -0.6582
11242SOL    HW135167   1.826   7.844   7.404  0.3227  0.0550 -2.5965
11242SOL    HW235168   1.966   7.851   7.462 -1.4828 -1.1012  2.3681
11243SOL     OW35169   4.795   6.208   7.969 -0.0449 -0.6187  0.5623
11243SOL    HW135170   4.785   6.112   7.968 -1.5799 -0.4800  0.1177
11243SOL    HW235171   4.842   6.226   8.051 -0.1879 -1.7131  0.9075
11244SOL     OW35172   4.139   7.288   6.449  0.0101 -0.5197  0.1302
11244SOL    HW135173   4.045   7.289   6.463  0.1294 -1.0094  1.0201
11244SOL    HW235174   4.164   7.196   6.457  0.4912 -0.4730 -0.6591
11245SOL     OW35175   1.853   0.344   9.700  0.4915  0.2910  0.2279
11245SOL    HW135176   1.922   0.355   9.766  4.7242 -0.8480 -3.4957
11245SOL    HW235177   1.839   0.250   9.695 -0.9408  0.4733  0.4767
11246SOL     OW35178   5.909   6.583   9.059  0.2261  0.6155 -0.0085
11246SOL    HW135179   5.925   6.511   8.998  0.4277  0.4831  0.1979
11246SOL    HW235180   5.957   6.657   9.023  1.4663  0.1802  0.6889
11247SOL     OW35181   4.221   5.540   6.800  0.2581 -0.4313 -0.2677
11247SOL    HW135182   4.221   5.446   6.786  1.5453 -0.8420  1.9805
11247SOL    HW235183   4.302   5.571   6.759 -0.1159 -0.3084 -0.9204
11248SOL     OW35184   1.254   6.398   8.048 -0.1388  0.3240  0.0037
11248SOL    HW135185   1.233   6.489   8.066  0.2950  0.5731 -0.7018
11248SOL    HW235186   1.336   6.402   7.997 -0.8499 -0.3737 -1.2354
11249SOL     OW35187   3.203   6.813   7.631 -0.1969 -0.3792  0.3020
11249SOL    HW135188   3.157   6.730   7.628 -0.3949 -0.2965  1.0226
11249SOL    HW235189   3.168   6.862   7.556  1.0215 -1.4884 -1.0734
11250SOL     OW35190   4.712   5.854   9.606 -0.0137  0.0216 -0.2840
11250SOL    HW135191   4.708   5.758   9.605 -2.3219  0.0609 -1.7987
11250SOL    HW235192   4.708   5.879   9.514 -2.2640  1.5699  0.1399
11251SOL     OW35193   3.770   7.693   7.844 -0.4272  0.1060  0.0817
11251SOL    HW135194   3.831   7.642   7.898 -0.0231 -1.3204 -1.6179
11251SOL    HW235195   3.790   7.784   7.865  2.7990 -0.2644 -0.8586
11252SOL     OW35196   3.827   7.816   8.714  0.2501 -0.0781  0.2823
11252SOL    HW135197   3.792   7.884   8.655  1.0340  0.0258 -0.0786
11252SOL    HW235198   3.877   7.758   8.656 -0.0507 -0.7201  0.6557
11253SOL     OW35199   3.559   6.085   9.568 -0.2818 -0.2225 -0.4619
11253SOL    HW135200   3.628   6.048   9.513  0.3683  2.1278 -1.3709
11253SOL    HW235201   3.482   6.087   9.512 -0.6791 -1.3528  0.0209
11254SOL     OW35202   7.345   6.376   8.000  0.1464  0.4635  0.5451
11254SOL    HW135203   7.347   6.282   8.013  2.3773  0.3600 -0.0906
11254SOL    HW235204   7.255   6.395   7.972 -0.8401 -1.1783  2.3633
11255SOL     OW35205   4.413   6.201   7.257 -0.0875 -0.2070 -0.3144
11255SOL    HW135206   4.480   6.133   7.267  0.6078  0.5323  0.1392
11255SOL    HW235207   4.377   6.212   7.345  1.1940  1.3906  0.0635
11256SOL     OW35208   2.349   7.155   8.105 -0.5680  0.6524 -0.3758
11256SOL    HW135209   2.367   7.196   8.021  1.0727  1.2895  0.2559
11256SOL    HW235210   2.385   7.215   8.170 -0.5863 -0.4761  0.7150
11257SOL     OW35211   3.080   5.754   6.790 -0.4467  0.4155  0.2713
11257SOL    HW135212   3.078   5.722   6.880  1.6101  0.6919  0.4664
11257SOL    HW235213   3.099   5.676   6.738 -1.4885  0.2820  0.0771
11258SOL     OW35214   4.415   6.440   7.600  0.2650 -0.9566  0.0045
11258SOL    HW135215   4.377   6.356   7.573  0.8135 -1.2913  0.2765
11258SOL    HW235216   4.478   6.461   7.532 -0.3485 -0.4254 -0.4164
11259SOL     OW35217   5.714   0.352  10.456  0.0147 -0.2269 -0.0763
11259SOL    HW135218   5.653   0.382  10.388  1.5149  0.3806 -1.1992
11259SOL    HW235219   5.764   0.283  10.414  0.5343 -0.2893  0.6279
11260SOL     OW35220   1.404   6.638   9.515  0.1723 -0.0822  0.4570
11260SOL    HW135221   1.312   6.626   9.538  0.1837 -4.1543 -0.8663
11260SOL    HW235222   1.402   6.662   9.422  0.4289 -0.5534  0.3261
11261SOL     OW35223   2.175   7.879   9.826  0.0905 -0.1868  0.1678
11261SOL    HW135224   2.131   7.795   9.816 -0.3617 -0.0455  0.8905
11261SOL    HW235225   2.197   7.906   9.737 -1.1228 -0.3558 -0.2033
11262SOL     OW35226   2.159   0.055   8.594  0.1472  0.3006  0.2199
11262SOL    HW135227   2.125   0.033   8.507 -1.0310  1.0594  0.4624
11262SOL    HW235228   2.252   0.071   8.580  0.0542 -0.0013 -0.8255
11263SOL     OW35229   4.338   5.856  10.559 -0.0572  0.3580 -0.7441
11263SOL    HW135230   4.332   5.950  10.543 -1.2460  0.0859 -2.0650
11263SOL    HW235231   4.267   5.818  10.508 -1.6841 -0.9836  2.2374
11264SOL     OW35232   4.006   5.880   8.605  0.0284 -0.0340 -0.0826
11264SOL    HW135233   4.076   5.941   8.578 -0.2417  0.9227  1.2826
11264SOL    HW235234   4.031   5.797   8.565  0.6208  0.8651 -1.6988
11265SOL     OW35235   1.666   7.126   7.881 -0.5951  0.2422 -0.0408
11265SOL    HW135236   1.654   7.052   7.821  1.1289  0.1356 -0.3134
11265SOL    HW235237   1.598   7.115   7.947  0.1184 -2.0750  0.3938
11266SOL     OW35238   3.134   4.969   8.990 -0.1975  0.3060 -0.5974
11266SOL    HW135239   3.178   4.996   9.070  1.1818 -0.0332 -1.2018
11266SOL    HW235240   3.085   4.891   9.014  0.8475 -0.2561 -0.2544
11267SOL     OW35241   3.801   5.091   7.759 -0.1967  0.0075  0.0887
11267SOL    HW135242   3.758   5.033   7.822 -0.6648 -0.2885 -0.4899
11267SOL    HW235243   3.782   5.052   7.674 -1.4971  1.5986 -0.4061
11268SOL     OW35244   2.911   7.171   7.678  0.4309  0.3534  0.4928
11268SOL    HW135245   2.832   7.217   7.707 -1.7422 -2.7046 -0.0390
11268SOL    HW235246   2.935   7.116   7.753 -0.2600 -1.4814 -0.5706
11269SOL     OW35247   0.123   6.542   6.522 -0.3796 -0.1159 -0.1827
11269SOL    HW135248   0.105   6.505   6.436  1.7728  0.0810 -0.7634
11269SOL    HW235249   0.094   6.475   6.583 -0.0672 -1.1316 -1.1153
11270SOL     OW35250   3.302   6.476   8.252  0.2924 -0.4740  0.0935
11270SOL    HW135251   3.361   6.455   8.325  0.5135  0.2567  0.1322
11270SOL    HW235252   3.360   6.502   8.181  0.0225  1.9657  0.6662
11271SOL     OW35253   3.265   6.288   7.069 -0.0884 -0.5408  0.2786
11271SOL    HW135254   3.265   6.384   7.059 -1.4279 -0.1519  3.1129
11271SOL    HW235255   3.221   6.256   6.990  2.1668  0.9409 -1.7280
11272SOL     OW35256   4.513   5.694   8.471 -0.4091  0.2688  0.1801
11272SOL    HW135257   4.528   5.771   8.415 -0.2121  1.0690  1.3000
11272SOL    HW235258   4.590   5.640   8.457 -0.5256  0.2801 -0.5848
11273SOL     OW35259   3.034   6.899   7.438  0.4209 -0.2620  0.2803
11273SOL    HW135260   2.966   6.956   7.401 -0.2433 -0.5809  0.9625
11273SOL    HW235261   2.985   6.838   7.494  1.4304  1.1639  2.9389
11274SOL     OW35262   3.698   6.771   6.547  0.1491  0.0896  0.4923
11274SOL    HW135263   3.783   6.726   6.547 -0.3062 -0.8031  0.4917
11274SOL    HW235264   3.695   6.818   6.630  2.1024  3.0400 -0.9500
11275SOL     OW35265   3.197   5.777   8.553 -0.4829 -0.5086  0.0126
11275SOL    HW135266   3.160   5.708   8.607 -0.1935 -0.1951  0.6222
11275SOL    HW235267   3.121   5.820   8.514 -0.7270 -0.4368  0.5515
11276SOL     OW35268   2.828   4.997   8.547  0.1636  0.3836 -0.0565
11276SOL    HW135269   2.736   4.981   8.567  0.2410 -2.2478 -1.3355
11276SOL    HW235270   2.875   4.966   8.624  0.0730 -1.3444 -0.6545
11277SOL     OW35271   1.920   0.074   7.162  0.3949  0.2639  0.3060
11277SOL    HW135272   1.896   0.157   7.202 -2.5146 -0.1783 -0.2756
11277SOL    HW235273   1.899   0.008   7.229 -2.1759 -0.2813 -0.8886
11278SOL     OW35274   3.955   0.979   9.743  0.3250 -0.2535 -0.7414
11278SOL    HW135275   3.942   0.887   9.718  0.6555 -0.5626  0.1772
11278SOL    HW235276   4.046   0.996   9.723  0.8404 -0.7728  1.0084
11279SOL     OW35277   1.336   5.619  10.228 -0.6179 -0.2808 -0.0763
11279SOL    HW135278   1.339   5.583  10.317 -0.5643 -0.0741  0.0063
11279SOL    HW235279   1.410   5.680  10.225 -0.1965 -0.8035 -0.4892
11280SOL     OW35280   3.847   6.566  10.288  0.1076 -0.1602  0.1682
11280SOL    HW135281   3.850   6.553  10.383  1.8597  2.1356  0.5126
11280SOL    HW235282   3.758   6.596  10.271 -0.0850 -0.1373  1.1526
11281SOL     OW35283   3.833   6.197   7.226  0.2553 -0.5922 -0.1260
11281SOL    HW135284   3.851   6.201   7.132  1.7905  0.3115  0.1701
11281SOL    HW235285   3.886   6.268   7.263  0.0665 -1.2531  1.4728
11282SOL     OW35286   2.534   4.668   8.569  0.0044 -0.0749 -0.0258
11282SOL    HW135287   2.485   4.596   8.530 -0.0521  0.8957 -1.8609
11282SOL    HW235288   2.554   4.726   8.495 -1.0530  2.4410  1.5197
11283SOL     OW35289   3.418   6.926   6.647 -0.1724 -0.4291 -0.4044
11283SOL    HW135290   3.478   6.855   6.669  1.0935  0.7528  0.0975
11283SOL    HW235291   3.364   6.936   6.725  0.5988  0.0732  0.0826
11284SOL     OW35292   3.863   5.902   7.659 -0.3078 -0.3889 -0.0190
11284SOL    HW135293   3.913   5.821   7.668 -0.4854 -0.3295  2.0439
11284SOL    HW235294   3.890   5.955   7.734 -1.8139  0.5465 -0.0897
11285SOL     OW35295   2.841   4.518   7.552 -0.1793  0.0981  0.6500
11285SOL    HW135296   2.927   4.480   7.572 -0.2009  0.1908  0.9145
11285SOL    HW235297   2.853   4.559   7.466  0.4087  1.2361  1.2539
11286SOL     OW35298   3.719   5.300   7.341 -0.1350  0.1130  0.1156
11286SOL    HW135299   3.643   5.287   7.284  0.2628  0.7063 -0.5569
11286SOL    HW235300   3.682   5.326   7.426 -0.6941 -0.0404 -0.0792
11287SOL     OW35301   1.738   5.270   6.991  0.2030  0.2371 -0.4669
11287SOL    HW135302   1.803   5.288   6.923  0.0686  2.7541 -0.0225
11287SOL    HW235303   1.787   5.225   7.060  1.1288  0.7078 -0.8014
11288SOL     OW35304   2.567   0.483   7.649  0.1610 -0.3797 -0.1604
11288SOL    HW135305   2.579   0.491   7.743  0.4235  1.4973 -0.3159
11288SOL    HW235306   2.636   0.423   7.621  1.0084  0.1883  0.6590
11289SOL     OW35307   3.661   7.416   8.426  0.2221 -0.3558 -0.0087
11289SOL    HW135308   3.627   7.389   8.341 -3.2560  1.8208  0.5158
11289SOL    HW235309   3.710   7.496   8.407  0.2151 -0.3635 -0.0617
11290SOL     OW35310   1.429   4.774   8.813  0.4023 -0.5352  0.0088
11290SOL    HW135311   1.442   4.831   8.889  1.0209  0.9108 -1.1442
11290SOL    HW235312   1.341   4.796   8.781  0.7324 -0.0394 -0.5743
11291SOL     OW35313   2.084   6.885   9.654 -0.4984  0.0912 -0.1369
11291SOL    HW135314   2.120   6.914   9.570  0.1664  1.3032  0.5352
11291SOL    HW235315   2.021   6.954   9.678  1.2874  1.2208  1.6130
11292SOL     OW35316   0.871   5.701  10.500 -0.3971 -0.4072  0.0921
11292SOL    HW135317   0.839   5.790  10.513 -0.2525  0.0161 -2.0724
11292SOL    HW235318   0.887   5.694  10.406  0.2853 -2.4991  0.2939
11293SOL     OW35319   2.254   6.026  10.257  0.3903  0.4306 -0.7545
11293SOL    HW135320   2.308   5.956  10.295 -0.5833  0.5656  0.9776
11293SOL    HW235321   2.183   5.981  10.212 -0.2002  0.2724  0.3060
11294SOL     OW35322   5.195   0.135  10.413 -0.3820 -0.1202 -0.1505
11294SOL    HW135323   5.113   0.109  10.454  0.5282 -1.3341  0.9694
11294SOL    HW235324   5.168   0.172  10.328 -2.0804 -0.2960  0.2711
11295SOL     OW35325   3.481   7.935  10.646  0.1295 -0.3713 -0.1201
11295SOL    HW135326   3.503   7.898  10.560 -2.2872  0.7371 -1.3042
11295SOL    HW235327   3.486   8.030  10.633 -0.7827 -0.1831  0.7995
11296SOL     OW35328   2.730   5.506   8.850  0.4900  0.2675 -0.0412
11296SOL    HW135329   2.734   5.459   8.933  0.8604  0.1759 -0.1100
11296SOL    HW235330   2.748   5.598   8.873  0.1294  0.3180  0.0425
11297SOL     OW35331   1.808   6.875   9.947 -0.2908  0.2805 -0.2886
11297SOL    HW135332   1.744   6.837  10.008 -1.6094  0.1780 -1.6852
11297SOL    HW235333   1.840   6.800   9.897 -0.3236  0.5607 -0.7285
11298SOL     OW35334   2.918   5.710  10.995  0.1780  0.1020 -0.4413
11298SOL    HW135335   2.987   5.650  10.968  0.1787  0.4640 -1.3102
11298SOL    HW235336   2.843   5.654  11.013 -0.0584 -0.1310 -1.9969
11299SOL     OW35337   2.144   7.561  10.517 -0.2505 -0.0241  0.0044
11299SOL    HW135338   2.204   7.506  10.567 -0.1993  0.2569  0.2527
11299SOL    HW235339   2.175   7.556  10.426 -1.4315 -2.0342 -0.3510
11300SOL     OW35340   2.269   1.730  11.177  0.1742 -0.7477 -0.1871
11300SOL    HW135341   2.233   1.767  11.096 -0.2018 -1.9965 -0.6236
11300SOL    HW235342   2.200   1.744  11.242  0.1826 -0.3826 -0.2537
11301SOL     OW35343   0.952   5.426   9.507 -0.2664 -0.0167 -0.2188
11301SOL    HW135344   0.966   5.331   9.508  0.2844  0.0648  0.0816
11301SOL    HW235345   0.914   5.443   9.421 -0.7685 -0.5630 -0.1148
11302SOL     OW35346   3.648   4.675  10.329 -0.3284 -0.1317  0.0065
11302SOL    HW135347   3.711   4.730  10.282  0.1817 -0.8014 -0.1121
11302SOL    HW235348   3.563   4.700  10.294 -0.0739  0.3547 -0.2732
11303SOL     OW35349   2.836   6.167  10.373  0.0603 -0.3808 -0.6810
11303SOL    HW135350   2.763   6.106  10.363  0.1356 -0.5093 -0.4481
11303SOL    HW235351   2.909   6.126  10.327  0.3170 -0.8191  0.1022
11304SOL     OW35352   3.821   5.707   9.694 -0.3714  0.1633 -0.0466
11304SOL    HW135353   3.739   5.739   9.656 -0.7356 -0.3260  0.3242
11304SOL    HW235354   3.795   5.644   9.760  0.3142 -0.2711 -0.1723
11305SOL     OW35355   3.385   0.445   9.616  0.0058 -0.5695 -0.3383
11305SOL    HW135356   3.470   0.472   9.650  0.1697 -1.4651 -0.0043
11305SOL    HW235357   3.356   0.377   9.677 -0.7661 -0.5630 -0.6846
11306SOL     OW35358   3.930   7.392  10.074 -0.4431 -0.1244 -0.1130
11306SOL    HW135359   3.925   7.456  10.145 -0.2573 -0.8224  0.5300
11306SOL    HW235360   3.844   7.349  10.074 -0.6650  0.2869 -0.7216
11307SOL     OW35361   2.413   6.938   8.250 -0.2057  0.4996 -0.1211
11307SOL    HW135362   2.445   6.979   8.330 -1.2605 -0.2862  0.7242
11307SOL    HW235363   2.408   7.010   8.186 -0.0922  1.2839  0.7402
11308SOL     OW35364   2.449   7.914  10.617 -0.2795  0.5354 -0.1733
11308SOL    HW135365   2.540   7.938  10.634 -0.3889  0.7721  0.0878
11308SOL    HW235366   2.455   7.840  10.556  0.0585  1.3571 -1.1564
11309SOL     OW35367   0.797   0.814   9.764 -0.6529  0.8415  0.1791
11309SOL    HW135368   0.849   0.892   9.784 -2.0708  1.2566  2.8702
11309SOL    HW235369   0.763   0.830   9.676  1.1235  2.0313 -0.3555
11310SOL     OW35370   1.782   6.698   8.874 -0.5862  0.1892 -0.2208
11310SOL    HW135371   1.781   6.753   8.952 -2.6190  1.2617 -0.9427
11310SOL    HW235372   1.853   6.732   8.821  1.6864 -1.3432  1.6013
11311SOL     OW35373   2.808   6.564  10.519  0.2304 -0.1549 -0.3507
11311SOL    HW135374   2.733   6.555  10.578  0.7509 -0.0877  0.3372
11311SOL    HW235375   2.780   6.523  10.437 -0.7158  0.2615 -0.2506
11312SOL     OW35376   1.015   7.138   9.435 -0.1127 -0.2208 -0.6061
11312SOL    HW135377   1.004   7.129   9.340 -2.7730 -0.2467 -0.3732
11312SOL    HW235378   1.036   7.230   9.448 -4.0204  0.9310 -1.0703
11313SOL     OW35379   3.335   1.456  10.210 -0.4000 -0.4608 -0.5671
11313SOL    HW135380   3.273   1.443  10.282 -0.5663 -0.4201 -0.7010
11313SOL    HW235381   3.361   1.368  10.185 -0.6375 -0.4947 -0.7071
11314SOL     OW35382   2.255   6.714   9.791  0.1734  0.4982  0.2529
11314SOL    HW135383   2.198   6.776   9.746  0.3388  2.3337  2.3889
11314SOL    HW235384   2.288   6.762   9.867  2.9563 -1.1599  0.2410
11315SOL     OW35385   4.453   5.714   8.875 -0.0919 -0.0455 -0.4264
11315SOL    HW135386   4.433   5.730   8.783 -0.2494  1.4208 -0.1551
11315SOL    HW235387   4.371   5.734   8.922 -0.1947 -1.3524 -0.0115
11316SOL     OW35388   3.349   5.975  10.968 -0.4055 -0.5522 -0.2936
11316SOL    HW135389   3.264   5.942  10.941 -1.3933  0.3446  1.5149
11316SOL    HW235390   3.373   6.039  10.902 -1.3736 -0.4663 -0.5704
11317SOL     OW35391   0.534   7.023   9.465 -0.1741  0.1235 -0.2976
11317SOL    HW135392   0.541   6.984   9.378 -1.3806 -0.9160  0.0473
11317SOL    HW235393   0.617   7.003   9.507 -0.6196 -1.8070 -0.2536
11318SOL     OW35394   2.430   5.745   9.997  0.7546 -0.7248 -0.6015
11318SOL    HW135395   2.502   5.799   9.965  1.8708 -1.8522 -0.0970
11318SOL    HW235396   2.421   5.768  10.089 -0.1740  0.0859 -0.8857
11319SOL     OW35397   2.153   6.742  11.248  0.0339  0.1139 -0.0492
11319SOL    HW135398   2.171   6.804  11.319 -1.0220  2.0169 -1.3401
11319SOL    HW235399   2.059   6.752  11.231  0.3320  0.0187 -1.9519
11320SOL     OW35400   4.004   6.994   8.756  0.3430 -0.6299  0.1986
11320SOL    HW135401   3.994   7.087   8.733  1.3194 -0.5163  0.2034
11320SOL    HW235402   3.959   6.948   8.685  2.2155 -0.2296 -1.3184
11321SOL     OW35403   4.267   6.255  10.360 -0.2367 -0.6229 -0.7487
11321SOL    HW135404   4.236   6.178  10.311 -2.1578 -0.6319  0.3598
11321SOL    HW235405   4.332   6.220  10.421 -1.9162 -1.6539  0.5505
11322SOL     OW35406   3.336   0.684  10.306  0.3039 -0.0215  0.4993
11322SOL    HW135407   3.326   0.680  10.401 -0.2018  0.2081  0.4555
11322SOL    HW235408   3.394   0.759  10.290  0.6233 -0.2350  0.6383
11323SOL     OW35409   3.173   0.080  10.560  0.1914  0.0064  0.0212
11323SOL    HW135410   3.201   0.161  10.517 -2.9750  1.5792  0.5899
11323SOL    HW235411   3.191   0.011  10.497  3.0754  1.0397 -0.4558
11324SOL     OW35412   3.118   5.555  11.814 -0.3597 -0.0904 -0.0224
11324SOL    HW135413   3.085   5.644  11.802  1.0538  0.5198  0.3793
11324SOL    HW235414   3.170   5.537  11.736  2.7657  1.0840  1.6017
11325SOL     OW35415   2.016   5.918   9.592  0.5305  0.2851 -0.2033
11325SOL    HW135416   2.050   5.868   9.666  0.6559 -0.8086 -0.9731
11325SOL    HW235417   2.077   5.900   9.520  0.3505  1.2339 -0.6108
11326SOL     OW35418   1.901   6.432  12.327  0.1349 -0.1258  0.2311
11326SOL    HW135419   1.863   6.519  12.340 -0.8090 -0.4576 -0.2361
11326SOL    HW235420   1.971   6.427  12.393  0.1800  0.9646  0.2904
11327SOL     OW35421   2.025   4.486  10.411  0.4142 -0.5107  0.1881
11327SOL    HW135422   2.113   4.475  10.448  0.8889 -0.0788 -0.8008
11327SOL    HW235423   1.972   4.422  10.459  1.4840 -1.5404  0.0500
11328SOL     OW35424   2.741   5.777   9.686  0.1028 -0.0967  0.0129
11328SOL    HW135425   2.750   5.870   9.667  1.3498 -0.1363  0.3490
11328SOL    HW235426   2.760   5.770   9.780  1.2694 -0.8446 -0.2596
11329SOL     OW35427   2.404   5.559   8.622 -0.0084  0.1807 -0.3553
11329SOL    HW135428   2.416   5.469   8.652  0.9322  0.7900  1.2608
11329SOL    HW235429   2.311   5.565   8.602 -0.8026 -0.3243  2.6654
11330SOL     OW35430   2.116   4.877  11.013  0.3375  0.3305  0.2839
11330SOL    HW135431   2.086   4.920  11.093  2.4105  2.7715 -0.1371
11330SOL    HW235432   2.178   4.939  10.974 -0.0165 -1.1100 -2.8321
11331SOL     OW35433   4.530   5.814  11.280 -0.2255  0.1602  0.0841
11331SOL    HW135434   4.539   5.864  11.199  0.9156  0.4584  0.3870
11331SOL    HW235435   4.482   5.735  11.254 -0.8886  0.7837 -0.6446
11332SOL     OW35436   3.077   7.889   9.966 -0.3224 -0.2796 -0.1581
11332SOL    HW135437   2.999   7.844   9.933  0.7416 -0.8925 -1.9930
11332SOL    HW235438   3.123   7.823  10.018 -0.6223 -0.1614  0.2591
11333SOL     OW35439   3.950   5.832  10.176 -0.0812 -0.5642 -0.0460
11333SOL    HW135440   3.890   5.776  10.125 -0.4081  0.3598 -0.7115
11333SOL    HW235441   4.023   5.848  10.116 -0.9037  1.3051 -0.6365
11334SOL     OW35442   3.138   6.004   9.625 -0.4353  0.6644  0.0389
11334SOL    HW135443   3.086   5.966   9.696  1.6766 -1.6671  0.4497
11334SOL    HW235444   3.078   6.065   9.582 -2.6440  0.0841  2.0879
11335SOL     OW35445   1.918   6.949   8.627 -0.1381 -0.1662 -0.2225
11335SOL    HW135446   1.833   6.985   8.649  0.8190  2.1669 -0.0245
11335SOL    HW235447   1.959   7.017   8.573  1.5233 -1.2893 -0.4425
11336SOL     OW35448   3.173   7.101  10.779  0.4637  0.0490  0.1535
11336SOL    HW135449   3.257   7.147  10.788 -0.2738  1.5741 -0.3433
11336SOL    HW235450   3.136   7.136  10.698 -1.2665  0.4730  1.0868
11337SOL     OW35451   2.314   4.857   7.505 -0.2038 -0.0357  0.1721
11337SOL    HW135452   2.220   4.843   7.512 -0.1450 -1.9757 -1.7519
11337SOL    HW235453   2.353   4.774   7.533  0.9159  0.5125  0.3027
11338SOL     OW35454   1.686   0.939   0.133  0.0378 -0.2840  0.2906
11338SOL    HW135455   1.755   0.999   0.107  0.2990 -0.3504  0.8312
11338SOL    HW235456   1.648   0.909   0.050  0.4019  0.0439  0.0040
11339SOL     OW35457   3.094   6.432  12.230  0.8255  0.2932  0.6152
11339SOL    HW135458   3.001   6.409  12.225  0.3506  2.0960  0.3729
11339SOL    HW235459   3.095   6.528  12.223  2.7358  0.2786  0.2359
11340SOL     OW35460   3.246   6.895  11.119  0.4837  0.0379  0.4622
11340SOL    HW135461   3.207   6.849  11.046 -0.2222  1.6324 -0.2098
11340SOL    HW235462   3.331   6.852  11.132 -0.5052 -2.0221  0.5062
11341SOL     OW35463   4.081   6.756  11.443  0.0042 -0.2205  0.2820
11341SOL    HW135464   4.043   6.668  11.447 -0.1346 -0.1210  1.8831
11341SOL    HW235465   4.009   6.814  11.467  0.7038  0.1013  1.7258
11342SOL     OW35466   3.670   0.723   9.315 -0.1942 -0.0598  0.1310
11342SOL    HW135467   3.669   0.648   9.256  0.4810 -1.1689  1.4634
11342SOL    HW235468   3.595   0.776   9.289 -0.4499 -0.9986 -1.0911
11343SOL     OW35469   3.088   6.673   9.783 -0.2300  0.0548  0.7146
11343SOL    HW135470   3.112   6.623   9.705 -0.2882 -0.5270  1.0605
11343SOL    HW235471   3.156   6.739   9.791 -0.1537  0.0348  0.2433
11344SOL     OW35472   2.304   6.527  10.113 -0.5979  0.0372  0.5015
11344SOL    HW135473   2.341   6.534  10.025 -2.1024  0.6252 -0.1148
11344SOL    HW235474   2.366   6.572  10.169  1.3456 -1.9324  0.0729
11345SOL     OW35475   1.496   4.581   9.703  0.2408  0.0322  0.2628
11345SOL    HW135476   1.552   4.531   9.643 -1.3762 -1.0090 -0.4525
11345SOL    HW235477   1.492   4.668   9.665  2.4273  0.5314  1.0694
11346SOL     OW35478   3.024   6.211   8.535 -0.1725  0.7079  0.0488
11346SOL    HW135479   2.986   6.263   8.606  0.3455  1.2718 -0.0815
11346SOL    HW235480   3.118   6.214   8.551 -0.2007 -1.8306  1.1724
11347SOL     OW35481   2.491   5.742  10.900 -0.1399 -0.2583 -0.3992
11347SOL    HW135482   2.462   5.834  10.898 -0.3557 -0.3403 -1.3139
11347SOL    HW235483   2.432   5.701  10.964 -1.1424 -0.1120 -1.1986
11348SOL     OW35484   4.088   6.076   8.271 -0.2433  0.4339  0.5293
11348SOL    HW135485   3.995   6.056   8.263 -0.2053  0.1446  0.7819
11348SOL    HW235486   4.098   6.107   8.361  0.2563 -1.5446  1.2050
11349SOL     OW35487   1.857   4.990  11.182 -0.1389  0.0609 -0.0290
11349SOL    HW135488   1.853   5.086  11.184 -0.9010  0.0285  0.6978
11349SOL    HW235489   1.844   4.963  11.273  0.3954 -0.7259 -0.1809
11350SOL     OW35490   3.631   6.409   9.335 -0.3279 -0.2231 -0.2995
11350SOL    HW135491   3.680   6.409   9.417  2.1858  0.4422 -1.6791
11350SOL    HW235492   3.663   6.332   9.288 -0.5806  0.2182 -1.2343
11351SOL     OW35493   1.550   6.603   9.807  0.7556 -0.3472  0.0563
11351SOL    HW135494   1.567   6.630   9.717  0.8060 -0.2048  0.1079
11351SOL    HW235495   1.489   6.530   9.799  0.2387  0.0893 -0.0669
11352SOL     OW35496   3.158   4.726   9.661 -0.1921  0.2308 -0.2913
11352SOL    HW135497   3.126   4.728   9.571 -1.7074  0.0234  0.2193
11352SOL    HW235498   3.220   4.654   9.663 -1.5946 -1.0308 -0.7357
11353SOL     OW35499   0.859   0.817   8.943 -0.6837  0.1282  0.3387
11353SOL    HW135500   0.917   0.798   9.016 -2.0367  0.8058  1.6412
11353SOL    HW235501   0.776   0.776   8.967 -1.0324 -0.0262 -1.0474
11354SOL     OW35502   2.226   0.862   9.728 -0.5974 -0.5396 -0.2055
11354SOL    HW135503   2.144   0.886   9.683 -2.8778 -0.1199  3.7505
11354SOL    HW235504   2.214   0.771   9.753 -0.2207 -0.2640  1.0442
11355SOL     OW35505   2.404   6.448   9.351  0.3780  0.0471 -0.0729
11355SOL    HW135506   2.477   6.419   9.405 -0.6784 -0.8330  0.9211
11355SOL    HW235507   2.338   6.479   9.414  0.8804  3.4223 -0.9877
11356SOL     OW35508   4.196   5.172   9.472 -0.3431  0.1520 -0.0330
11356SOL    HW135509   4.272   5.134   9.430  1.7197  2.2373  1.5606
11356SOL    HW235510   4.127   5.107   9.461  1.9807 -2.4149 -0.4444
11357SOL     OW35511   2.474   5.761   8.238  0.0543 -0.3381 -0.3716
11357SOL    HW135512   2.385   5.724   8.232 -0.4021  0.6934 -0.2644
11357SOL    HW235513   2.528   5.688   8.267 -0.7594 -0.9897 -0.4214
11358SOL     OW35514   5.094   4.302  11.256 -0.0443 -0.5357  0.1026
11358SOL    HW135515   5.164   4.240  11.237 -0.0327 -0.3502 -0.4859
11358SOL    HW235516   5.031   4.290  11.184  0.6735  1.1669 -0.8782
11359SOL     OW35517   2.902   6.665  12.491 -0.0358 -0.1035  0.1455
11359SOL    HW135518   2.859   6.595  12.441 -1.1830  0.2708  0.5813
11359SOL    HW235519   2.994   6.639  12.493 -0.1603 -0.7581 -1.1116
11360SOL     OW35520   3.549   6.680  10.413 -0.3131 -0.0823  0.6226
11360SOL    HW135521   3.508   6.633  10.341  0.7774 -1.8322  1.1027
11360SOL    HW235522   3.562   6.769  10.379  0.4331 -0.9296 -1.4585
11361SOL     OW35523   3.542   6.929   7.505 -0.0471 -0.6550  0.0953
11361SOL    HW135524   3.446   6.920   7.510  0.0191 -0.8363  1.8122
11361SOL    HW235525   3.568   6.869   7.436 -1.0878 -1.5301  0.4174
11362SOL     OW35526   3.708   6.569   7.998  0.0967  0.2905 -0.2642
11362SOL    HW135527   3.706   6.577   7.903  0.2136  0.0013 -0.2933
11362SOL    HW235528   3.799   6.547   8.018 -0.3026 -1.5753 -0.2607
11363SOL     OW35529   0.424   7.135   9.074  0.0141  0.2063  0.2265
11363SOL    HW135530   0.518   7.129   9.058  0.1439  1.4573  0.4038
11363SOL    HW235531   0.383   7.099   8.996  0.6283 -0.8874  0.3889
11364SOL     OW35532   6.719   6.731   8.523  0.6310 -0.2087 -0.1140
11364SOL    HW135533   6.699   6.810   8.572 -1.1380  0.1994 -1.3969
11364SOL    HW235534   6.735   6.761   8.434 -0.3747 -1.2914 -0.6852
11365SOL     OW35535   0.688   5.160   8.958  0.5588  0.6646 -0.1217
11365SOL    HW135536   0.735   5.201   8.885  1.2582  2.6208  1.3509
11365SOL    HW235537   0.597   5.156   8.929  1.1531 -0.8828 -2.0327
11366SOL     OW35538   3.215   5.478   8.899 -0.3859  0.5881  0.4337
11366SOL    HW135539   3.308   5.456   8.892 -0.9063 -1.2041 -2.8601
11366SOL    HW235540   3.174   5.397   8.929 -0.8541  1.8716  3.7176
11367SOL     OW35541   2.970   6.838   8.500  0.2569  0.5120  0.4951
11367SOL    HW135542   3.033   6.882   8.557  0.1153 -1.0698  1.9682
11367SOL    HW235543   2.884   6.867   8.532  0.1421 -1.1043  1.8266
11368SOL     OW35544   4.694   6.757   8.405  0.3759 -0.2232 -0.0145
11368SOL    HW135545   4.608   6.716   8.401  0.8892 -1.6676  1.8025
11368SOL    HW235546   4.711   6.786   8.316 -1.6135 -0.6809 -0.6010
11369SOL     OW35547   3.028   6.677   9.509 -0.8368  0.1812  0.4351
11369SOL    HW135548   3.027   6.704   9.417 -3.7733  1.4843  0.7485
11369SOL    HW235549   3.108   6.626   9.518  2.2208  4.0666 -1.6285
11370SOL     OW35550   3.461   0.643   9.957 -0.1109 -0.3944  0.3476
11370SOL    HW135551   3.461   0.576   9.889 -2.0240  0.6473 -0.7635
11370SOL    HW235552   3.548   0.683   9.951  0.2947 -1.3528 -0.4152
11371SOL     OW35553   4.534   4.912   9.262 -0.4217 -0.2983 -0.2391
11371SOL    HW135554   4.503   4.868   9.183 -0.2130  0.4845 -0.7753
11371SOL    HW235555   4.625   4.884   9.270 -0.5744 -0.7335 -0.0168
11372SOL     OW35556   2.221   5.678  10.823  0.0033  0.5687  0.0556
11372SOL    HW135557   2.146   5.660  10.880  0.3086 -0.4009  0.1791
11372SOL    HW235558   2.205   5.626  10.745  0.5667  0.3077  0.1070
11373SOL     OW35559   3.649   6.499   9.772  0.5781  0.2277  0.1210
11373SOL    HW135560   3.665   6.519   9.864  0.6796  1.3027 -0.1152
11373SOL    HW235561   3.625   6.407   9.771  0.0926  0.3241  1.2855
11374SOL     OW35562   3.939   6.598  10.582 -0.0354  0.0351  0.6108
11374SOL    HW135563   4.028   6.581  10.551  0.1742 -3.0334  2.5109
11374SOL    HW235564   3.895   6.513  10.575 -2.5223  1.2385  0.7175
11375SOL     OW35565   0.645   7.963   8.539  0.0869  0.2741 -0.4200
11375SOL    HW135566   0.636   7.884   8.592  0.4416 -0.0086 -0.7777
11375SOL    HW235567   0.727   8.002   8.568 -0.2374  0.6792 -0.0306
11376SOL     OW35568   3.923   7.578  11.754  0.4622 -0.5576 -0.0911
11376SOL    HW135569   4.009   7.594  11.715  0.0509 -3.1077 -2.3225
11376SOL    HW235570   3.862   7.623  11.695  0.1050 -0.5801  0.2600
11377SOL     OW35571   3.266   7.746   8.990 -0.3857  0.0625  0.0357
11377SOL    HW135572   3.276   7.672   9.050 -0.5547 -1.9829 -2.3341
11377SOL    HW235573   3.348   7.748   8.940 -1.1821  0.1604 -1.3094
11378SOL     OW35574   3.478   7.355  11.125  0.1260  0.2273  0.1785
11378SOL    HW135575   3.413   7.290  11.152  1.0025 -0.2566  1.2016
11378SOL    HW235576   3.557   7.331  11.172  0.5032  2.0083  0.5339
11379SOL     OW35577   0.657   0.018   9.571 -0.2187  0.0759  0.0738
11379SOL    HW135578   0.745   0.006   9.607  0.0246  0.2380 -0.4537
11379SOL    HW235579   0.666  -0.003   9.478 -0.5159  1.0536 -0.1902
11380SOL     OW35580   2.122   4.688   8.670  0.0871  0.0450  0.1128
11380SOL    HW135581   2.094   4.768   8.716 -0.5738  1.1257 -2.0277
11380SOL    HW235582   2.167   4.720   8.592  0.5711 -1.7075 -0.3621
11381SOL     OW35583   4.801   4.834   9.309 -0.2804  0.3881  0.3122
11381SOL    HW135584   4.774   4.750   9.273 -0.0429 -0.6740  2.4791
11381SOL    HW235585   4.840   4.813   9.393 -1.5163  2.7962  1.5867
11382SOL     OW35586   4.629   7.076   8.164  0.3316 -0.0890 -0.5156
11382SOL    HW135587   4.573   7.083   8.242  0.5057  1.4444 -0.5062
11382SOL    HW235588   4.628   6.982   8.143 -1.8771 -0.1852 -0.2610
11383SOL     OW35589   3.606   6.997  10.241  0.3995 -0.0120  0.4161
11383SOL    HW135590   3.679   6.946  10.205  0.2018 -0.1185  0.1654
11383SOL    HW235591   3.648   7.067  10.292  0.6724 -0.3077  0.5984
11384SOL     OW35592   2.101   7.807  11.268 -0.1927  0.4236 -0.0988
11384SOL    HW135593   2.048   7.801  11.188 -0.2540  0.1019 -0.0367
11384SOL    HW235594   2.188   7.778  11.241  0.0001  1.1342 -0.2438
11385SOL     OW35595   3.419   7.249  11.809 -0.2313 -0.6702  0.1181
11385SOL    HW135596   3.440   7.342  11.796 -0.6600 -0.5549  0.2239
11385SOL    HW235597   3.450   7.206  11.729 -1.2898 -0.2200 -0.5587
11386SOL     OW35598   1.905   6.446   8.776 -0.3648  0.2125  0.1238
11386SOL    HW135599   1.847   6.519   8.796  0.6553  0.4797  2.4693
11386SOL    HW235600   1.993   6.484   8.782  0.1307 -0.6403 -1.3103
11387SOL     OW35601   3.645   6.236   9.791  0.5156 -0.3844 -0.3291
11387SOL    HW135602   3.621   6.185   9.713 -1.0049 -0.4167  0.1191
11387SOL    HW235603   3.720   6.189   9.828  1.9830  0.2514 -2.3304
11388SOL     OW35604   3.752   5.998  11.581  0.0272  0.0228 -0.5190
11388SOL    HW135605   3.831   6.027  11.627  0.0219 -0.4536 -0.1918
11388SOL    HW235606   3.761   5.903  11.576 -0.8238 -0.1131  0.1081
11389SOL     OW35607   4.063   6.717  10.205  0.1467 -0.1846 -0.2215
11389SOL    HW135608   3.984   6.675  10.237 -0.7882  1.4136 -0.3398
11389SOL    HW235609   4.108   6.648  10.156 -0.9497 -1.2376  0.1958
11390SOL     OW35610   4.164   6.925  10.319 -0.1590 -0.1372  0.3687
11390SOL    HW135611   4.096   6.924  10.387  2.7726 -0.4478  3.6037
11390SOL    HW235612   4.154   6.841  10.274 -0.5789 -1.2054  2.3178
11391SOL     OW35613   3.118   6.741  11.682 -0.7466  0.0265  0.0690
11391SOL    HW135614   3.113   6.647  11.703  1.8542 -0.4928 -1.1769
11391SOL    HW235615   3.122   6.744  11.587 -0.8729  1.4164  0.0887
11392SOL     OW35616   3.662   6.817   9.006 -0.0797  0.2978  0.1674
11392SOL    HW135617   3.676   6.750   9.074 -1.0182  1.6405  1.7616
11392SOL    HW235618   3.606   6.774   8.941 -0.4041 -0.5714  0.9930
11393SOL     OW35619   1.508   7.568   7.984  0.0126  0.0988  0.4844
11393SOL    HW135620   1.434   7.573   7.924 -0.5530 -1.2725  1.0182
11393SOL    HW235621   1.514   7.655   8.023 -1.2713  0.2587  0.3549
11394SOL     OW35622   2.811   6.269   9.284 -0.4272  0.5449 -0.5579
11394SOL    HW135623   2.879   6.283   9.218 -0.4320 -0.1935 -0.7230
11394SOL    HW235624   2.751   6.206   9.243 -1.5725  1.6602 -0.6795
11395SOL     OW35625   2.969   6.154  11.127  0.1869  0.3940  0.4377
11395SOL    HW135626   2.885   6.179  11.087  0.4999 -0.3872 -0.7832
11395SOL    HW235627   2.951   6.153  11.221 -1.9947 -2.2635  0.1600
11396SOL     OW35628   1.871   7.974  10.242 -0.0488  0.4527 -0.4646
11396SOL    HW135629   1.937   7.962  10.174  0.2909 -1.9925  0.1764
11396SOL    HW235630   1.922   7.992  10.321 -0.1198 -1.1506 -0.0240
11397SOL     OW35631   3.107   6.753  12.146  0.0194 -0.2092  0.3511
11397SOL    HW135632   3.190   6.780  12.106  0.3128  1.7450  2.0758
11397SOL    HW235633   3.109   6.794  12.233 -2.7744 -0.0517  0.4151
11398SOL     OW35634   2.546   6.059   9.412  0.3745  0.2445 -0.4294
11398SOL    HW135635   2.610   5.992   9.435 -0.8332 -1.0105 -0.5678
11398SOL    HW235636   2.587   6.142   9.437  2.2282 -0.4639 -0.9585
11399SOL     OW35637   2.208   6.552   8.780 -0.2578  0.1030 -0.3064
11399SOL    HW135638   2.156   6.608   8.723 -0.9860 -1.1433 -0.9200
11399SOL    HW235639   2.297   6.584   8.771 -0.7811  1.7967  0.1679
11400SOL     OW35640   2.187   6.297  11.831  0.1916 -0.0976  0.2822
11400SOL    HW135641   2.268   6.280  11.783 -0.5675  0.0354 -1.0980
11400SOL    HW235642   2.145   6.212  11.840  0.4832 -0.1667  0.9918
11401SOL     OW35643   3.023   7.481   9.939  0.7368  0.1582 -0.0716
11401SOL    HW135644   2.995   7.438  10.019  0.4252  1.0159  0.2885
11401SOL    HW235645   3.081   7.418   9.897  0.8220 -0.3383  0.7743
11402SOL     OW35646   4.145   6.041   0.885  0.0300  0.3912 -0.3553
11402SOL    HW135647   4.054   6.056   0.913 -0.0108  1.7028 -1.1417
11402SOL    HW235648   4.195   6.038   0.967 -0.8097 -1.1565  0.1441
11403SOL     OW35649   3.562   5.063  11.638  0.8452  0.3778 -0.2930
11403SOL    HW135650   3.532   4.972  11.647 -1.2867  1.0960  0.4046
11403SOL    HW235651   3.567   5.077  11.543  0.5335 -0.2570 -0.4111
11404SOL     OW35652   2.467   6.462   9.072 -0.1174 -0.1536 -0.0943
11404SOL    HW135653   2.431   6.435   9.156 -1.3152  0.5130 -0.3620
11404SOL    HW235654   2.450   6.387   9.014 -0.9457  0.0743 -0.1677
11405SOL     OW35655   2.272   7.475   9.520  0.1985  0.5529  0.7232
11405SOL    HW135656   2.306   7.387   9.502  0.2274  0.4898  1.0785
11405SOL    HW235657   2.350   7.530   9.526  0.1058  1.1199 -2.0498
11406SOL     OW35658   2.020   6.313   8.514 -0.4755  0.3455  0.4757
11406SOL    HW135659   1.972   6.386   8.553  1.1969  2.0699 -0.5618
11406SOL    HW235660   2.079   6.353   8.450 -1.5553 -2.1349 -2.3527
11407SOL     OW35661   2.180   6.633  10.388  0.2793 -0.3682 -0.1783
11407SOL    HW135662   2.132   6.716  10.397 -0.1426 -0.4483 -1.4379
11407SOL    HW235663   2.272   6.658  10.398  0.1990  0.3609 -1.0770
11408SOL     OW35664   1.436   6.363  10.474  1.2761 -0.3260 -0.0506
11408SOL    HW135665   1.532   6.361  10.481  1.1828 -0.0076  2.4762
11408SOL    HW235666   1.412   6.451  10.502  0.2523 -0.1631 -1.3595
11409SOL     OW35667   2.128   6.294   9.417 -0.3002  0.2098 -0.5505
11409SOL    HW135668   2.205   6.278   9.470  0.4047  1.3155 -1.1913
11409SOL    HW235669   2.161   6.297   9.327 -1.0673  0.8476 -0.8230
11410SOL     OW35670   6.400   5.933  11.373  0.1723 -0.6940  0.0969
11410SOL    HW135671   6.347   5.862  11.409 -0.8403 -0.3971 -0.7900
11410SOL    HW235672   6.420   5.906  11.283 -0.8971  0.4848 -0.5189
11411SOL     OW35673   1.192   6.739   8.586 -0.8369 -0.1630 -0.2388
11411SOL    HW135674   1.220   6.650   8.605 -2.0266 -0.7108 -0.9106
11411SOL    HW235675   1.099   6.731   8.564 -0.7201  1.0840 -1.3474
11412SOL     OW35676   2.337   5.217   9.807 -0.2134 -0.2677 -0.0396
11412SOL    HW135677   2.347   5.264   9.724 -0.0878 -0.4199 -0.1092
11412SOL    HW235678   2.356   5.283   9.874  2.0847 -0.7325 -0.1735
11413SOL     OW35679   3.864   7.045   9.118  0.7556 -0.1301  0.4198
11413SOL    HW135680   3.833   6.960   9.087  1.7270  0.3643 -2.1835
11413SOL    HW235681   3.917   7.079   9.045 -1.6831  3.8543  0.2129
11414SOL     OW35682   4.181   6.482  10.469 -0.5683 -0.1922 -0.8116
11414SOL    HW135683   4.192   6.412  10.406 -0.0590  0.1353 -1.0858
11414SOL    HW235684   4.244   6.549  10.443  0.6082 -0.6078  0.8305
11415SOL     OW35685   3.961   6.284  10.852  0.2845  0.0941 -0.0225
11415SOL    HW135686   3.961   6.379  10.861  1.0192  0.0954  0.0506
11415SOL    HW235687   4.010   6.267  10.772  0.0991 -0.2237 -0.0723
11416SOL     OW35688   2.757   5.786   9.974  0.5119 -0.0952 -0.0569
11416SOL    HW135689   2.757   5.856  10.040 -0.2692  0.2566 -0.4177
11416SOL    HW235690   2.769   5.705  10.024 -0.5013  0.1303  0.5675
11417SOL     OW35691   2.953   4.838   8.709 -0.0949  0.0824 -0.2817
11417SOL    HW135692   3.026   4.869   8.761 -0.7642  2.6022 -0.7364
11417SOL    HW235693   2.885   4.816   8.773 -0.0604  0.8376  0.0258
11418SOL     OW35694   4.038   6.372  10.256 -0.1882  0.9644  0.6868
11418SOL    HW135695   4.116   6.415  10.222 -1.8730  2.3810 -1.6228
11418SOL    HW235696   3.973   6.441  10.264 -2.2053 -0.6427 -0.6555
11419SOL     OW35697   2.094   7.598   8.629 -0.3278  0.1348 -0.0872
11419SOL    HW135698   2.130   7.563   8.711 -1.2307  2.3894  1.3945
11419SOL    HW235699   2.107   7.528   8.565  1.2286 -1.3993  1.7508
11420SOL     OW35700   0.851   6.228   9.552 -0.3511 -0.6478 -0.5164
11420SOL    HW135701   0.888   6.307   9.512 -0.4633 -1.2168 -1.7685
11420SOL    HW235702   0.913   6.205   9.621  2.0936 -1.9869 -2.9972
11421SOL     OW35703   2.707   6.643   9.301 -0.2058  0.2803 -0.2880
11421SOL    HW135704   2.755   6.600   9.230  0.9012  0.3128  0.4257
11421SOL    HW235705   2.722   6.587   9.377  0.7881  1.6028  0.5234
11422SOL     OW35706   3.327   5.145  10.428 -0.1632  0.1872 -0.1999
11422SOL    HW135707   3.397   5.105  10.480 -1.2158 -0.8585  0.4749
11422SOL    HW235708   3.350   5.238  10.425  0.8642 -0.0161  0.6196
11423SOL     OW35709   3.405   7.251  10.835  0.3035  0.4108 -0.1955
11423SOL    HW135710   3.476   7.243  10.898  0.8658 -0.6450 -0.9261
11423SOL    HW235711   3.366   7.336  10.853  0.6174  0.2359  1.3809
11424SOL     OW35712   0.899   7.622   8.838  0.3865  0.1051 -0.3394
11424SOL    HW135713   0.968   7.596   8.778 -0.1639  1.0797 -1.4304
11424SOL    HW235714   0.892   7.549   8.900  2.3335 -0.0239 -0.2206
11425SOL     OW35715   2.050   1.745  10.131  0.0383 -0.0029 -0.2190
11425SOL    HW135716   2.123   1.757  10.193 -0.2206  1.6100 -0.1867
11425SOL    HW235717   2.021   1.656  10.146 -0.6072  0.5853  2.6920
11426SOL     OW35718   2.601   2.218  10.893  0.0714 -0.1216 -0.0927
11426SOL    HW135719   2.544   2.284  10.855 -0.3046 -0.5989 -0.3656
11426SOL    HW235720   2.543   2.145  10.914  0.9459 -1.9270 -3.2700
11427SOL     OW35721   3.642   7.012   8.784  0.0350 -0.2079 -0.2652
11427SOL    HW135722   3.646   6.960   8.704  2.4015  1.8486 -1.6443
11427SOL    HW235723   3.702   6.968   8.845  0.3790 -0.2702 -0.6448
11428SOL     OW35724   0.241   5.066  10.474 -0.0775  0.4801 -0.6375
11428SOL    HW135725   0.262   5.103  10.560 -0.8291 -0.4219 -0.0490
11428SOL    HW235726   0.246   4.971  10.487 -1.2340  0.3087 -1.3143
11429SOL     OW35727   2.881   6.796   8.029 -0.2776 -0.4084 -0.0438
11429SOL    HW135728   2.953   6.739   8.057  1.0436  1.0951 -0.2670
11429SOL    HW235729   2.918   6.849   7.959 -0.8508  2.0061  1.3751
11430SOL     OW35730   2.245   5.088  10.231  0.6814  0.1917 -0.0463
11430SOL    HW135731   2.210   5.010  10.188 -0.4425  1.9069 -2.4623
11430SOL    HW235732   2.335   5.095  10.200  0.2542  0.7592 -1.1713
11431SOL     OW35733   2.334   7.606   8.055  0.3050  0.3010  0.1923
11431SOL    HW135734   2.248   7.566   8.043 -0.1725  0.8560  1.5676
11431SOL    HW235735   2.384   7.540   8.104  0.3331  0.3808  0.2709
11432SOL     OW35736   3.877   3.932   9.724  0.2775  0.0930 -0.0339
11432SOL    HW135737   3.956   3.984   9.740  0.6619 -0.4630 -0.0717
11432SOL    HW235738   3.859   3.891   9.808 -0.7014  1.1873  0.3047
11433SOL     OW35739   1.855   5.838  10.335 -0.4744 -0.0176 -0.0890
11433SOL    HW135740   1.842   5.930  10.312 -0.3110 -0.1249 -0.6348
11433SOL    HW235741   1.857   5.793  10.250  0.5874 -0.3686  0.1138
11434SOL     OW35742   1.159   4.155  10.131  0.2018  0.5793  0.3936
11434SOL    HW135743   1.128   4.082  10.077  1.4354  0.1359  0.2445
11434SOL    HW235744   1.242   4.124  10.166  1.5744  2.4890 -0.9572
11435SOL     OW35745   4.141   7.166   0.245  0.5879  0.2799 -0.1024
11435SOL    HW135746   4.143   7.079   0.205 -0.5596 -0.2652  0.9702
11435SOL    HW235747   4.054   7.200   0.225 -0.2683 -0.2660  2.3340
11436SOL     OW35748   3.212   0.960   8.829 -0.2654  0.2402  0.3836
11436SOL    HW135749   3.271   1.014   8.881 -1.4161  2.3930 -0.4187
11436SOL    HW235750   3.213   0.875   8.872  0.7424  1.2131  2.4208
11437SOL     OW35751   0.697   6.043  10.073 -0.5138 -0.7412 -0.2817
11437SOL    HW135752   0.612   6.052  10.115 -0.4097 -1.0714  0.0111
11437SOL    HW235753   0.689   5.964  10.020 -0.2400 -1.0588  0.1352
11438SOL     OW35754   3.667   6.325  11.615  0.3607  0.0296 -0.1908
11438SOL    HW135755   3.748   6.277  11.631 -0.9410 -1.8076  1.4033
11438SOL    HW235756   3.631   6.284  11.536  0.3064 -0.1782 -0.0623
11439SOL     OW35757   4.778   5.386   9.198 -0.2787  0.2679  0.4661
11439SOL    HW135758   4.824   5.313   9.239 -1.3204 -0.4501  0.4005
11439SOL    HW235759   4.760   5.356   9.109  0.5487  1.1894 -0.0415
11440SOL     OW35760   4.915   0.384  11.645  0.3413 -0.5641  0.4109
11440SOL    HW135761   4.980   0.408  11.579  0.4846  1.8442  1.3374
11440SOL    HW235762   4.967   0.364  11.723  0.1354 -2.8131  0.0552
11441SOL     OW35763   2.636   6.955   9.311  0.0945  0.6309 -0.2296
11441SOL    HW135764   2.593   6.932   9.229 -2.5715  0.2191  1.2018
11441SOL    HW235765   2.685   6.877   9.335 -0.8177 -0.0040 -0.3981
11442SOL     OW35766   1.636   1.498  10.187 -0.2488  0.1064  0.3243
11442SOL    HW135767   1.725   1.474  10.213 -0.4118 -1.4790 -0.4293
11442SOL    HW235768   1.619   1.443  10.110 -0.7837  2.5420 -1.4358
11443SOL     OW35769   2.840   6.270  11.731  0.6984 -0.1207  0.5872
11443SOL    HW135770   2.778   6.204  11.761  0.0615  0.8787  1.5617
11443SOL    HW235771   2.926   6.228  11.740  0.2277 -1.2982 -0.1867
11444SOL     OW35772   1.288   6.032   9.816  0.5069  0.9671 -0.3438
11444SOL    HW135773   1.380   6.051   9.833  0.8592 -0.8849  0.1126
11444SOL    HW235774   1.250   6.020   9.903 -0.0512  1.2420 -0.5482
11445SOL     OW35775   3.964   6.524   9.935  0.4471  0.0328 -0.6011
11445SOL    HW135776   3.962   6.597   9.874 -1.8516 -0.4648 -1.2386
11445SOL    HW235777   3.875   6.521   9.971  0.4761 -2.3859 -0.5551
11446SOL     OW35778   2.036   5.692  11.291 -0.2878 -0.2683 -0.1129
11446SOL    HW135779   2.073   5.775  11.260  0.5318 -1.1885 -1.6949
11446SOL    HW235780   2.104   5.655  11.348 -0.3233 -0.2473 -0.0556
11447SOL     OW35781   3.080   6.081  10.270 -0.2443 -0.2616 -0.9802
11447SOL    HW135782   3.151   6.118  10.219 -0.7591  2.0112 -0.1608
11447SOL    HW235783   3.066   5.994  10.232  1.3077  0.1909 -2.7372
11448SOL     OW35784   2.606   6.013   0.057  0.9130 -0.9502 -0.4327
11448SOL    HW135785   2.534   5.989  -0.002  1.1509 -0.5257 -0.9028
11448SOL    HW235786   2.579   5.980   0.142  1.0858 -2.6258 -0.9929
11449SOL     OW35787   1.230   5.540   8.054  0.7541  0.2670 -0.1274
11449SOL    HW135788   1.264   5.458   8.090  0.7478 -0.4377 -1.6260
11449SOL    HW235789   1.238   5.529   7.959 -0.2456  1.5706 -0.3885
11450SOL     OW35790   4.828   7.514  11.423  0.1700  0.3243 -0.5571
11450SOL    HW135791   4.766   7.447  11.396  0.9917 -0.3337 -0.8565
11450SOL    HW235792   4.821   7.581  11.355 -0.6781  0.5708 -0.2377
11451SOL     OW35793   5.985   4.806  10.344  0.5140 -0.3326 -0.4734
11451SOL    HW135794   6.005   4.886  10.296  1.0678 -0.3340 -0.2548
11451SOL    HW235795   5.909   4.769  10.299  1.5369 -0.7982 -1.9281
11452SOL     OW35796   2.001   7.623   8.274 -0.0686  0.7680 -0.3736
11452SOL    HW135797   1.921   7.572   8.289 -0.2353  0.7667 -1.2041
11452SOL    HW235798   2.070   7.571   8.315 -0.0361 -0.7867 -2.2466
11453SOL     OW35799   4.587   0.872   9.591  0.0567  0.0310  0.4189
11453SOL    HW135800   4.526   0.945   9.600 -0.6452 -0.7399  2.5458
11453SOL    HW235801   4.626   0.884   9.504  0.4027  3.2141  0.8944
11454SOL     OW35802   4.361   7.968  12.233  0.0644 -0.3200  0.6807
11454SOL    HW135803   4.349   8.044  12.175  3.0351 -0.3314 -0.1273
11454SOL    HW235804   4.334   7.999  12.319 -0.1726  1.1814  0.0972
11455SOL     OW35805   4.413   5.887  10.118  0.4679  0.1380  0.4150
11455SOL    HW135806   4.478   5.927  10.176  1.1890  0.0604 -0.3302
11455SOL    HW235807   4.460   5.816  10.075  0.4554  1.2357 -1.5404
11456SOL     OW35808   4.279   7.723  10.652 -0.2005 -0.0177 -0.4814
11456SOL    HW135809   4.346   7.746  10.587  1.1642 -1.9415  0.1676
11456SOL    HW235810   4.326   7.673  10.719 -2.2904 -1.5226 -0.0375
11457SOL     OW35811   3.396   6.957  10.459 -0.9522  0.4266  0.3943
11457SOL    HW135812   3.409   7.010  10.379 -0.4200  0.0859  0.2461
11457SOL    HW235813   3.453   6.999  10.524 -0.3332 -0.1066  0.2051
11458SOL     OW35814   2.178   7.060  11.118 -0.4819 -0.4672 -0.5582
11458SOL    HW135815   2.201   7.119  11.047 -1.6077 -1.2655 -1.6286
11458SOL    HW235816   2.139   7.116  11.185  0.8284  0.3266 -0.4318
11459SOL     OW35817   2.342   6.769   7.768 -0.7585  0.0377  0.5536
11459SOL    HW135818   2.352   6.712   7.844  1.7571  1.8076  1.6969
11459SOL    HW235819   2.301   6.848   7.804 -0.1378  0.6436 -0.0559
11460SOL     OW35820   1.587   5.787  10.940  0.8059 -0.4540  0.4849
11460SOL    HW135821   1.515   5.794  11.002  0.5699 -0.4042  0.2115
11460SOL    HW235822   1.652   5.850  10.971 -0.1413  1.0388 -0.4003
11461SOL     OW35823   1.116   6.681  10.140  0.2067  0.3330 -0.1217
11461SOL    HW135824   1.185   6.630  10.098 -1.0060 -1.9877  0.5203
11461SOL    HW235825   1.133   6.672  10.234  0.5720  2.0785  0.0115
11462SOL     OW35826   2.672   6.507  10.302  0.0852  0.2743  0.0018
11462SOL    HW135827   2.648   6.435  10.361  0.9356  0.1327  0.1806
11462SOL    HW235828   2.588   6.546  10.278 -0.4587 -1.2180 -0.6718
11463SOL     OW35829   7.842   6.344   9.382 -0.2170 -0.7664 -0.1932
11463SOL    HW135830   7.880   6.295   9.309 -1.3495  0.2030 -1.4938
11463SOL    HW235831   7.790   6.413   9.340 -1.0587 -0.2844  1.5392
11464SOL     OW35832   3.444   6.470  10.813 -0.2799  0.5079  0.0971
11464SOL    HW135833   3.470   6.546  10.760 -0.6269 -0.4606 -1.5571
11464SOL    HW235834   3.526   6.439  10.852  0.2394  0.4567 -0.9944
11465SOL     OW35835   3.413   5.928  10.556  0.0318  0.2876 -0.1978
11465SOL    HW135836   3.462   5.963  10.631 -3.3655  1.2988  1.7570
11465SOL    HW235837   3.392   5.838  10.582 -1.7998  0.8743  0.5511
11466SOL     OW35838   2.791   6.802  10.800 -0.6809 -0.4422  0.9166
11466SOL    HW135839   2.874   6.758  10.821 -0.4134 -0.6790 -0.5374
11466SOL    HW235840   2.727   6.757  10.855  0.0476 -0.6859  1.5972
11467SOL     OW35841   2.930   6.742  11.390  0.8681 -0.3878  0.7063
11467SOL    HW135842   2.866   6.734  11.319  2.7049 -0.2057 -1.0679
11467SOL    HW235843   2.977   6.823  11.371  0.4431  0.4770  3.0309
11468SOL     OW35844   1.681   6.281   8.693 -0.4474  0.3141 -0.0285
11468SOL    HW135845   1.760   6.322   8.727  0.2696 -2.3109  1.7892
11468SOL    HW235846   1.702   6.260   8.602  0.0161  1.7537 -0.2775
11469SOL     OW35847   3.054   6.706   9.239 -0.0216  0.4444 -0.6946
11469SOL    HW135848   3.104   6.625   9.232 -1.6285 -0.8442  1.4988
11469SOL    HW235849   3.020   6.721   9.150  0.6316 -1.0485 -1.2239
11470SOL     OW35850   3.341   6.604   9.008 -0.4932 -0.1331 -0.4553
11470SOL    HW135851   3.384   6.618   9.092  1.8370 -0.6920 -1.4761
11470SOL    HW235852   3.412   6.595   8.945 -2.1295 -0.8708 -2.3314
11471SOL     OW35853   3.241   7.698  10.088 -0.2315  0.4957 -0.7824
11471SOL    HW135854   3.325   7.726  10.124 -0.9318  0.9927  0.5412
11471SOL    HW235855   3.220   7.618  10.135 -0.3178  0.1523 -1.3982
11472SOL     OW35856   0.936   5.700  10.238 -0.0097  0.4988  0.1697
11472SOL    HW135857   0.903   5.671  10.153 -0.2376 -0.4214  0.5617
11472SOL    HW235858   1.005   5.763  10.216  1.1044 -0.9727 -0.7389
11473SOL     OW35859   4.083   6.147   0.631 -0.5195 -0.5238 -0.0140
11473SOL    HW135860   4.133   6.228   0.628 -0.0219 -0.8573 -1.5431
11473SOL    HW235861   4.104   6.109   0.717  0.6462  0.1038  0.0002
11474SOL     OW35862   2.121   1.183   8.832  0.9109  0.2015  0.1225
11474SOL    HW135863   2.100   1.219   8.919  0.5463 -0.3009  0.2467
11474SOL    HW235864   2.056   1.221   8.774  1.2008  0.5968  0.0528
11475SOL     OW35865   5.198   7.303  11.329 -0.4544 -0.4858 -0.5423
11475SOL    HW135866   5.227   7.363  11.398 -1.2415 -0.5396 -0.1595
11475SOL    HW235867   5.233   7.341  11.248 -1.6653  0.9783 -0.4077
11476SOL     OW35868   3.322   7.526   9.127  0.2691  0.0206  0.1190
11476SOL    HW135869   3.381   7.529   9.203 -0.3033  0.4748  0.5612
11476SOL    HW235870   3.333   7.438   9.091 -0.7183 -0.8552  1.7778
11477SOL     OW35871   2.956   6.473   9.920  0.7284  0.0421 -0.2028
11477SOL    HW135872   3.021   6.526   9.874 -0.4572  0.9316 -0.9184
11477SOL    HW235873   2.874   6.519   9.906 -0.1742 -1.4114  0.1048
11478SOL     OW35874   3.159   7.366   8.422 -0.0407  0.1313  0.1457
11478SOL    HW135875   3.111   7.422   8.483 -1.0994 -0.5283 -0.0667
11478SOL    HW235876   3.246   7.407   8.416  0.2477 -0.0260  2.4190
11479SOL     OW35877   3.816   4.815  10.168 -0.4631 -0.2154 -0.3049
11479SOL    HW135878   3.888   4.877  10.183  0.0566 -1.4355  3.2331
11479SOL    HW235879   3.857   4.740  10.125 -0.1386  0.0797 -0.5159
11480SOL     OW35880   3.241   6.829   8.920 -0.6740 -0.0235  0.4029
11480SOL    HW135881   3.277   6.761   8.977  0.6697 -0.1568 -0.5553
11480SOL    HW235882   3.166   6.787   8.878 -0.5019 -0.5596  0.6220
11481SOL     OW35883   1.500   6.881   9.690  0.3715 -0.0381  0.5151
11481SOL    HW135884   1.457   6.843   9.767 -1.9920  1.7183  0.1596
11481SOL    HW235885   1.451   6.844   9.616 -0.7821  2.1700  0.1072
11482SOL     OW35886   1.965   5.798   9.841  0.2336  0.2854 -0.1537
11482SOL    HW135887   1.876   5.779   9.810  0.8115 -0.4053 -1.4780
11482SOL    HW235888   2.000   5.712   9.865  0.6230  0.5230  0.1271
11483SOL     OW35889   3.951   5.543   7.671  0.3302  0.3466  0.9218
11483SOL    HW135890   3.859   5.522   7.686  0.2850 -0.7985 -0.6573
11483SOL    HW235891   3.998   5.489   7.734 -0.0594  0.8877  1.6915
11484SOL     OW35892   2.511   7.868   9.298  0.0029 -0.0046  0.0212
11484SOL    HW135893   2.550   7.904   9.378  0.6124 -0.4544 -0.0632
11484SOL    HW235894   2.559   7.910   9.227 -0.2988  0.1291 -0.1060
11485SOL     OW35895   3.218   5.461  12.023 -0.0782 -0.2486 -0.1759
11485SOL    HW135896   3.165   5.472  12.102  0.6678  1.6044  0.1024
11485SOL    HW235897   3.158   5.479  11.951 -0.1821  0.4579  0.0794
11486SOL     OW35898   2.673   7.188  10.171  0.1464  0.1168 -0.2135
11486SOL    HW135899   2.625   7.145  10.100 -0.9963 -0.5001  0.8863
11486SOL    HW235900   2.744   7.127  10.192 -1.9530 -1.8309  1.9095
11487SOL     OW35901   2.036   6.888  10.973  0.1596 -0.2280 -0.2086
11487SOL    HW135902   2.083   6.949  11.030  0.1936 -0.9243  0.5273
11487SOL    HW235903   1.998   6.824  11.033  0.8314 -1.4208 -1.0221
11488SOL     OW35904   3.584   6.353   8.671 -0.2039 -0.0889 -0.3835
11488SOL    HW135905   3.558   6.266   8.702 -0.3572 -0.6175 -1.8998
11488SOL    HW235906   3.674   6.363   8.700 -0.3711 -0.4994  0.3060
11489SOL     OW35907   3.089   6.577   8.464 -0.2580 -0.2427 -0.1895
11489SOL    HW135908   3.017   6.640   8.477  0.2000  0.4861 -1.0863
11489SOL    HW235909   3.144   6.589   8.541 -0.2040  0.4235 -0.3247
11490SOL     OW35910   4.605   5.364   9.439 -0.7705 -0.0497 -0.3743
11490SOL    HW135911   4.514   5.393   9.446 -0.8576 -0.2214 -0.7465
11490SOL    HW235912   4.606   5.309   9.360 -0.5540 -0.8140  0.1440
11491SOL     OW35913   3.322   6.375   9.380 -0.3843 -0.1201  0.2811
11491SOL    HW135914   3.344   6.286   9.355 -0.6285 -0.0374 -0.2369
11491SOL    HW235915   3.402   6.410   9.419 -1.0389 -1.4622  3.0949
11492SOL     OW35916   2.415   7.530   8.831 -0.9408 -0.2218 -0.3786
11492SOL    HW135917   2.369   7.602   8.874  0.4002 -0.5413  1.7176
11492SOL    HW235918   2.398   7.454   8.885 -0.1802 -0.9274 -1.0908
11493SOL     OW35919   4.180   7.038  10.746 -0.2217  0.1229  0.2650
11493SOL    HW135920   4.146   7.127  10.733 -1.3713 -0.5891 -2.1978
11493SOL    HW235921   4.270   7.042  10.712 -1.1645 -0.1982 -2.5816
11494SOL     OW35922   2.122   5.286  10.052 -0.3692  0.2457  0.0855
11494SOL    HW135923   2.128   5.237  10.134 -0.0591  0.3725  0.1417
11494SOL    HW235924   2.186   5.356  10.062  0.2350 -0.1950 -0.5757
11495SOL     OW35925   2.585   7.576  10.677  0.5888 -0.4808  0.3759
11495SOL    HW135926   2.666   7.552  10.632  1.2972 -0.4460  1.5749
11495SOL    HW235927   2.610   7.582  10.770  0.3344  4.1530  0.3786
11496SOL     OW35928   2.916   7.059  10.296  0.0552  0.1433  0.2399
11496SOL    HW135929   2.924   6.968  10.321 -1.0304  0.3426  1.4081
11496SOL    HW235930   2.922   7.058  10.200 -0.4665 -1.2123  0.1975
11497SOL     OW35931   4.159   6.190  11.997 -0.1863 -0.0062 -0.1359
11497SOL    HW135932   4.225   6.177  12.065 -0.0299  0.7523 -0.1302
11497SOL    HW235933   4.132   6.102  11.972 -0.3087 -0.2863  0.9716
11498SOL     OW35934   2.295   6.879  10.780  0.0261 -0.3063 -0.3039
11498SOL    HW135935   2.257   6.963  10.753  0.7561 -0.2455 -1.1701
11498SOL    HW235936   2.316   6.892  10.873  0.2249  0.5054 -0.4492
11499SOL     OW35937   2.503   6.626   8.746 -0.3186 -0.1613 -0.1774
11499SOL    HW135938   2.501   6.548   8.692 -0.4189  0.6360 -1.3691
11499SOL    HW235939   2.572   6.610   8.810  0.1223 -0.9458 -0.8389
11500SOL     OW35940   0.035   7.457   9.510 -0.2006 -0.6246 -0.2756
11500SOL    HW135941   0.106   7.432   9.569 -0.4277  1.4820  1.0210
11500SOL    HW235942  -0.045   7.434   9.557 -0.3959  1.5976  0.6057
11501SOL     OW35943   4.231   0.036  10.873  0.0430  0.1589 -0.3951
11501SOL    HW135944   4.279  -0.007  10.944 -0.2675 -1.0789 -0.9136
11501SOL    HW235945   4.146   0.057  10.912  0.1756  0.2472 -0.1499
11502SOL     OW35946   4.344   6.086  11.670 -0.4082 -0.4111 -0.1979
11502SOL    HW135947   4.424   6.136  11.652 -0.9474  0.5402 -0.0144
11502SOL    HW235948   4.346   6.072  11.765 -1.0290  0.6109 -0.0305
11503SOL     OW35949   1.423   6.138  12.393  0.8900 -0.0231 -0.4800
11503SOL    HW135950   1.447   6.073  12.459 -1.2687  0.4023  0.8361
11503SOL    HW235951   1.460   6.220  12.425  0.0092  0.1469  0.1335
11504SOL     OW35952   2.084   5.844  12.384 -0.0642  0.3451  0.1469
11504SOL    HW135953   2.088   5.750  12.403 -0.7327 -0.0075 -1.3321
11504SOL    HW235954   1.996   5.858  12.349  0.4074  1.3063 -0.7165
11505SOL     OW35955   2.720   0.822  12.223  0.0804  0.6574  0.2947
11505SOL    HW135956   2.666   0.898  12.201  0.7147  0.8087 -0.7980
11505SOL    HW235957   2.657   0.755  12.250 -0.7754  0.4673 -1.9733
11506SOL     OW35958   2.716   5.445  11.285  0.0653  0.3927  0.5146
11506SOL    HW135959   2.721   5.430  11.191 -0.5019 -0.8346  0.6537
11506SOL    HW235960   2.807   5.438  11.315  0.2665  0.9407  0.0451
11507SOL     OW35961   3.477   4.807  11.685 -0.6413  0.1486 -0.1976
11507SOL    HW135962   3.534   4.768  11.751  0.6430  0.2027 -1.2141
11507SOL    HW235963   3.489   4.752  11.607  1.4577  2.5960 -1.7781
11508SOL     OW35964   4.640   5.461  12.164 -0.0823 -0.0798  0.4746
11508SOL    HW135965   4.593   5.382  12.139 -1.7411  1.2369 -0.7601
11508SOL    HW235966   4.726   5.452  12.122 -0.4181 -0.9932 -0.0325
11509SOL     OW35967   3.503   6.111  10.749 -0.8990  0.0922  0.0836
11509SOL    HW135968   3.578   6.165  10.776  0.8861 -1.5116 -1.3680
11509SOL    HW235969   3.441   6.175  10.713  0.0629  1.4293  0.6828
11510SOL     OW35970   3.658   6.593  11.682  0.3247 -0.3522 -0.2974
11510SOL    HW135971   3.652   6.498  11.672  0.4195 -0.3884 -0.0207
11510SOL    HW235972   3.624   6.610  11.770 -0.8088 -0.0123 -0.7874
11511SOL     OW35973   2.431   0.341  10.567 -0.6105 -0.2311  0.2475
11511SOL    HW135974   2.394   0.326  10.654 -0.2661  2.0269  0.8535
11511SOL    HW235975   2.519   0.304  10.570  0.2186  1.6894  1.6517
11512SOL     OW35976   4.317   6.627  11.173  0.2128 -0.1329  0.0192
11512SOL    HW135977   4.406   6.619  11.207 -0.3557  0.0195  1.6219
11512SOL    HW235978   4.268   6.558  11.217 -0.0984 -1.4735 -2.2730
11513SOL     OW35979   3.105   7.820  12.000 -0.6343 -0.0763  0.2517
11513SOL    HW135980   3.025   7.851  11.958 -1.0047  1.8251  2.1887
11513SOL    HW235981   3.160   7.897  12.006  1.3045 -1.2882 -0.7633
11514SOL     OW35982   4.322   6.430  12.027  0.5426 -0.6058  0.5762
11514SOL    HW135983   4.248   6.422  11.967  0.8351  2.4313 -0.3988
11514SOL    HW235984   4.283   6.458  12.110  0.4282 -1.3081  0.7636
11515SOL     OW35985   0.847   7.454   8.561 -0.0897 -0.8080  0.1251
11515SOL    HW135986   0.910   7.394   8.522  0.1822 -0.8058  0.5601
11515SOL    HW235987   0.847   7.432   8.654  0.1919  0.0246  0.3261
11516SOL     OW35988   1.222   5.619   9.866  0.5367  0.2039  0.1421
11516SOL    HW135989   1.187   5.560   9.933  0.5256  2.5849  2.3680
11516SOL    HW235990   1.164   5.605   9.791 -1.3779 -0.4266  1.6347
11517SOL     OW35991   4.404   7.094  12.112  0.1419  0.5043  0.3621
11517SOL    HW135992   4.393   7.116  12.019  1.2692  1.8098  0.5063
11517SOL    HW235993   4.325   7.129  12.154 -1.3825 -1.8862 -0.3252
11518SOL     OW35994   2.642   6.546   0.662 -0.0469 -0.2233  0.0750
11518SOL    HW135995   2.627   6.458   0.626  1.1846 -1.1854  1.7901
11518SOL    HW235996   2.731   6.568   0.636 -0.2181  0.3617 -0.0218
11519SOL     OW35997   1.152   7.202  11.774  0.3607 -0.0853  0.4525
11519SOL    HW135998   1.200   7.264  11.720  0.0209  0.2989  0.5800
11519SOL    HW235999   1.196   7.205  11.859  0.1151  0.2676  0.5696
11520SOL     OW36000   2.445   5.426  11.267 -0.7629  0.6444  0.2944
11520SOL    HW136001   2.436   5.374  11.187 -1.5888  1.5382 -0.2145
11520SOL    HW236002   2.539   5.429  11.284 -0.6788 -0.6317  0.0902
11521SOL     OW36003   2.304   6.919  10.148 -0.2979 -0.3588 -0.0407
11521SOL    HW136004   2.209   6.911  10.139 -0.0516 -1.7652 -2.2531
11521SOL    HW236005   2.334   6.938  10.059  1.4862  0.5412  0.7047
11522SOL     OW36006   2.566   7.847   0.299 -0.2781 -0.1029 -0.2188
11522SOL    HW136007   2.482   7.801   0.308 -0.5842  0.5977  0.6154
11522SOL    HW236008   2.606   7.807   0.222 -0.5140 -1.7830  0.4823
11523SOL     OW36009   2.702   6.532   9.832  0.0086 -0.2900 -0.5960
11523SOL    HW136010   2.640   6.589   9.786 -0.7234 -0.9774 -0.4775
11523SOL    HW236011   2.653   6.499   9.907  1.5216  1.7837  1.4821
11524SOL     OW36012   3.557   5.659   0.038 -0.1061 -0.2466 -0.0183
11524SOL    HW136013   3.462   5.666   0.047  0.0409  2.3394  0.3339
11524SOL    HW236014   3.571   5.622  -0.049 -1.4688  1.5088 -1.0537
11525SOL     OW36015   2.681   5.351   0.099 -0.2234  0.2737  0.4377
11525SOL    HW136016   2.745   5.285   0.125 -2.0222 -1.2944  1.1356
11525SOL    HW236017   2.723   5.434   0.118  1.5899 -0.6934  0.8798
11526SOL     OW36018   5.153   6.310   9.184  0.5155  0.9043  0.6034
11526SOL    HW136019   5.152   6.406   9.181 -1.9744  0.9075 -0.1222
11526SOL    HW236020   5.081   6.287   9.241 -0.6278 -0.5393 -1.3076
11527SOL     OW36021   4.355   1.028   0.605 -0.4525 -0.1835  0.3273
11527SOL    HW136022   4.369   0.965   0.534 -0.0658  0.2605  0.0090
11527SOL    HW236023   4.426   1.091   0.596 -0.6007  0.0713  0.8999
11528SOL     OW36024   4.209   0.815   1.270 -0.0687 -0.5820 -0.0745
11528SOL    HW136025   4.251   0.833   1.186 -0.8670 -1.2165 -0.6147
11528SOL    HW236026   4.204   0.901   1.313  0.3430 -0.2576 -0.6630
11529SOL     OW36027   3.995   7.037  12.438 -0.2171  0.2845 -0.6225
11529SOL    HW136028   4.059   7.014  12.506  0.7208 -0.2982 -1.6721
11529SOL    HW236029   3.950   6.955  12.418 -1.3080  0.6852  0.0824
11530SOL     OW36030   2.851   5.613  11.493  0.2786  0.5090 -0.0353
11530SOL    HW136031   2.924   5.557  11.469  0.6886 -0.4538  2.9992
11530SOL    HW236032   2.856   5.687  11.433  2.2587 -0.6886 -1.4550
11531SOL     OW36033   2.939   4.820  12.045  0.3350  0.0725  0.2316
11531SOL    HW136034   2.988   4.836  12.126  0.1753  1.3907  0.0904
11531SOL    HW236035   2.985   4.748  12.003  1.5958  0.6706  0.5561
11532SOL     OW36036   3.145   6.824   0.763 -0.1939  0.4035 -0.1177
11532SOL    HW136037   3.206   6.846   0.834 -1.8850  1.3249  1.1489
11532SOL    HW236038   3.061   6.812   0.808 -1.0164 -0.5417 -1.8253
11533SOL     OW36039   3.285   5.647   0.032 -0.2915 -0.0584  0.1761
11533SOL    HW136040   3.221   5.579   0.009  0.8409 -1.2833  0.5491
11533SOL    HW236041   3.232   5.719   0.064 -1.5598 -0.5983 -0.6251
11534SOL     OW36042   2.241   6.394  11.518 -0.5597 -0.0944 -0.4263
11534SOL    HW136043   2.312   6.450  11.549 -2.0095  0.0808  3.0630
11534SOL    HW236044   2.166   6.454  11.510 -1.1501 -0.8564 -0.7303
11535SOL     OW36045   3.256   5.464  11.190 -0.1503 -0.8298 -0.0621
11535SOL    HW136046   3.330   5.471  11.129 -0.4362  0.1794 -0.3138
11535SOL    HW236047   3.292   5.489  11.275 -0.3001  0.1522 -0.2752
11536SOL     OW36048   2.636   7.286  11.154  0.3489 -0.6043 -0.6847
11536SOL    HW136049   2.717   7.245  11.185  0.4053 -0.6112 -0.8380
11536SOL    HW236050   2.665   7.354  11.093  0.3643  1.0512  1.0690
11537SOL     OW36051   2.031   6.560  11.542  0.0589  0.1265  0.0595
11537SOL    HW136052   1.952   6.538  11.493  0.8770  0.9727 -1.7089
11537SOL    HW236053   2.009   6.538  11.633 -1.7502 -0.8303 -0.5540
11538SOL     OW36054   2.533   0.118  10.308 -0.6988  0.1776 -0.0781
11538SOL    HW136055   2.439   0.125  10.293 -0.8095 -1.2152 -0.1940
11538SOL    HW236056   2.561   0.046  10.251  0.5815  1.0743 -0.6230
11539SOL     OW36057   3.184   0.659   0.565 -0.6856 -0.7563  0.3997
11539SOL    HW136058   3.107   0.715   0.552  0.4233  0.9327  0.6955
11539SOL    HW236059   3.213   0.679   0.654  0.9848 -0.1447 -0.2389
11540SOL     OW36060   4.723   5.395   0.219 -0.1734  0.3962  0.2652
11540SOL    HW136061   4.776   5.427   0.146  0.3973 -2.0785 -0.5197
11540SOL    HW236062   4.779   5.405   0.296  0.8549 -0.7304 -0.3117
11541SOL     OW36063   1.401   6.255  11.335  0.2299  0.4480 -0.0548
11541SOL    HW136064   1.339   6.183  11.342 -0.9644  1.3202 -1.2709
11541SOL    HW236065   1.481   6.222  11.376 -0.8111 -0.9427  0.9400
11542SOL     OW36066   4.551   5.466  11.684  0.0457 -0.0813  0.3133
11542SOL    HW136067   4.609   5.469  11.608 -1.5201 -0.4819 -0.9583
11542SOL    HW236068   4.603   5.423  11.751  1.1106 -0.7436 -0.8802
11543SOL     OW36069   3.442   7.903  11.287 -0.0265  0.1259  0.0755
11543SOL    HW136070   3.413   7.915  11.378  0.6126  0.6734  0.2147
11543SOL    HW236071   3.536   7.888  11.294 -0.3022 -2.0138 -0.3462
11544SOL     OW36072   3.501   6.259  11.824  0.2999  0.4439  1.1173
11544SOL    HW136073   3.526   6.274  11.733 -1.7833  0.1084  0.4442
11544SOL    HW236074   3.500   6.164  11.833 -2.2684  0.3638  0.6034
11545SOL     OW36075   0.913   6.177  11.667 -0.8107  0.2995 -0.2297
11545SOL    HW136076   0.855   6.253  11.672  0.0531  0.8733  2.8300
11545SOL    HW236077   1.000   6.211  11.686 -0.5595 -1.5546  2.4750
11546SOL     OW36078   4.319   5.335  11.801 -0.8043  0.0670  0.5160
11546SOL    HW136079   4.381   5.374  11.739 -1.6152  0.4995 -0.0395
11546SOL    HW236080   4.248   5.302  11.746 -0.8577 -0.8397  1.1084
11547SOL     OW36081   1.052   7.367  10.526 -1.1148 -0.3556  0.0426
11547SOL    HW136082   1.056   7.298  10.460  0.8206 -0.1869 -0.0716
11547SOL    HW236083   1.044   7.321  10.609  1.7751 -0.8927  0.1251
11548SOL     OW36084   2.518   6.435  11.919 -0.5824  0.1526  0.6130
11548SOL    HW136085   2.508   6.371  11.848  2.6355  0.0250  0.0978
11548SOL    HW236086   2.609   6.424  11.947 -1.1158  1.7778  3.2522
11549SOL     OW36087   2.809   5.566  12.340 -0.2131 -0.4106 -0.2466
11549SOL    HW136088   2.844   5.576  12.429  0.0065 -0.2334 -0.3539
11549SOL    HW236089   2.807   5.471  12.326 -1.9812 -0.5509  0.6361
11550SOL     OW36090   3.478   5.977  12.384  0.2053 -0.0251  0.1719
11550SOL    HW136091   3.468   5.954  12.476  3.6423  0.1352  0.6935
11550SOL    HW236092   3.498   5.894  12.340 -1.3137 -0.0841 -0.4771
11551SOL     OW36093   2.757   7.198  12.328  0.7483  0.0772 -0.1733
11551SOL    HW136094   2.756   7.124  12.389  0.5594  0.0217 -0.2424
11551SOL    HW236095   2.691   7.175  12.262  0.1257  0.6567  0.2305
11552SOL     OW36096   3.877   4.590  11.535  0.3937  0.3682  0.2820
11552SOL    HW136097   3.897   4.635  11.617  0.4409  1.7694 -0.4615
11552SOL    HW236098   3.851   4.502  11.561  1.7722  0.3432  1.6902
11553SOL     OW36099   3.436   4.478  11.725  0.0268  0.1379 -0.4703
11553SOL    HW136100   3.453   4.438  11.640 -1.2494  1.3785 -1.3483
11553SOL    HW236101   3.341   4.487  11.729  0.0501  0.0334  1.1465
11554SOL     OW36102   3.329   6.129  11.264  0.1480 -0.7820  0.1991
11554SOL    HW136103   3.288   6.214  11.246 -3.2101 -2.2403  0.3685
11554SOL    HW236104   3.412   6.133  11.215 -0.3498  2.1591 -0.6540
11555SOL     OW36105   2.609   6.515  10.693  0.2269  0.2098 -0.1806
11555SOL    HW136106   2.552   6.441  10.713  2.8123 -1.8635  0.1843
11555SOL    HW236107   2.627   6.555  10.778  3.1959 -2.3524  0.6000
11556SOL     OW36108   2.951   5.385   0.463  0.1338 -0.0198 -0.4141
11556SOL    HW136109   2.919   5.306   0.418  0.2605  1.0754 -2.5552
11556SOL    HW236110   2.872   5.437   0.477  0.0667 -0.4397  0.8964
11557SOL     OW36111   3.004   6.673  10.891  0.5241  0.3257  0.4563
11557SOL    HW136112   3.090   6.714  10.890 -0.2569  2.0747 -1.5524
11557SOL    HW236113   3.005   6.612  10.817 -0.1720  0.8494  0.0085
11558SOL     OW36114   3.059   5.660  12.261  0.2017  0.6155 -0.3550
11558SOL    HW136115   2.967   5.635  12.265 -0.1441  1.9647  0.6449
11558SOL    HW236116   3.102   5.604  12.325 -0.6812  2.8530  2.3868
11559SOL     OW36117   2.544   1.083  11.530 -0.0754  0.1774 -0.2029
11559SOL    HW136118   2.574   1.099  11.441  1.3158 -0.5930  0.1096
11559SOL    HW236119   2.461   1.036  11.519  0.5235 -0.7116 -1.1151
11560SOL     OW36120   3.404   4.655  12.019 -0.2703 -0.9813  0.3906
11560SOL    HW136121   3.414   4.699  12.103 -1.0085 -0.1310  0.0505
11560SOL    HW236122   3.483   4.679  11.970  0.2254 -1.5890  0.8738
11561SOL     OW36123   3.933   7.621   1.064  0.7118 -0.2820 -0.1135
11561SOL    HW136124   3.966   7.706   1.095  0.3576 -0.2382  0.1449
11561SOL    HW236125   3.848   7.612   1.106 -0.3727  0.3626 -2.0308
11562SOL     OW36126   3.180   6.233   0.143 -0.1395  0.3897 -0.2959
11562SOL    HW136127   3.089   6.252   0.123 -0.0688  1.1054  0.0263
11562SOL    HW236128   3.191   6.262   0.233  0.2139 -0.3863 -0.0856
11563SOL     OW36129   1.790   7.010  11.011 -0.1466  0.0030 -0.3850
11563SOL    HW136130   1.870   6.960  11.000 -0.0404 -0.2087  1.0782
11563SOL    HW236131   1.811   7.073  11.081 -0.7243  1.1059 -1.1780
11564SOL     OW36132   3.069   6.601   1.959  0.1319 -0.4401  0.5798
11564SOL    HW136133   3.022   6.584   2.041 -1.7475 -0.6432 -0.4928
11564SOL    HW236134   3.085   6.696   1.960 -0.8142 -0.2735  0.7136
11565SOL     OW36135   3.642   5.168   0.410  0.3344  0.3115  0.1908
11565SOL    HW136136   3.626   5.227   0.336 -2.0593  1.7767  1.7116
11565SOL    HW236137   3.714   5.208   0.458  0.3894  0.6201 -0.1454
11566SOL     OW36138   4.185   4.790  10.626  0.6885  0.1252 -0.5097
11566SOL    HW136139   4.136   4.778  10.544  1.5898  0.4792 -1.1144
11566SOL    HW236140   4.230   4.707  10.639  0.3064 -0.0380 -0.1988
11567SOL     OW36141   2.147   6.020  10.945 -0.2733 -0.5224 -0.4853
11567SOL    HW136142   2.106   6.040  10.861 -1.0445 -1.4170 -0.3370
11567SOL    HW236143   2.241   6.017  10.926 -0.1968  1.7161 -0.7977
11568SOL     OW36144   3.173   5.717   9.994  0.5550 -0.6696 -0.1349
11568SOL    HW136145   3.218   5.790  10.036 -0.4378  0.0936 -0.3618
11568SOL    HW236146   3.234   5.685   9.927  0.6059  0.6053 -0.7184
11569SOL     OW36147   2.402   6.335  10.764  0.1103  0.7644  0.3265
11569SOL    HW136148   2.320   6.288  10.783 -0.4449  1.0348 -1.3245
11569SOL    HW236149   2.375   6.425  10.748  0.2892  0.3163 -3.0933
11570SOL     OW36150   3.423   6.492   0.087  0.1138  0.1117  0.3512
11570SOL    HW136151   3.480   6.432   0.134  1.6071  2.3760  1.6304
11570SOL    HW236152   3.472   6.514   0.008 -0.5652 -0.5310 -0.2678
11571SOL     OW36153   2.759   6.397  11.983  0.2335  0.0567  0.1204
11571SOL    HW136154   2.806   6.355  12.055 -1.2132 -0.5518  0.7544
11571SOL    HW236155   2.797   6.484  11.978  2.0572 -0.6926 -0.0285
11572SOL     OW36156   3.961   6.039   0.115 -0.2514  0.2248 -0.3126
11572SOL    HW136157   3.954   6.103   0.185  2.0037  1.8769 -1.4441
11572SOL    HW236158   3.947   5.955   0.157 -1.1479  1.3072  1.6583
11573SOL     OW36159   3.159   7.241   9.815 -0.0147  0.5795  0.1983
11573SOL    HW136160   3.240   7.205   9.779 -0.1154  0.2672  0.2739
11573SOL    HW236161   3.099   7.245   9.740  0.4358  1.9233 -0.1049
11574SOL     OW36162   2.796   4.959  11.820 -0.1127  0.1312 -0.1595
11574SOL    HW136163   2.854   4.883  11.814  0.8873  0.5354  2.7269
11574SOL    HW236164   2.789   4.991  11.730  0.3604 -2.6461 -1.2876
11575SOL     OW36165   0.869   6.244  12.193 -0.3328 -0.3944 -0.1305
11575SOL    HW136166   0.893   6.336  12.181 -0.7855 -0.2420  0.1367
11575SOL    HW236167   0.852   6.235  12.287 -0.1103 -0.7953 -0.1264
11576SOL     OW36168   1.225   6.845  12.163 -0.0987  0.1876  0.3062
11576SOL    HW136169   1.300   6.893  12.127 -0.4208  1.2810  1.0556
11576SOL    HW236170   1.174   6.911  12.209 -2.6531 -0.1042 -1.9082
11577SOL     OW36171   4.407   5.688   0.869 -0.1304 -0.1367  0.2666
11577SOL    HW136172   4.453   5.610   0.901 -0.1570 -0.0333  0.5622
11577SOL    HW236173   4.322   5.684   0.913 -0.1958 -0.0314  0.1477
11578SOL     OW36174   2.480   6.804  10.530  0.5938  0.3361  0.1156
11578SOL    HW136175   2.438   6.806  10.615  1.2497 -0.4307  0.4637
11578SOL    HW236176   2.570   6.832  10.547  0.5003  1.0212 -0.4655
11579SOL     OW36177   2.688   6.054  11.871  0.5358 -0.2504  0.3735
11579SOL    HW136178   2.678   6.101  11.954 -1.3065  0.9645 -0.4560
11579SOL    HW236179   2.712   5.965  11.895 -1.3426 -0.3050  2.3079
11580SOL     OW36180   3.137   4.994  10.880 -0.3650 -0.2451  0.4505
11580SOL    HW136181   3.107   4.962  10.795  1.1314  1.1377 -0.6548
11580SOL    HW236182   3.120   4.922  10.940 -0.0996 -1.8429 -1.2918
11581SOL     OW36183   1.310   7.360  12.404  0.1472 -0.5899 -0.2455
11581SOL    HW136184   1.217   7.356  12.428 -0.0379 -0.4297 -0.8964
11581SOL    HW236185   1.310   7.407  12.320  0.5926 -2.5465 -1.4064
11582SOL     OW36186   2.093   6.348   0.055  0.0496 -0.5328 -0.1892
11582SOL    HW136187   2.097   6.261   0.014  2.1493  0.4644 -2.2752
11582SOL    HW236188   2.037   6.334   0.132 -0.7107 -3.4346 -1.1084
11583SOL     OW36189   4.434   6.156  10.879  0.2448 -0.0138 -0.5491
11583SOL    HW136190   4.424   6.242  10.922 -1.0015  0.7521 -2.2558
11583SOL    HW236191   4.525   6.154  10.851  0.0541  1.2299 -1.3635
11584SOL     OW36192   2.616   6.001   8.815  0.6283 -0.3761  0.0594
11584SOL    HW136193   2.648   6.041   8.735 -1.5294  0.6983 -0.3239
11584SOL    HW236194   2.549   5.940   8.786 -0.0126 -0.1505  1.0224
11585SOL     OW36195   1.564   6.368  12.497  0.6072  0.0655 -0.6897
11585SOL    HW136196   1.593   6.459  12.487 -1.7524  1.4232  2.9516
11585SOL    HW236197   1.618   6.332  12.567 -3.1076  1.3379  3.2732
11586SOL     OW36198   3.969   0.255   0.621  0.5459 -0.4516  0.1132
11586SOL    HW136199   4.011   0.257   0.707  1.3430  0.9819 -0.2781
11586SOL    HW236200   4.025   0.308   0.565 -0.4998 -0.5140 -1.0512
11587SOL     OW36201   2.227   6.315   1.271 -0.0366 -0.6014  0.2067
11587SOL    HW136202   2.158   6.358   1.321 -0.0275 -0.7355  0.3387
11587SOL    HW236203   2.222   6.223   1.298 -1.2291 -1.0561 -1.3912
11588SOL     OW36204   4.736   4.663   1.116 -0.5747 -0.3571  0.3224
11588SOL    HW136205   4.733   4.739   1.174  1.2255  0.7947 -0.9704
11588SOL    HW236206   4.800   4.604   1.157  0.9718  0.6167 -0.5734
11589SOL     OW36207   4.022   6.490  12.288  0.0494  0.4102  0.3359
11589SOL    HW136208   4.087   6.456  12.350 -0.1261 -1.6395 -0.5083
11589SOL    HW236209   3.953   6.423  12.287  0.3237  0.0625 -2.4473
11590SOL     OW36210   3.212   0.640  11.851 -0.3077 -0.4991 -0.2378
11590SOL    HW136211   3.278   0.572  11.869  1.1174  1.1527  1.0736
11590SOL    HW236212   3.163   0.648  11.932 -1.1288 -0.6056 -0.7084
11591SOL     OW36213   2.764   4.663  10.924  0.3303  0.3005 -0.0888
11591SOL    HW136214   2.804   4.696  11.004 -1.2774  0.3347  0.7377
11591SOL    HW236215   2.709   4.735  10.893 -0.2263 -0.2466 -0.3882
11592SOL     OW36216   2.895   5.754  11.258 -0.0913 -0.6309  0.1027
11592SOL    HW136217   2.987   5.775  11.276  0.1812 -1.6446 -0.0538
11592SOL    HW236218   2.887   5.763  11.163 -1.0673  2.8922  0.3726
11593SOL     OW36219   1.342   7.966  11.591 -0.2064  0.1726  0.2620
11593SOL    HW136220   1.367   7.888  11.541  0.7349  0.6010  0.0443
11593SOL    HW236221   1.330   7.934  11.681  0.9945 -0.0827  0.3425
11594SOL     OW36222   1.842   7.481  12.382  0.3339 -0.5611  0.2560
11594SOL    HW136223   1.845   7.549  12.449  0.7467 -0.7444  0.4277
11594SOL    HW236224   1.888   7.407  12.421  0.1821 -0.8233 -0.0585
11595SOL     OW36225   1.758   4.189  10.279  0.3428 -0.2127  0.7584
11595SOL    HW136226   1.823   4.139  10.329 -0.5137 -0.1532  1.9723
11595SOL    HW236227   1.675   4.173  10.325 -0.2885  0.7270 -0.0149
11596SOL     OW36228   2.859   6.566   2.494 -0.1465  0.2504  0.2588
11596SOL    HW136229   2.764   6.575   2.482 -0.1595  1.2132  0.8878
11596SOL    HW236230   2.868   6.500   2.563 -0.2012 -2.3570 -2.0815
11597SOL     OW36231   3.732   5.729  11.576  0.4719  0.0141 -0.3215
11597SOL    HW136232   3.745   5.686  11.661  0.1734  0.9156  0.1840
11597SOL    HW236233   3.675   5.669  11.527  0.5596 -0.4569  0.1508
11598SOL     OW36234   2.363   0.239   0.485 -0.1237 -0.6661  0.9853
11598SOL    HW136235   2.383   0.328   0.454 -0.6185 -0.0977  2.2370
11598SOL    HW236236   2.430   0.184   0.444 -0.5147  0.0759 -0.7796
11599SOL     OW36237   2.622   5.546  10.771  0.6604  0.5341 -0.1979
11599SOL    HW136238   2.583   5.605  10.835  1.4871  0.2216  0.6141
11599SOL    HW236239   2.550   5.490  10.742  0.3151  0.5741  0.5752
11600SOL     OW36240   2.910   6.831   0.467  0.6097  0.3018  0.1338
11600SOL    HW136241   2.883   6.880   0.544  1.0675  1.6286 -0.5121
11600SOL    HW236242   2.832   6.828   0.411  1.1220  2.2187 -0.7648
11601SOL     OW36243   0.376   6.006   0.261  0.1943  0.0291  0.3029
11601SOL    HW136244   0.312   5.975   0.324 -0.0097 -0.0292  0.0676
11601SOL    HW236245   0.408   5.927   0.217  1.3856 -0.0741  1.3176
11602SOL     OW36246   1.725   5.018  10.922 -0.3944 -0.3630 -0.0088
11602SOL    HW136247   1.793   4.963  10.961 -1.0002 -0.2262  1.3060
11602SOL    HW236248   1.740   5.105  10.959 -1.9646 -0.5737  1.2567
11603SOL     OW36249   6.007   7.697   0.844 -0.3972  0.5407 -0.2852
11603SOL    HW136250   5.958   7.675   0.765 -1.0543  0.5151  0.1168
11603SOL    HW236251   5.941   7.700   0.913  0.1857  0.4188  0.2929
11604SOL     OW36252   3.240   6.420  11.811 -0.0329 -0.2572 -0.4420
11604SOL    HW136253   3.170   6.367  11.848 -0.6509  0.7415 -0.1485
11604SOL    HW236254   3.318   6.364  11.817 -0.8156 -1.4441 -0.9238
11605SOL     OW36255   3.217   0.052  10.906  0.5359 -0.4536 -0.1991
11605SOL    HW136256   3.174   0.087  10.985 -0.3814 -0.3649 -0.7278
11605SOL    HW236257   3.301   0.021  10.937  0.3388 -0.0734  0.7587
11606SOL     OW36258   3.401   5.811  11.186 -0.0181 -0.2498  0.3877
11606SOL    HW136259   3.366   5.864  11.114  0.5967 -0.3548  0.0111
11606SOL    HW236260   3.421   5.875  11.254 -1.0494 -0.1953  0.6633
11607SOL     OW36261   4.310   7.900  11.506 -0.3328 -0.1209 -0.0192
11607SOL    HW136262   4.334   7.827  11.563  1.6864 -1.5069 -2.4162
11607SOL    HW236263   4.385   7.960  11.512  1.8154 -2.0460 -3.7249
11608SOL     OW36264   3.013   6.331   1.506 -0.2385  0.0049 -0.0568
11608SOL    HW136265   3.031   6.363   1.418 -0.2546  0.4694  0.1019
11608SOL    HW236266   3.025   6.408   1.562  3.8798 -1.0876  0.9258
11609SOL     OW36267   3.635   7.020   9.616 -0.3482  0.6574 -0.4598
11609SOL    HW136268   3.705   7.065   9.568  2.5692 -2.2494  0.6760
11609SOL    HW236269   3.615   6.943   9.562 -1.7245  0.7410 -0.0961
11610SOL     OW36270   4.263   0.313   0.769  0.7069 -0.4136  0.1918
11610SOL    HW136271   4.323   0.339   0.839  0.9077  1.3127 -0.5749
11610SOL    HW236272   4.301   0.349   0.689  0.0591 -1.6538 -0.7070
11611SOL     OW36273   3.226   5.368   0.210 -0.4639 -0.0939  0.1010
11611SOL    HW136274   3.240   5.336   0.299 -1.2444  0.2791  0.3669
11611SOL    HW236275   3.314   5.384   0.176 -0.1449 -0.6059  0.6664
11612SOL     OW36276   3.274   4.097   1.235 -0.1351 -0.3702  0.3931
11612SOL    HW136277   3.367   4.113   1.219 -0.1235  0.1291  0.9576
11612SOL    HW236278   3.256   4.136   1.320 -0.5907 -1.5257  0.8483
11613SOL     OW36279   2.579   6.714  10.967 -0.1367 -0.0035 -0.3099
11613SOL    HW136280   2.489   6.747  10.961 -0.6377 -1.3088 -0.1244
11613SOL    HW236281   2.588   6.683  11.057  0.6182  0.4262 -0.2263
11614SOL     OW36282   2.299   6.420   0.417  0.6255  0.2198  0.3596
11614SOL    HW136283   2.316   6.459   0.503 -1.3117 -0.8892  1.3282
11614SOL    HW236284   2.233   6.478   0.378  2.0287  1.1384 -0.7618
11615SOL     OW36285   3.417   6.454  11.411  0.4878 -0.6459 -0.1549
11615SOL    HW136286   3.464   6.385  11.365 -1.2747 -2.0460  0.0339
11615SOL    HW236287   3.331   6.417  11.430 -0.2659  1.3359  0.6609
11616SOL     OW36288   3.202   6.766   1.115 -0.0534 -0.2206 -0.2980
11616SOL    HW136289   3.206   6.859   1.095  0.9084  0.3117  2.0452
11616SOL    HW236290   3.269   6.752   1.182 -2.8339 -1.7178  2.4382
11617SOL     OW36291   3.686   6.309  10.815  0.0632  0.0443  0.5988
11617SOL    HW136292   3.764   6.321  10.869  0.9178  1.5168 -0.8382
11617SOL    HW236293   3.715   6.333  10.726 -1.6457 -0.8502 -0.2516
11618SOL     OW36294   0.633   4.839   9.198 -0.1702  0.0361  0.0365
11618SOL    HW136295   0.549   4.804   9.228  0.4185 -0.7242  0.8257
11618SOL    HW236296   0.625   4.842   9.103 -1.2900  0.4999  0.1248
11619SOL     OW36297   4.763   7.165  10.942  0.0796 -0.0670  0.0060
11619SOL    HW136298   4.775   7.217  10.863  2.4624  1.7830  1.4728
11619SOL    HW236299   4.699   7.214  10.994 -1.9943 -1.6158 -0.9407
11620SOL     OW36300   2.970   6.912   1.228 -0.0772  0.9555 -0.0275
11620SOL    HW136301   2.978   6.819   1.247 -1.1627  0.8204 -0.1782
11620SOL    HW236302   2.908   6.944   1.293  1.0319  1.7909  0.6648
11621SOL     OW36303   1.745   5.636   0.024 -0.0530  0.3152 -0.2863
11621SOL    HW136304   1.822   5.613   0.076 -0.8805 -1.5636  0.1864
11621SOL    HW236305   1.774   5.629  -0.067  0.4288 -0.0069 -0.1100
11622SOL     OW36306   4.115   6.342  11.069 -0.1545  0.5322  0.2328
11622SOL    HW136307   4.053   6.329  10.997  0.5605  0.3525 -0.3653
11622SOL    HW236308   4.150   6.255  11.086 -0.0868  0.6280  0.5832
11623SOL     OW36309   2.084   6.581   0.284  0.0361  0.0093  0.0793
11623SOL    HW136310   2.044   6.663   0.313 -2.0124 -0.9195  0.0448
11623SOL    HW236311   2.129   6.604   0.202 -1.8945  0.7982 -0.8106
11624SOL     OW36312   3.398   7.701   0.034 -0.6991  0.3225  0.6800
11624SOL    HW136313   3.318   7.670  -0.008  1.6370 -1.6484 -2.7886
11624SOL    HW236314   3.428   7.774  -0.020  0.1012  0.7544  1.6597
11625SOL     OW36315   3.459   6.675  10.155 -0.0629 -0.1807 -0.6179
11625SOL    HW136316   3.379   6.727  10.152  0.0680  0.4014  2.6273
11625SOL    HW236317   3.429   6.585  10.140 -1.4943 -0.0576  1.1551
11626SOL     OW36318   4.782   5.342  11.261  0.0480  0.2055 -0.5864
11626SOL    HW136319   4.766   5.399  11.336  1.5879  0.9270 -0.7677
11626SOL    HW236320   4.745   5.389  11.186  1.0625  0.8637 -0.6917
11627SOL     OW36321   1.751   6.196  12.395 -0.0668 -0.2225  0.2412
11627SOL    HW136322   1.659   6.222  12.384 -0.4560 -1.9715 -0.9733
11627SOL    HW236323   1.801   6.271  12.362 -0.9814  1.3988  2.3563
11628SOL     OW36324   3.920   6.536  11.475 -0.0452  0.2269 -0.2877
11628SOL    HW136325   3.828   6.555  11.491 -0.0622  1.0462 -1.2570
11628SOL    HW236326   3.919   6.478  11.398  0.2245 -0.2183  0.0386
11629SOL     OW36327   1.707   4.194  11.725  0.0950 -0.1406  0.1961
11629SOL    HW136328   1.624   4.175  11.680 -0.8179  2.1768  0.7747
11629SOL    HW236329   1.699   4.151  11.810 -0.2136 -0.5064 -0.0154
11630SOL     OW36330   3.368   7.127  11.220 -0.0271  0.3442  0.2167
11630SOL    HW136331   3.341   7.112  11.310 -1.8771  1.6997 -0.0541
11630SOL    HW236332   3.321   7.060  11.170 -0.5187  0.7960  0.0668
11631SOL     OW36333   3.233   7.831  10.703 -0.1387  0.1558 -0.2275
11631SOL    HW136334   3.324   7.846  10.677  0.4929 -0.4409  1.4997
11631SOL    HW236335   3.201   7.917  10.730  0.3633  0.1360  0.4521
11632SOL     OW36336   3.553   6.797   0.101  0.6140  0.5174 -0.3817
11632SOL    HW136337   3.629   6.755   0.061  0.2652  0.1916 -0.7014
11632SOL    HW236338   3.477   6.754   0.062  0.2618  0.0520  0.7588
11633SOL     OW36339   5.426   4.492  12.199  0.0496  0.2713 -0.0333
11633SOL    HW136340   5.491   4.560  12.182  0.6417 -0.5384 -1.1726
11633SOL    HW236341   5.399   4.463  12.112 -0.3321 -0.8150  0.4318
11634SOL     OW36342   2.859   7.669  10.954 -0.2297  0.2212 -0.1431
11634SOL    HW136343   2.934   7.610  10.960 -0.5350 -0.1565 -0.0403
11634SOL    HW236344   2.874   7.733  11.023  0.1528  0.3256 -0.3189
11635SOL     OW36345   2.757   7.216  11.576 -0.0247  0.0412 -0.1987
11635SOL    HW136346   2.714   7.158  11.513 -1.9188  1.0207  0.1168
11635SOL    HW236347   2.755   7.166  11.658 -1.3121  0.3446 -0.0142
11636SOL     OW36348   1.823   5.609  12.272 -0.2882 -0.5756  0.0639
11636SOL    HW136349   1.897   5.645  12.223 -0.3664 -0.5484 -0.0325
11636SOL    HW236350   1.845   5.516  12.282  0.3215 -0.3497  1.0380
11637SOL     OW36351   2.295   5.609  11.772 -0.1188  0.2585  0.6568
11637SOL    HW136352   2.364   5.639  11.712 -1.2837  1.3965 -0.1679
11637SOL    HW236353   2.341   5.552  11.834  1.1684 -0.8723 -1.2183
11638SOL     OW36354   4.595   0.101   9.697  0.5947  0.5145 -0.4099
11638SOL    HW136355   4.524   0.139   9.748  0.5359 -0.5057  0.2966
11638SOL    HW236356   4.638   0.176   9.656  1.9126  1.6153  2.7182
11639SOL     OW36357   3.745   7.039  12.245  0.3099 -0.3569 -0.1174
11639SOL    HW136358   3.808   7.077  12.307  1.6839 -0.9785 -1.0872
11639SOL    HW236359   3.729   7.109  12.182 -0.5697  0.0475  0.5302
11640SOL     OW36360   3.683   5.955  12.021 -0.2284 -0.2227 -0.0893
11640SOL    HW136361   3.617   5.949  12.090  0.1019 -0.1418  0.2398
11640SOL    HW236362   3.634   5.980  11.943 -0.7215 -1.0806 -0.0647
11641SOL     OW36363   0.577   5.856   0.134 -0.0448  0.1226 -0.3791
11641SOL    HW136364   0.640   5.869   0.205  0.2783  0.5146 -0.7318
11641SOL    HW236365   0.618   5.789   0.078 -1.0298 -1.4083  0.6458
11642SOL     OW36366   2.651   4.924   9.899 -0.6806  0.1815 -0.1930
11642SOL    HW136367   2.703   4.939   9.978 -0.6408  0.3923 -0.2570
11642SOL    HW236368   2.629   4.831   9.901 -2.8785  0.6616  1.4189
11643SOL     OW36369   3.235   6.742  12.425  0.0050  0.1056  0.4109
11643SOL    HW136370   3.303   6.748  12.357 -0.2272  0.5258  0.2140
11643SOL    HW236371   3.186   6.824  12.417 -0.8250 -0.3956  0.2426
11644SOL     OW36372   4.228   5.421   0.810 -0.8291  0.5593  0.3074
11644SOL    HW136373   4.322   5.407   0.825 -1.1277 -1.4222  0.6389
11644SOL    HW236374   4.214   5.512   0.833  1.5739  1.9163 -2.7609
11645SOL     OW36375   5.388   4.213  12.332 -0.3701 -0.6679 -0.5660
11645SOL    HW136376   5.438   4.175  12.260  1.2028  1.4906 -0.7133
11645SOL    HW236377   5.404   4.307  12.326 -1.0729 -0.3004  1.9520
11646SOL     OW36378   2.258   5.566  11.417  0.4568 -0.2045 -0.4850
11646SOL    HW136379   2.308   5.532  11.342  0.2822 -0.4565 -0.4916
11646SOL    HW236380   2.322   5.612  11.470  0.5669  0.0502 -0.8356
11647SOL     OW36381   3.920   0.695  11.347  0.4497  0.2307  0.4438
11647SOL    HW136382   3.862   0.770  11.339  2.3130  1.6759 -0.3946
11647SOL    HW236383   3.869   0.620  11.316 -0.5259  1.6545 -1.5409
11648SOL     OW36384   2.981   4.476  11.138  0.0484 -0.2975 -0.2569
11648SOL    HW136385   2.984   4.381  11.125 -2.1223 -0.0454 -3.8614
11648SOL    HW236386   3.025   4.512  11.061  0.2026  1.6584  0.6859
11649SOL     OW36387   4.359   4.905  10.827 -0.1887 -0.0426  0.2416
11649SOL    HW136388   4.301   4.845  10.781 -1.8074  0.3113  1.7034
11649SOL    HW236389   4.396   4.853  10.898 -0.7433  0.3628  0.8482
11650SOL     OW36390   2.160   6.783   1.966  0.0896  0.2357  0.2646
11650SOL    HW136391   2.065   6.797   1.969  0.1229  0.2571  1.4164
11650SOL    HW236392   2.195   6.840   2.035  0.6612 -1.9555  1.8897
11651SOL     OW36393   1.829   7.275  11.903 -0.1233  0.4281  0.1091
11651SOL    HW136394   1.801   7.348  11.959  0.1656  1.2527 -0.7892
11651SOL    HW236395   1.873   7.215  11.963 -0.6878  0.8023  0.9346
11652SOL     OW36396   2.230   7.324   2.176  0.0974 -0.0952 -0.3064
11652SOL    HW136397   2.296   7.390   2.158  0.1031 -0.3836 -1.4111
11652SOL    HW236398   2.269   7.268   2.243  1.0785 -0.3999 -1.1135
11653SOL     OW36399   1.860   6.616   2.264  0.1115 -0.1945  0.0483
11653SOL    HW136400   1.834   6.693   2.315 -0.1541  0.8085 -1.5239
11653SOL    HW236401   1.779   6.584   2.225  0.5133  0.0499 -1.0315
11654SOL     OW36402   1.493   0.889   1.159 -0.1198 -0.3653  0.4741
11654SOL    HW136403   1.580   0.929   1.163 -0.7630  1.0188  1.1736
11654SOL    HW236404   1.489   0.833   1.237  0.2402 -0.6690  0.2799
11655SOL     OW36405   5.454   0.538   1.046  0.6537  0.5792 -0.0104
11655SOL    HW136406   5.426   0.594   0.973  0.7637 -1.0849 -1.3855
11655SOL    HW236407   5.436   0.449   1.015 -0.0882 -0.1463  2.3515
11656SOL     OW36408   1.539   7.419   3.073  0.8248  0.8457  0.0131
11656SOL    HW136409   1.500   7.460   3.150 -1.0768  0.7096 -0.8026
11656SOL    HW236410   1.551   7.491   3.011  0.6192  0.6962 -0.2063
11657SOL     OW36411   3.470   0.652   1.155 -0.4094 -0.3542 -0.0022
11657SOL    HW136412   3.494   0.721   1.217 -1.0727 -0.4051  0.3229
11657SOL    HW236413   3.535   0.583   1.169  1.0300  0.6989 -1.2174
11658SOL     OW36414   0.661   6.657  12.367  0.7907 -0.3939  0.4390
11658SOL    HW136415   0.617   6.589  12.418  1.4099 -1.1388 -0.0028
11658SOL    HW236416   0.651   6.628  12.276  0.3397  0.5409  0.1749
11659SOL     OW36417   2.561   0.142   1.827 -0.4113 -0.2212 -0.1905
11659SOL    HW136418   2.583   0.099   1.745 -2.5766  1.6272 -1.8973
11659SOL    HW236419   2.644   0.177   1.859  0.6364 -1.8403 -1.0434
11660SOL     OW36420   1.604   6.847   1.326  0.0886  0.3665 -0.1619
11660SOL    HW136421   1.526   6.890   1.290 -1.2988  0.0584  2.2952
11660SOL    HW236422   1.634   6.790   1.255 -1.0344  1.5723 -1.6843
11661SOL     OW36423   4.920   2.567   2.068 -0.0885 -0.4166  0.1185
11661SOL    HW136424   4.860   2.626   2.114  0.4892  1.2840 -1.2107
11661SOL    HW236425   4.869   2.487   2.053 -1.6346  0.5569  0.0148
11662SOL     OW36426   1.579   7.672   1.056 -0.3092 -0.8509 -0.5541
11662SOL    HW136427   1.554   7.588   1.093  1.1894 -1.1972 -0.2444
11662SOL    HW236428   1.648   7.651   0.992 -0.7907  0.0210 -1.3836
11663SOL     OW36429   3.121   1.849   1.565  0.2454 -0.7471 -0.0411
11663SOL    HW136430   3.100   1.905   1.639 -1.0123  0.5011 -1.2879
11663SOL    HW236431   3.140   1.909   1.493 -1.5701 -1.8581 -1.5437
11664SOL     OW36432   3.187   0.869   2.165  0.0361 -0.1764  0.4122
11664SOL    HW136433   3.189   0.801   2.232  2.9789 -1.6241 -0.9581
11664SOL    HW236434   3.261   0.926   2.186  0.1105  0.1947 -0.7435
11665SOL     OW36435   2.742   0.300   0.522 -0.4265 -0.0240 -0.1463
11665SOL    HW136436   2.681   0.339   0.458 -1.4852 -0.4966  0.5430
11665SOL    HW236437   2.705   0.324   0.607  2.3431  2.8157  0.4404
11666SOL     OW36438   5.185   7.992  12.233 -0.0360 -0.2569 -0.2745
11666SOL    HW136439   5.101   7.982  12.188 -0.5835  2.9181 -0.1245
11666SOL    HW236440   5.250   7.991  12.162 -0.2210 -1.7354 -0.4673
11667SOL     OW36441   1.469   5.228   1.245 -0.6242  0.0261  0.1208
11667SOL    HW136442   1.431   5.256   1.328 -0.7323  0.2403  0.0014
11667SOL    HW236443   1.441   5.294   1.182 -0.5292 -0.1242 -0.0835
11668SOL     OW36444   3.406   0.168   0.615  0.5947 -0.1592 -0.4969
11668SOL    HW136445   3.465   0.095   0.636  2.0544  0.4787 -2.1021
11668SOL    HW236446   3.337   0.129   0.561  1.0370 -0.4682 -0.8441
11669SOL     OW36447   3.850   0.774  12.414  0.1658  0.5689  0.2085
11669SOL    HW136448   3.919   0.799  12.476  0.3555  0.9087 -0.1341
11669SOL    HW236449   3.880   0.690  12.379  0.7180  0.9887 -0.3724
11670SOL     OW36450   4.499   0.296   0.926 -0.1205 -0.5199  0.1653
11670SOL    HW136451   4.563   0.367   0.915 -1.4055  0.8235  0.9485
11670SOL    HW236452   4.473   0.301   1.018 -0.0982 -2.1754  0.2942
11671SOL     OW36453   1.719   7.372   0.470 -0.2814 -0.0138 -0.5772
11671SOL    HW136454   1.710   7.398   0.378 -0.2133 -0.1993 -0.6373
11671SOL    HW236455   1.802   7.324   0.473  0.2608  0.9218 -0.2047
11672SOL     OW36456   1.097   6.313   2.334  0.1232  0.1931  0.0957
11672SOL    HW136457   1.066   6.245   2.395 -1.5084 -0.3825 -1.3038
11672SOL    HW236458   1.028   6.318   2.268  1.8263  0.8070 -1.6975
11673SOL     OW36459   5.026   0.559   0.849 -0.1256 -0.2028  0.2063
11673SOL    HW136460   5.058   0.585   0.936  0.7415  0.5215 -0.3237
11673SOL    HW236461   5.043   0.635   0.793 -3.5245  0.6002  0.0356
11674SOL     OW36462   1.705   1.050   1.212 -0.4104  0.3968 -0.4209
11674SOL    HW136463   1.769   1.069   1.281  1.1287  0.8268 -1.8965
11674SOL    HW236464   1.713   1.124   1.152 -1.6272 -0.0248 -1.1280
11675SOL     OW36465   2.566   7.489   1.721  0.4948  0.2982  0.1414
11675SOL    HW136466   2.570   7.577   1.684  1.3346  0.4978  0.6710
11675SOL    HW236467   2.473   7.473   1.736  0.3584  1.2215  0.3292
11676SOL     OW36468   3.993   1.685   0.601 -0.1180 -0.3928  0.1358
11676SOL    HW136469   3.910   1.711   0.641 -0.5757  0.2859 -1.2010
11676SOL    HW236470   3.971   1.667   0.510  1.0398 -1.1257 -0.0162
11677SOL     OW36471   2.734   7.579   0.493 -0.1398 -0.3395  0.2571
11677SOL    HW136472   2.739   7.497   0.443  2.8395 -0.6719  0.8698
11677SOL    HW236473   2.795   7.565   0.566 -0.9899  1.7560  1.4391
11678SOL     OW36474   0.593   0.519   0.930  0.1034  0.2513 -0.0643
11678SOL    HW136475   0.506   0.489   0.957  1.3735 -3.0018  0.8655
11678SOL    HW236476   0.633   0.552   1.011  0.4198 -0.1409 -0.0587
11679SOL     OW36477   4.073   5.371   1.296 -0.4240 -0.0387  0.3739
11679SOL    HW136478   3.978   5.380   1.305 -0.6990  0.6952 -2.2710
11679SOL    HW236479   4.109   5.447   1.342 -0.9995 -0.8746  2.2869
11680SOL     OW36480   3.997   0.550  12.402  0.5822  0.2052 -0.4803
11680SOL    HW136481   3.998   0.454  12.399 -2.2624 -0.2305  3.8406
11680SOL    HW236482   4.059   0.572  12.471  1.0899  1.5369 -1.3293
11681SOL     OW36483   0.783   7.712   1.788  0.2754 -0.2902 -0.1398
11681SOL    HW136484   0.713   7.649   1.802  1.2127 -1.2251  0.4797
11681SOL    HW236485   0.774   7.774   1.860  0.0422 -0.3501 -0.1163
11682SOL     OW36486   3.361   7.811   1.486  0.0249  0.1974 -0.0385
11682SOL    HW136487   3.287   7.834   1.542  0.6865 -1.5830  1.7028
11682SOL    HW236488   3.433   7.797   1.547  0.6915 -2.2226 -1.2347
11683SOL     OW36489   2.219   0.584   0.956  0.2655 -0.0078 -0.1377
11683SOL    HW136490   2.144   0.577   0.896  0.2924  0.7339 -0.2622
11683SOL    HW236491   2.279   0.516   0.926  0.4871  0.6593 -1.2648
11684SOL     OW36492   0.824   5.943   2.545  0.5765  0.1955  0.0203
11684SOL    HW136493   0.761   5.875   2.521 -1.8523  2.3994 -0.3147
11684SOL    HW236494   0.832   5.936   2.640  1.5963 -1.5037 -0.1584
11685SOL     OW36495   1.558   1.494   2.357 -0.6386  0.2716  0.3393
11685SOL    HW136496   1.635   1.496   2.414 -0.9728  0.8527  0.7856
11685SOL    HW236497   1.495   1.441   2.404 -0.2684 -0.8357 -0.3695
11686SOL     OW36498   3.624   0.236   2.221  0.2018 -0.3315 -0.4626
11686SOL    HW136499   3.592   0.312   2.270 -2.3215 -0.9690 -0.9877
11686SOL    HW236500   3.711   0.263   2.190 -0.8067  2.5767 -1.1004
11687SOL     OW36501   3.424   7.643   2.501  0.3718 -0.0998  0.1073
11687SOL    HW136502   3.445   7.673   2.590 -0.4404 -1.9732  0.9926
11687SOL    HW236503   3.508   7.620   2.463  0.6327 -0.4041  0.8404
11688SOL     OW36504   2.293   6.897   0.249 -0.2241  0.2032  0.1161
11688SOL    HW136505   2.280   6.932   0.337  0.0288 -1.0022  0.6534
11688SOL    HW236506   2.388   6.897   0.237 -0.1275 -1.3270  0.5950
11689SOL     OW36507   1.191   6.692   1.166 -0.8194 -0.3661  0.0060
11689SOL    HW136508   1.217   6.636   1.240  2.0917  2.1162  1.0557
11689SOL    HW236509   1.238   6.656   1.091 -2.2620 -1.7176 -0.3166
11690SOL     OW36510   3.905   0.041   0.987  0.5686 -0.2825  0.6220
11690SOL    HW136511   3.928  -0.039   1.033 -1.2378 -1.8625 -1.0394
11690SOL    HW236512   3.810   0.049   0.997  0.2414 -0.1379 -1.8507
11691SOL     OW36513   4.265   7.699  12.434 -0.3298 -0.9656 -0.0243
11691SOL    HW136514   4.181   7.739  12.458 -0.3883 -1.3513  0.4353
11691SOL    HW236515   4.331   7.765  12.459 -0.3698 -1.4547  1.5043
11692SOL     OW36516   3.330   1.304   1.502  0.3688  0.0954 -0.4018
11692SOL    HW136517   3.246   1.274   1.535  0.0317  0.1006 -1.2314
11692SOL    HW236518   3.312   1.333   1.412  1.4913 -1.1095 -1.0640
11693SOL     OW36519   2.340   7.754   2.386 -0.3774 -0.5227 -0.2996
11693SOL    HW136520   2.306   7.703   2.313 -0.4364  1.0760 -1.4448
11693SOL    HW236521   2.413   7.803   2.349 -0.3593  0.2581  0.7209
11694SOL     OW36522   2.276   0.038   1.774  0.0768  0.0462 -0.0889
11694SOL    HW136523   2.325   0.101   1.827  0.1060  0.9304 -1.1257
11694SOL    HW236524   2.221  -0.008   1.836  0.2680  0.9099  0.7380
11695SOL     OW36525   0.902   0.557   4.339  0.8208  0.0961  0.3765
11695SOL    HW136526   0.924   0.596   4.255 -1.4794  1.1285  0.1872
11695SOL    HW236527   0.970   0.587   4.399  0.5519  2.2728 -0.3536
11696SOL     OW36528   4.225   0.022   1.180 -0.2529  0.2318  0.1593
11696SOL    HW136529   4.297  -0.040   1.189 -0.6455 -0.3738 -0.7863
11696SOL    HW236530   4.227   0.049   1.088 -0.2550  1.4273  0.4900
11697SOL     OW36531   3.784   1.073   0.428 -0.0953  0.1750  0.8184
11697SOL    HW136532   3.851   1.073   0.496  0.2960  1.0580  0.4454
11697SOL    HW236533   3.733   1.152   0.444 -0.1229  0.2896  0.2109
11698SOL     OW36534   2.450   7.548   0.907 -0.3047 -0.5959 -0.3422
11698SOL    HW136535   2.520   7.508   0.855 -0.3836 -1.0972 -0.0758
11698SOL    HW236536   2.385   7.577   0.842  0.0382 -0.3439 -0.5741
11699SOL     OW36537   2.972   1.275   1.206 -0.0074  0.6995  0.1866
11699SOL    HW136538   3.061   1.307   1.197  0.1456 -0.1723 -1.9450
11699SOL    HW236539   2.923   1.349   1.242  1.4453  1.3446  0.9263
11700SOL     OW36540   3.441   7.346   2.970  0.6349 -0.3270 -0.4679
11700SOL    HW136541   3.423   7.394   2.889  2.2008 -0.7015 -1.0757
11700SOL    HW236542   3.447   7.414   3.037  0.8233  0.1328 -0.9480
11701SOL     OW36543   4.322   0.181   2.943  0.7236 -0.3446  0.3713
11701SOL    HW136544   4.361   0.261   2.908 -0.3232 -0.0673 -0.2133
11701SOL    HW236545   4.392   0.141   2.995  1.1761  1.1053  0.9388
11702SOL     OW36546   2.219   6.740  11.893 -0.0121 -0.5863  0.0017
11702SOL    HW136547   2.134   6.784  11.890 -0.4034 -1.3133 -0.0478
11702SOL    HW236548   2.212   6.680  11.968  0.0575 -1.4173 -0.6388
11703SOL     OW36549   3.009   0.296  12.243 -0.0278  0.1513 -0.0531
11703SOL    HW136550   3.086   0.248  12.212  0.4951 -0.9403  2.5914
11703SOL    HW236551   2.974   0.241  12.313 -2.6314  1.1429 -0.4700
11704SOL     OW36552   4.002   0.765   1.576 -0.2254 -0.1590 -0.1321
11704SOL    HW136553   3.980   0.696   1.638 -0.5846 -0.2969 -0.4084
11704SOL    HW236554   4.032   0.719   1.498  1.0618  0.0253  0.2315
11705SOL     OW36555   2.754   5.981   2.871 -0.2920 -0.4751 -0.2228
11705SOL    HW136556   2.713   5.914   2.926 -1.1172  0.2587  0.0794
11705SOL    HW236557   2.848   5.965   2.880 -0.4378 -0.9016  0.7256
11706SOL     OW36558   4.201   7.713   0.360  0.3189 -0.2607  0.0015
11706SOL    HW136559   4.199   7.629   0.314 -0.3999 -0.8896  1.1429
11706SOL    HW236560   4.115   7.719   0.402  0.6281  0.7160  0.5068
11707SOL     OW36561   2.803   1.366   1.666 -0.1346  0.0703  0.5333
11707SOL    HW136562   2.792   1.272   1.648  1.1065 -0.0095  0.1312
11707SOL    HW236563   2.713   1.399   1.672 -0.6205 -0.7616 -1.2751
11708SOL     OW36564   3.516   2.219   0.084 -0.3517  0.0850  0.2905
11708SOL    HW136565   3.526   2.314   0.072  0.8723 -0.0282  0.2107
11708SOL    HW236566   3.516   2.207   0.179 -0.9391  0.1947  0.3084
11709SOL     OW36567   3.649   7.989   0.121 -0.3712 -0.1164  0.1598
11709SOL    HW136568   3.613   7.954   0.040  0.7683 -1.5661  0.2375
11709SOL    HW236569   3.692   8.071   0.096  0.2188 -0.6957 -0.7667
11710SOL     OW36570   2.044   0.163   2.383 -0.3143  0.5731 -0.2289
11710SOL    HW136571   2.094   0.105   2.325  0.2416  0.9550 -0.1384
11710SOL    HW236572   2.054   0.249   2.344 -2.2960  0.4247 -1.1555
11711SOL     OW36573   6.018   7.981   2.855 -0.1075 -0.5798 -0.2479
11711SOL    HW136574   5.992   7.890   2.869 -0.0958 -0.8436 -1.8135
11711SOL    HW236575   6.113   7.981   2.870 -0.2013 -0.6855  0.3749
11712SOL     OW36576   3.049   0.533  12.065 -0.6980  0.4502 -0.0258
11712SOL    HW136577   3.007   0.565  12.145 -1.6844  1.7757 -1.0297
11712SOL    HW236578   3.129   0.490  12.095  0.2729  3.1120  1.5199
11713SOL     OW36579   4.240   0.548   0.612 -0.1243  0.3171  0.2510
11713SOL    HW136580   4.329   0.569   0.641 -0.2110 -1.1020  1.7087
11713SOL    HW236581   4.183   0.594   0.673 -0.3212 -1.3184  1.3781
11714SOL     OW36582   3.667   7.024   0.212 -0.4754  0.6680  0.0145
11714SOL    HW136583   3.627   7.033   0.298 -2.7989  1.9011 -1.0891
11714SOL    HW236584   3.619   6.952   0.171 -0.5920  1.1803 -0.7934
11715SOL     OW36585   2.726   7.597   1.914  0.3204  0.2404  0.1176
11715SOL    HW136586   2.689   7.626   1.997 -0.0226  2.5854 -0.7828
11715SOL    HW236587   2.650   7.576   1.859  0.5471 -2.6429  0.7332
11716SOL     OW36588   1.176   6.907   1.465 -0.1788  0.1673  0.4997
11716SOL    HW136589   1.214   6.957   1.392 -2.7762  1.9069  0.2354
11716SOL    HW236590   1.224   6.936   1.542  0.9921  0.0694 -0.1596
11717SOL     OW36591   3.176   3.655   1.386  0.2049  0.7176  0.3108
11717SOL    HW136592   3.181   3.694   1.473  0.1018  0.0222  0.6307
11717SOL    HW236593   3.206   3.565   1.397 -0.5772  0.3758 -0.2150
11718SOL     OW36594   7.585   7.711   3.458  0.3024  0.0507 -0.1530
11718SOL    HW136595   7.604   7.803   3.475 -1.4391  0.3551  0.3165
11718SOL    HW236596   7.607   7.666   3.539  1.3446 -0.0045 -0.4483
11719SOL     OW36597   0.754   7.037   2.284  0.6826 -0.1414 -0.2292
11719SOL    HW136598   0.679   7.013   2.230  1.4935 -1.1499 -0.9443
11719SOL    HW236599   0.760   7.132   2.275 -0.7068 -0.0049  0.1189
11720SOL     OW36600   3.827   7.708   2.549  0.5469  0.4639 -0.2021
11720SOL    HW136601   3.763   7.693   2.480 -0.9767 -2.6613  1.6477
11720SOL    HW236602   3.894   7.641   2.535 -0.3883 -1.0319  1.8425
11721SOL     OW36603   0.581   0.295   4.469 -0.0819  0.6610  0.2443
11721SOL    HW136604   0.636   0.263   4.397 -0.8666 -0.2104  0.0206
11721SOL    HW236605   0.643   0.336   4.530  0.5352  1.9828 -1.2054
11722SOL     OW36606   3.248   7.319   3.514  0.1270  0.0831  0.3010
11722SOL    HW136607   3.322   7.260   3.519  0.4093 -0.0210 -2.8577
11722SOL    HW236608   3.179   7.276   3.564  0.8994 -2.0036 -0.3336
11723SOL     OW36609   4.006   6.348   3.855  0.6164 -0.5287 -0.1312
11723SOL    HW136610   4.102   6.353   3.861  0.4480  1.1130  1.8120
11723SOL    HW236611   3.987   6.377   3.766  1.8787 -0.2775 -0.3462
11724SOL     OW36612   1.284   0.114   3.643 -0.2227 -0.1182 -0.4116
11724SOL    HW136613   1.313   0.076   3.726 -0.6517 -1.0557 -0.6660
11724SOL    HW236614   1.252   0.038   3.593 -0.2706  0.4791 -1.2995
11725SOL     OW36615   2.504   7.543   1.328 -0.8935  0.8825 -0.8329
11725SOL    HW136616   2.545   7.461   1.300  0.7618  1.2509  0.3342
11725SOL    HW236617   2.442   7.516   1.396  0.8911  0.6766  0.8024
11726SOL     OW36618   2.569   7.522   3.398 -0.1000 -0.3578 -0.1228
11726SOL    HW136619   2.502   7.478   3.346 -0.4956 -0.0975  0.1672
11726SOL    HW236620   2.543   7.614   3.400 -0.7067 -0.5323  1.4524
11727SOL     OW36621   3.548   7.374   1.892  0.1419  0.1393  0.2059
11727SOL    HW136622   3.539   7.460   1.851 -1.1974  1.2290  2.5802
11727SOL    HW236623   3.458   7.349   1.915  0.8810  0.7769  4.5595
11728SOL     OW36624   2.006   7.784   3.507  0.2244 -0.0363  0.6977
11728SOL    HW136625   2.001   7.811   3.415 -1.4795  0.7326  0.9812
11728SOL    HW236626   1.967   7.696   3.508  1.1596 -0.4669  0.5544
11729SOL     OW36627   2.238   6.770   5.043  0.5926 -0.3914 -0.3835
11729SOL    HW136628   2.152   6.727   5.039  1.4807 -2.2308 -1.0329
11729SOL    HW236629   2.299   6.699   5.064  2.0535  0.7206 -0.7108
11730SOL     OW36630   2.329   1.365   3.383  0.6710  0.2259  0.3275
11730SOL    HW136631   2.250   1.342   3.431 -0.3601  1.8724 -0.4920
11730SOL    HW236632   2.376   1.425   3.441  1.2982 -0.6719  0.7721
11731SOL     OW36633   3.676   7.381   3.422 -0.3727  0.3767  0.0271
11731SOL    HW136634   3.671   7.333   3.339  0.3823 -0.6789  0.5611
11731SOL    HW236635   3.719   7.463   3.400 -1.0412  0.5214 -0.7930
11732SOL     OW36636   3.219   1.555   3.731  0.3910 -0.7567  0.2254
11732SOL    HW136637   3.207   1.642   3.692  0.7260 -0.9239 -0.2579
11732SOL    HW236638   3.292   1.517   3.682  1.4977 -0.5753  1.6605
11733SOL     OW36639   1.647   7.090   3.749  0.0114 -0.1226 -0.0343
11733SOL    HW136640   1.690   7.086   3.834 -0.2811 -0.0743  0.1163
11733SOL    HW236641   1.719   7.094   3.686  0.2212  0.7204  0.2477
11734SOL     OW36642   2.001   6.299   3.677 -0.1597 -0.6653  0.1503
11734SOL    HW136643   2.082   6.258   3.707  1.3558  1.1352 -1.2187
11734SOL    HW236644   2.025   6.345   3.596 -2.3024  0.8155  0.2514
11735SOL     OW36645   4.013   7.560   2.948 -0.3365  0.6172 -0.2399
11735SOL    HW136646   4.017   7.596   2.859 -0.2236  0.1331 -0.4329
11735SOL    HW236647   3.962   7.624   2.997 -0.0737  1.0804 -0.5608
11736SOL     OW36648   2.307   6.672   2.481  0.1769 -0.1150 -0.6057
11736SOL    HW136649   2.274   6.743   2.536  0.6438 -0.4016  0.0599
11736SOL    HW236650   2.235   6.654   2.419  0.2724  1.2908 -1.1508
11737SOL     OW36651   1.855   5.946   3.241 -0.4920 -0.1542  0.4394
11737SOL    HW136652   1.795   5.904   3.302 -2.2767  1.4322 -0.1491
11737SOL    HW236653   1.799   5.981   3.171  1.0475  1.6969  0.0388
11738SOL     OW36654   3.162   6.904   3.344 -0.2107 -0.4581 -0.2676
11738SOL    HW136655   3.256   6.906   3.365 -0.2878  0.0801  0.0396
11738SOL    HW236656   3.156   6.950   3.260 -0.4897  1.8406  0.9283
11739SOL     OW36657   2.959   7.987   2.751  0.0679  0.3013 -0.0989
11739SOL    HW136658   2.967   7.892   2.758  1.3483  0.4427  0.6377
11739SOL    HW236659   2.878   8.001   2.702  0.3514 -1.1912 -1.0480
11740SOL     OW36660   2.397   5.124   1.018 -0.0097  1.3144  0.3155
11740SOL    HW136661   2.427   5.080   0.938  1.5552  1.7363  0.6329
11740SOL    HW236662   2.377   5.053   1.079 -2.6421  0.9242 -0.8621
11741SOL     OW36663   2.165   6.714   3.353 -0.5526  0.0064 -0.0112
11741SOL    HW136664   2.195   6.782   3.293 -1.4955 -0.7696 -1.4236
11741SOL    HW236665   2.240   6.655   3.363  0.0711  0.8940  0.7473
11742SOL     OW36666   2.694   6.415   2.112 -0.2722  0.1445  0.4976
11742SOL    HW136667   2.726   6.351   2.175 -1.7037 -1.4028 -0.2660
11742SOL    HW236668   2.625   6.463   2.158 -0.9030 -0.5683  0.2923
11743SOL     OW36669   0.144   6.101   3.797 -0.0217  0.0197 -0.3059
11743SOL    HW136670   0.066   6.059   3.760  0.7276 -0.3501 -1.5191
11743SOL    HW236671   0.215   6.038   3.781  0.3534 -0.1448  1.7831
11744SOL     OW36672   2.605   1.788   4.278  0.0518  0.3755  0.3358
11744SOL    HW136673   2.547   1.832   4.217 -0.8624  0.3489  1.1656
11744SOL    HW236674   2.675   1.851   4.294  1.1578 -0.1766 -1.8785
11745SOL     OW36675   2.620   7.819   3.688  0.0698 -0.3187 -0.0804
11745SOL    HW136676   2.543   7.862   3.651  1.6005  0.2123 -2.9332
11745SOL    HW236677   2.611   7.727   3.664 -0.9831 -0.8645  2.1044
11746SOL     OW36678   1.315   0.543   3.520  0.0981  0.0262  0.0195
11746SOL    HW136679   1.254   0.482   3.561 -0.9626 -0.4188 -2.0828
11746SOL    HW236680   1.374   0.488   3.469  0.3007  0.6217 -0.4098
11747SOL     OW36681   1.597   0.316   1.391  0.2739  0.3371  0.1435
11747SOL    HW136682   1.598   0.354   1.303 -0.6779 -0.4329 -0.2203
11747SOL    HW236683   1.661   0.367   1.440 -0.0574  1.5867 -0.6690
11748SOL     OW36684   1.877   7.021   2.763 -0.1613 -0.0944  0.2545
11748SOL    HW136685   1.827   7.103   2.763  1.9526  1.2814  0.4567
11748SOL    HW236686   1.901   7.008   2.854  0.0559 -0.5802  0.1296
11749SOL     OW36687   2.917   6.905   2.145  0.0651  0.1300  0.5811
11749SOL    HW136688   2.842   6.862   2.186 -0.1570 -0.7970 -0.7372
11749SOL    HW236689   2.985   6.907   2.213 -0.6075 -0.4746  1.2789
11750SOL     OW36690   2.436   6.803   4.146  0.3515 -0.4864  0.7326
11750SOL    HW136691   2.465   6.753   4.071 -0.2409 -0.0929  0.2258
11750SOL    HW236692   2.408   6.738   4.210  0.0713 -0.8066  0.2828
11751SOL     OW36693   1.997   5.094   4.123  0.1973 -0.0139  0.4833
11751SOL    HW136694   1.989   5.046   4.040 -1.2511 -2.1972  1.7885
11751SOL    HW236695   2.063   5.161   4.105  0.0990 -0.5387 -2.3598
11752SOL     OW36696   2.769   0.657   3.206 -0.3608  0.4952 -0.0735
11752SOL    HW136697   2.804   0.686   3.290  1.7002  1.9477 -1.3501
11752SOL    HW236698   2.798   0.566   3.198 -0.4029  0.4097  0.6695
11753SOL     OW36699   1.310   7.665   3.143 -0.0365 -0.6077  0.3954
11753SOL    HW136700   1.372   7.631   3.208  0.1629 -0.6154  0.2009
11753SOL    HW236701   1.301   7.758   3.166  0.2688 -0.5393  0.2518
11754SOL     OW36702   3.500   0.410   2.376 -0.3964 -0.7562 -0.4210
11754SOL    HW136703   3.498   0.501   2.347  0.3829 -0.4383  0.4527
11754SOL    HW236704   3.427   0.403   2.438  0.6306 -0.2097  0.8908
11755SOL     OW36705   3.261   7.299   1.902 -0.1057 -0.7856 -0.6268
11755SOL    HW136706   3.208   7.230   1.942 -0.5794 -0.8576 -1.3611
11755SOL    HW236707   3.200   7.371   1.887  0.8993  1.0272  2.7979
11756SOL     OW36708   1.983   0.248   3.879 -0.2931 -0.3431  0.1349
11756SOL    HW136709   1.950   0.158   3.880  1.2627 -0.9913 -1.5609
11756SOL    HW236710   1.925   0.294   3.818 -0.9148 -0.2458  0.7856
11757SOL     OW36711   2.978   0.061   1.603 -0.0259 -0.1346 -0.3528
11757SOL    HW136712   2.983   0.104   1.518  0.0611  1.2603  0.3287
11757SOL    HW236713   2.973   0.133   1.666  0.5891 -1.1222  0.8685
11758SOL     OW36714   2.940   0.416   0.893  0.6171 -0.6887  0.3331
11758SOL    HW136715   2.900   0.397   0.978 -0.3077  0.7839  0.2567
11758SOL    HW236716   2.912   0.505   0.872 -2.1044 -2.1169 -3.1590
11759SOL     OW36717   2.488   7.630   3.005 -0.2358  0.0596 -0.5144
11759SOL    HW136718   2.484   7.587   2.920 -0.9134  0.8672 -0.8954
11759SOL    HW236719   2.488   7.723   2.985  0.4516  0.2549  0.3396
11760SOL     OW36720   1.903   6.696   3.104  0.2321 -0.4469 -0.1871
11760SOL    HW136721   1.974   6.695   3.168 -0.4344  0.5346  0.5973
11760SOL    HW236722   1.882   6.788   3.092 -1.1357 -0.7235 -0.1349
11761SOL     OW36723   2.481   6.916   2.615 -0.3771  0.0768 -0.3700
11761SOL    HW136724   2.523   6.834   2.643  1.5410  0.8658 -0.7746
11761SOL    HW236725   2.400   6.920   2.666  0.6515 -0.8889  1.4375
11762SOL     OW36726   2.017   7.124   4.843 -0.8349 -0.3453 -0.0103
11762SOL    HW136727   2.009   7.035   4.878  0.6788 -1.0978 -1.4388
11762SOL    HW236728   2.066   7.172   4.910 -2.5553 -0.2568  1.2394
11763SOL     OW36729   0.380   3.062   4.287 -0.0283 -0.0526 -0.3300
11763SOL    HW136730   0.339   3.045   4.202 -0.8380 -1.4809  0.2938
11763SOL    HW236731   0.320   3.122   4.331 -0.0455  0.0206 -0.4546
11764SOL     OW36732   2.016   7.421   2.307  0.2048 -0.1757  0.2526
11764SOL    HW136733   2.054   7.334   2.299  1.4215  0.3981 -0.5005
11764SOL    HW236734   2.080   7.479   2.267 -0.8711  1.0039  0.1647
11765SOL     OW36735   3.585   0.113   2.702  0.0843 -0.6330  0.5916
11765SOL    HW136736   3.615   0.167   2.629  0.1918  0.0973  1.1752
11765SOL    HW236737   3.511   0.161   2.739 -2.5850 -2.8549 -1.4388
11766SOL     OW36738   3.195   6.832   3.675 -0.1409 -0.3873 -0.0416
11766SOL    HW136739   3.216   6.765   3.739 -2.8585 -0.3795  0.9610
11766SOL    HW236740   3.198   6.787   3.590 -0.5931 -1.4485  0.4927
11767SOL     OW36741   2.772   7.032   1.368  0.8189  0.1622 -0.4500
11767SOL    HW136742   2.744   6.994   1.451 -0.6336 -0.0545 -1.0167
11767SOL    HW236743   2.729   7.117   1.364  0.3728 -0.0914 -1.2549
11768SOL     OW36744   4.043   6.944   2.066  0.4576  0.2465 -0.1358
11768SOL    HW136745   3.965   6.898   2.035 -0.0612  2.3103 -2.1138
11768SOL    HW236746   4.063   6.902   2.150 -2.7272 -0.3985  0.4342
11769SOL     OW36747   3.306   0.019   2.515  0.0748 -0.2815 -0.5056
11769SOL    HW136748   3.384   0.068   2.488  0.5007 -1.0150 -0.6255
11769SOL    HW236749   3.273  -0.021   2.434 -0.2018 -0.2884 -0.3907
11770SOL     OW36750   2.187   0.033   3.019 -0.3875 -0.1311 -0.0144
11770SOL    HW136751   2.150   0.067   3.101 -1.2738  0.8553 -0.7866
11770SOL    HW236752   2.255   0.096   2.996  0.7408 -1.0920  0.5864
11771SOL     OW36753   3.607   6.534   3.387  0.2528 -0.6633  0.2798
11771SOL    HW136754   3.702   6.538   3.375  0.3517 -0.2143  1.1580
11771SOL    HW236755   3.575   6.487   3.309  1.0969 -0.0150 -0.4730
11772SOL     OW36756   3.404   6.274   2.416 -0.3624 -0.3806  0.1561
11772SOL    HW136757   3.318   6.253   2.381  0.2033 -3.0094  0.1488
11772SOL    HW236758   3.386   6.318   2.499 -1.6604  1.7222 -1.1278
11773SOL     OW36759   2.693   6.519   1.803  0.3358  0.0793 -0.5406
11773SOL    HW136760   2.719   6.496   1.893 -0.7280  0.8172 -0.0300
11773SOL    HW236761   2.732   6.450   1.749  1.6278  0.0280  0.3963
11774SOL     OW36762   0.822   7.869   3.153  0.1596  0.0478  0.4776
11774SOL    HW136763   0.913   7.895   3.138 -0.0393  1.3655  1.3641
11774SOL    HW236764   0.794   7.832   3.070  0.9307  1.3991 -0.4350
11775SOL     OW36765   2.241   1.692   4.091  0.2175  0.0334  0.1328
11775SOL    HW136766   2.257   1.786   4.095 -2.4000  0.7317 -2.3386
11775SOL    HW236767   2.172   1.676   4.155  0.9804 -0.3374  0.8841
11776SOL     OW36768   1.560   7.615   2.347 -0.5395 -0.1710 -0.1145
11776SOL    HW136769   1.514   7.623   2.264 -0.5443 -0.3688 -0.1323
11776SOL    HW236770   1.621   7.542   2.334 -0.4448 -0.1158  0.0110
11777SOL     OW36771   1.211   7.229   1.768  0.3871  0.1964  0.0194
11777SOL    HW136772   1.190   7.279   1.847 -2.1230 -0.9756  0.2158
11777SOL    HW236773   1.126   7.217   1.725  1.1381 -2.3181 -0.9270
11778SOL     OW36774   1.754   2.090   3.220  0.1860 -0.4769  0.0790
11778SOL    HW136775   1.714   2.007   3.247 -0.3732 -0.0570  0.5471
11778SOL    HW236776   1.845   2.083   3.249 -0.2529 -0.2767  1.5890
11779SOL     OW36777   3.408   0.943   3.466  0.2674  0.2570  0.0047
11779SOL    HW136778   3.431   1.028   3.504  1.7441 -0.8618  1.8158
11779SOL    HW236779   3.312   0.943   3.463  0.2111  1.6439  0.7669
11780SOL     OW36780   0.855   0.035   4.512 -0.2524 -0.0635 -0.2759
11780SOL    HW136781   0.792   0.060   4.444 -1.3828  0.7174  0.9998
11780SOL    HW236782   0.883  -0.053   4.487  0.4222  0.6919 -2.4774
11781SOL     OW36783   3.090   7.543   3.758 -0.1762 -0.3407  0.1155
11781SOL    HW136784   3.093   7.450   3.780  2.1196 -0.3478  0.0273
11781SOL    HW236785   3.020   7.579   3.813 -0.8475 -2.0282  0.4287
11782SOL     OW36786   2.941   6.350   3.207  0.0884 -0.0466  0.0890
11782SOL    HW136787   2.865   6.327   3.153  0.2954 -1.4613  0.3446
11782SOL    HW236788   2.932   6.295   3.285  0.1613  1.4616  1.1991
11783SOL     OW36789   3.523   5.303   2.998 -0.4740  0.2308  0.2327
11783SOL    HW136790   3.593   5.237   3.000 -1.1361 -0.4618  0.7458
11783SOL    HW236791   3.443   5.253   2.982 -0.7869  1.0912 -0.9998
11784SOL     OW36792   3.508   6.755   1.600  0.1476  0.3229 -0.0585
11784SOL    HW136793   3.591   6.740   1.645 -0.4254  0.2430  1.0201
11784SOL    HW236794   3.448   6.781   1.670 -0.7483  0.3262 -0.8129
11785SOL     OW36795   3.242   0.941   3.950  0.1614 -0.3571  0.2153
11785SOL    HW136796   3.237   0.919   4.043  0.7941  1.8813  0.8340
11785SOL    HW236797   3.152   0.952   3.923  0.0296  1.3608  1.2235
11786SOL     OW36798   7.507   5.360   3.546  0.7036 -0.0878  0.1741
11786SOL    HW136799   7.593   5.364   3.504  0.4954  1.2913 -0.1934
11786SOL    HW236800   7.526   5.353   3.639  1.2797  1.8856  0.2463
11787SOL     OW36801   2.580   7.167   2.631  0.0209  0.1756  0.2336
11787SOL    HW136802   2.670   7.142   2.612  0.6128  1.0535  1.7271
11787SOL    HW236803   2.533   7.084   2.636  1.1063 -0.4080  1.1266
11788SOL     OW36804   3.189   7.769   2.387  0.2886 -0.5824 -0.5859
11788SOL    HW136805   3.133   7.719   2.447 -1.2255  1.5000 -0.1573
11788SOL    HW236806   3.278   7.739   2.407 -0.2866 -0.9698  1.7466
11789SOL     OW36807   2.381   1.309   5.370  0.2512 -0.1025 -0.1146
11789SOL    HW136808   2.422   1.229   5.403 -0.3876  0.1516  1.3894
11789SOL    HW236809   2.436   1.380   5.402 -1.2985  0.2431  1.9612
11790SOL     OW36810   3.150   7.248   2.307  0.4443 -0.6764  0.3730
11790SOL    HW136811   3.068   7.297   2.312  1.3255  0.8717  0.2858
11790SOL    HW236812   3.144   7.199   2.225  0.2794  0.7101 -0.4681
11791SOL     OW36813   3.518   7.781   4.598  0.5536  0.2034  0.1069
11791SOL    HW136814   3.480   7.729   4.669  0.3298 -0.1430 -0.2643
11791SOL    HW236815   3.442   7.824   4.558  0.5540 -0.4292 -0.5869
11792SOL     OW36816   1.977   7.890   3.259 -0.0709 -0.1691 -0.1385
11792SOL    HW136817   1.933   7.953   3.316 -0.4148  0.1374 -0.7255
11792SOL    HW236818   1.908   7.861   3.198  0.0908 -1.0913  0.1003
11793SOL     OW36819   1.261   6.177   3.491  0.1872 -0.6431  0.3424
11793SOL    HW136820   1.303   6.180   3.577  0.2460 -1.1745  0.3363
11793SOL    HW236821   1.306   6.107   3.444  1.5075  0.9339 -0.8654
11794SOL     OW36822   2.132   7.467   3.293  0.1463 -0.2053  0.1523
11794SOL    HW136823   2.182   7.546   3.275 -1.3531  0.6243 -0.4716
11794SOL    HW236824   2.199   7.399   3.306  1.4147  0.7279 -1.2571
11795SOL     OW36825   5.187   7.107   4.657 -0.1299  0.5718 -0.1360
11795SOL    HW136826   5.118   7.147   4.709  1.2979  0.1108  2.2775
11795SOL    HW236827   5.192   7.161   4.578 -0.9332  2.7391  1.1952
11796SOL     OW36828   3.772   7.893   5.179 -0.0504 -0.1473 -0.3368
11796SOL    HW136829   3.808   7.825   5.236  0.6524  0.4510 -0.0427
11796SOL    HW236830   3.716   7.946   5.236  0.4427  0.2920 -0.2462
11797SOL     OW36831   2.151   2.764   6.613 -0.0776 -0.6394  0.1312
11797SOL    HW136832   2.152   2.807   6.527  0.6357 -0.7875  0.0628
11797SOL    HW236833   2.226   2.705   6.611 -0.1079 -0.7039  0.8302
11798SOL     OW36834   3.001   0.733   3.822 -0.4098  0.3786  0.0157
11798SOL    HW136835   2.907   0.721   3.831 -0.6260  1.7015 -0.3134
11798SOL    HW236836   3.012   0.822   3.789  0.9721  0.3572  0.3190
11799SOL     OW36837   0.977   1.813   4.235 -0.3962 -0.4203  0.0575
11799SOL    HW136838   1.001   1.849   4.320  0.4402  0.0445 -0.3613
11799SOL    HW236839   1.033   1.735   4.226  1.1805  0.7843 -1.0172
11800SOL     OW36840   2.447   7.606   6.094  0.0191 -0.2089 -0.2578
11800SOL    HW136841   2.404   7.524   6.068 -1.7689  0.6449 -0.0694
11800SOL    HW236842   2.536   7.597   6.059 -1.0616 -0.8821 -3.1119
11801SOL     OW36843   2.558   6.405   3.830  0.2420  0.5319 -0.4386
11801SOL    HW136844   2.605   6.329   3.793 -0.1146  0.7396 -1.3407
11801SOL    HW236845   2.486   6.366   3.879 -0.1612  0.2903 -1.2080
11802SOL     OW36846   7.692   1.267   4.867 -0.4096 -0.0572 -0.1401
11802SOL    HW136847   7.742   1.215   4.805  1.4150  1.7544 -0.2841
11802SOL    HW236848   7.623   1.308   4.815 -0.8664 -1.0230 -0.3194
11803SOL     OW36849   2.312   6.739   5.966  0.7659 -0.6100 -0.2658
11803SOL    HW136850   2.259   6.690   5.903  0.5967  0.0606 -0.6492
11803SOL    HW236851   2.261   6.737   6.047  0.6468 -0.8619 -0.3477
11804SOL     OW36852   3.833   7.476   5.971  0.3033  0.2363  0.3064
11804SOL    HW136853   3.796   7.474   6.060  2.3369 -0.5559  1.2001
11804SOL    HW236854   3.760   7.503   5.916 -0.8473  1.5361  2.3061
11805SOL     OW36855   3.099   6.421   4.861  0.3991  0.3780 -1.1954
11805SOL    HW136856   3.080   6.348   4.920  1.5723  0.3813 -0.7906
11805SOL    HW236857   3.016   6.467   4.852 -0.8095 -1.9129 -2.7643
11806SOL     OW36858   1.880   6.746   4.547 -0.2524 -0.3687  0.2416
11806SOL    HW136859   1.953   6.737   4.485 -0.2976 -0.4735  0.2042
11806SOL    HW236860   1.808   6.698   4.506 -0.4886  0.1515  0.0470
11807SOL     OW36861   2.891   7.921   4.212 -0.8461 -0.1050  0.3984
11807SOL    HW136862   2.960   7.854   4.206 -0.0932  0.6976 -0.2262
11807SOL    HW236863   2.838   7.908   4.134 -0.6841  0.0281  0.2633
11808SOL     OW36864   2.825   7.002   4.114 -0.1179 -0.0776  0.5171
11808SOL    HW136865   2.913   7.006   4.151 -0.2731 -0.6366  0.9582
11808SOL    HW236866   2.838   6.982   4.021  0.2767  1.3777  0.2281
11809SOL     OW36867   0.819   0.534   3.532 -0.2884  0.2852  0.7381
11809SOL    HW136868   0.848   0.444   3.548  1.0211  0.6753  0.5965
11809SOL    HW236869   0.898   0.581   3.507 -1.1348  1.2577 -0.1800
11810SOL     OW36870   3.034   7.537   5.945 -0.4442 -0.0112 -0.0687
11810SOL    HW136871   3.094   7.465   5.965  1.2033  1.3410  0.1740
11810SOL    HW236872   2.976   7.503   5.878  0.3830 -1.5072 -0.0684
11811SOL     OW36873   3.695   7.531   6.215  0.2146  0.0981 -0.1493
11811SOL    HW136874   3.718   7.570   6.299 -0.6317  1.8054 -0.6766
11811SOL    HW236875   3.618   7.477   6.233 -1.0198  1.8002 -0.0920
11812SOL     OW36876   3.309   0.797   6.731 -0.6975  0.2203 -0.1639
11812SOL    HW136877   3.292   0.853   6.808  0.1024  3.3700 -2.0976
11812SOL    HW236878   3.233   0.739   6.727 -0.9731  0.2331  2.7075
11813SOL     OW36879   1.698   0.093   2.678 -0.4753  0.1649  0.2720
11813SOL    HW136880   1.746   0.086   2.595 -0.5441 -1.6563  0.3447
11813SOL    HW236881   1.747   0.157   2.729  0.0895  0.6355 -0.8296
11814SOL     OW36882   2.964   7.388   3.376 -0.6762  0.7036  0.0507
11814SOL    HW136883   3.047   7.426   3.406 -0.1550  0.2060 -0.7232
11814SOL    HW236884   2.908   7.390   3.454 -0.2799  1.9558  0.3321
11815SOL     OW36885   1.511   1.027   3.076  0.0532  0.1040  0.2930
11815SOL    HW136886   1.424   1.003   3.107  0.1009 -1.0276 -0.4040
11815SOL    HW236887   1.558   1.053   3.156 -1.2211  1.8204  0.5452
11816SOL     OW36888   2.678   0.123   2.634 -0.2958  0.2421  0.0566
11816SOL    HW136889   2.630   0.041   2.627  0.5585 -0.4429  1.5719
11816SOL    HW236890   2.610   0.191   2.637 -1.0146 -0.4034 -1.0868
11817SOL     OW36891   0.971   0.102   2.474 -0.1352  0.2031  0.0202
11817SOL    HW136892   0.972   0.009   2.494  0.8824  0.1639 -0.1410
11817SOL    HW236893   1.063   0.125   2.464 -0.4426  0.8519 -1.6503
11818SOL     OW36894   1.105   0.531   3.851 -0.3436 -0.5845  0.7393
11818SOL    HW136895   1.109   0.482   3.769 -0.6090  0.3369  0.1633
11818SOL    HW236896   1.175   0.494   3.904 -0.4624 -1.5059  0.2753
11819SOL     OW36897   2.417   7.065   4.644 -0.5468  0.2433 -0.3266
11819SOL    HW136898   2.501   7.045   4.602 -0.0146  2.2642 -0.3252
11819SOL    HW236899   2.418   7.014   4.724  0.9867  0.7038 -0.0156
11820SOL     OW36900   1.660   7.469   5.251 -0.1161 -0.0819  0.9527
11820SOL    HW136901   1.650   7.537   5.184  1.8229  0.8487  1.5432
11820SOL    HW236902   1.578   7.474   5.301 -0.6089  0.8299  0.1017
11821SOL     OW36903   2.361   0.654   3.357  0.2829 -0.3981  0.3667
11821SOL    HW136904   2.279   0.648   3.406 -0.5153  0.0191 -0.8596
11821SOL    HW236905   2.342   0.611   3.274  1.1670  0.1124 -0.1146
11822SOL     OW36906   2.555   0.443   3.241 -0.6247  0.3818  0.0542
11822SOL    HW136907   2.644   0.411   3.227  0.2234  1.0804  3.0952
11822SOL    HW236908   2.555   0.531   3.205  0.1756  0.6477  0.6729
11823SOL     OW36909   1.453   0.104   3.063 -0.5194 -0.0977 -0.0804
11823SOL    HW136910   1.396   0.053   3.120 -0.4454  0.4613  0.4928
11823SOL    HW236911   1.497   0.038   3.009 -0.3844 -0.6484  0.6907
11824SOL     OW36912   3.610   6.592   4.819  0.2677  0.3157  0.1106
11824SOL    HW136913   3.567   6.535   4.883 -0.5529  0.6981 -0.0861
11824SOL    HW236914   3.643   6.532   4.752  0.3211 -0.0088  0.4242
11825SOL     OW36915   2.610   0.504   3.996 -0.0243  0.2929  0.8055
11825SOL    HW136916   2.658   0.446   4.054  0.4258  0.6301  0.7817
11825SOL    HW236917   2.541   0.541   4.050 -1.1486 -1.2525  0.4835
11826SOL     OW36918   2.139   7.615   2.888 -0.5175 -0.6626 -0.5677
11826SOL    HW136919   2.195   7.553   2.935 -1.6362  0.5015  2.6129
11826SOL    HW236920   2.069   7.562   2.851 -0.1244 -1.5604 -0.0490
11827SOL     OW36921   2.037   5.590   4.963 -0.0348 -0.2552  0.2679
11827SOL    HW136922   1.942   5.591   4.950 -0.0038 -0.2958  0.0449
11827SOL    HW236923   2.052   5.659   5.029 -0.1537  0.1790 -0.1525
11828SOL     OW36924   1.467   1.454   5.320 -0.2998  0.8004  0.5518
11828SOL    HW136925   1.530   1.385   5.342  0.2783  1.5227  1.2471
11828SOL    HW236926   1.514   1.535   5.339 -0.9335  1.3879 -0.3492
11829SOL     OW36927   2.862   6.058   4.928  0.2407  0.1571  0.6355
11829SOL    HW136928   2.767   6.061   4.931  0.1976 -1.0795  3.1899
11829SOL    HW236929   2.886   5.983   4.982  2.6869  0.2127 -0.1976
11830SOL     OW36930   0.857   0.849   3.817 -0.4056 -0.7266 -0.2544
11830SOL    HW136931   0.782   0.789   3.815 -0.9395 -0.0525 -1.0042
11830SOL    HW236932   0.822   0.933   3.789  0.8073 -0.5935 -1.4709
11831SOL     OW36933   1.001   7.156   5.635  0.3649  0.1550  0.0303
11831SOL    HW136934   1.060   7.183   5.705 -0.5670 -3.0551  2.3295
11831SOL    HW236935   1.057   7.149   5.558  1.9760  1.5561  0.9970
11832SOL     OW36936   1.442   6.873   3.760 -0.0792 -0.2847 -0.3538
11832SOL    HW136937   1.514   6.836   3.812 -0.6476 -1.4730 -0.3918
11832SOL    HW236938   1.456   6.839   3.672 -1.3956 -1.5900 -0.0916
11833SOL     OW36939   3.050   1.134   4.777 -0.1981  0.0002  0.9938
11833SOL    HW136940   3.125   1.114   4.833 -1.3773 -1.7567  2.0535
11833SOL    HW236941   2.980   1.079   4.811 -1.2353 -0.4895 -1.6746
11834SOL     OW36942   2.053   6.277   3.061 -0.1418  0.2519 -0.1856
11834SOL    HW136943   2.111   6.328   3.118  0.3951 -0.6549  0.1014
11834SOL    HW236944   2.111   6.216   3.016 -0.6038  0.7159 -1.4660
11835SOL     OW36945   1.882   0.646   3.713 -0.4948  0.5154  0.3162
11835SOL    HW136946   1.810   0.602   3.668 -0.0519  0.0553  0.0505
11835SOL    HW236947   1.960   0.623   3.662 -0.1606  1.0225  0.5904
11836SOL     OW36948   2.856   5.716   4.735  0.1600  0.4977 -1.1879
11836SOL    HW136949   2.917   5.710   4.809  0.5334 -0.2010 -1.5388
11836SOL    HW236950   2.899   5.667   4.665 -1.6071 -1.6489 -0.8838
11837SOL     OW36951   2.734   1.199   4.928  0.5960 -0.1157 -0.2917
11837SOL    HW136952   2.694   1.112   4.922 -0.7047  0.4175  0.4091
11837SOL    HW236953   2.673   1.251   4.980  1.3099  1.2616 -0.7738
11838SOL     OW36954   4.344   7.197   4.855  0.1917  0.1304  0.2656
11838SOL    HW136955   4.251   7.188   4.834  0.3867 -1.9540  0.0789
11838SOL    HW236956   4.381   7.245   4.782 -0.8691  1.8317  0.7934
11839SOL     OW36957   2.316   5.078   5.384  0.3798 -0.4426 -0.4294
11839SOL    HW136958   2.236   5.126   5.364 -0.4251 -1.9471 -1.0388
11839SOL    HW236959   2.385   5.144   5.386 -1.0412  1.0599  1.3118
11840SOL     OW36960   2.970   1.287   6.179  0.5206 -0.5751  0.3564
11840SOL    HW136961   3.036   1.341   6.222  3.3157 -0.8305 -3.0902
11840SOL    HW236962   3.011   1.200   6.174  0.3068 -0.6007 -2.3886
11841SOL     OW36963   2.889   0.207   3.617 -0.2266  0.2878  0.4212
11841SOL    HW136964   2.949   0.186   3.546 -0.7859 -1.0854  0.3319
11841SOL    HW236965   2.870   0.124   3.660 -0.0109  1.0550  2.1227
11842SOL     OW36966   2.954   6.729   3.889 -0.4554  0.0877 -0.1057
11842SOL    HW136967   2.966   6.819   3.857 -0.7870  1.5095  3.3475
11842SOL    HW236968   2.863   6.709   3.869  0.5285 -1.1598 -4.3474
11843SOL     OW36969   1.713   7.447   4.255  0.0514 -0.2083 -0.0218
11843SOL    HW136970   1.758   7.531   4.252 -0.1242 -0.1423 -1.6307
11843SOL    HW236971   1.729   7.414   4.343  0.1396  1.4906  0.6259
11844SOL     OW36972   2.957   6.198   5.523 -0.3493 -0.5032  0.3549
11844SOL    HW136973   2.878   6.249   5.537  0.8374  1.7799 -0.7873
11844SOL    HW236974   2.947   6.161   5.435  0.6999  1.5528 -0.6859
11845SOL     OW36975   2.805   0.866   2.849 -0.0207  0.3353 -0.0605
11845SOL    HW136976   2.822   0.924   2.775  0.0813  0.2159 -0.1301
11845SOL    HW236977   2.887   0.818   2.862 -0.4012 -0.4803 -0.6028
11846SOL     OW36978   3.222   7.004   6.048 -0.0085 -0.0596 -0.3058
11846SOL    HW136979   3.263   7.029   6.130  2.3522  1.9545 -1.9638
11846SOL    HW236980   3.133   7.040   6.053 -0.5215 -1.4377  1.9467
11847SOL     OW36981   2.688   6.391   4.429 -0.0712 -0.3686  0.3146
11847SOL    HW136982   2.613   6.366   4.376  0.3559  0.3577 -0.6713
11847SOL    HW236983   2.678   6.341   4.510 -0.7958 -1.4372 -0.4044
11848SOL     OW36984   1.537   0.851   3.753 -0.9538  0.0815  0.1039
11848SOL    HW136985   1.467   0.892   3.702 -1.3078 -1.1485 -0.4616
11848SOL    HW236986   1.520   0.757   3.744  1.2277 -0.2881 -0.7243
11849SOL     OW36987   3.238   6.426   3.666  0.0284  0.0303 -0.5795
11849SOL    HW136988   3.238   6.331   3.679 -1.1130  0.0976  0.0082
11849SOL    HW236989   3.328   6.447   3.640  0.5107 -1.0944  0.1284
11850SOL     OW36990   3.304   7.322   5.047 -0.1202 -0.5272  0.4620
11850SOL    HW136991   3.396   7.297   5.047 -0.1861 -0.8242  1.3436
11850SOL    HW236992   3.275   7.304   5.137 -0.7917  0.4535  0.4574
11851SOL     OW36993   2.639   6.503   3.133 -0.2090 -1.1753 -0.2400
11851SOL    HW136994   2.652   6.496   3.039  1.7468 -0.9357 -0.0339
11851SOL    HW236995   2.668   6.419   3.168  0.0515 -0.8978  0.2243
11852SOL     OW36996   1.605   0.350   3.125  0.2388 -0.3017  0.3394
11852SOL    HW136997   1.554   0.269   3.126 -0.8475  0.3558 -0.0566
11852SOL    HW236998   1.682   0.328   3.073 -0.1358 -1.0393  0.0743
11853SOL     OW36999   5.111   5.776   4.316 -0.3096  0.2266 -0.2600
11853SOL    HW137000   5.047   5.773   4.387 -0.5092 -1.6465 -0.4828
11853SOL    HW237001   5.175   5.842   4.345 -1.1413  0.5118  0.9928
11854SOL     OW37002   0.963   7.545   7.765  0.0699 -0.7007 -0.6427
11854SOL    HW137003   0.933   7.483   7.698  1.0697  0.0813 -1.8659
11854SOL    HW237004   1.049   7.512   7.790 -0.0031 -0.5902 -0.2439
11855SOL     OW37005   2.668   0.373   6.378  0.0245 -0.5828  0.1101
11855SOL    HW137006   2.613   0.448   6.401  0.6421  0.2539 -1.0378
11855SOL    HW237007   2.625   0.298   6.420 -1.2908  0.2263  0.2698
11856SOL     OW37008   2.119   5.301   3.999 -0.1145  0.3043 -0.3264
11856SOL    HW137009   2.165   5.384   4.002  0.4892 -0.0448  0.3308
11856SOL    HW237010   2.043   5.317   3.942 -0.4453  1.5164  0.4231
11857SOL     OW37011   1.653   6.930   4.893 -0.3555 -0.4638 -0.0124
11857SOL    HW137012   1.719   6.865   4.916  0.9996  0.6736 -0.5306
11857SOL    HW237013   1.654   6.932   4.798  0.8430  1.4490 -0.0075
11858SOL     OW37014   1.818   7.704   4.958 -0.0912 -0.0182  0.0882
11858SOL    HW137015   1.891   7.657   4.919  0.2693 -0.1828  0.9341
11858SOL    HW237016   1.744   7.644   4.951 -0.2040  0.2247 -0.9424
11859SOL     OW37017   3.382   6.597   7.676 -0.0331 -0.4854 -0.0651
11859SOL    HW137018   3.399   6.503   7.667 -0.5637 -0.7237  1.1568
11859SOL    HW237019   3.411   6.635   7.593  1.8737 -1.4732  0.1074
11860SOL     OW37020   1.385   6.120   6.849  0.1067  0.2845 -0.1940
11860SOL    HW137021   1.314   6.167   6.894  0.4712  2.0723 -1.3916
11860SOL    HW237022   1.346   6.035   6.826 -1.3355  0.8429  0.0562
11861SOL     OW37023   2.733   5.210   5.148 -0.2937 -0.0291 -0.3168
11861SOL    HW137024   2.640   5.227   5.139  0.0829  1.8498 -1.2230
11861SOL    HW237025   2.764   5.198   5.058  0.8194  2.5085 -0.3580
11862SOL     OW37026   3.246   0.863   7.598  0.3296  0.2138 -0.0342
11862SOL    HW137027   3.237   0.794   7.532 -1.3355  0.8185 -0.5042
11862SOL    HW237028   3.317   0.833   7.655  2.1103 -0.1626 -2.2795
11863SOL     OW37029   4.003   6.413   5.974  0.1714 -0.7060 -0.1342
11863SOL    HW137030   4.090   6.452   5.985  0.5741 -1.4561 -0.5802
11863SOL    HW237031   3.981   6.429   5.882  0.8397 -2.4828 -0.6405
11864SOL     OW37032   3.829   0.978   9.284 -0.2432  0.0146  0.2813
11864SOL    HW137033   3.746   1.007   9.246 -0.0676  0.1048 -0.0446
11864SOL    HW237034   3.806   0.942   9.369 -0.4550  1.2590  0.7752
11865SOL     OW37035   2.998   0.992   7.531 -0.8166  0.4917  0.3939
11865SOL    HW137036   3.085   0.952   7.544 -0.6754  0.4399 -0.5768
11865SOL    HW237037   2.950   0.972   7.611 -0.7244 -1.6060 -0.0114
11866SOL     OW37038   2.527   7.248   7.467 -0.1040 -0.1239 -0.0025
11866SOL    HW137039   2.438   7.232   7.499 -0.0953  0.9696  0.6006
11866SOL    HW237040   2.584   7.225   7.540  0.1699 -1.3787 -0.5796
11867SOL     OW37041   2.240   7.529   4.817 -0.4700  0.4928 -0.1814
11867SOL    HW137042   2.305   7.476   4.770 -1.1092  0.6362 -1.2642
11867SOL    HW237043   2.251   7.617   4.781 -0.2974  0.8353  0.6797
11868SOL     OW37044   1.925   0.379   7.229  0.3666  0.7297 -0.4318
11868SOL    HW137045   1.953   0.451   7.286 -0.0912  1.0822 -0.6471
11868SOL    HW237046   1.991   0.376   7.160  1.4270 -0.2785  0.5726
11869SOL     OW37047   1.902   6.872   7.111 -0.2954 -0.1487  0.4034
11869SOL    HW137048   1.979   6.902   7.160  0.2056  1.4909 -1.2532
11869SOL    HW237049   1.871   6.951   7.066 -1.7821 -1.2062 -0.5016
11870SOL     OW37050   1.879   7.586   5.855  0.0555 -0.0726 -0.0873
11870SOL    HW137051   1.967   7.575   5.821 -1.0724 -1.0063 -2.9552
11870SOL    HW237052   1.846   7.665   5.813 -0.9875 -0.5661 -0.2346
11871SOL     OW37053   4.778   7.009   4.734 -0.5665 -0.6539 -0.4337
11871SOL    HW137054   4.737   7.035   4.651 -1.9419  1.4669  0.8186
11871SOL    HW237055   4.791   6.914   4.726 -1.8654 -0.7096 -2.5477
11872SOL     OW37056   4.098   6.419   8.355 -0.1392  0.0632 -0.5765
11872SOL    HW137057   4.165   6.353   8.374  0.3951  0.5954 -0.5916
11872SOL    HW237058   4.070   6.451   8.441  0.2247  0.4324 -0.5943
11873SOL     OW37059   1.779   6.547   5.231 -0.1330  0.2690 -0.5780
11873SOL    HW137060   1.771   6.634   5.191  0.0258  0.5222 -0.0640
11873SOL    HW237061   1.703   6.498   5.198 -1.7122  1.4150  1.1721
11874SOL     OW37062   2.789   0.278   8.325  0.1611  1.2850 -0.0171
11874SOL    HW137063   2.839   0.198   8.340  1.6921  1.9640 -1.2706
11874SOL    HW237064   2.710   0.267   8.379  0.6632 -0.7282  0.3959
11875SOL     OW37065   4.530   7.415   7.190 -0.0100 -0.4363 -0.4788
11875SOL    HW137066   4.588   7.350   7.230 -1.4762 -1.2567  0.4516
11875SOL    HW237067   4.585   7.464   7.129  1.3197 -2.0430 -0.6234
11876SOL     OW37068   2.991   7.240   7.244 -0.1661 -0.0990  0.1411
11876SOL    HW137069   2.922   7.175   7.261 -0.0424 -0.2071  0.2360
11876SOL    HW237070   3.052   7.228   7.317  1.2806 -1.7479 -1.2536
11877SOL     OW37071   1.969   5.620   5.793 -0.3310 -0.1949 -0.8632
11877SOL    HW137072   1.934   5.608   5.705 -1.1263 -0.1091 -0.5618
11877SOL    HW237073   1.931   5.703   5.823  2.0602  1.2108 -1.4477
11878SOL     OW37074   1.678   0.586   5.150 -0.1467 -0.4010  0.2173
11878SOL    HW137075   1.704   0.555   5.237  1.1336  0.2109  0.0689
11878SOL    HW237076   1.749   0.643   5.122 -0.8203 -0.1150 -0.9953
11879SOL     OW37077   3.660   0.427   5.975 -0.5376 -0.3818  0.4401
11879SOL    HW137078   3.711   0.348   5.958 -0.3391 -0.2185  0.2616
11879SOL    HW237079   3.692   0.459   6.059 -0.3097 -0.2521  0.3042
11880SOL     OW37080   1.603   0.359   7.577 -0.1897  1.0144 -0.2396
11880SOL    HW137081   1.667   0.375   7.646  0.8983  1.6162 -1.3400
11880SOL    HW237082   1.638   0.284   7.529  0.7563  2.4847 -1.9918
11881SOL     OW37083   1.488   6.040   4.039  0.3486  0.0217  0.0855
11881SOL    HW137084   1.546   6.068   3.969  1.3828  0.2561  1.0128
11881SOL    HW237085   1.450   5.958   4.007 -0.5124  0.9495 -1.4413
11882SOL     OW37086   2.983   7.549   4.688  0.3484  0.2282 -0.2736
11882SOL    HW137087   3.021   7.484   4.748  0.5498 -0.5552 -1.2226
11882SOL    HW237088   3.053   7.613   4.675  0.3459  0.3375  0.2297
11883SOL     OW37089   0.816   0.123   4.987  0.1922 -0.4317  0.1726
11883SOL    HW137090   0.871   0.164   5.054 -1.5423 -1.1544  2.1537
11883SOL    HW237091   0.812   0.031   5.012 -2.4237 -0.2886  0.5381
11884SOL     OW37092   0.843   6.275   7.360  0.5134  0.2089  0.2421
11884SOL    HW137093   0.785   6.233   7.297  0.9020  1.5525 -1.0831
11884SOL    HW237094   0.797   6.269   7.444 -0.6909 -0.3484 -0.4400
11885SOL     OW37095   2.079   7.122   5.408 -0.0844  0.4572  0.3271
11885SOL    HW137096   2.167   7.106   5.373  0.1536  1.0495  0.6471
11885SOL    HW237097   2.089   7.200   5.462 -0.3760 -0.5959  1.9605
11886SOL     OW37098   4.089   1.139   9.306  0.0324  0.4983 -0.5146
11886SOL    HW137099   4.003   1.105   9.283 -0.4665  1.5941 -0.3504
11886SOL    HW237100   4.071   1.214   9.363  1.1940 -1.2995  2.4200
11887SOL     OW37101   2.437   7.775   6.817 -0.2513 -0.4796  0.7170
11887SOL    HW137102   2.519   7.752   6.860  0.7600  1.5098  0.0109
11887SOL    HW237103   2.414   7.861   6.853 -0.1101  0.6026 -1.5721
11888SOL     OW37104   1.564   7.472   7.212  0.1650 -0.3826 -0.1102
11888SOL    HW137105   1.515   7.468   7.130 -0.1264 -0.5853  0.0722
11888SOL    HW237106   1.528   7.548   7.258 -0.3485 -0.8373  0.2536
11889SOL     OW37107   2.127   6.949   7.270  0.1045 -0.3828 -0.4809
11889SOL    HW137108   2.121   6.875   7.330 -0.3432  0.2192  0.2419
11889SOL    HW237109   2.195   7.005   7.307  0.1312 -0.2199 -0.7745
11890SOL     OW37110   3.171   0.668   6.453  0.0184 -0.5730  0.2681
11890SOL    HW137111   3.246   0.713   6.412  0.5251 -1.5734  0.0685
11890SOL    HW237112   3.185   0.576   6.433 -2.7624 -0.6020 -2.2363
11891SOL     OW37113   3.648   7.373   6.785 -0.4636 -0.1853  0.0361
11891SOL    HW137114   3.621   7.366   6.694  0.2842 -0.5674 -0.1591
11891SOL    HW237115   3.743   7.386   6.781  0.2783 -4.1278  0.8415
11892SOL     OW37116   3.641   7.078   6.540  0.2673 -0.1407  0.0522
11892SOL    HW137117   3.647   7.016   6.467  0.4875  0.8265 -0.7748
11892SOL    HW237118   3.561   7.054   6.585 -0.1322 -0.4525 -0.8038
11893SOL     OW37119   2.823   5.544   3.820 -0.4504 -0.4387  0.0969
11893SOL    HW137120   2.818   5.472   3.883  1.1929 -0.1140  0.6402
11893SOL    HW237121   2.877   5.610   3.862 -0.0525  0.1662 -1.2838
11894SOL     OW37122   1.304   0.735   4.543 -0.0606  0.0972 -0.0900
11894SOL    HW137123   1.237   0.679   4.503  1.2558 -1.5126 -0.1415
11894SOL    HW237124   1.305   0.708   4.635  0.2030  0.4562  0.0152
11895SOL     OW37125   0.152   7.506   5.876  0.6087  0.5254  0.2238
11895SOL    HW137126   0.236   7.513   5.830  1.5238  0.1834  1.7388
11895SOL    HW237127   0.086   7.510   5.808  1.9198 -2.3572 -1.3877
11896SOL     OW37128   3.338   6.654   8.574 -0.1679  0.0596  0.1089
11896SOL    HW137129   3.399   6.596   8.529  1.8744  1.1057  1.3934
11896SOL    HW237130   3.345   6.738   8.527  0.6147  0.6335  1.2103
11897SOL     OW37131   2.405   0.053   6.164 -0.8452 -0.3595  0.4182
11897SOL    HW137132   2.343  -0.019   6.153  0.0887 -0.8859 -1.9528
11897SOL    HW237133   2.468   0.021   6.228 -1.6398 -0.7613  1.0202
11898SOL     OW37134   0.510   1.485   6.255 -0.2986  0.2216 -0.2710
11898SOL    HW137135   0.439   1.429   6.225 -1.0971  0.7465  0.6117
11898SOL    HW237136   0.576   1.424   6.288 -1.5426 -0.2059  1.5419
11899SOL     OW37137   2.067   7.468   4.566 -0.3356  0.1238  0.2795
11899SOL    HW137138   2.129   7.440   4.499  0.7319 -1.5221  1.8511
11899SOL    HW237139   2.113   7.536   4.615 -0.2693 -0.1548  0.6138
11900SOL     OW37140   3.291   6.844   6.416  0.3200 -0.0727  0.0315
11900SOL    HW137141   3.257   6.923   6.375 -0.6575 -0.3432  0.2805
11900SOL    HW237142   3.332   6.874   6.497  1.2746  0.3340 -0.5888
11901SOL     OW37143   2.634   0.176   3.445 -0.1992 -0.1847 -0.3776
11901SOL    HW137144   2.711   0.165   3.389 -0.1440 -1.6052 -0.0545
11901SOL    HW237145   2.664   0.233   3.516  0.5531 -0.7214 -0.2598
11902SOL     OW37146   1.220   7.537   5.526 -0.5149 -0.0959 -0.1765
11902SOL    HW137147   1.129   7.565   5.539 -0.3981  0.6823 -0.9948
11902SOL    HW237148   1.261   7.549   5.611 -1.2553 -0.7910  0.3002
11903SOL     OW37149   5.530   7.397   6.494 -0.1031  0.6023  0.2388
11903SOL    HW137150   5.507   7.490   6.501 -0.5841  0.6076 -1.0831
11903SOL    HW237151   5.454   7.351   6.527  0.1349  0.6702  0.8955
11904SOL     OW37152   4.402   7.216   5.150  0.1450  0.2457 -0.3508
11904SOL    HW137153   4.481   7.267   5.164  1.0612 -0.6339 -2.0441
11904SOL    HW237154   4.392   7.213   5.055 -1.1923 -0.7674 -0.2040
11905SOL     OW37155   2.760   5.694   6.419  0.5386 -0.2362  0.1256
11905SOL    HW137156   2.849   5.679   6.451  1.3220  2.0171 -0.8414
11905SOL    HW237157   2.762   5.664   6.328  0.5151  0.4207 -0.0965
11906SOL     OW37158   3.210   6.640   3.485  0.0155  0.4626 -0.0396
11906SOL    HW137159   3.185   6.560   3.532  1.1532  0.1784  0.1115
11906SOL    HW237160   3.193   6.620   3.393 -0.7644  0.4639  0.0968
11907SOL     OW37161   1.903   6.320   7.919  0.3132 -0.0529  0.1339
11907SOL    HW137162   1.961   6.246   7.904 -0.5689 -1.0055  1.1897
11907SOL    HW237163   1.845   6.321   7.843  1.6362  0.8935 -0.9161
11908SOL     OW37164   2.279   7.221   6.886  0.2775 -0.0832 -0.1697
11908SOL    HW137165   2.255   7.146   6.941  0.7329  0.1898  0.4022
11908SOL    HW237166   2.369   7.240   6.908 -0.4309  1.9444  1.2389
11909SOL     OW37167   1.150   6.487   4.677 -0.7879 -0.1934 -0.6361
11909SOL    HW137168   1.077   6.541   4.648 -0.8876 -0.0566 -0.1470
11909SOL    HW237169   1.163   6.512   4.769 -0.6356 -0.7708 -0.4927
11910SOL     OW37170   2.654   6.244   3.225 -0.2948 -0.2598  0.3825
11910SOL    HW137171   2.580   6.188   3.201  0.3090 -1.6941  1.7282
11910SOL    HW237172   2.626   6.288   3.306  0.1754 -0.5461  0.7080
11911SOL     OW37173   2.118   7.968   5.043  0.9482  0.2478 -0.5347
11911SOL    HW137174   2.126   7.972   4.948  1.0822  1.3953 -0.4953
11911SOL    HW237175   2.027   7.993   5.060  1.2864  1.4100 -0.3170
11912SOL     OW37176   3.948   7.054   6.521  0.3694 -0.4092 -1.0831
11912SOL    HW137177   3.859   7.049   6.556  0.9004 -2.6188  0.1188
11912SOL    HW237178   3.945   7.002   6.441  0.2814  0.6775 -1.8034
11913SOL     OW37179   3.694   6.900   6.795  0.0174 -0.1170 -0.3082
11913SOL    HW137180   3.641   6.973   6.829 -2.0740 -2.2519  1.3193
11913SOL    HW237181   3.777   6.907   6.841 -0.4351  0.8087  0.4042
11914SOL     OW37182   3.619   0.645   7.238 -0.2533  0.0414 -0.0802
11914SOL    HW137183   3.635   0.551   7.238  1.4193  0.2993  0.7517
11914SOL    HW237184   3.603   0.667   7.146 -2.8224 -1.3304 -0.0726
11915SOL     OW37185   4.008   6.092   6.722 -0.6462 -0.1474 -0.1443
11915SOL    HW137186   4.037   6.111   6.632  0.5819 -0.8773  0.0762
11915SOL    HW237187   3.948   6.019   6.712  0.8159 -1.3727 -0.2331
11916SOL     OW37188   1.018   6.417   6.599  0.1921 -0.2094 -1.0822
11916SOL    HW137189   1.033   6.511   6.605 -1.0955 -0.0652  1.4629
11916SOL    HW237190   1.104   6.378   6.618  0.1399  0.5018  0.8230
11917SOL     OW37191   2.028   7.696   7.297  0.0942  0.2054 -0.4032
11917SOL    HW137192   1.945   7.736   7.270  0.0080  0.4706  0.2271
11917SOL    HW237193   2.063   7.657   7.218 -0.5932  0.1744 -0.7009
11918SOL     OW37194   2.668   4.905   5.718  0.3664 -0.0997 -0.5431
11918SOL    HW137195   2.585   4.875   5.683  0.9716  0.8334 -2.9664
11918SOL    HW237196   2.658   4.899   5.813 -1.9910 -1.1687 -0.7990
11919SOL     OW37197   3.566   6.828   5.249  0.6709  0.1769  0.2783
11919SOL    HW137198   3.532   6.740   5.229  0.2392  0.5075 -0.4829
11919SOL    HW237199   3.661   6.819   5.240  0.5757 -0.0069 -0.6840
11920SOL     OW37200   2.617   7.598   5.825  0.0469  0.4056 -0.0361
11920SOL    HW137201   2.616   7.651   5.746  0.1641  0.3907 -0.0475
11920SOL    HW237202   2.690   7.632   5.876  0.0194  0.3650  0.0313
11921SOL     OW37203   4.431   6.661   7.762  0.2592  0.5877  0.3074
11921SOL    HW137204   4.431   6.598   7.690  0.6043  1.4026 -0.4248
11921SOL    HW237205   4.523   6.670   7.785  0.1991  0.7254  0.4940
11922SOL     OW37206   2.002   0.723   9.008  0.3179  0.4096 -0.2524
11922SOL    HW137207   2.046   0.756   9.086  0.7196 -0.5033 -0.0739
11922SOL    HW237208   2.059   0.653   8.976 -0.8752 -0.6508 -0.1356
11923SOL     OW37209   3.099   0.039   6.450 -0.1732  0.1562 -0.5864
11923SOL    HW137210   3.017   0.026   6.402 -0.3500 -0.5113 -0.1249
11923SOL    HW237211   3.073   0.039   6.542 -0.2057  3.9714 -0.4611
11924SOL     OW37212   2.813   0.698   4.990  0.4389 -0.0112  0.2041
11924SOL    HW137213   2.773   0.782   4.968 -0.8224  0.2172  2.9989
11924SOL    HW237214   2.869   0.717   5.065 -0.5439 -1.7925  1.4507
11925SOL     OW37215   3.372   0.375   7.838 -0.3371  0.5187  0.3553
11925SOL    HW137216   3.401   0.323   7.763  1.4644  0.8525  0.7642
11925SOL    HW237217   3.376   0.314   7.912 -1.1909  0.4465  0.3527
11926SOL     OW37218   5.539   7.737   6.978  0.0286  0.0673 -0.0319
11926SOL    HW137219   5.483   7.754   6.902 -0.1131 -1.6383 -0.3383
11926SOL    HW237220   5.542   7.642   6.985  0.2636  0.1780  1.9396
11927SOL     OW37221   4.428   0.409  10.277  0.7952  0.3994 -0.2904
11927SOL    HW137222   4.374   0.330  10.272 -0.0963  1.0446 -1.4786
11927SOL    HW237223   4.477   0.400  10.358  1.3073 -1.7430 -0.7772
11928SOL     OW37224   2.548   2.426   8.669  0.1243 -0.0781 -0.0060
11928SOL    HW137225   2.460   2.446   8.699  0.1894 -1.8016  1.5310
11928SOL    HW237226   2.537   2.353   8.608  0.3630  0.8956 -1.2693
11929SOL     OW37227   2.235   6.979   7.916 -0.1482 -0.3112  0.0193
11929SOL    HW137228   2.157   7.027   7.891 -0.3563 -0.8733 -0.4537
11929SOL    HW237229   2.271   7.026   7.991 -0.2262  0.6911 -0.5601
11930SOL     OW37230   1.574   1.001   9.883  0.1429 -0.3846 -0.0044
11930SOL    HW137231   1.522   1.031   9.808 -0.2567  0.2839  0.5316
11930SOL    HW237232   1.655   1.052   9.877 -0.3349  0.4727  0.6262
11931SOL     OW37233   3.410   6.964   7.073 -0.0128  0.2781 -0.2380
11931SOL    HW137234   3.345   6.981   7.141  0.3935  0.1428  0.1892
11931SOL    HW237235   3.358   6.945   6.994 -0.5130 -0.8938  0.3414
11932SOL     OW37236   2.010   1.397   9.899 -0.3393 -0.6679 -0.6169
11932SOL    HW137237   1.982   1.433   9.983  0.6147  2.0315 -1.3554
11932SOL    HW237238   2.046   1.311   9.921 -1.2470 -0.5677  1.5376
11933SOL     OW37239   3.542   2.064   6.704  0.2071 -0.0263  0.8054
11933SOL    HW137240   3.447   2.053   6.693  0.3974 -0.7707 -0.3255
11933SOL    HW237241   3.559   2.035   6.794 -0.4249 -1.6485  0.4542
11934SOL     OW37242   2.891   7.776   8.389 -0.3745 -0.1575 -0.7646
11934SOL    HW137243   2.813   7.727   8.362 -1.6306  1.6856 -0.7185
11934SOL    HW237244   2.891   7.769   8.485 -0.0711 -0.7380 -0.8039
11935SOL     OW37245   2.861   5.337   7.739 -0.5318  0.0316 -0.5756
11935SOL    HW137246   2.885   5.336   7.832 -1.1628 -0.4818 -0.4161
11935SOL    HW237247   2.913   5.267   7.700 -0.5494 -0.0014 -0.5400
11936SOL     OW37248   4.092   0.590   9.885  0.3243  0.2922 -0.3666
11936SOL    HW137249   4.182   0.621   9.886 -0.1399  1.9259 -2.3503
11936SOL    HW237250   4.081   0.549   9.799 -0.9422  0.5286 -0.3484
11937SOL     OW37251   2.902   0.052   9.542  0.9231  0.6283  0.3580
11937SOL    HW137252   2.969   0.079   9.606  0.8741 -2.5465  1.9553
11937SOL    HW237253   2.949   0.051   9.458  2.5329 -0.1220  1.2067
11938SOL     OW37254   2.588   0.269   9.127  0.4781 -0.1576 -0.1996
11938SOL    HW137255   2.517   0.277   9.190 -0.5504  1.0039 -1.4495
11938SOL    HW237256   2.618   0.179   9.136 -2.0167 -1.0846 -0.5251
11939SOL     OW37257   3.408   7.492   9.545 -0.9782 -0.5049  0.2360
11939SOL    HW137258   3.334   7.551   9.561 -0.1086  0.7564 -0.2787
11939SOL    HW237259   3.429   7.455   9.631 -1.3305  0.1715  0.6183
11940SOL     OW37260   2.973   6.320   9.061 -0.1616  0.0394  0.2356
11940SOL    HW137261   3.039   6.360   9.117  0.2594 -1.4303  0.8273
11940SOL    HW237262   2.961   6.383   8.989  0.6838  1.0601  0.9630
11941SOL     OW37263   1.470   6.953   5.989 -0.1763  0.0106 -0.2186
11941SOL    HW137264   1.469   7.043   6.023 -0.7543 -0.3175  0.6814
11941SOL    HW237265   1.555   6.944   5.947 -0.1324  0.9998 -0.3642
11942SOL     OW37266   2.891   7.165   9.705  0.3961 -0.3560 -0.1826
11942SOL    HW137267   2.878   7.085   9.654 -0.1062 -1.0220  0.9592
11942SOL    HW237268   2.940   7.223   9.647  1.1306 -1.6401 -0.8828
11943SOL     OW37269   4.835   0.321  10.053 -0.0636 -0.2039 -0.1236
11943SOL    HW137270   4.880   0.376   9.989  0.4096 -0.4886 -0.0396
11943SOL    HW237271   4.821   0.238  10.007 -1.7864  0.3356 -0.6429
11944SOL     OW37272   2.312   7.353   9.054 -0.0341  0.0796  0.8163
11944SOL    HW137273   2.311   7.257   9.050 -1.1305  0.1230 -0.9462
11944SOL    HW237274   2.388   7.373   9.108 -0.6105 -1.7968  2.4583
11945SOL     OW37275   2.534   7.391   8.128 -0.1332 -0.2946  0.4619
11945SOL    HW137276   2.592   7.454   8.171 -0.4549 -0.6760  1.4652
11945SOL    HW237277   2.555   7.400   8.035 -1.5570  2.7899  0.2878
11946SOL     OW37278   2.469   5.443   7.570 -0.6124  0.0728  0.1920
11946SOL    HW137279   2.505   5.494   7.642  1.5956 -2.1757  0.8517
11946SOL    HW237280   2.531   5.370   7.559 -2.9029 -1.8087 -1.4086
11947SOL     OW37281   1.597   0.406   9.082  0.4598  0.1889  0.1595
11947SOL    HW137282   1.601   0.384   8.989 -1.2486  1.5524 -0.2946
11947SOL    HW237283   1.655   0.481   9.092  2.4985 -1.3771  0.7315
11948SOL     OW37284   3.284   7.886   8.257  0.1721  0.9731 -0.4242
11948SOL    HW137285   3.252   7.932   8.334  0.1359 -0.8160  0.6864
11948SOL    HW237286   3.361   7.838   8.288  0.6379  0.8573 -1.7034
11949SOL     OW37287   4.137   7.603   8.284 -1.1415 -0.5266 -0.3609
11949SOL    HW137288   4.105   7.515   8.301 -0.0123 -1.0089 -0.6489
11949SOL    HW237289   4.220   7.590   8.238 -0.2124  0.6483  0.9019
11950SOL     OW37290   3.003   2.712   6.064 -0.9368  0.1102  0.5411
11950SOL    HW137291   2.940   2.780   6.086 -1.9070  0.3036 -2.3997
11950SOL    HW237292   3.086   2.758   6.056 -1.5649  1.0176 -1.3312
11951SOL     OW37293   4.143   6.338   8.787 -0.1936 -0.3284  0.4055
11951SOL    HW137294   4.142   6.278   8.713 -0.7300 -0.3349  0.4164
11951SOL    HW237295   4.235   6.341   8.814 -0.2150 -1.4006  0.6240
11952SOL     OW37296   1.374   0.421   9.257 -0.7049 -0.0647  0.0431
11952SOL    HW137297   1.461   0.387   9.237  1.1659  2.8243  2.4600
11952SOL    HW237298   1.345   0.461   9.175  1.7860  1.7926 -0.0536
11953SOL     OW37299   3.420   0.474   8.225 -0.3230  0.0761 -0.7026
11953SOL    HW137300   3.360   0.493   8.298 -0.4183  1.2316 -1.0561
11953SOL    HW237301   3.386   0.526   8.152 -0.2079 -1.0350 -1.5824
11954SOL     OW37302   3.645   6.042   7.312  0.9059  0.1613 -0.1310
11954SOL    HW137303   3.614   6.010   7.228  0.5693 -0.5836  0.2691
11954SOL    HW237304   3.723   6.093   7.291  0.8439 -0.0489 -0.8866
11955SOL     OW37305   4.245   6.070   7.785 -0.1299  0.6390 -0.1414
11955SOL    HW137306   4.313   6.120   7.828 -0.5188  0.8557  0.2296
11955SOL    HW237307   4.292   6.000   7.739  0.2859  0.2990  0.7722
11956SOL     OW37308   3.303   7.313   8.820  0.7259 -0.3350  0.3717
11956SOL    HW137309   3.284   7.227   8.783  0.2592 -0.7924  1.6240
11956SOL    HW237310   3.373   7.348   8.765  0.5130 -1.2586 -0.5185
11957SOL     OW37311   1.590   7.857   8.599  0.3345 -0.1034 -0.4347
11957SOL    HW137312   1.597   7.763   8.616 -0.9263 -0.3611 -1.1776
11957SOL    HW237313   1.564   7.895   8.684  2.1286 -0.2101  0.2066
11958SOL     OW37314   3.809   7.406   9.327 -0.3223  0.0810  0.0219
11958SOL    HW137315   3.718   7.381   9.311 -0.7277  1.4561  0.1025
11958SOL    HW237316   3.845   7.333   9.378 -2.1400  0.6592  2.3215
11959SOL     OW37317   2.300   7.854   7.189 -0.1351 -0.1758  0.0027
11959SOL    HW137318   2.318   7.802   7.267 -0.5715  1.3648  1.1776
11959SOL    HW237319   2.386   7.873   7.152  0.1287 -0.2160  0.5888
11960SOL     OW37320   2.828   7.250   7.009 -0.3420 -0.6716 -0.1011
11960SOL    HW137321   2.874   7.275   6.929 -2.0387 -0.1427 -0.9450
11960SOL    HW237322   2.891   7.267   7.079  0.0787  2.0403 -1.0158
11961SOL     OW37323   3.631   7.645   8.859  0.7003  0.1623  0.1610
11961SOL    HW137324   3.561   7.645   8.793  1.7744  1.2729 -1.0446
11961SOL    HW237325   3.690   7.715   8.831  0.9221  1.0455  2.6354
11962SOL     OW37326   2.532   7.263   5.190  0.0866 -0.1884  0.0250
11962SOL    HW137327   2.515   7.175   5.223 -0.8590  0.0304  0.1413
11962SOL    HW237328   2.536   7.318   5.268  0.2526 -0.0578 -0.0749
11963SOL     OW37329   3.397   0.375   9.359  0.4783  0.5437 -0.4911
11963SOL    HW137330   3.372   0.402   9.448  0.9469  2.4473 -0.8825
11963SOL    HW237331   3.438   0.290   9.370  0.9962  0.9776  1.1940
11964SOL     OW37332   3.103   6.352   5.771  0.5839  0.3320  0.0337
11964SOL    HW137333   3.079   6.265   5.741 -2.3699  0.3634  1.9794
11964SOL    HW237334   3.176   6.338   5.831 -0.6185 -1.0034  1.2547
11965SOL     OW37335   3.583   6.099   7.914  0.7123  0.0018  0.4204
11965SOL    HW137336   3.538   6.147   7.844  2.2918  1.9325  0.6367
11965SOL    HW237337   3.527   6.108   7.990  0.1728  0.0163  0.0252
11966SOL     OW37338   1.805   0.165   9.046 -0.0019 -0.3828 -0.9207
11966SOL    HW137339   1.796   0.256   9.018 -1.3031 -0.8976 -2.3440
11966SOL    HW237340   1.845   0.121   8.971  0.3867 -1.0270 -0.3411
11967SOL     OW37341   1.395   0.984   8.294  0.1831 -0.2387  0.3770
11967SOL    HW137342   1.305   0.951   8.291 -0.6109  0.5215  5.4103
11967SOL    HW237343   1.450   0.908   8.275 -1.5638 -1.7492  1.0427
11968SOL     OW37344   3.152   7.223   6.947  0.2117  0.0410 -0.1290
11968SOL    HW137345   3.129   7.200   7.037  0.0032  3.1969  0.7751
11968SOL    HW237346   3.247   7.215   6.943  0.0927 -1.7282 -0.2126
11969SOL     OW37347   3.332   0.036   8.728  0.2906  0.1929 -0.3184
11969SOL    HW137348   3.328   0.129   8.751 -0.3606  0.0308  0.2422
11969SOL    HW237349   3.418   0.026   8.686 -0.1757  1.3117 -1.5931
11970SOL     OW37350   1.953   5.557  10.171  0.4711  0.2853  0.8036
11970SOL    HW137351   1.986   5.572  10.083  0.1759  1.1136  0.8314
11970SOL    HW237352   1.859   5.543  10.160  0.5385 -0.2954  0.9188
11971SOL     OW37353   4.451   6.016   6.427 -0.4618 -0.3172  0.4028
11971SOL    HW137354   4.448   5.961   6.505 -1.1045 -0.6949  0.1204
11971SOL    HW237355   4.434   5.956   6.354 -2.4954  0.4240  0.1818
11972SOL     OW37356   2.915   7.358   9.000  0.3122 -0.1932  0.4699
11972SOL    HW137357   2.985   7.390   8.944 -0.8749  1.2608 -0.2561
11972SOL    HW237358   2.886   7.277   8.957  1.3179 -0.6513  0.6201
11973SOL     OW37359   2.226   1.084   7.925 -0.4724 -0.0764  0.6399
11973SOL    HW137360   2.222   1.020   7.996  0.0935  0.0846  0.8299
11973SOL    HW237361   2.220   1.033   7.845  2.2294 -0.6638  0.7027
11974SOL     OW37362   2.773   0.604   9.187  0.3256 -0.5638 -1.1877
11974SOL    HW137363   2.805   0.524   9.229 -2.5509 -2.0098 -1.5317
11974SOL    HW237364   2.809   0.601   9.098 -1.2606 -2.5354 -1.8247
11975SOL     OW37365   4.064   5.255  10.515  0.6023 -0.0277  0.4036
11975SOL    HW137366   4.025   5.318  10.576  0.5858  0.6237 -0.2583
11975SOL    HW237367   4.083   5.178  10.568  1.4931  0.8827  1.4377
11976SOL     OW37368   3.832   6.198   7.955 -0.2454  0.2459  0.0201
11976SOL    HW137369   3.748   6.160   7.929  0.6557 -0.5485 -1.9098
11976SOL    HW237370   3.896   6.128   7.942  0.9549  1.3264 -0.1298
11977SOL     OW37371   2.508   7.510   7.690  0.7013 -0.5235  0.2100
11977SOL    HW137372   2.581   7.505   7.750  1.5145  1.1756 -0.5890
11977SOL    HW237373   2.546   7.490   7.604  0.2027  0.1326 -0.1762
11978SOL     OW37374   1.736   6.528   7.678  0.0188 -0.0164  0.0204
11978SOL    HW137375   1.702   6.593   7.617  1.5068  1.0001  0.2111
11978SOL    HW237376   1.810   6.489   7.632 -0.0838 -0.6870  0.4087
11979SOL     OW37377   3.248   1.296  10.416 -0.1836  0.2038 -0.1130
11979SOL    HW137378   3.271   1.314  10.507 -0.4168 -0.5706  0.0992
11979SOL    HW237379   3.271   1.204  10.402  0.8402  0.5810 -1.1436
11980SOL     OW37380   3.457   0.819   8.215  0.1169  0.4634 -0.2171
11980SOL    HW137381   3.507   0.804   8.135  0.9877  1.9312  0.0010
11980SOL    HW237382   3.422   0.908   8.205 -0.3023  0.4259  0.7537
11981SOL     OW37383   1.571   6.307   7.638 -0.5502  0.4323  0.4702
11981SOL    HW137384   1.605   6.395   7.654  0.0511  0.6362 -1.5292
11981SOL    HW237385   1.637   6.248   7.676  1.7793  0.8462 -2.5358
11982SOL     OW37386   3.947   0.189   8.397 -0.3235 -0.5372  0.0599
11982SOL    HW137387   4.038   0.181   8.424 -0.5467  0.1374  1.0603
11982SOL    HW237388   3.941   0.275   8.356 -0.1503 -1.2643 -1.5713
11983SOL     OW37389   3.382   7.208   9.055  0.0389  0.4356  0.1580
11983SOL    HW137390   3.463   7.258   9.043 -0.7214  1.7961  0.5316
11983SOL    HW237391   3.329   7.229   8.979 -0.8148  1.2924  0.9519
11984SOL     OW37392   1.491   0.095   6.662  0.1653 -0.2848  0.0303
11984SOL    HW137393   1.528   0.182   6.648  0.2742 -0.3821 -0.2998
11984SOL    HW237394   1.518   0.045   6.585 -2.7742  0.3276 -1.5619
11985SOL     OW37395   3.131   7.913   9.180 -0.0065  0.0678  0.4189
11985SOL    HW137396   3.043   7.877   9.166  0.0332  0.4243 -0.9429
11985SOL    HW237397   3.184   7.875   9.109  0.4515  1.3821  0.0258
11986SOL     OW37398   3.295   6.423  10.077 -0.5744 -0.2776 -0.5723
11986SOL    HW137399   3.269   6.414   9.985 -1.4662 -1.2912 -0.2362
11986SOL    HW237400   3.296   6.334  10.111 -2.6147  0.2320  1.0229
11987SOL     OW37401   2.744   1.444   7.662 -0.4999 -0.0046 -0.8573
11987SOL    HW137402   2.770   1.353   7.676 -1.4696 -0.2307 -0.3651
11987SOL    HW237403   2.823   1.487   7.630 -0.1360 -1.1108 -1.5353
11988SOL     OW37404   3.949   6.497   7.240  0.3646  0.0715 -0.3714
11988SOL    HW137405   4.017   6.480   7.305  0.1057  0.4591  0.0066
11988SOL    HW237406   3.994   6.543   7.170  0.5412  0.1176 -0.2284
11989SOL     OW37407   4.584   7.228   8.409  0.3057  0.0186  0.3200
11989SOL    HW137408   4.648   7.297   8.426  2.2173 -0.8925 -2.5632
11989SOL    HW237409   4.628   7.148   8.437  0.1708 -0.5449 -1.0351
11990SOL     OW37410   2.090   2.304  10.142 -0.5136  0.0215  0.3765
11990SOL    HW137411   2.107   2.223  10.095  0.5258  0.5099 -0.1314
11990SOL    HW237412   2.152   2.303  10.215  0.6408  1.0676 -0.5447
11991SOL     OW37413   2.316   7.864  10.294  0.5449  0.3300 -0.4662
11991SOL    HW137414   2.371   7.799  10.337 -1.2342 -1.3907 -0.6384
11991SOL    HW237415   2.261   7.900  10.364  0.9295  1.0345 -0.5182
11992SOL     OW37416   4.506   0.133  11.489 -0.0042 -0.1776 -0.1435
11992SOL    HW137417   4.585   0.186  11.493  1.1205 -1.8646  1.2747
11992SOL    HW237418   4.444   0.177  11.548 -0.6038  1.7695 -2.1054
11993SOL     OW37419   3.179   5.858  11.369  0.2546 -0.6349 -0.6437
11993SOL    HW137420   3.213   5.946  11.349  2.7424 -1.0703  1.1284
11993SOL    HW237421   3.246   5.799  11.333 -0.1352 -1.6924  0.3329
11994SOL     OW37422   3.980   0.277  10.163 -0.3412  0.1182 -1.1677
11994SOL    HW137423   3.941   0.355  10.123  0.2990  0.9839 -0.1730
11994SOL    HW237424   4.002   0.305  10.252  2.0564 -0.4844 -1.4971
11995SOL     OW37425   1.980   6.823  10.722  0.3544  0.0586 -0.3510
11995SOL    HW137426   2.005   6.837  10.813 -0.6950 -0.1007 -0.0230
11995SOL    HW237427   2.056   6.851  10.671  1.3026 -0.7037  0.6029
11996SOL     OW37428   3.013   1.398  10.072 -0.1480 -0.2552 -0.2427
11996SOL    HW137429   2.980   1.446  10.147 -1.9745  0.1157 -1.2352
11996SOL    HW237430   3.091   1.447  10.045  0.7449 -0.5892  1.5447
11997SOL     OW37431   4.057   7.699   9.746 -0.6229  0.2720 -0.4580
11997SOL    HW137432   4.123   7.755   9.786 -1.2430 -0.6036  1.9193
11997SOL    HW237433   4.106   7.626   9.708 -0.1646 -0.2142  1.0236
11998SOL     OW37434   2.311   0.959   9.392  0.2741 -0.2105 -0.3260
11998SOL    HW137435   2.305   0.964   9.488 -1.4161 -0.6587 -0.3814
11998SOL    HW237436   2.260   1.033   9.361  1.0459  0.0915 -0.8960
11999SOL     OW37437   3.419   1.812  10.241  0.1159 -0.1116  0.0836
11999SOL    HW137438   3.465   1.741  10.196 -0.7854 -0.3791 -0.4556
11999SOL    HW237439   3.467   1.891  10.218 -0.3770 -0.2282 -1.4744
12000SOL     OW37440   4.231   0.170  12.102  0.7402 -0.3251 -0.1817
12000SOL    HW137441   4.300   0.229  12.132 -0.3923  0.1253  1.6636
12000SOL    HW237442   4.159   0.184  12.162 -0.9955 -0.8079 -2.0488
12001SOL     OW37443   3.988   2.995  10.754 -0.2173 -0.0822  0.0105
12001SOL    HW137444   3.987   2.899  10.758 -0.0133 -0.0787  0.1939
12001SOL    HW237445   3.941   3.017  10.674 -2.2358 -0.2701  1.0741
12002SOL     OW37446   2.488   7.372  10.309 -0.3188  0.0890  0.1848
12002SOL    HW137447   2.565   7.397  10.258 -1.2780  1.4240 -0.6885
12002SOL    HW237448   2.502   7.280  10.330  0.6494 -0.2162 -1.5579
12003SOL     OW37449   4.302   6.526   9.249 -0.5003 -0.2234 -0.9056
12003SOL    HW137450   4.269   6.565   9.330  1.5411 -0.1810 -0.0211
12003SOL    HW237451   4.270   6.435   9.252 -0.5133 -0.2011 -0.0803
12004SOL     OW37452   3.413   0.181  11.212  0.0779 -0.2653  0.1010
12004SOL    HW137453   3.340   0.229  11.253 -1.0079 -1.6622 -0.0965
12004SOL    HW237454   3.410   0.094  11.253  0.9605 -0.6886 -0.6945
12005SOL     OW37455   1.909   7.155   9.883  0.2536  0.0543 -0.0057
12005SOL    HW137456   1.868   7.072   9.904  0.7063 -0.4781 -1.1607
12005SOL    HW237457   1.905   7.161   9.788  2.4989  0.1429 -0.1405
12006SOL     OW37458   2.581   2.436   9.076 -0.5062 -0.0164 -0.0077
12006SOL    HW137459   2.586   2.528   9.047 -0.7319  0.9635  2.7974
12006SOL    HW237460   2.487   2.417   9.078 -0.4754 -0.1934 -0.2124
12007SOL     OW37461   3.108   7.518   9.636 -0.7986  0.0140  0.5441
12007SOL    HW137462   3.041   7.573   9.594 -0.7591 -0.3688 -0.0258
12007SOL    HW237463   3.139   7.571   9.711  0.1323  1.3157 -0.7060
12008SOL     OW37464   3.581   1.439  10.391  0.5249  0.2687  0.1706
12008SOL    HW137465   3.502   1.421  10.340  1.5520 -1.0775 -1.0316
12008SOL    HW237466   3.631   1.500  10.338 -0.1484  1.9813  1.4297
12009SOL     OW37467   1.908   6.561   9.691 -0.3835  0.4533  0.4183
12009SOL    HW137468   1.917   6.511   9.610 -0.4972 -0.7014  1.0961
12009SOL    HW237469   1.842   6.627   9.671 -0.6396 -0.0195 -0.3427
12010SOL     OW37470   2.405   0.256  11.429  0.2319  0.5240 -0.5542
12010SOL    HW137471   2.435   0.260  11.338 -1.7324 -0.7885 -1.3343
12010SOL    HW237472   2.373   0.167  11.440  4.7075 -1.0512  2.9970
12011SOL     OW37473   4.346   1.817   8.832 -0.0854 -0.1868 -0.1916
12011SOL    HW137474   4.288   1.747   8.862 -0.1976  0.5669  1.4010
12011SOL    HW237475   4.295   1.897   8.839  0.7410  0.3377  0.0514
12012SOL     OW37476   2.511   7.425   9.209  0.6930 -0.4667  0.5899
12012SOL    HW137477   2.602   7.448   9.192  0.5982 -0.6681 -0.2123
12012SOL    HW237478   2.483   7.487   9.276  1.0868  0.3357  0.0259
12013SOL     OW37479   4.069   7.733  10.476 -0.0923  0.6293 -0.0809
12013SOL    HW137480   3.985   7.736  10.523 -0.2522 -0.9012 -0.2345
12013SOL    HW237481   4.135   7.727  10.546 -0.2771 -0.6944  0.0039
12014SOL     OW37482   4.273   0.519  11.396  0.5411  0.1843  0.4510
12014SOL    HW137483   4.343   0.581  11.416  1.4372 -0.9673  0.9870
12014SOL    HW237484   4.293   0.442  11.449 -0.2263 -0.7838 -0.6102
12015SOL     OW37485   1.338   0.927  11.691 -0.1951  0.6998  0.2256
12015SOL    HW137486   1.272   0.859  11.678  0.3692  0.1640  0.1413
12015SOL    HW237487   1.393   0.922  11.613 -0.2563  1.3721  0.1355
12016SOL     OW37488   4.171   0.475   9.463  0.2127  0.0485  0.3804
12016SOL    HW137489   4.225   0.402   9.493  0.8963  1.0000  1.5889
12016SOL    HW237490   4.205   0.550   9.512 -0.9055  1.0448 -0.3400
12017SOL     OW37491   2.036   0.412   8.043  0.6679  0.3227  0.5534
12017SOL    HW137492   1.970   0.460   7.994  0.4407 -1.3104 -0.8240
12017SOL    HW237493   2.118   0.458   8.025  0.2216  1.1665  0.6287
12018SOL     OW37494   4.999   0.501   9.915 -0.4662 -0.0520 -0.9596
12018SOL    HW137495   5.072   0.557   9.891 -0.3428  0.4020  0.4324
12018SOL    HW237496   4.921   0.557   9.905 -0.4811 -0.0714 -0.9521
12019SOL     OW37497   2.330   7.764   8.971  0.1443 -0.1574 -0.1934
12019SOL    HW137498   2.380   7.742   9.050 -1.2079  0.3940  0.8536
12019SOL    HW237499   2.351   7.856   8.954  1.4362 -0.6210 -1.2706
12020SOL     OW37500   1.433   6.530  11.428 -0.1923 -0.5580 -0.5874
12020SOL    HW137501   1.426   6.560  11.338  0.1340  0.3592 -0.3226
12020SOL    HW237502   1.422   6.435  11.424  1.6580 -0.7583 -1.8070
12021SOL     OW37503   3.544   1.024  10.700 -0.2961 -0.4750 -0.3177
12021SOL    HW137504   3.474   1.003  10.761  1.0088  0.1904  1.4964
12021SOL    HW237505   3.563   0.942  10.655 -1.8817 -0.7696 -0.4883
12022SOL     OW37506   2.243   0.240   9.764  0.1029  0.4189  0.1703
12022SOL    HW137507   2.240   0.256   9.669 -2.0260  1.5467  0.3798
12022SOL    HW237508   2.301   0.165   9.773  0.5159  0.3991 -2.0135
12023SOL     OW37509   2.386   7.180  11.407  0.1473 -0.4347  0.4785
12023SOL    HW137510   2.409   7.203  11.317  0.1262  1.4634  0.9166
12023SOL    HW237511   2.459   7.125  11.437  0.3735 -0.7042 -0.5360
12024SOL     OW37512   1.587   6.426  10.918  0.1373  0.2438 -0.3225
12024SOL    HW137513   1.611   6.405  11.008  1.1679  0.4127 -0.5516
12024SOL    HW237514   1.587   6.341  10.873  0.1867  0.2341 -0.3038
12025SOL     OW37515   1.981   0.987   9.950 -0.5332  0.0069 -0.1480
12025SOL    HW137516   2.067   1.030   9.945 -1.7829  2.8590  0.4104
12025SOL    HW237517   1.944   1.018  10.033 -2.6397  0.0695 -1.0422
12026SOL     OW37518   1.999   7.980   9.214 -0.1469 -0.0689  0.2955
12026SOL    HW137519   1.937   7.919   9.176  0.7887 -2.3279  2.1828
12026SOL    HW237520   2.017   8.043   9.144 -3.6988  0.0803 -0.6300
12027SOL     OW37521   2.148   7.264   9.779  0.0841  0.0598 -0.2220
12027SOL    HW137522   2.097   7.207   9.837  0.9644 -1.4641 -0.8757
12027SOL    HW237523   2.125   7.235   9.691 -0.8738  2.0307 -0.6661
12028SOL     OW37524   2.835   0.581  10.337 -0.0597 -0.0708 -0.4180
12028SOL    HW137525   2.766   0.544  10.283  1.0099 -0.0486 -1.8796
12028SOL    HW237526   2.909   0.521  10.326  0.0634 -0.3316  1.4443
12029SOL     OW37527   3.207   0.060  11.983 -0.2278 -0.6473 -0.0746
12029SOL    HW137528   3.222   0.079  12.076 -0.5488 -0.2417 -0.1048
12029SOL    HW237529   3.167   0.140  11.948  0.1616 -0.6950 -0.6306
12030SOL     OW37530   5.022   7.730   7.623 -0.1391 -0.2868 -0.1343
12030SOL    HW137531   5.075   7.670   7.571 -0.3253  0.4814 -1.2450
12030SOL    HW237532   4.940   7.738   7.574 -0.9105 -0.7011  1.0553
12031SOL     OW37533   2.111   7.114  11.394 -0.1741 -0.2406 -0.8051
12031SOL    HW137534   2.113   7.029  11.438  0.6941 -0.3823 -1.0882
12031SOL    HW237535   2.190   7.158  11.425 -0.9228  0.7087 -0.2029
12032SOL     OW37536   2.445   2.363   9.701 -0.6083  0.3195  0.0427
12032SOL    HW137537   2.368   2.401   9.659 -0.9571 -0.4320  0.0024
12032SOL    HW237538   2.417   2.277   9.731  0.3775 -0.2130 -0.4967
12033SOL     OW37539   3.584   0.180  11.867  0.1867  0.3983 -0.3851
12033SOL    HW137540   3.629   0.260  11.839  1.8023 -0.5726 -0.7295
12033SOL    HW237541   3.647   0.110  11.850  0.0738 -0.6424  2.7046
12034SOL     OW37542   0.407   1.619  10.099 -0.2254  0.1931  0.5385
12034SOL    HW137543   0.353   1.619  10.177 -1.6283  1.0314 -0.3865
12034SOL    HW237544   0.460   1.699  10.105  1.3133 -0.8555  1.6645
12035SOL     OW37545   1.780   1.092  10.574 -0.0221 -0.4709 -0.5969
12035SOL    HW137546   1.689   1.062  10.581  0.3868 -1.8911 -1.0049
12035SOL    HW237547   1.804   1.074  10.484  0.3503  0.9230 -0.7975
12036SOL     OW37548   3.824   7.218   9.519  0.3312 -0.4159 -0.5486
12036SOL    HW137549   3.902   7.213   9.573 -0.7350 -3.1988  0.8873
12036SOL    HW237550   3.761   7.268   9.571  0.6536  0.6777 -1.1547
12037SOL     OW37551   3.393   5.719  11.970  0.5205 -0.2991  0.9608
12037SOL    HW137552   3.314   5.667  11.985  0.4557 -0.5570 -0.2162
12037SOL    HW237553   3.412   5.708  11.877  0.7206  1.4598  0.7524
12038SOL     OW37554   3.854   0.182   8.125  0.0403 -0.6333 -0.6917
12038SOL    HW137555   3.934   0.130   8.137  0.1729 -0.0683  1.2410
12038SOL    HW237556   3.872   0.263   8.173 -1.3164 -0.0615 -1.1201
12039SOL     OW37557   4.810   7.667  11.191 -0.3312  0.3166 -0.6132
12039SOL    HW137558   4.849   7.652  11.105  0.4841 -0.7940 -0.0729
12039SOL    HW237559   4.803   7.762  11.198  1.8608  0.5563 -0.9415
12040SOL     OW37560   5.055   0.460  10.368 -0.4527 -0.0831 -0.2575
12040SOL    HW137561   5.128   0.427  10.315 -0.6157  0.9823 -1.1785
12040SOL    HW237562   5.017   0.530  10.316 -2.3534 -0.8143  0.0405
12041SOL     OW37563   2.484   1.588  10.222 -0.6364  0.4532  0.4584
12041SOL    HW137564   2.457   1.543  10.142 -2.3616  1.0045  0.6691
12041SOL    HW237565   2.551   1.650  10.194  0.4167 -0.8982 -0.1451
12042SOL     OW37566   3.400   0.512  11.229 -0.4104 -0.1537 -0.4316
12042SOL    HW137567   3.474   0.452  11.226  1.0429  1.5093 -3.6529
12042SOL    HW237568   3.433   0.588  11.276  0.1536  0.7108 -2.1277
12043SOL     OW37569   3.804   0.670   0.648 -0.0119 -0.3606  0.1838
12043SOL    HW137570   3.752   0.647   0.572  0.2410  2.0393 -0.8116
12043SOL    HW237571   3.740   0.703   0.711 -0.0553 -0.8692  0.4108
12044SOL     OW37572   2.751   6.936  11.152  0.0623 -0.0051  0.3782
12044SOL    HW137573   2.820   6.979  11.102  1.3629 -1.0961  1.1577
12044SOL    HW237574   2.682   6.917  11.087 -0.2501  2.5001 -0.1103
12045SOL     OW37575   0.481   7.479   9.728  0.0176 -0.3046 -0.3871
12045SOL    HW137576   0.495   7.506   9.637  0.2787  1.6770  0.1854
12045SOL    HW237577   0.542   7.407   9.741 -1.8216 -2.3844 -2.4811
12046SOL     OW37578   2.619   6.848   8.059  0.0124  0.3221  0.5503
12046SOL    HW137579   2.606   6.874   8.151 -0.6872  0.0583  0.5334
12046SOL    HW237580   2.711   6.820   8.055  0.2001  0.8533  1.0427
12047SOL     OW37581   2.712   7.443   9.576  0.7272 -0.3364 -0.3711
12047SOL    HW137582   2.707   7.440   9.672 -1.6090  1.2434 -0.3801
12047SOL    HW237583   2.687   7.355   9.549 -0.7229 -0.2011  0.4491
12048SOL     OW37584   4.161   0.039  11.846  0.4576 -0.2790 -0.9622
12048SOL    HW137585   4.154  -0.055  11.864 -2.0146 -0.4354 -2.2764
12048SOL    HW237586   4.193   0.077  11.928 -1.0667 -1.9814  0.5082
12049SOL     OW37587   3.697   7.278  11.252  0.4444 -0.2914  0.3222
12049SOL    HW137588   3.788   7.254  11.264  0.5357  0.1375  0.5167
12049SOL    HW237589   3.684   7.352  11.311 -0.1543 -0.6431  0.6351
12050SOL     OW37590   2.933   7.216  11.194 -0.3777  0.0437 -0.4254
12050SOL    HW137591   2.929   7.182  11.104  0.3801 -0.9102 -0.1199
12050SOL    HW237592   2.959   7.308  11.183  1.0841 -0.4192 -1.1423
12051SOL     OW37593   4.205   7.945   0.191 -0.3554 -0.3540 -0.2262
12051SOL    HW137594   4.113   7.963   0.209 -0.4067 -0.6827 -0.1592
12051SOL    HW237595   4.219   7.856   0.222 -0.1878 -0.5548 -0.8647
12052SOL     OW37596   2.407   7.729   7.428  0.4379 -0.7321 -0.1968
12052SOL    HW137597   2.337   7.690   7.481 -0.7041 -0.3920 -1.3871
12052SOL    HW237598   2.464   7.655   7.406  2.1434 -0.5916  3.1134
12053SOL     OW37599   4.831   7.938  11.170 -0.1682 -0.0410  0.0863
12053SOL    HW137600   4.797   8.025  11.147  1.2369  0.9537  1.5187
12053SOL    HW237601   4.920   7.937  11.134 -0.2362 -0.9874 -0.0844
12054SOL     OW37602   3.343   0.239  10.376 -0.0765  0.1200 -0.6160
12054SOL    HW137603   3.402   0.240  10.451 -2.5093 -1.2600  1.5097
12054SOL    HW237604   3.366   0.159  10.328 -0.4917 -0.6978  0.5000
12055SOL     OW37605   5.144   0.314  11.073  0.2020 -0.1383 -0.6981
12055SOL    HW137606   5.219   0.284  11.123 -0.2429  0.4802  0.3842
12055SOL    HW237607   5.168   0.402  11.043  0.5086 -0.5487 -1.6787
12056SOL     OW37608   2.801   1.236  10.772  1.0523  0.3601 -0.0456
12056SOL    HW137609   2.810   1.141  10.772 -0.3772  0.1481 -2.0469
12056SOL    HW237610   2.865   1.267  10.708 -0.0000  0.4833 -1.0842
12057SOL     OW37611   2.468   7.217   9.879  0.1118 -0.4423 -0.6988
12057SOL    HW137612   2.431   7.134   9.850  1.2601 -1.3288  0.2749
12057SOL    HW237613   2.407   7.247   9.948  0.4143 -1.1697 -0.1043
12058SOL     OW37614   3.447   5.994   0.155 -0.0097 -0.9039 -0.5985
12058SOL    HW137615   3.409   6.080   0.139 -0.7846 -1.4130 -1.6452
12058SOL    HW237616   3.395   5.958   0.227  0.2970 -0.5219 -0.1796
12059SOL     OW37617   1.692   0.351  12.004  0.0292  0.5905  0.4296
12059SOL    HW137618   1.788   0.342  12.004  0.2902  2.6206 -1.1809
12059SOL    HW237619   1.677   0.445  11.999 -2.1209  0.4055  2.1992
12060SOL     OW37620   3.875   7.257   0.253  0.0147  0.0837  0.2946
12060SOL    HW137621   3.810   7.187   0.244 -1.8383  1.8031 -0.2540
12060SOL    HW237622   3.862   7.291   0.341 -0.4394  1.0010 -0.1216
12061SOL     OW37623   4.447   2.240   9.817  0.1225  0.5450  0.2660
12061SOL    HW137624   4.494   2.286   9.748 -1.4698  2.8465  0.5744
12061SOL    HW237625   4.358   2.231   9.784  0.4678 -3.0438 -0.0164
12062SOL     OW37626   1.777   0.199  11.026 -0.1605  0.3914  0.0195
12062SOL    HW137627   1.702   0.225  10.972  0.0689 -0.4593 -0.7413
12062SOL    HW237628   1.765   0.104  11.037  0.2386  0.4273  0.7892
12063SOL     OW37629   3.847   0.056  11.849  0.6210  0.2072  0.0358
12063SOL    HW137630   3.918   0.082  11.908  0.2916 -0.4473  0.7349
12063SOL    HW237631   3.887   0.052  11.763  1.1504  1.0140  0.2319
12064SOL     OW37632   3.829   5.380  11.524  0.2649  0.0342  0.0345
12064SOL    HW137633   3.804   5.350  11.612 -0.5065  0.9563  0.1467
12064SOL    HW237634   3.756   5.434  11.496  1.1761  0.9879 -0.5606
12065SOL     OW37635   2.353   6.863  11.045  0.3876 -0.2592  0.2294
12065SOL    HW137636   2.325   6.954  11.058  1.5653  0.1868 -0.1814
12065SOL    HW237637   2.333   6.820  11.128 -1.2886  0.0559  0.0186
12066SOL     OW37638   2.907   1.006  10.634 -0.2433  0.3182  0.6130
12066SOL    HW137639   2.888   1.038  10.546 -0.0957  0.6142  0.6857
12066SOL    HW237640   2.826   0.965  10.663 -0.3753  0.4532  0.4387
12067SOL     OW37641   4.027   0.282   0.909 -0.0766  1.0205  0.0676
12067SOL    HW137642   4.004   0.191   0.926 -0.3213  0.6468 -1.9923
12067SOL    HW237643   4.120   0.280   0.888 -0.4756  0.9263 -1.8197
12068SOL     OW37644   2.636   1.907  10.709 -0.1066 -0.1755 -0.1055
12068SOL    HW137645   2.632   1.812  10.710 -0.6499 -0.1995 -1.8349
12068SOL    HW237646   2.569   1.935  10.772  0.7541 -0.9105  1.1769
12069SOL     OW37647   4.345   7.688  11.089  0.3242 -0.1431  0.8670
12069SOL    HW137648   4.395   7.769  11.089 -0.4738  0.4168 -0.9873
12069SOL    HW237649   4.360   7.650  11.002 -0.5481 -1.1754  1.1307
12070SOL     OW37650   3.958   6.196  11.640 -0.5373  0.2148 -0.2993
12070SOL    HW137651   4.000   6.115  11.669  0.1051  0.4544 -0.5477
12070SOL    HW237652   3.972   6.198  11.545  1.4980  1.7387 -0.0409
12071SOL     OW37653   3.379   5.511   0.603  0.5686 -0.2511  0.1336
12071SOL    HW137654   3.333   5.595   0.602 -0.3437 -0.7298  0.0643
12071SOL    HW237655   3.414   5.503   0.691 -2.9445 -1.6396  1.5986
12072SOL     OW37656   1.863   7.166  11.300  0.0405  0.7479  0.6210
12072SOL    HW137657   1.870   7.258  11.324 -0.2552  0.7701  0.6204
12072SOL    HW237658   1.952   7.132  11.310  0.6511  1.5502 -1.4986
12073SOL     OW37659   4.183   0.118  12.454 -0.7634  0.1192  0.1625
12073SOL    HW137660   4.245   0.191  12.450  0.2371 -0.7357 -0.8452
12073SOL    HW237661   4.203   0.074  12.536 -0.5700  0.2929  0.2103
12074SOL     OW37662   3.045   7.846  11.102 -0.1623  0.2412 -0.0860
12074SOL    HW137663   3.049   7.938  11.129 -1.4783  0.5734 -0.9798
12074SOL    HW237664   3.130   7.829  11.062  1.0212  0.3545  2.2084
12075SOL     OW37665   4.820   2.197  12.464 -0.2287 -0.1715  0.5654
12075SOL    HW137666   4.762   2.245  12.522  0.5295  1.1639  0.2486
12075SOL    HW237667   4.770   2.188  12.383 -1.3306 -2.1344  1.3842
12076SOL     OW37668   4.868   0.931  11.621 -0.2725 -0.3296  0.2598
12076SOL    HW137669   4.830   0.973  11.699  0.0255 -0.8632  0.6980
12076SOL    HW237670   4.962   0.930  11.637 -0.0507  0.8938 -0.7787
12077SOL     OW37671   3.100   1.014   1.642 -0.1540 -0.5686 -0.7935
12077SOL    HW137672   3.082   0.985   1.552  0.2483  0.8446 -1.3581
12077SOL    HW237673   3.071   1.105   1.643 -2.0870 -1.1324  1.1247
12078SOL     OW37674   0.647   7.739  10.638 -0.1905  0.3303 -0.2425
12078SOL    HW137675   0.639   7.734  10.733 -0.8149 -1.7753 -0.3561
12078SOL    HW237676   0.670   7.651  10.611 -1.5045  0.5098 -2.1731
12079SOL     OW37677   2.631   7.371  11.858 -1.1359 -0.2113  0.0877
12079SOL    HW137678   2.584   7.295  11.892 -0.6362 -0.2641  0.6755
12079SOL    HW237679   2.604   7.443  11.915 -0.8917 -0.1436  0.1210
12080SOL     OW37680   2.508   7.085  12.188 -0.5610 -0.2009  0.5495
12080SOL    HW137681   2.452   7.149  12.145 -0.7282 -0.5780  0.1867
12080SOL    HW237682   2.448   7.021  12.226 -0.4480 -2.1084 -2.1337
12081SOL     OW37683   2.387   6.648   0.666  0.4018  0.1858  0.3546
12081SOL    HW137684   2.383   6.655   0.761  1.7973  0.2532  0.4356
12081SOL    HW237685   2.469   6.602   0.649  0.2477  0.3088 -0.8255
12082SOL     OW37686   3.563   6.931  10.861  0.5857 -0.4639  0.6852
12082SOL    HW137687   3.575   7.003  10.924  0.0808 -0.8339  1.2145
12082SOL    HW237688   3.494   6.962  10.802 -1.4259 -1.4438  2.3841
12083SOL     OW37689   3.866   7.633  11.480 -0.2266 -0.1007 -0.1925
12083SOL    HW137690   3.887   7.720  11.448  0.5987 -0.0787  0.3698
12083SOL    HW237691   3.917   7.574  11.425  0.0769 -0.1546  0.1450
12084SOL     OW37692   3.761   0.644  10.371  0.3260  0.1957 -0.0604
12084SOL    HW137693   3.780   0.721  10.317 -2.3130  0.7192 -0.4129
12084SOL    HW237694   3.708   0.588  10.315 -2.0432  0.5014  1.6944
12085SOL     OW37695   2.889   6.170  11.394  0.5591  0.6325 -0.7557
12085SOL    HW137696   2.863   6.239  11.454  0.6716  1.1839 -1.3249
12085SOL    HW237697   2.913   6.096  11.450 -2.5533 -0.0783 -0.1715
12086SOL     OW37698   1.854   0.253   2.833 -0.4114  0.1223 -0.2126
12086SOL    HW137699   1.848   0.193   2.907 -0.9592  0.1581 -0.2222
12086SOL    HW237700   1.929   0.222   2.782 -0.5979 -0.4633 -0.1346
12087SOL     OW37701   3.361   0.409  11.880  0.4314 -0.3092 -0.0352
12087SOL    HW137702   3.379   0.431  11.972 -0.2056  0.3350 -0.0568
12087SOL    HW237703   3.438   0.439  11.833  0.7268 -0.5669  0.2764
12088SOL     OW37704   3.442   1.661  11.336  0.2611  0.1899  0.1025
12088SOL    HW137705   3.536   1.661  11.317 -0.0307 -2.2750 -1.9251
12088SOL    HW237706   3.402   1.625  11.257 -2.0444 -2.2120  2.1722
12089SOL     OW37707   4.272   6.632   0.086  0.3374  0.5136 -0.0174
12089SOL    HW137708   4.290   6.542   0.060 -0.4838  0.5988 -0.9444
12089SOL    HW237709   4.187   6.652   0.046 -0.4022  1.0747  1.7205
12090SOL     OW37710   3.594   6.741  11.953 -0.3438 -0.5956 -0.6378
12090SOL    HW137711   3.507   6.740  11.915 -0.4802 -0.0633 -0.3452
12090SOL    HW237712   3.637   6.818  11.916 -1.0426  0.9163  1.4852
12091SOL     OW37713   3.232   7.158  12.059  0.4589 -0.0758 -0.4966
12091SOL    HW137714   3.161   7.158  11.994 -0.0796  0.7336  0.0612
12091SOL    HW237715   3.288   7.231  12.032  0.0148  0.5196  0.1601
12092SOL     OW37716   4.375   7.099   0.922  0.0991  0.4394  0.3647
12092SOL    HW137717   4.322   7.176   0.939  1.3771  1.1471  1.3156
12092SOL    HW237718   4.414   7.116   0.836 -0.5818  0.2703  0.0157
12093SOL     OW37719   3.346   7.248   1.645 -0.2690  0.1105 -0.0377
12093SOL    HW137720   3.264   7.287   1.614  0.6543  1.9797 -0.2403
12093SOL    HW237721   3.332   7.235   1.739 -1.2884 -0.9572 -0.3044
12094SOL     OW37722   3.195   0.540  11.512  0.6613  0.6386  0.2899
12094SOL    HW137723   3.164   0.569  11.426 -1.1013  0.1069  0.6864
12094SOL    HW237724   3.193   0.618  11.566  0.6565  0.7561  0.1207
12095SOL     OW37725   3.530   7.888  12.366 -0.2220  0.0147  0.1163
12095SOL    HW137726   3.459   7.869  12.304 -1.0703 -0.4988  1.2132
12095SOL    HW237727   3.609   7.891  12.312 -1.2623  2.5370 -1.4863
12096SOL     OW37728   0.604   0.930  10.970  0.2176 -0.5184  0.0723
12096SOL    HW137729   0.649   1.006  10.932  0.2244  0.0982  1.2673
12096SOL    HW237730   0.592   0.871  10.896  1.1038  0.2127 -0.6977
12097SOL     OW37731   1.699   5.755   9.771  0.5186 -0.0866 -0.3257
12097SOL    HW137732   1.624   5.743   9.829  0.8920  2.1233  0.7244
12097SOL    HW237733   1.663   5.798   9.693  0.1753 -2.2137 -1.4184
12098SOL     OW37734   2.213   6.727   0.031  0.2107  0.0814 -0.0284
12098SOL    HW137735   2.241   6.793   0.096 -0.0844  0.8871 -0.6960
12098SOL    HW237736   2.127   6.758   0.001  0.0676 -0.6169 -0.3603
12099SOL     OW37737   1.809   7.903   0.995 -0.5014  0.3709  0.6830
12099SOL    HW137738   1.884   7.844   0.994  0.7400  1.8624 -1.1019
12099SOL    HW237739   1.791   7.918   1.087 -0.3510 -2.1136  1.1769
12100SOL     OW37740   3.017   0.749   0.986  0.0061 -0.4586 -0.3259
12100SOL    HW137741   3.016   0.842   1.010  1.4589 -0.6997  0.8581
12100SOL    HW237742   2.967   0.745   0.905 -0.4702  1.2856 -0.1799
12101SOL     OW37743   4.810   2.507  12.220 -0.4794  0.2265 -0.3283
12101SOL    HW137744   4.723   2.514  12.260 -0.4904 -0.7038 -0.1588
12101SOL    HW237745   4.871   2.512  12.294 -0.5397 -2.7386  0.0463
12102SOL     OW37746   2.903   6.175  12.164  0.3665 -0.3312 -0.3961
12102SOL    HW137747   2.944   6.122  12.233  0.0242  0.6361  0.5689
12102SOL    HW237748   2.813   6.143  12.159 -0.3735  1.2759  1.4317
12103SOL     OW37749   3.358   6.817  11.799 -0.2698  0.5319  0.1863
12103SOL    HW137750   3.303   6.817  11.721 -1.0762  0.2050  0.7454
12103SOL    HW237751   3.412   6.896  11.791 -1.3591  1.2703  0.0050
12104SOL     OW37752   3.527   6.664   0.712 -0.3536  0.2218 -0.2637
12104SOL    HW137753   3.464   6.616   0.766  0.8761 -1.0558  0.1071
12104SOL    HW237754   3.540   6.608   0.635  1.8790 -0.6455  0.6467
12105SOL     OW37755   4.167   7.640  11.661  0.2035 -0.2416  0.2677
12105SOL    HW137756   4.247   7.616  11.708 -0.1517 -0.7043  0.6520
12105SOL    HW237757   4.186   7.619  11.570  0.2151 -1.2062  0.4759
12106SOL     OW37758   3.793   0.221   0.123  0.0122  0.1991  0.7781
12106SOL    HW137759   3.749   0.287   0.176  0.3035 -0.2598  1.6113
12106SOL    HW237760   3.824   0.268   0.046  0.2999  1.0574  1.4070
12107SOL     OW37761   1.989   0.984   1.084  0.0798 -0.0704 -0.2323
12107SOL    HW137762   2.062   0.936   1.045  0.0740 -0.1683 -0.1252
12107SOL    HW237763   1.934   1.010   1.010  1.1706  1.6228 -0.5025
12108SOL     OW37764   3.041   0.448  11.743  0.2899 -0.1814  0.4603
12108SOL    HW137765   3.056   0.484  11.656  2.0957 -0.5021  0.6113
12108SOL    HW237766   3.101   0.496  11.800  0.7142 -1.4722  1.1452
12109SOL     OW37767   4.110   2.306   2.002 -0.2652 -0.0401 -0.3895
12109SOL    HW137768   4.102   2.297   1.907  0.5223  2.1377 -0.7183
12109SOL    HW237769   4.033   2.262   2.037  0.3749 -2.5308 -1.8953
12110SOL     OW37770   5.706   1.417   2.968 -0.2710 -0.1253  0.3578
12110SOL    HW137771   5.657   1.428   3.050  1.1313  2.4140  0.9619
12110SOL    HW237772   5.794   1.394   2.996  0.0160 -0.0795 -0.4857
12111SOL     OW37773   5.032   7.785   0.629 -0.0086 -0.5115  0.0081
12111SOL    HW137774   5.064   7.710   0.680 -3.1785 -2.4128 -0.4589
12111SOL    HW237775   4.984   7.838   0.692 -0.2645 -0.4980 -0.1959
12112SOL     OW37776   6.314   7.997   0.287  0.2052 -0.1693  0.3755
12112SOL    HW137777   6.336   7.910   0.320  0.5928  0.3875  1.6204
12112SOL    HW237778   6.223   8.010   0.313 -0.5140 -0.9560 -1.5209
12113SOL     OW37779   3.141   0.910  12.117  0.2525  0.1794 -0.1204
12113SOL    HW137780   3.179   0.992  12.150  1.4359 -0.3968 -0.0092
12113SOL    HW237781   3.136   0.853  12.193 -1.0595  0.3055 -0.0920
12114SOL     OW37782   4.809   0.749   1.663  0.2174 -0.3708 -0.5507
12114SOL    HW137783   4.885   0.785   1.617  2.1610  0.4542  2.8624
12114SOL    HW237784   4.823   0.654   1.661  1.6120 -0.2212  0.2739
12115SOL     OW37785   3.961   2.376   1.078 -0.1625  0.6701  0.2701
12115SOL    HW137786   4.030   2.375   1.144  0.1854  0.8566 -0.0887
12115SOL    HW237787   3.954   2.467   1.051  0.1892  0.4863 -0.4579
12116SOL     OW37788   4.822   1.645   0.722 -0.3640  0.3005 -0.0006
12116SOL    HW137789   4.796   1.703   0.793 -1.3993 -0.8963  0.6387
12116SOL    HW237790   4.746   1.642   0.664 -0.7218 -1.1832  0.5094
12117SOL     OW37791   4.512   2.811   1.068 -0.0612 -0.2003  0.2800
12117SOL    HW137792   4.498   2.880   1.133  1.5682  1.3552 -0.9106
12117SOL    HW237793   4.504   2.729   1.117 -0.0468  0.8820  2.1843
12118SOL     OW37794   5.591   1.007   1.757 -0.4623 -0.0165  0.5323
12118SOL    HW137795   5.618   0.915   1.759 -0.1196 -0.0299 -1.7121
12118SOL    HW237796   5.663   1.054   1.799 -0.0723 -0.6714  0.6160
12119SOL     OW37797   4.441   0.803   0.422  0.5441 -0.1614 -0.3117
12119SOL    HW137798   4.368   0.742   0.414  1.6596 -1.5527 -0.2814
12119SOL    HW237799   4.454   0.836   0.333  1.1298 -1.4448 -0.7244
12120SOL     OW37800   5.140   1.660   2.646  0.2533 -0.6342 -0.1293
12120SOL    HW137801   5.219   1.710   2.666 -0.9140  1.2362 -0.0371
12120SOL    HW237802   5.109   1.629   2.731 -1.0072  1.6251  0.2968
12121SOL     OW37803   4.184   1.393   0.891  0.1014  0.3673  0.1345
12121SOL    HW137804   4.143   1.318   0.848 -0.5516  1.1297 -0.6093
12121SOL    HW237805   4.263   1.358   0.931 -0.3896 -0.7938  0.1292
12122SOL     OW37806   5.350   0.385   3.266  0.0583  0.1829 -0.5716
12122SOL    HW137807   5.400   0.305   3.249 -0.6605 -0.1682 -1.0847
12122SOL    HW237808   5.343   0.388   3.362 -0.7373 -0.9087 -0.5727
12123SOL     OW37809   4.782   1.621  12.335  0.3456 -0.4635  0.1332
12123SOL    HW137810   4.758   1.543  12.385  1.4983 -0.2039  1.1506
12123SOL    HW237811   4.846   1.590  12.271 -1.0150 -0.7678 -1.1142
12124SOL     OW37812   5.158   1.691   0.274  0.3080  0.2552 -0.4660
12124SOL    HW137813   5.219   1.620   0.296 -0.8174 -0.8599 -0.8897
12124SOL    HW237814   5.094   1.690   0.345 -1.6345 -1.4094 -2.1145
12125SOL     OW37815   3.159   2.071   2.490  0.9042  0.2555  0.1894
12125SOL    HW137816   3.075   2.082   2.535  0.4897  3.2748 -1.0948
12125SOL    HW237817   3.142   2.006   2.423  0.1591 -0.5949  1.1688
12126SOL     OW37818   3.403   0.924  11.555  0.2964 -0.4519  0.0118
12126SOL    HW137819   3.420   1.015  11.578 -1.3087 -0.2212  0.4308
12126SOL    HW237820   3.480   0.877  11.585  1.0988  0.7460 -0.1038
12127SOL     OW37821   7.571   0.570   0.604  0.0392  0.3632 -0.0684
12127SOL    HW137822   7.571   0.480   0.570  0.0630  0.4572 -0.3148
12127SOL    HW237823   7.482   0.602   0.590 -0.0611  0.2684  0.3169
12128SOL     OW37824   5.836   0.434   0.804 -0.9685 -0.4551  0.0815
12128SOL    HW137825   5.803   0.410   0.891 -0.8908 -1.6933 -0.2030
12128SOL    HW237826   5.880   0.518   0.817 -1.7140 -0.1907  1.0544
12129SOL     OW37827   5.729   1.198   0.550  0.5155  0.3091  0.4209
12129SOL    HW137828   5.726   1.197   0.646  1.2836  0.6976  0.4500
12129SOL    HW237829   5.819   1.223   0.528  0.3005  0.3970 -0.4031
12130SOL     OW37830   4.835   1.910  11.326  0.0092  0.1653  0.0273
12130SOL    HW137831   4.758   1.955  11.290 -1.3773 -1.3132  0.9747
12130SOL    HW237832   4.861   1.849  11.257 -0.7067 -0.4754  0.3093
12131SOL     OW37833   7.413   0.027  11.344  0.1469  0.5551  0.6052
12131SOL    HW137834   7.454   0.034  11.430 -2.2082 -0.1381  1.8679
12131SOL    HW237835   7.387   0.117  11.323 -2.1844  0.3331  2.2173
12132SOL     OW37836   5.190   1.690   1.385  0.0637  0.0578 -0.0921
12132SOL    HW137837   5.193   1.621   1.451 -1.7240  1.4615  1.5875
12132SOL    HW237838   5.106   1.678   1.341  0.2099  0.5149 -0.5032
12133SOL     OW37839   5.246   0.494   2.572  0.9370  0.1196  0.1099
12133SOL    HW137840   5.339   0.502   2.593  1.4529 -1.0578 -1.5894
12133SOL    HW237841   5.236   0.536   2.487 -0.0115 -0.2200  0.0425
12134SOL     OW37842   7.530   0.922   0.851  0.4492 -0.0548 -0.0444
12134SOL    HW137843   7.493   0.834   0.840 -0.0269  0.1839 -0.3807
12134SOL    HW237844   7.492   0.953   0.933 -1.1182  0.6835 -1.0228
12135SOL     OW37845   3.274   1.105  12.307 -0.1093 -0.1273  0.3114
12135SOL    HW137846   3.327   1.183  12.318  0.3009 -0.3734  0.0856
12135SOL    HW237847   3.317   1.038  12.360 -0.0203 -0.4062 -0.1066
12136SOL     OW37848   5.277   0.316   0.623 -0.0522  0.1646  0.9223
12136SOL    HW137849   5.201   0.279   0.669  0.1671  0.2915  1.3904
12136SOL    HW237850   5.239   0.373   0.556 -0.3718  0.6138  1.4752
12137SOL     OW37851   6.253   7.493   2.401 -0.1347 -0.1930 -0.0328
12137SOL    HW137852   6.257   7.410   2.448 -0.9205 -0.5491 -0.5678
12137SOL    HW237853   6.163   7.498   2.369  0.2818  0.1811 -1.2128
12138SOL     OW37854   4.997   1.983   1.516 -0.2470  0.8651 -0.2944
12138SOL    HW137855   5.053   2.011   1.443  0.4882 -0.1396 -0.1499
12138SOL    HW237856   5.042   2.013   1.594 -0.7165  1.3992 -0.2253
12139SOL     OW37857   5.858   2.804   0.396  0.3907  0.5040 -0.0191
12139SOL    HW137858   5.920   2.786   0.325  0.7285  0.3893  0.3042
12139SOL    HW237859   5.774   2.819   0.351  0.8343  1.5777 -0.5183
12140SOL     OW37860   4.409   7.708   3.133 -0.2539  0.5844  0.4497
12140SOL    HW137861   4.348   7.634   3.134 -0.0841  0.4120 -0.4429
12140SOL    HW237862   4.353   7.785   3.142 -0.3865  0.3399  1.8972
12141SOL     OW37863   5.203   0.571   1.691  0.1151  0.0437 -0.3699
12141SOL    HW137864   5.129   0.598   1.637 -0.9815  0.2286  1.1656
12141SOL    HW237865   5.171   0.495   1.740  0.9970  0.0340  0.2211
12142SOL     OW37866   6.060   1.613   0.722  0.0923  0.1524 -0.0621
12142SOL    HW137867   5.971   1.611   0.686  0.1913  1.2298 -0.4091
12142SOL    HW237868   6.102   1.686   0.677  0.1407  1.7682  2.4710
12143SOL     OW37869   3.167   1.462  10.854  0.0787  0.4590  0.3463
12143SOL    HW137870   3.098   1.414  10.810 -0.5844  0.6891  1.1081
12143SOL    HW237871   3.208   1.515  10.785 -1.4114  1.3681  0.1155
12144SOL     OW37872   5.097   7.090   1.745 -0.0546 -0.1939  0.0582
12144SOL    HW137873   5.149   7.064   1.669 -0.0508  0.3024 -0.1122
12144SOL    HW237874   5.159   7.089   1.818 -0.3598 -2.0458  0.3385
12145SOL     OW37875   6.503   0.972   1.043  0.4972 -0.0106  0.3302
12145SOL    HW137876   6.455   0.918   1.106  2.6968 -1.7028  0.7004
12145SOL    HW237877   6.524   0.912   0.972 -0.1414  1.3585 -1.0544
12146SOL     OW37878   3.559   1.677   2.993 -0.2892  0.1681 -0.1556
12146SOL    HW137879   3.618   1.615   2.949 -1.0446 -0.3186 -0.5114
12146SOL    HW237880   3.603   1.761   2.985  0.1859 -0.1253 -0.7374
12147SOL     OW37881   4.303   0.807   2.437 -0.8007 -0.2142  0.2000
12147SOL    HW137882   4.369   0.747   2.403 -1.6644 -0.5823 -0.8996
12147SOL    HW237883   4.330   0.825   2.527  2.8610  2.5831 -1.2334
12148SOL     OW37884   5.904   1.148   2.611  0.0106  0.3690  0.7562
12148SOL    HW137885   5.838   1.111   2.670  0.0553  0.2828  0.7527
12148SOL    HW237886   5.954   1.208   2.667  0.3577 -0.0735  0.9264
12149SOL     OW37887   4.654   7.027   0.164 -0.4989 -0.2990  0.3167
12149SOL    HW137888   4.745   7.057   0.159 -0.6735  0.0687 -0.9037
12149SOL    HW237889   4.602   7.106   0.149 -1.0442 -0.3859  1.6248
12150SOL     OW37890   4.766   0.231   1.432  0.1050  0.5460  0.4433
12150SOL    HW137891   4.795   0.197   1.516 -0.7345  1.7909  1.2651
12150SOL    HW237892   4.829   0.300   1.411 -1.0929  1.9219  1.2775
12151SOL     OW37893   3.387   0.424  12.499 -0.4952 -0.3927 -0.3046
12151SOL    HW137894   3.335   0.504  12.492 -1.3825 -1.0456 -1.4342
12151SOL    HW237895   3.477   0.455  12.511 -0.8896  0.7679 -0.2385
12152SOL     OW37896   4.269   2.739   2.246 -0.2816 -0.1889 -0.0989
12152SOL    HW137897   4.218   2.775   2.319 -1.1189 -0.1544 -0.6885
12152SOL    HW237898   4.213   2.672   2.209 -0.7831  1.1999 -2.0077
12153SOL     OW37899   2.900   0.894  11.983 -0.1289  0.2575 -0.1145
12153SOL    HW137900   2.838   0.859  12.047 -1.1047  0.0763 -1.1316
12153SOL    HW237901   2.986   0.882  12.024 -0.6682 -0.6181  0.8040
12154SOL     OW37902   5.336   7.989   2.562  0.0463  0.1296  0.4290
12154SOL    HW137903   5.399   7.918   2.570 -0.4408 -0.2207  1.2097
12154SOL    HW237904   5.268   7.954   2.505  0.1598  0.2307  0.2285
12155SOL     OW37905   4.086   0.623   1.130 -0.1895  0.0829  0.5301
12155SOL    HW137906   4.113   0.708   1.166 -1.3612  0.9945 -0.6357
12155SOL    HW237907   4.106   0.630   1.037 -0.2230 -0.9633  0.4379
12156SOL     OW37908   3.939   0.245  12.389 -0.1354  0.3284 -0.2884
12156SOL    HW137909   3.867   0.198  12.348  0.0234 -0.0080 -0.1880
12156SOL    HW237910   3.998   0.176  12.421 -0.6270  0.5511  1.1812
12157SOL     OW37911   4.736   0.495   2.143  0.2837  0.2455  0.4279
12157SOL    HW137912   4.660   0.463   2.095  0.7108 -1.0160  0.5723
12157SOL    HW237913   4.712   0.486   2.236 -0.1676  1.7845  0.4981
12158SOL     OW37914   4.088   3.125   0.732 -0.0811  0.1958  0.2399
12158SOL    HW137915   4.154   3.075   0.686 -1.7322 -1.2173 -0.7182
12158SOL    HW237916   4.079   3.082   0.816 -1.4937 -1.2209 -0.5795
12159SOL     OW37917   3.849   0.027   2.376 -0.4241  0.0162 -0.1298
12159SOL    HW137918   3.926   0.027   2.432 -0.2656  0.3242 -0.3440
12159SOL    HW237919   3.800   0.105   2.402 -2.6607 -2.1424  2.7011
12160SOL     OW37920   7.251   1.068   0.627  0.0850  0.0653 -0.0902
12160SOL    HW137921   7.259   1.013   0.705  0.5762  1.2384  0.7159
12160SOL    HW237922   7.169   1.116   0.639 -0.5853 -0.8212 -1.0206
12161SOL     OW37923   3.775   1.724   0.849  0.0877 -0.0303 -0.0755
12161SOL    HW137924   3.839   1.741   0.919 -0.3629 -0.7624  0.5387
12161SOL    HW237925   3.786   1.797   0.788  1.1783  0.1094  0.2544
12162SOL     OW37926   4.284   0.056   0.921  0.1193  0.0032 -0.0160
12162SOL    HW137927   4.345   0.128   0.908 -0.2244  0.1538 -0.8374
12162SOL    HW237928   4.309  -0.009   0.856  0.3265 -0.5660  0.6167
12163SOL     OW37929   5.420   2.381   1.388  0.0393 -0.2202  0.2369
12163SOL    HW137930   5.422   2.308   1.450 -3.2375 -0.1209  0.6066
12163SOL    HW237931   5.411   2.459   1.443 -1.1207  0.0255 -0.2783
12164SOL     OW37932   5.291   0.321   1.048 -0.0904  0.0083  1.0330
12164SOL    HW137933   5.296   0.262   0.973 -3.0765 -0.6346  1.1947
12164SOL    HW237934   5.298   0.263   1.124  0.5923  0.3581  1.2444
12165SOL     OW37935   4.056   0.278   1.521  0.2683  0.1702 -0.5634
12165SOL    HW137936   3.995   0.351   1.510  1.0489  0.7253 -1.3962
12165SOL    HW237937   4.057   0.235   1.436  1.3328  0.4253 -0.6921
12166SOL     OW37938   4.830   1.722   0.187 -0.3639 -0.7129 -0.4424
12166SOL    HW137939   4.793   1.784   0.249 -0.2325 -0.7963 -0.2792
12166SOL    HW237940   4.842   1.772   0.106  0.6983 -0.2439 -0.0176
12167SOL     OW37941   4.153   2.353   1.735 -0.3687 -0.0200 -0.3912
12167SOL    HW137942   4.111   2.416   1.676  1.1298  0.4163 -1.0285
12167SOL    HW237943   4.192   2.288   1.677  1.7178  0.7912  0.0431
12168SOL     OW37944   5.797   2.477   0.823 -0.2606 -0.0362  0.5063
12168SOL    HW137945   5.813   2.440   0.910 -2.1119 -0.7231  0.6041
12168SOL    HW237946   5.776   2.569   0.839  0.1547  0.0236  0.7082
12169SOL     OW37947   4.599   3.028   1.821 -0.1984 -0.0717  0.3782
12169SOL    HW137948   4.625   3.115   1.792  0.1157 -0.2331  0.1666
12169SOL    HW237949   4.603   3.031   1.916  2.4581 -0.6354  0.3645
12170SOL     OW37950   3.168   1.683   0.476  0.4054  0.4590 -0.3887
12170SOL    HW137951   3.121   1.605   0.507 -0.5433  1.1003 -0.1789
12170SOL    HW237952   3.260   1.658   0.481  0.1701 -0.2950  0.6796
12171SOL     OW37953   7.009   0.354   1.207 -0.2918 -0.1452 -0.3754
12171SOL    HW137954   6.953   0.300   1.262 -1.6174  0.8873 -0.6730
12171SOL    HW237955   6.984   0.444   1.226  0.1974  0.2883 -1.6233
12172SOL     OW37956   5.912   0.886   1.959 -0.8061  0.4527  0.1750
12172SOL    HW137957   5.915   0.829   2.036 -3.4056 -2.1004 -1.4048
12172SOL    HW237958   5.987   0.858   1.906  0.3762  1.4993  1.2206
12173SOL     OW37959   5.143   2.863  10.244  0.0091 -0.1630 -0.1955
12173SOL    HW137960   5.180   2.776  10.228  0.8881  0.0389  0.6916
12173SOL    HW237961   5.130   2.899  10.156  1.8479 -0.2863 -0.5607
12174SOL     OW37962   2.995   0.177   1.091 -0.3506  0.0499 -0.0342
12174SOL    HW137963   2.913   0.140   1.124  0.3978 -1.4780  0.2257
12174SOL    HW237964   3.058   0.105   1.098  0.6325  0.6909 -1.7117
12175SOL     OW37965   6.703   2.218   2.435  0.5899  0.2048 -0.0426
12175SOL    HW137966   6.701   2.312   2.457 -1.1452  0.1579  0.1826
12175SOL    HW237967   6.654   2.212   2.353 -0.8516 -0.6836  0.8428
12176SOL     OW37968   5.834   7.322   2.255  0.0497  0.1876  0.5276
12176SOL    HW137969   5.841   7.295   2.346 -0.1935 -0.1235  0.4530
12176SOL    HW237970   5.744   7.353   2.245 -0.1895 -0.6008  0.1708
12177SOL     OW37971   5.465   2.033   1.296  0.0402  0.0732  0.4334
12177SOL    HW137972   5.426   1.971   1.357 -0.7152  0.7628  0.6739
12177SOL    HW237973   5.391   2.085   1.264  0.1191 -1.4460 -2.4893
12178SOL     OW37974   5.928   7.716  11.385 -0.4448  0.1698 -0.5306
12178SOL    HW137975   5.998   7.780  11.369 -0.3608  0.3271  0.4290
12178SOL    HW237976   5.940   7.689  11.476 -1.0323 -0.5461 -0.6575
12179SOL     OW37977   4.290   7.434   0.579  0.1378 -0.1345  0.3361
12179SOL    HW137978   4.244   7.475   0.506  2.4870  1.1156 -0.5299
12179SOL    HW237979   4.275   7.493   0.653 -0.1349 -0.0819  0.2418
12180SOL     OW37980   3.954   2.271   0.134  0.0022 -0.4273  0.3522
12180SOL    HW137981   3.993   2.235   0.054 -1.0117 -1.2213  0.1896
12180SOL    HW237982   3.924   2.359   0.109 -0.4172 -0.7167 -0.1839
12181SOL     OW37983   4.310   7.447  12.319 -0.1776 -0.7653  0.4899
12181SOL    HW137984   4.302   7.537  12.350  0.9925 -0.2074 -0.6940
12181SOL    HW237985   4.227   7.429  12.275 -0.0984  0.0767 -0.0399
12182SOL     OW37986   4.976   6.949   1.490 -0.5278 -0.1690 -0.4757
12182SOL    HW137987   4.996   7.038   1.464  0.2421 -0.1135  0.2607
12182SOL    HW237988   4.941   6.908   1.411  0.5235  0.3501 -1.2367
12183SOL     OW37989   6.578   2.354   0.527  0.2673 -0.2345 -0.2548
12183SOL    HW137990   6.592   2.428   0.467  1.1573  0.6113  0.9519
12183SOL    HW237991   6.650   2.294   0.508  0.3128 -0.1662 -0.2993
12184SOL     OW37992   5.551   0.142   2.680 -0.2614 -0.2047 -0.1258
12184SOL    HW137993   5.472   0.091   2.663 -1.5246  1.9281 -1.0226
12184SOL    HW237994   5.574   0.179   2.595 -0.3043  1.9289  0.7383
12185SOL     OW37995   3.982   0.850   0.537  0.1395  0.0960 -0.3160
12185SOL    HW137996   3.939   0.788   0.594  0.0077  0.1564 -0.3494
12185SOL    HW237997   3.970   0.935   0.580 -1.2162  0.3526 -1.1432
12186SOL     OW37998   6.821   3.524   1.657  0.3667  0.0916 -0.0493
12186SOL    HW137999   6.754   3.459   1.636  0.4963  0.3060 -1.1897
12186SOL    HW238000   6.898   3.472   1.683 -0.1825 -0.1552  1.1665
12187SOL     OW38001   4.904   7.015  12.248 -0.0205 -0.0474 -0.4831
12187SOL    HW138002   4.911   7.056  12.335 -0.6806 -0.3616 -0.2749
12187SOL    HW238003   4.813   7.030  12.222  0.1481 -0.0377 -1.0870
12188SOL     OW38004   3.449   1.202   2.798  0.1665 -1.1611 -0.1931
12188SOL    HW138005   3.438   1.282   2.848 -2.7380 -2.3020  1.1976
12188SOL    HW238006   3.482   1.231   2.713 -0.4344  1.4434  0.3843
12189SOL     OW38007   5.758   7.857   0.142 -0.1533 -0.3414  0.0382
12189SOL    HW138008   5.745   7.819   0.229  1.2457  2.8834  1.8269
12189SOL    HW238009   5.678   7.835   0.094 -1.7576 -0.7766  2.7137
12190SOL     OW38010   5.632   0.200  10.923 -0.0282  0.4166  0.2623
12190SOL    HW138011   5.712   0.230  10.967  0.9672  0.7642 -1.6969
12190SOL    HW238012   5.647   0.220  10.831 -0.7919 -2.9353 -0.7079
12191SOL     OW38013   5.132   7.735   1.107 -0.5126  0.1997 -0.1803
12191SOL    HW138014   5.215   7.688   1.092 -0.4642  0.1528  0.2216
12191SOL    HW238015   5.071   7.694   1.046  0.1492  1.3412 -1.6829
12192SOL     OW38016   6.949   0.887  12.385 -0.2785  0.0874 -0.2336
12192SOL    HW138017   6.954   0.981  12.401  1.2554 -0.0795  0.4391
12192SOL    HW238018   7.035   0.853  12.411 -1.0396 -1.6076  0.2304
12193SOL     OW38019   5.633   0.456   0.649 -0.1808  0.0227  0.4934
12193SOL    HW138020   5.567   0.410   0.701 -1.0266  1.6402  0.9206
12193SOL    HW238021   5.712   0.452   0.702 -0.7829  0.8238  1.4699
12194SOL     OW38022   5.300   2.908   1.427 -0.7181  0.0339 -0.1776
12194SOL    HW138023   5.318   2.817   1.450  0.4833  0.3066  0.0677
12194SOL    HW238024   5.372   2.932   1.369  0.8693  1.7547  2.2928
12195SOL     OW38025   5.660   0.915   2.512 -0.1332 -0.2629 -0.2602
12195SOL    HW138026   5.590   0.980   2.518 -0.2440 -0.2113 -1.7344
12195SOL    HW238027   5.729   0.949   2.569 -0.4099  0.8629 -0.5631
12196SOL     OW38028   6.584   1.236   0.964  0.0828  0.6137  0.6987
12196SOL    HW138029   6.552   1.152   0.997 -0.6217  0.3340 -0.6249
12196SOL    HW238030   6.615   1.217   0.876  0.5072  1.6263  0.6125
12197SOL     OW38031   5.282   6.557   1.084 -0.1416  0.1253 -0.1364
12197SOL    HW138032   5.197   6.521   1.058 -0.0755  0.9382 -1.5802
12197SOL    HW238033   5.270   6.652   1.079  0.5881  0.2629  0.5795
12198SOL     OW38034   3.664   0.371   0.640 -0.0011 -0.5609 -0.3624
12198SOL    HW138035   3.622   0.427   0.705 -0.4377 -0.3426 -0.8323
12198SOL    HW238036   3.662   0.283   0.680 -2.2222 -0.8408 -0.9683
12199SOL     OW38037   4.856   0.936   2.943  0.3146 -0.0007 -0.3175
12199SOL    HW138038   4.823   0.910   3.029 -0.4641  0.8603 -0.3409
12199SOL    HW238039   4.791   0.998   2.910  0.4796 -0.4897 -1.6368
12200SOL     OW38040   6.170   2.499   2.461 -0.3208  0.7123  0.0225
12200SOL    HW138041   6.118   2.561   2.408  0.4757  1.7598  0.4338
12200SOL    HW238042   6.164   2.534   2.550  0.9332  0.7391  0.1032
12201SOL     OW38043   6.956   2.262   3.595 -0.1696 -0.0266 -0.4211
12201SOL    HW138044   7.046   2.265   3.628 -0.3968  0.0824  0.2054
12201SOL    HW238045   6.960   2.200   3.522  0.4339  0.0489 -0.4631
12202SOL     OW38046   7.262   2.674   1.003  0.1102 -0.0733 -0.4858
12202SOL    HW138047   7.266   2.578   1.002  1.7470 -0.0270 -1.2940
12202SOL    HW238048   7.349   2.701   1.033 -0.6381  1.1646  0.6737
12203SOL     OW38049   7.766   0.140   1.199 -0.0394  0.5952  0.2021
12203SOL    HW138050   7.725   0.159   1.283 -0.2933 -0.1956  0.2627
12203SOL    HW238051   7.860   0.141   1.217 -0.0720 -2.5497  1.2314
12204SOL     OW38052   3.047   7.360   0.487  0.8101  0.4994 -0.7297
12204SOL    HW138053   3.003   7.404   0.560  0.6430  0.0993 -0.5866
12204SOL    HW238054   3.133   7.401   0.482 -0.2064  2.6591 -2.2376
12205SOL     OW38055   3.214   0.275   2.315  0.1073  0.2703 -0.2873
12205SOL    HW138056   3.120   0.268   2.295  0.3430 -0.5400 -1.2266
12205SOL    HW238057   3.217   0.317   2.400 -1.1256  0.1801 -0.1706
12206SOL     OW38058   4.960   0.819   2.723  0.0472 -0.7529 -0.3154
12206SOL    HW138059   4.935   0.849   2.811  0.6251 -0.1658 -0.3412
12206SOL    HW238060   4.951   0.724   2.727 -1.2139 -0.6413 -0.0302
12207SOL     OW38061   2.902   2.503   2.228 -0.0445 -0.3989  0.3537
12207SOL    HW138062   2.942   2.587   2.250 -0.4465 -0.2088  0.3743
12207SOL    HW238063   2.931   2.443   2.297 -0.3191 -0.1050  0.7285
12208SOL     OW38064   4.838   0.177   2.330 -0.5193 -0.2240 -0.0326
12208SOL    HW138065   4.763   0.171   2.271 -0.6257  1.4407 -0.1179
12208SOL    HW238066   4.913   0.189   2.273 -0.1525 -1.8461  0.0555
12209SOL     OW38067   2.741   3.578   0.407  0.2515 -0.2136  0.1850
12209SOL    HW138068   2.797   3.645   0.369  0.6614 -0.9598 -0.5528
12209SOL    HW238069   2.800   3.526   0.463 -0.1474  0.2823  1.0826
12210SOL     OW38070   5.406   7.230   2.450  0.0347 -0.1448  0.8345
12210SOL    HW138071   5.357   7.193   2.376 -0.2473  0.3839  0.7533
12210SOL    HW238072   5.417   7.322   2.428  1.2948 -0.2966  0.7359
12211SOL     OW38073   5.411   1.217   1.825  1.5036 -0.3247  0.5120
12211SOL    HW138074   5.472   1.276   1.869  1.7740 -0.6872  0.6241
12211SOL    HW238075   5.466   1.151   1.784  1.2442 -0.0620 -0.2750
12212SOL     OW38076   6.820   1.158   1.298 -0.3760 -0.6314  0.3680
12212SOL    HW138077   6.837   1.177   1.206 -1.9698  1.2321  0.3976
12212SOL    HW238078   6.801   1.244   1.337  0.2535 -1.3761  2.4443
12213SOL     OW38079   5.564   2.880   1.293  0.1285  0.3230 -0.2898
12213SOL    HW138080   5.616   2.820   1.239  0.5468  0.7412 -0.3563
12213SOL    HW238081   5.588   2.857   1.383 -1.6081 -1.3333 -0.1734
12214SOL     OW38082   4.744   7.412   1.062  0.7742  0.6344 -0.2943
12214SOL    HW138083   4.683   7.426   0.989 -1.0929 -2.0078  0.6373
12214SOL    HW238084   4.753   7.499   1.102  0.2260  1.7329 -2.3672
12215SOL     OW38085   3.851   2.017   0.140  0.1650  0.3115 -0.4696
12215SOL    HW138086   3.869   2.044   0.230  0.8876  0.0391 -0.5245
12215SOL    HW238087   3.919   2.060   0.088  0.9033 -1.0103 -0.6417
12216SOL     OW38088   4.403   1.645   1.211 -0.6342 -0.0732 -0.0228
12216SOL    HW138089   4.362   1.681   1.290  0.9847  0.9406  0.4182
12216SOL    HW238090   4.491   1.620   1.240 -0.5836 -1.2767 -1.1362
12217SOL     OW38091   6.251   7.222   1.209 -0.2879 -0.0316  0.1722
12217SOL    HW138092   6.252   7.312   1.241 -0.7012  0.1955 -0.4276
12217SOL    HW238093   6.340   7.207   1.177  1.0035 -1.1992  3.8469
12218SOL     OW38094   5.788   1.109   1.922  0.5451  0.0249 -0.0993
12218SOL    HW138095   5.848   1.170   1.879 -1.0947  0.1513 -2.4124
12218SOL    HW238096   5.839   1.028   1.932  1.5683  0.6049 -0.5291
12219SOL     OW38097   4.658   6.631   0.711  0.3295  0.6569  0.0188
12219SOL    HW138098   4.668   6.654   0.619 -1.3674  1.4325  0.0051
12219SOL    HW238099   4.619   6.708   0.752 -0.4333 -0.2460  1.0627
12220SOL     OW38100   2.892   1.642   1.823 -0.2446  0.4513  0.6442
12220SOL    HW138101   2.871   1.549   1.812  1.3683  0.2132 -0.8298
12220SOL    HW238102   2.903   1.652   1.918 -0.1777 -0.9441  0.8145
12221SOL     OW38103   6.091   2.504   0.690  0.4557  0.0733 -0.2717
12221SOL    HW138104   6.117   2.464   0.773  1.5994  0.9492 -0.1817
12221SOL    HW238105   6.174   2.527   0.648 -0.1175 -0.0769 -1.5258
12222SOL     OW38106   5.264   7.091   0.587  0.1220  0.2109 -0.6027
12222SOL    HW138107   5.233   7.166   0.638 -4.2535 -0.9043 -1.1720
12222SOL    HW238108   5.285   7.025   0.654 -0.5188  0.4683 -0.1268
12223SOL     OW38109   5.880   0.212   0.680 -0.4307  0.1537 -0.4501
12223SOL    HW138110   5.942   0.224   0.608  1.2121 -2.2232  0.4464
12223SOL    HW238111   5.888   0.292   0.732  1.0543  0.3973 -0.9941
12224SOL     OW38112   3.378   1.544   0.946 -0.3795 -0.6283 -0.1788
12224SOL    HW138113   3.349   1.453   0.940 -3.0170  0.1871 -1.3574
12224SOL    HW238114   3.435   1.556   0.871 -0.0460 -1.2773 -0.0404
12225SOL     OW38115   5.187   0.394   2.991 -0.2655 -0.4267  0.4034
12225SOL    HW138116   5.148   0.364   2.909  0.4669  0.4426 -0.2905
12225SOL    HW238117   5.267   0.342   2.999 -0.2176 -0.3438  0.4545
12226SOL     OW38118   4.539   1.248   0.665 -0.6609  0.2868  0.2665
12226SOL    HW138119   4.532   1.285   0.753  0.6528  1.8709 -0.2432
12226SOL    HW238120   4.552   1.324   0.608  1.0893 -0.8493 -0.9760
12227SOL     OW38121   4.521   7.449  12.062 -0.3024  0.4849  0.1397
12227SOL    HW138122   4.435   7.477  12.033 -0.0918  0.3481 -0.6319
12227SOL    HW238123   4.509   7.426  12.154 -1.0917  0.4304  0.0275
12228SOL     OW38124   6.448   0.494   0.010  0.6879  0.2228 -0.1320
12228SOL    HW138125   6.484   0.417   0.053 -1.1030 -0.1424  0.8101
12228SOL    HW238126   6.517   0.522  -0.050  2.3909 -0.5974  1.3307
12229SOL     OW38127   6.178   0.274   1.329 -0.3760  0.0609  0.1870
12229SOL    HW138128   6.222   0.359   1.327 -0.1909 -0.0036  1.1531
12229SOL    HW238129   6.121   0.275   1.252 -0.0614  0.8825 -0.0482
12230SOL     OW38130   5.346   1.671   1.729  0.1974  0.2940 -0.8457
12230SOL    HW138131   5.361   1.641   1.818 -1.2689  0.3018 -0.5759
12230SOL    HW238132   5.333   1.765   1.737 -0.6762  0.1891 -0.9635
12231SOL     OW38133   4.545   7.973   2.361 -0.1627  0.0700 -0.2795
12231SOL    HW138134   4.503   7.962   2.276  2.4313  0.9821 -1.7861
12231SOL    HW238135   4.534   7.889   2.405  0.4231 -1.2191 -2.4748
12232SOL     OW38136   4.065   1.413   1.662  0.5142  0.8781  0.0951
12232SOL    HW138137   3.990   1.452   1.708 -0.9679  1.2190 -2.4073
12232SOL    HW238138   4.030   1.390   1.576  2.5434 -1.7536 -0.1621
12233SOL     OW38139   5.144   0.528   0.399 -0.0583 -0.3520 -0.4140
12233SOL    HW138140   5.225   0.580   0.400  0.2007 -0.7106  1.2722
12233SOL    HW238141   5.128   0.511   0.306  0.1443  2.2290 -1.0093
12234SOL     OW38142   6.253   0.533   0.474  0.1167  0.3826 -0.3078
12234SOL    HW138143   6.327   0.589   0.499  0.1358  1.2406 -2.1741
12234SOL    HW238144   6.176   0.588   0.485 -0.2797 -0.4530  1.4475
12235SOL     OW38145   5.211   1.490   1.592  0.6241  0.2770  0.4686
12235SOL    HW138146   5.250   1.559   1.646 -0.4764  0.5744  0.9085
12235SOL    HW238147   5.215   1.412   1.647 -0.5327  0.5880  1.0310
12236SOL     OW38148   3.065   1.294   1.596  0.2632 -0.1750  0.6694
12236SOL    HW138149   3.096   1.382   1.619 -0.9270 -0.4022  3.4628
12236SOL    HW238150   2.971   1.303   1.587  0.3666 -0.7015 -1.7919
12237SOL     OW38151   3.623   7.628   2.301 -0.2837 -0.0404 -0.0752
12237SOL    HW138152   3.714   7.629   2.272  0.3086 -0.9612  1.6491
12237SOL    HW238153   3.574   7.664   2.226  1.2327 -1.4652 -1.8575
12238SOL     OW38154   4.764   7.909   1.348 -0.5669  0.0644  0.1990
12238SOL    HW138155   4.678   7.943   1.324 -0.1606  0.7655 -0.3136
12238SOL    HW238156   4.819   7.987   1.357  0.2848 -0.4147 -0.5803
12239SOL     OW38157   4.213   7.457   4.187 -0.4156  0.8749  0.3863
12239SOL    HW138158   4.134   7.460   4.132 -0.4844  0.4258  0.4575
12239SOL    HW238159   4.284   7.477   4.126 -0.2912 -1.3549 -0.2841
12240SOL     OW38160   3.747   1.916   0.631  0.0460 -0.0993 -0.4114
12240SOL    HW138161   3.653   1.932   0.630  0.2176  1.2228  0.7441
12240SOL    HW238162   3.785   1.995   0.593  0.6780 -0.8617 -1.3927
12241SOL     OW38163   2.939   2.513   0.913  0.8407 -0.0852 -0.5628
12241SOL    HW138164   3.019   2.536   0.960 -0.7065 -1.6018  3.1377
12241SOL    HW238165   2.929   2.419   0.926 -2.9281  0.4231  1.6701
12242SOL     OW38166   6.684   0.594   2.642 -0.2900  0.0092 -0.6316
12242SOL    HW138167   6.711   0.558   2.726 -0.6770  2.0835  0.4213
12242SOL    HW238168   6.596   0.558   2.629 -0.3246 -0.1277 -0.0491
12243SOL     OW38169   4.154   0.213   0.391  0.0566  0.5972 -0.2060
12243SOL    HW138170   4.132   0.143   0.329  0.1104 -0.3156  0.7702
12243SOL    HW238171   4.241   0.191   0.422  0.5655  1.7572 -0.7311
12244SOL     OW38172   3.402   0.781   3.753 -0.5758  0.0401  0.1562
12244SOL    HW138173   3.322   0.755   3.708 -0.1354  0.3045 -0.7953
12244SOL    HW238174   3.371   0.833   3.828 -1.2713  1.4757 -1.0739
12245SOL     OW38175   4.813   2.059   2.475 -0.3226 -0.3641  0.3974
12245SOL    HW138176   4.860   2.048   2.392 -2.6619 -0.4066 -1.0420
12245SOL    HW238177   4.852   1.995   2.534  1.6463 -0.1076 -0.5498
12246SOL     OW38178   3.917   1.220   1.013  0.2348 -0.1876  0.2346
12246SOL    HW138179   3.862   1.297   1.003  2.1308  1.2787  0.5832
12246SOL    HW238180   3.864   1.159   1.065 -1.7922  0.3051 -1.1351
12247SOL     OW38181   6.282   7.518   0.294 -0.0629  0.1413 -0.0088
12247SOL    HW138182   6.369   7.480   0.287  0.7034  1.3499  2.0502
12247SOL    HW238183   6.234   7.482   0.220  2.0742 -0.8169 -1.0092
12248SOL     OW38184   5.553   1.414   1.984 -0.4165  0.5076  0.1492
12248SOL    HW138185   5.591   1.406   2.071  0.2071  1.1362 -0.0615
12248SOL    HW238186   5.482   1.477   1.995  0.0565  1.0515  0.0733
12249SOL     OW38187   7.434   7.089   1.608  0.4174  0.1214 -0.7327
12249SOL    HW138188   7.388   7.006   1.597 -0.7062  0.5479  0.5425
12249SOL    HW238189   7.456   7.116   1.519 -2.9421  0.4958 -1.5696
12250SOL     OW38190   4.445   1.907   0.844  0.0334 -0.1847  0.5065
12250SOL    HW138191   4.446   1.906   0.940 -2.0467  1.1671  0.5972
12250SOL    HW238192   4.368   1.855   0.820  0.1513  0.0468 -0.4088
12251SOL     OW38193   4.531   0.306   0.565  0.2917  0.1610  0.2769
12251SOL    HW138194   4.590   0.334   0.635  0.8710  2.6181 -1.0846
12251SOL    HW238195   4.572   0.340   0.485 -1.3500 -0.8599 -1.0584
12252SOL     OW38196   5.676   1.481   2.221  0.2705 -0.3610  0.1883
12252SOL    HW138197   5.750   1.541   2.211 -0.5837  0.6825 -0.0775
12252SOL    HW238198   5.709   1.412   2.279  1.4343  0.0910  0.0964
12253SOL     OW38199   4.284   7.889   0.702 -0.1761 -0.4907 -0.0037
12253SOL    HW138200   4.296   7.799   0.732  2.2725 -0.0474  0.5105
12253SOL    HW238201   4.317   7.889   0.612  0.5581  0.0273  0.2537
12254SOL     OW38202   4.323   0.578  12.058 -0.3849  0.1310 -0.9077
12254SOL    HW138203   4.377   0.506  12.091  1.7210  1.9082 -0.2404
12254SOL    HW238204   4.275   0.540  11.984  0.3917 -2.0116 -0.3779
12255SOL     OW38205   6.573   0.301  11.337  0.1865 -0.3045 -0.0114
12255SOL    HW138206   6.519   0.340  11.406  0.2443 -1.5697  0.7817
12255SOL    HW238207   6.635   0.370  11.313 -0.0775  0.2846  0.9396
12256SOL     OW38208   7.007   3.985   0.456  0.2553 -0.1129  0.3252
12256SOL    HW138209   6.935   4.046   0.471 -0.9716 -1.5241  0.4082
12256SOL    HW238210   7.012   3.976   0.361 -2.0814 -2.6512  0.3322
12257SOL     OW38211   3.584   0.993   2.709  0.0470  0.0400 -0.2038
12257SOL    HW138212   3.519   1.060   2.732 -0.5541 -0.6178  0.0513
12257SOL    HW238213   3.664   1.043   2.692  0.6398  0.6257  3.4906
12258SOL     OW38214   5.390   2.601   1.803 -0.1725  0.3725  0.1659
12258SOL    HW138215   5.438   2.682   1.822 -0.1115  0.8603 -1.9054
12258SOL    HW238216   5.298   2.624   1.816 -0.1561  0.7840 -0.4338
12259SOL     OW38217   4.403   7.246  11.477  0.1184 -0.3304  0.2255
12259SOL    HW138218   4.322   7.231  11.428  0.5080  0.0932 -0.5709
12259SOL    HW238219   4.424   7.161  11.516 -0.3149 -0.6247 -0.1691
12260SOL     OW38220   6.612   1.936   0.885 -0.1313  0.2381  0.0873
12260SOL    HW138221   6.655   2.006   0.934 -0.2520 -0.9678  2.0167
12260SOL    HW238222   6.519   1.959   0.887 -0.3540 -0.6864  2.0308
12261SOL     OW38223   6.348   1.984   0.893 -0.3744  0.1680  0.6624
12261SOL    HW138224   6.272   1.980   0.835 -0.7360  1.9199  0.9478
12261SOL    HW238225   6.311   2.005   0.979  0.1544 -2.3761  1.5718
12262SOL     OW38226   3.811   2.435   1.744 -0.1085  0.4643  0.0475
12262SOL    HW138227   3.877   2.366   1.743  0.6851  1.1983  0.2089
12262SOL    HW238228   3.804   2.462   1.652 -0.2666  0.3045  0.0134
12263SOL     OW38229   6.108   0.378  12.465  0.1455 -0.7484  0.4527
12263SOL    HW138230   6.139   0.402  12.378 -2.6414 -1.3615 -0.8097
12263SOL    HW238231   6.080   0.287  12.456  1.2067 -1.3229  2.4432
12264SOL     OW38232   5.515   0.669   1.976  0.1609 -0.2203  0.0053
12264SOL    HW138233   5.420   0.679   1.971  0.1275 -0.1997  0.6701
12264SOL    HW238234   5.529   0.578   2.000  0.3209 -0.2623 -0.2340
12265SOL     OW38235   2.189   1.564   0.896 -0.4550  0.2582 -0.0773
12265SOL    HW138236   2.279   1.533   0.898 -0.3346  0.6396  0.6284
12265SOL    HW238237   2.136   1.486   0.911 -0.1822  0.2692  0.9868
12266SOL     OW38238   6.439   2.947   1.910  0.1584  0.3734 -0.3908
12266SOL    HW138239   6.459   2.947   2.003 -0.2771  0.1118 -0.2929
12266SOL    HW238240   6.440   2.854   1.885 -1.4917  0.2736 -0.2401
12267SOL     OW38241   5.715   7.042  11.206 -0.2875  0.3932 -0.1377
12267SOL    HW138242   5.742   7.108  11.142  1.4683  0.6962  0.8513
12267SOL    HW238243   5.775   6.969  11.193  1.3371  1.1914  2.3182
12268SOL     OW38244   5.993   0.290   2.014  0.0395 -0.1854  0.2916
12268SOL    HW138245   6.074   0.261   1.973 -0.8138  0.0380 -1.6456
12268SOL    HW238246   5.960   0.360   1.958 -1.3695 -0.0802  1.1730
12269SOL     OW38247   6.360   2.255  12.099 -0.0882  0.2216  0.2456
12269SOL    HW138248   6.439   2.203  12.117  0.7483  1.3001 -0.1806
12269SOL    HW238249   6.363   2.326  12.162 -1.4117 -0.4040  1.0509
12270SOL     OW38250   5.080   0.231   1.433  0.0621  0.5621 -0.0653
12270SOL    HW138251   5.103   0.164   1.498  1.6429  0.8550 -0.2826
12270SOL    HW238252   5.158   0.285   1.426 -0.7299  1.6375 -0.8879
12271SOL     OW38253   4.562   7.670   1.254 -0.3136 -0.5284  0.3744
12271SOL    HW138254   4.545   7.611   1.327 -0.4445  0.1501  0.9017
12271SOL    HW238255   4.529   7.755   1.283 -1.8078 -0.5668 -1.0743
12272SOL     OW38256   5.701   0.855   0.823  0.1744  0.4037  0.5927
12272SOL    HW138257   5.659   0.876   0.906 -1.5017  1.6885 -0.5315
12272SOL    HW238258   5.735   0.938   0.791 -1.1371  0.3817 -1.0063
12273SOL     OW38259   2.752   1.104   1.651 -0.2587  0.3642  0.1119
12273SOL    HW138260   2.737   1.017   1.686  0.3040 -0.2064 -1.0136
12273SOL    HW238261   2.728   1.098   1.559  0.9813  1.0449 -0.2899
12274SOL     OW38262   5.452   2.222   3.201  0.4404  0.0380  0.1429
12274SOL    HW138263   5.461   2.175   3.118 -0.6484 -2.4942  1.3495
12274SOL    HW238264   5.358   2.219   3.220  0.5510  1.4026  1.0474
12275SOL     OW38265   5.405   0.158   1.661 -0.0308 -0.1298  0.4068
12275SOL    HW138266   5.310   0.147   1.663 -0.0069 -0.2943  1.3631
12275SOL    HW238267   5.437   0.097   1.728  1.0826 -3.0323 -2.4666
12276SOL     OW38268   6.017   7.707   3.639 -0.0274 -0.1345 -0.2594
12276SOL    HW138269   5.993   7.762   3.713  0.7032  0.1626 -0.2355
12276SOL    HW238270   5.971   7.624   3.655 -0.6806  0.2701 -0.0052
12277SOL     OW38271   5.633   0.813   0.334  0.1558 -0.3564  0.2074
12277SOL    HW138272   5.611   0.906   0.333  0.5908 -0.2134  1.6462
12277SOL    HW238273   5.637   0.790   0.427  0.2727 -1.7673 -0.1166
12278SOL     OW38274   5.579   7.164   2.023 -0.7031 -0.1809 -0.3146
12278SOL    HW138275   5.672   7.141   2.022 -0.5928  0.2489 -0.8850
12278SOL    HW238276   5.568   7.215   2.103 -0.6116 -0.8609  0.1373
12279SOL     OW38277   2.948   1.740  12.144  0.9010 -0.2586 -0.3311
12279SOL    HW138278   2.967   1.801  12.073  0.0950 -1.5079 -1.6927
12279SOL    HW238279   2.901   1.668  12.101 -1.9145  0.1104  1.8855
12280SOL     OW38280   6.258   1.658   1.033 -0.1049  0.2383 -0.6820
12280SOL    HW138281   6.243   1.564   1.023  0.0506 -0.0459  1.2961
12280SOL    HW238282   6.183   1.699   0.989  0.7364 -0.6980 -3.1478
12281SOL     OW38283   4.725   0.134   1.144 -0.5757 -0.1769 -0.0751
12281SOL    HW138284   4.721   0.180   1.227 -0.9032 -2.9214  1.5323
12281SOL    HW238285   4.817   0.141   1.117  0.1713 -1.5347  1.9429
12282SOL     OW38286   5.848   7.161   1.972  0.0486 -0.8174 -0.6204
12282SOL    HW138287   5.866   7.068   1.974 -0.7935 -0.9866 -0.1429
12282SOL    HW238288   5.877   7.193   2.057 -1.1250 -0.9543 -0.1491
12283SOL     OW38289   3.445   7.680   0.941  0.2230  0.5613 -0.5073
12283SOL    HW138290   3.530   7.675   0.900  0.8243 -0.1516  0.7456
12283SOL    HW238291   3.453   7.625   1.019 -2.1362 -1.6565 -1.6606
12284SOL     OW38292   5.579   1.284   1.096 -0.0578  0.0202  0.1684
12284SOL    HW138293   5.593   1.368   1.052 -1.3129  0.7471  1.0697
12284SOL    HW238294   5.571   1.307   1.189  0.0460 -1.1576  0.4796
12285SOL     OW38295   6.376   0.588   0.923  0.7571 -0.0161  0.0353
12285SOL    HW138296   6.363   0.652   0.853  2.4474 -0.6319 -0.8998
12285SOL    HW238297   6.445   0.530   0.890  0.4606 -1.3026  1.5561
12286SOL     OW38298   5.861   1.813   1.400 -0.7989 -0.5949  0.5164
12286SOL    HW138299   5.767   1.801   1.384 -0.9759 -0.1597  1.2064
12286SOL    HW238300   5.880   1.899   1.361 -1.1225  0.2341  2.1162
12287SOL     OW38301   5.168   1.245   2.580 -0.1911  0.2490  0.4576
12287SOL    HW138302   5.218   1.272   2.657  0.8803  0.7849 -0.4025
12287SOL    HW238303   5.234   1.226   2.514 -1.1133  0.6874 -0.6241
12288SOL     OW38304   5.943   3.060   1.499  0.0068 -0.0103 -0.1389
12288SOL    HW138305   5.974   2.975   1.531  1.1119 -0.2003 -1.5826
12288SOL    HW238306   6.006   3.123   1.534 -0.1852  0.0788  0.0454
12289SOL     OW38307   2.494   1.817   1.505 -0.0055  0.1366 -0.1929
12289SOL    HW138308   2.544   1.869   1.441  1.4919 -0.1701  0.6919
12289SOL    HW238309   2.414   1.793   1.458 -0.0722  1.9760 -1.1246
12290SOL     OW38310   6.936   0.999   0.786 -0.1393 -0.7429  0.2057
12290SOL    HW138311   7.020   0.963   0.813 -0.3188 -0.9292  0.5277
12290SOL    HW238312   6.908   0.944   0.713 -0.7253 -1.7025  1.1171
12291SOL     OW38313   5.121   7.709   1.849 -0.0721 -0.4074 -0.3473
12291SOL    HW138314   5.055   7.640   1.859 -0.5962  0.2167  0.6851
12291SOL    HW238315   5.140   7.736   1.938 -1.7546  2.5063 -0.7559
12292SOL     OW38316   5.542   1.129   0.339 -0.3397  0.0129  0.0529
12292SOL    HW138317   5.609   1.133   0.408 -0.7806  1.0275  0.4546
12292SOL    HW238318   5.459   1.142   0.386 -0.8397 -1.2641 -0.4324
12293SOL     OW38319   6.395   1.655   2.474 -0.0698  0.5597 -0.0814
12293SOL    HW138320   6.383   1.644   2.379 -0.7285  0.6866 -0.0207
12293SOL    HW238321   6.464   1.592   2.497 -1.4964 -1.1602 -0.2816
12294SOL     OW38322   6.353   2.610   0.975 -0.5318  0.3033 -0.4509
12294SOL    HW138323   6.374   2.542   0.912  0.9062  1.2298 -1.0217
12294SOL    HW238324   6.396   2.583   1.056 -2.0184 -0.6672  0.0573
12295SOL     OW38325   4.099   0.362   1.151  0.5121  0.1845 -0.2839
12295SOL    HW138326   4.062   0.329   1.069 -0.5156 -1.7479  0.8776
12295SOL    HW238327   4.070   0.453   1.156 -2.3878 -0.6330 -0.4501
12296SOL     OW38328   3.662   4.066  12.035 -0.3495  0.7763  0.3013
12296SOL    HW138329   3.719   4.032  11.965 -0.0988  3.0367 -0.6735
12296SOL    HW238330   3.578   4.022  12.021  0.0907  0.1828 -0.5746
12297SOL     OW38331   4.814   1.092   0.723 -0.1920  0.8442  0.2840
12297SOL    HW138332   4.864   1.162   0.764  0.2200  0.6171  0.1752
12297SOL    HW238333   4.734   1.134   0.692  0.8593  1.7003 -1.4507
12298SOL     OW38334   5.775   7.509   0.350  0.3689  0.0814  0.2090
12298SOL    HW138335   5.692   7.517   0.303 -1.0486 -1.2354  2.2910
12298SOL    HW238336   5.830   7.455   0.294 -0.1104  1.0738 -1.2617
12299SOL     OW38337   6.319   0.498   1.269 -0.1495 -0.7442 -0.1099
12299SOL    HW138338   6.312   0.444   1.190 -0.7948 -0.0209 -0.5718
12299SOL    HW238339   6.410   0.527   1.270  0.1436 -1.6365  0.0151
12300SOL     OW38340   3.028   2.209   0.587  0.1738  0.0702  0.3836
12300SOL    HW138341   2.980   2.182   0.509 -0.3892  1.2110  0.3204
12300SOL    HW238342   2.988   2.160   0.659 -1.3468  1.2275  0.3827
12301SOL     OW38343   4.307   3.423   1.973  0.2922  0.0126 -0.6256
12301SOL    HW138344   4.332   3.400   1.884  1.4900  1.7472 -0.7936
12301SOL    HW238345   4.352   3.505   1.990  2.1436 -1.4406  2.4577
12302SOL     OW38346   3.953   0.802   2.253 -0.2072 -0.1691  0.2869
12302SOL    HW138347   3.871   0.847   2.271  0.3903  0.3613  1.8946
12302SOL    HW238348   4.006   0.816   2.332 -0.0830 -3.9943  1.0978
12303SOL     OW38349   5.928   7.991  12.166  0.1846 -0.1091 -0.0205
12303SOL    HW138350   5.924   7.987  12.071  1.3721 -1.7134 -0.0375
12303SOL    HW238351   5.842   8.024  12.192 -0.9457 -1.6638 -1.5600
12304SOL     OW38352   5.510   1.732   0.062  0.6840 -0.4163 -0.1993
12304SOL    HW138353   5.430   1.680   0.052  0.1014  0.3736  0.1884
12304SOL    HW238354   5.561   1.685   0.128 -0.3894  0.1215  1.0569
12305SOL     OW38355   4.490   2.741  12.186 -0.5988 -0.9385 -0.2160
12305SOL    HW138356   4.456   2.759  12.274  1.7740 -0.8007  0.7528
12305SOL    HW238357   4.443   2.662  12.158 -2.2974 -0.2732  0.6319
12306SOL     OW38358   3.612   0.050   0.949 -0.3978  0.0171  0.4405
12306SOL    HW138359   3.524   0.075   0.978 -0.8656 -1.1174  0.1035
12306SOL    HW238360   3.597   0.004   0.866  0.2485 -2.0890  1.4008
12307SOL     OW38361   4.329   2.085   0.488 -0.3474  0.1624 -0.5451
12307SOL    HW138362   4.284   2.040   0.559 -1.8299  2.8712  0.3715
12307SOL    HW238363   4.262   2.139   0.446  0.7931 -0.2324 -3.1419
12308SOL     OW38364   4.475   7.355   1.838 -0.0394 -0.2136 -0.0763
12308SOL    HW138365   4.562   7.378   1.870 -0.4291  1.3261 -0.0067
12308SOL    HW238366   4.415   7.401   1.897 -0.9016 -1.1667 -0.1862
12309SOL     OW38367   5.181   7.185   2.603 -0.1000  0.2145 -0.0839
12309SOL    HW138368   5.177   7.228   2.689  1.4488 -2.6789  1.5838
12309SOL    HW238369   5.268   7.207   2.570  0.5922 -1.2634  0.6528
12310SOL     OW38370   4.559   0.484   1.204  0.3283  0.0732 -0.3945
12310SOL    HW138371   4.500   0.548   1.244  1.8759  1.8360 -0.7794
12310SOL    HW238372   4.510   0.402   1.205 -1.5532  1.1424  0.5821
12311SOL     OW38373   3.756   2.802   0.745 -0.0298  0.3270  0.0611
12311SOL    HW138374   3.837   2.795   0.695 -0.4081 -1.4753 -0.3708
12311SOL    HW238375   3.778   2.859   0.819  1.6832 -0.2748  0.0575
12312SOL     OW38376   6.122   6.990   1.360  0.1710 -0.2132  0.0514
12312SOL    HW138377   6.072   6.942   1.294  1.5844 -1.7626  0.0477
12312SOL    HW238378   6.160   7.064   1.313 -0.8036  0.0952 -0.2874
12313SOL     OW38379   5.275   0.415   1.461  0.1062 -0.2103  0.6774
12313SOL    HW138380   5.371   0.409   1.460  0.1524  0.3905  0.7715
12313SOL    HW238381   5.256   0.475   1.533 -0.2661  0.7833 -0.2256
12314SOL     OW38382   5.428   7.864   1.744 -0.0785 -0.0329  0.2588
12314SOL    HW138383   5.350   7.812   1.723 -1.1622  1.2692  0.8513
12314SOL    HW238384   5.501   7.812   1.714 -1.1282 -1.7799  0.6108
12315SOL     OW38385   2.928   0.986  11.252  0.2572 -0.4650  0.2287
12315SOL    HW138386   2.957   0.958  11.165  0.3104 -0.1660  0.1506
12315SOL    HW238387   3.009   1.006  11.299  0.1950 -0.0157  0.1418
12316SOL     OW38388   5.824   0.580  12.408  0.2822 -0.2694 -0.2085
12316SOL    HW138389   5.808   0.667  12.370 -0.1145  0.2830  1.1876
12316SOL    HW238390   5.788   0.519  12.343 -2.9687  0.7308  0.4455
12317SOL     OW38391   2.896   1.508   1.373 -0.1332 -0.0189  0.4478
12317SOL    HW138392   2.979   1.504   1.421  0.0694  2.0896  0.3790
12317SOL    HW238393   2.833   1.540   1.438 -0.1645  1.4811 -0.2783
12318SOL     OW38394   4.857   0.172   2.633  0.4946 -0.8687 -0.1421
12318SOL    HW138395   4.807   0.092   2.641  0.9129 -1.2909 -1.3889
12318SOL    HW238396   4.902   0.164   2.549  2.4354 -0.3997  0.7844
12319SOL     OW38397   5.250   1.452   1.108 -0.1120  0.2304 -0.1991
12319SOL    HW138398   5.157   1.464   1.090 -0.0491  0.7391 -0.1975
12319SOL    HW238399   5.281   1.393   1.039 -0.3972  0.2010 -0.3025
12320SOL     OW38400   2.878   7.235   3.176 -0.3728 -0.2127  0.2185
12320SOL    HW138401   2.880   7.300   3.246 -2.1346  1.0045 -0.7712
12320SOL    HW238402   2.859   7.285   3.097 -2.2638 -1.9295 -0.5106
12321SOL     OW38403   5.479   0.648   2.554 -0.6367  0.5144 -0.0772
12321SOL    HW138404   5.482   0.697   2.636  1.2359  0.6331 -0.1716
12321SOL    HW238405   5.490   0.715   2.486 -0.4903  0.2456 -0.3220
12322SOL     OW38406   4.011   0.868   2.510 -0.2356  0.1353  0.8065
12322SOL    HW138407   4.002   0.796   2.573  1.0797  0.6483  1.6154
12322SOL    HW238408   4.083   0.921   2.544  0.0717  0.8001 -0.7921
12323SOL     OW38409   5.989   7.604   1.993 -0.0791 -0.1286 -0.1738
12323SOL    HW138410   5.933   7.544   1.944  0.3436  0.5385 -1.5360
12323SOL    HW238411   6.053   7.634   1.929  1.1688 -0.0363  1.0799
12324SOL     OW38412   5.119   2.659   1.863  0.0361  0.4809 -0.0043
12324SOL    HW138413   5.097   2.655   1.770  1.2689 -2.7976 -0.2945
12324SOL    HW238414   5.037   2.640   1.908  0.1821 -2.0807 -0.6782
12325SOL     OW38415   4.886   1.578   5.831  0.2195 -0.0003 -0.2215
12325SOL    HW138416   4.856   1.658   5.873 -0.3147 -1.0545  1.4975
12325SOL    HW238417   4.982   1.584   5.833  0.2020  1.0550 -1.1191
12326SOL     OW38418   4.337   0.702   4.002  0.4120 -0.0889 -0.3706
12326SOL    HW138419   4.417   0.685   3.952  0.9964 -0.7831  0.7615
12326SOL    HW238420   4.367   0.744   4.082 -0.2373 -1.2243  0.4990
12327SOL     OW38421   6.095   2.532   4.757 -0.1321  0.3212  0.3316
12327SOL    HW138422   6.161   2.494   4.698 -0.0169  1.1230 -0.0692
12327SOL    HW238423   6.015   2.483   4.738  0.0566  0.1513 -0.0390
12328SOL     OW38424   6.444   7.833   3.035 -0.3037  0.2212  0.4649
12328SOL    HW138425   6.501   7.765   3.070  0.4556  0.6070 -0.0053
12328SOL    HW238426   6.433   7.894   3.108 -2.1544 -1.0697  1.3770
12329SOL     OW38427   4.473   3.087   3.679  0.8698 -0.2488  0.0774
12329SOL    HW138428   4.429   3.159   3.633  3.7049  0.6809 -1.4171
12329SOL    HW238429   4.458   3.011   3.623  0.3921 -0.1720  0.0935
12330SOL     OW38430   2.665   7.738   2.506 -0.5388  0.1907 -0.0087
12330SOL    HW138431   2.652   7.823   2.464 -0.2987 -0.8142 -2.2775
12330SOL    HW238432   2.601   7.681   2.463  1.1647 -1.3854 -0.5584
12331SOL     OW38433   3.353   1.784   2.315  0.0953  0.2587  0.0237
12331SOL    HW138434   3.401   1.861   2.284 -2.4701  1.5566 -1.0041
12331SOL    HW238435   3.376   1.779   2.408 -0.0547  2.6346  0.2631
12332SOL     OW38436   4.738   0.226   3.706  0.3578 -0.7094  0.2750
12332SOL    HW138437   4.652   0.222   3.749  0.6229 -1.2349  0.7662
12332SOL    HW238438   4.772   0.312   3.728 -0.2141 -0.3282 -0.2698
12333SOL     OW38439   5.328   2.696   2.504 -0.0466 -0.1441  0.8702
12333SOL    HW138440   5.237   2.720   2.521 -0.1581  0.0036  0.1075
12333SOL    HW238441   5.370   2.697   2.590 -0.1118  2.5034  0.9503
12334SOL     OW38442   3.861   2.569   2.110  0.0819  0.2752 -0.1534
12334SOL    HW138443   3.801   2.575   2.036  0.1688  1.3668 -0.1490
12334SOL    HW238444   3.816   2.513   2.173 -1.0742  1.3269 -0.0166
12335SOL     OW38445   5.084   1.462   3.336  0.4827 -0.7493 -0.2270
12335SOL    HW138446   5.095   1.454   3.242 -0.7147  0.3450 -0.4907
12335SOL    HW238447   5.160   1.512   3.366 -0.6661  1.6794 -1.1235
12336SOL     OW38448   2.675   2.373   1.952 -0.3039  0.0659 -0.0691
12336SOL    HW138449   2.724   2.455   1.942 -0.8431  0.1490 -2.5967
12336SOL    HW238450   2.709   2.316   1.884  1.2084 -2.5203  2.6294
12337SOL     OW38451   5.404   0.977   2.955 -0.2706  0.7887 -0.2842
12337SOL    HW138452   5.410   0.889   2.918 -1.8316 -0.2052  1.5963
12337SOL    HW238453   5.310   0.989   2.971  0.1969  1.5092  2.3234
12338SOL     OW38454   3.484   1.446   1.675  0.4349 -0.5163  0.1838
12338SOL    HW138455   3.472   1.532   1.635  2.7977  0.0335  0.5204
12338SOL    HW238456   3.422   1.389   1.629 -0.4389  1.1274 -0.7565
12339SOL     OW38457   4.217   1.029   1.464 -0.4689 -0.1073  0.3634
12339SOL    HW138458   4.260   1.050   1.547 -1.7654  0.3020  0.9701
12339SOL    HW238459   4.257   1.088   1.400 -0.2366  0.3796  0.9432
12340SOL     OW38460   5.421   0.923   3.253 -0.9065  0.4539  0.0505
12340SOL    HW138461   5.448   1.012   3.277 -1.9001  0.7710  0.0346
12340SOL    HW238462   5.412   0.926   3.158 -0.2540  0.1386 -0.0212
12341SOL     OW38463   3.472   1.133   0.553  0.0779  0.0910  0.1420
12341SOL    HW138464   3.476   1.037   0.543 -0.3253  0.1638 -0.8351
12341SOL    HW238465   3.388   1.157   0.514  0.3012  0.8745  0.1365
12342SOL     OW38466   4.471   0.438   3.280  0.4028  0.5389 -0.5157
12342SOL    HW138467   4.509   0.414   3.195  1.6383  0.2562  0.0916
12342SOL    HW238468   4.393   0.488   3.258  0.4137  0.0157 -1.8189
12343SOL     OW38469   4.450   7.933   1.330  0.2196  0.0632  0.8512
12343SOL    HW138470   4.379   7.883   1.370 -1.6713  0.8531 -1.2885
12343SOL    HW238471   4.460   8.010   1.386 -2.3239  1.1343 -0.0611
12344SOL     OW38472   2.317   6.752   4.426 -0.0094 -0.5592 -0.0844
12344SOL    HW138473   2.283   6.834   4.460 -0.7571 -0.7958 -0.2296
12344SOL    HW238474   2.251   6.687   4.451 -0.1132 -0.8835 -1.1604
12345SOL     OW38475   4.794   1.120   1.033 -0.6427 -0.0110  0.0614
12345SOL    HW138476   4.836   1.171   0.964 -1.1715 -0.3154 -0.5015
12345SOL    HW238477   4.855   1.125   1.107 -0.3181  0.7651 -0.2430
12346SOL     OW38478   4.247   0.058   3.672 -0.2303  0.4608  0.4859
12346SOL    HW138479   4.201   0.109   3.738  0.8940  0.6678  1.1244
12346SOL    HW238480   4.178   0.031   3.611 -1.3469 -0.0365  1.9170
12347SOL     OW38481   4.511   1.318   0.922 -0.3062  0.1869 -0.3950
12347SOL    HW138482   4.471   1.325   1.009  0.2283 -0.4717 -0.0841
12347SOL    HW238483   4.605   1.329   0.938 -0.2904  1.0611 -1.0272
12348SOL     OW38484   3.103   0.151   1.998 -0.3717 -0.4080  0.3513
12348SOL    HW138485   3.064   0.188   2.077  1.1017  0.2088  0.8328
12348SOL    HW238486   3.186   0.114   2.028  0.2533 -0.0884 -0.9323
12349SOL     OW38487   5.931   0.851   2.319  0.4980 -0.1332 -0.0154
12349SOL    HW138488   5.963   0.941   2.331  2.7495 -1.0206  1.0958
12349SOL    HW238489   5.845   0.862   2.279  1.2289  2.4790 -1.0594
12350SOL     OW38490   6.150   2.120   3.636 -0.4157 -0.8035 -0.0852
12350SOL    HW138491   6.179   2.204   3.603  0.5198 -0.9922  0.2233
12350SOL    HW238492   6.074   2.097   3.582 -0.4778  0.0742 -0.3813
12351SOL     OW38493   3.688   7.434   4.288 -0.5781  0.0212  0.0534
12351SOL    HW138494   3.723   7.369   4.228  1.6366  0.3657  0.8712
12351SOL    HW238495   3.657   7.505   4.232 -1.2726 -0.8986 -0.7595
12352SOL     OW38496   4.516   0.608   3.521 -0.5100  0.4229  0.0615
12352SOL    HW138497   4.432   0.595   3.565 -1.5194  1.5453 -1.4159
12352SOL    HW238498   4.528   0.528   3.469 -0.1896 -0.1396  0.9844
12353SOL     OW38499   5.726   2.297   3.190 -1.0914  0.3249 -0.1482
12353SOL    HW138500   5.645   2.264   3.229 -1.4728 -0.3659 -1.4713
12353SOL    HW238501   5.697   2.363   3.127 -0.4693  1.5702  0.8153
12354SOL     OW38502   4.841   1.139   2.381  0.0133 -0.0791 -0.2566
12354SOL    HW138503   4.817   1.071   2.444 -0.2083  0.4676  0.2503
12354SOL    HW238504   4.874   1.211   2.434 -0.8813  0.6800 -0.7136
12355SOL     OW38505   3.699   0.241   2.497  0.5229  0.4113 -0.6448
12355SOL    HW138506   3.624   0.296   2.474 -1.7035 -1.3372  1.9347
12355SOL    HW238507   3.770   0.304   2.511 -0.7783  2.2550 -1.8158
12356SOL     OW38508   6.894   1.664   3.488 -0.0317 -0.3870 -0.0834
12356SOL    HW138509   6.968   1.681   3.430  0.8311 -1.4360  0.6513
12356SOL    HW238510   6.912   1.576   3.524 -2.1946 -1.1350 -0.7145
12357SOL     OW38511   3.156   0.048   4.263 -0.4204  0.2691  0.2994
12357SOL    HW138512   3.146   0.116   4.331  1.0285 -1.1954  2.0731
12357SOL    HW238513   3.067   0.014   4.251 -0.8680  1.2392  0.6827
12358SOL     OW38514   4.181   7.498   5.059  1.0262  0.5693  0.5551
12358SOL    HW138515   4.120   7.461   5.124  1.0155  1.3178  0.9862
12358SOL    HW238516   4.265   7.458   5.080  0.7425 -0.2758  0.1199
12359SOL     OW38517   3.146   7.485   5.527 -0.0792  0.5348 -0.3523
12359SOL    HW138518   3.077   7.534   5.482 -0.0533  0.5702 -0.3534
12359SOL    HW238519   3.113   7.395   5.530  0.0068  0.4945 -0.6152
12360SOL     OW38520   4.421   1.757   3.726 -0.6907 -0.1517 -0.1321
12360SOL    HW138521   4.398   1.673   3.765 -2.2889  0.2065 -0.2318
12360SOL    HW238522   4.344   1.812   3.740  0.0210  1.0544 -0.7609
12361SOL     OW38523   4.624   0.291   2.531  0.5711  0.1671  0.2362
12361SOL    HW138524   4.625   0.360   2.597 -0.1639  1.0441 -0.6443
12361SOL    HW238525   4.710   0.250   2.538  1.5827  2.1011 -0.1983
12362SOL     OW38526   3.548   7.896   3.212 -0.2712 -0.0440 -0.3380
12362SOL    HW138527   3.586   7.945   3.140 -0.6004  1.1724  0.2841
12362SOL    HW238528   3.491   7.832   3.171 -1.4656  1.4845 -1.1475
12363SOL     OW38529   3.301   1.703   2.923  0.6544 -0.3419  0.1006
12363SOL    HW138530   3.389   1.670   2.936  0.9945 -0.2713 -1.6998
12363SOL    HW238531   3.268   1.655   2.847 -0.3361  0.5903 -0.0936
12364SOL     OW38532   5.622   0.195   1.490  0.6915  0.1032 -0.3585
12364SOL    HW138533   5.545   0.196   1.546  0.6534  1.3051 -0.4106
12364SOL    HW238534   5.653   0.104   1.493 -0.7702 -0.4117 -0.4251
12365SOL     OW38535   4.783   7.677   3.669 -0.4350 -0.1374  0.7926
12365SOL    HW138536   4.750   7.676   3.579 -0.2217 -2.0939  0.6869
12365SOL    HW238537   4.846   7.605   3.672 -0.3146  0.0003  2.4638
12366SOL     OW38538   5.876   0.779   2.878  0.0483  0.1744  0.1466
12366SOL    HW138539   5.946   0.844   2.883  0.7336 -0.5569  0.1723
12366SOL    HW238540   5.865   0.749   2.968 -0.3833  0.3588  0.1616
12367SOL     OW38541   2.724   0.747   2.363  0.2854  0.1355 -0.4902
12367SOL    HW138542   2.732   0.837   2.332 -0.0460 -0.2204 -1.6423
12367SOL    HW238543   2.802   0.702   2.328 -0.3361 -0.3818 -1.2616
12368SOL     OW38544   4.997   2.860   1.108  0.1302 -0.6059  0.0328
12368SOL    HW138545   4.924   2.853   1.169 -1.3095  1.3056 -1.3598
12368SOL    HW238546   4.985   2.786   1.048 -0.6652 -0.3140 -0.1788
12369SOL     OW38547   4.473   3.067   1.262  0.4105 -0.0113  0.2350
12369SOL    HW138548   4.525   3.053   1.341  1.5383  0.0791 -0.4688
12369SOL    HW238549   4.497   3.155   1.233 -1.9168  1.0021  1.1613
12370SOL     OW38550   6.141   7.917   2.163 -0.1801  0.0074  0.1885
12370SOL    HW138551   6.069   7.859   2.191 -0.0457 -0.4442 -0.3700
12370SOL    HW238552   6.164   7.967   2.241 -1.7444  0.8445  0.1508
12371SOL     OW38553   4.555   2.048   4.286  0.3700 -0.0129  0.0933
12371SOL    HW138554   4.594   2.134   4.304  0.5609 -0.2222  0.7045
12371SOL    HW238555   4.606   2.014   4.213  0.5239  0.2476  0.0774
12372SOL     OW38556   2.861   2.863   1.493  0.1343  0.3247 -0.0516
12372SOL    HW138557   2.784   2.917   1.475 -1.2077 -1.3412  0.4249
12372SOL    HW238558   2.898   2.845   1.407 -1.9375 -1.4866 -0.6619
12373SOL     OW38559   6.220   7.238   2.485 -0.2147  0.0429  0.3567
12373SOL    HW138560   6.238   7.169   2.420 -0.6996  1.8994 -1.8825
12373SOL    HW238561   6.298   7.241   2.540  0.0570 -1.8504  0.1378
12374SOL     OW38562   4.960   1.563   1.147 -0.5653 -0.1691  0.0248
12374SOL    HW138563   4.943   1.636   1.087  1.8498  0.6913  0.2960
12374SOL    HW238564   4.910   1.585   1.226  1.0796  1.8781  0.5651
12375SOL     OW38565   5.566   3.309   0.806  0.5077  0.0611  0.0467
12375SOL    HW138566   5.484   3.328   0.852  0.5092 -1.0684  0.5451
12375SOL    HW238567   5.614   3.250   0.864  1.2400 -0.0907 -0.6807
12376SOL     OW38568   3.998   7.854   1.195 -0.1361  0.2993 -0.7808
12376SOL    HW138569   4.074   7.902   1.162  0.5967 -0.7063 -0.6265
12376SOL    HW238570   3.942   7.921   1.234 -0.1654  1.2896 -2.4157
12377SOL     OW38571   5.401   2.326   1.876 -0.2864  0.3561 -0.0409
12377SOL    HW138572   5.401   2.419   1.853  0.5312  0.3268 -0.1828
12377SOL    HW238573   5.432   2.282   1.797  0.9906  0.1138  0.5734
12378SOL     OW38574   4.447   1.798   2.741  0.2164  0.1558  0.2701
12378SOL    HW138575   4.465   1.890   2.761  0.9619 -0.1174  0.9259
12378SOL    HW238576   4.363   1.780   2.783  1.1388 -0.0538  2.1598
12379SOL     OW38577   5.590   0.718   0.600 -0.3594  0.3961 -0.1511
12379SOL    HW138578   5.631   0.747   0.681 -1.3207  2.7555 -0.4428
12379SOL    HW238579   5.581   0.623   0.611  2.3272  0.1912  1.1533
12380SOL     OW38580   4.685   3.010   3.454  0.1956 -0.3193 -0.6727
12380SOL    HW138581   4.606   3.052   3.418 -0.2178 -1.0587 -0.6442
12380SOL    HW238582   4.655   2.965   3.532  0.6953 -0.4152 -0.5318
12381SOL     OW38583   4.919   2.043   3.604 -0.2948  0.3781  0.8102
12381SOL    HW138584   4.838   1.992   3.611  0.0535 -0.1810  0.8429
12381SOL    HW238585   4.940   2.043   3.510 -1.6190  2.5915  0.4389
12382SOL     OW38586   2.995   7.755   1.394 -0.5125  0.1944 -0.9473
12382SOL    HW138587   3.070   7.697   1.378 -0.2028  0.7932 -1.7123
12382SOL    HW238588   2.980   7.748   1.489 -0.2829 -0.8789 -0.9707
12383SOL     OW38589   5.734   6.318   3.161 -0.2206  0.8262 -0.0988
12383SOL    HW138590   5.676   6.244   3.141  0.9625  0.1843 -1.3466
12383SOL    HW238591   5.699   6.391   3.109 -0.6436  0.7977  0.1418
12384SOL     OW38592   4.497   7.952   1.818 -0.0825 -0.3184 -0.6357
12384SOL    HW138593   4.582   7.908   1.817 -0.6316 -1.4149 -0.6685
12384SOL    HW238594   4.508   8.024   1.880  0.9690 -0.2218 -0.9111
12385SOL     OW38595   2.435   0.850   2.684 -0.2386  0.2128 -0.2629
12385SOL    HW138596   2.516   0.902   2.682  0.5811 -1.0212 -1.4155
12385SOL    HW238597   2.384   0.882   2.610 -1.1384  1.4511  0.8637
12386SOL     OW38598   5.202   0.811   3.829  0.1096 -0.3857  0.0196
12386SOL    HW138599   5.125   0.764   3.796 -0.6500  1.2520 -0.6835
12386SOL    HW238600   5.267   0.802   3.760  0.9311 -2.5273  0.9923
12387SOL     OW38601   4.947   1.581   4.081  0.0608  0.1453  0.4191
12387SOL    HW138602   4.941   1.592   4.176  0.8145 -1.0865  0.6261
12387SOL    HW238603   4.899   1.501   4.062 -0.0336  0.3486 -0.2387
12388SOL     OW38604   5.817   1.141   2.236  0.8753  0.3461  0.0046
12388SOL    HW138605   5.781   1.202   2.301  1.8260  1.4251 -0.4601
12388SOL    HW238606   5.744   1.125   2.177  0.2764  0.0951  0.7833
12389SOL     OW38607   4.378   1.540   2.460 -0.8861 -0.7572 -0.7134
12389SOL    HW138608   4.324   1.609   2.422 -0.9673 -0.9825 -1.0145
12389SOL    HW238609   4.316   1.482   2.504 -0.6493  0.3533  1.1477
12390SOL     OW38610   2.963   0.246   2.238 -0.3599 -0.5448  0.1548
12390SOL    HW138611   2.928   0.158   2.242 -1.1518 -0.1947  1.4467
12390SOL    HW238612   2.902   0.299   2.289  0.3991  0.6477 -0.1267
12391SOL     OW38613   4.757   1.427   0.941 -0.4775  0.0776  0.5186
12391SOL    HW138614   4.850   1.413   0.957 -0.5221 -1.7839 -0.4846
12391SOL    HW238615   4.752   1.515   0.903  0.8668  0.2011  0.5709
12392SOL     OW38616   3.279   7.572   1.765 -0.7807  0.7866  0.4444
12392SOL    HW138617   3.368   7.597   1.743 -0.3691  0.5476  1.7276
12392SOL    HW238618   3.244   7.647   1.815 -1.7166  1.3660 -1.0054
12393SOL     OW38619   4.783   0.268   3.345  0.3473  0.3934 -0.0015
12393SOL    HW138620   4.846   0.339   3.357 -0.0211  0.5087  1.4925
12393SOL    HW238621   4.732   0.294   3.268  1.0057  1.1367 -0.2006
12394SOL     OW38622   4.880   1.840   2.635 -0.4184 -0.2743  0.3705
12394SOL    HW138623   4.961   1.815   2.590  0.5532 -0.5417  2.1944
12394SOL    HW238624   4.841   1.757   2.662 -0.1859 -0.0726  1.3557
12395SOL     OW38625   6.854   3.212   3.155 -0.0514 -0.1320  0.3358
12395SOL    HW138626   6.948   3.197   3.158  0.4441  1.4964 -2.7668
12395SOL    HW238627   6.841   3.295   3.201  0.0820 -0.1914  0.4791
12396SOL     OW38628   5.065   1.578   2.142  0.5000  0.2066  0.6025
12396SOL    HW138629   5.024   1.612   2.221  0.7015 -0.7630  1.1332
12396SOL    HW238630   5.048   1.484   2.144 -1.4291  0.4012 -1.6273
12397SOL     OW38631   5.292   0.281   2.247  0.0844  0.4815  0.0986
12397SOL    HW138632   5.373   0.231   2.253  0.8975  1.9250  2.9939
12397SOL    HW238633   5.321   0.372   2.237 -1.2519  0.8261 -0.9158
12398SOL     OW38634   4.181   1.455   2.728  0.0242 -0.0305 -0.0859
12398SOL    HW138635   4.246   1.392   2.760  0.7556 -0.2008 -1.8420
12398SOL    HW238636   4.223   1.540   2.736 -0.7378  0.2428  1.6950
12399SOL     OW38637   4.825   1.005   3.319 -0.8650  0.9705  0.1438
12399SOL    HW138638   4.745   1.009   3.267 -0.7098  0.7384 -0.1143
12399SOL    HW238639   4.808   0.937   3.384 -0.0424 -0.7655 -1.3532
12400SOL     OW38640   3.727   0.525   2.542  0.2453 -1.3874  0.1384
12400SOL    HW138641   3.683   0.599   2.500  0.1614 -2.2928 -1.4479
12400SOL    HW238642   3.738   0.552   2.633 -1.6207 -0.2505  0.0747
12401SOL     OW38643   4.610   0.067   0.879  0.0842  0.3175  0.6568
12401SOL    HW138644   4.547   0.138   0.869  0.7933  0.6642 -1.8817
12401SOL    HW238645   4.652   0.084   0.963  0.4070  3.0835  0.0333
12402SOL     OW38646   4.058   7.351   2.223  0.0977  0.2877 -0.0845
12402SOL    HW138647   4.136   7.383   2.269 -0.4312 -0.5529  1.4535
12402SOL    HW238648   4.027   7.427   2.174 -0.3754  1.8388  2.4494
12403SOL     OW38649   5.038   0.240   2.810  0.0022 -0.5245 -0.0637
12403SOL    HW138650   5.109   0.181   2.784 -0.0906 -0.4115 -0.5856
12403SOL    HW238651   4.960   0.203   2.769 -0.1738 -0.4254  0.1809
12404SOL     OW38652   4.254   0.850   4.862 -0.2852  0.3128 -0.1477
12404SOL    HW138653   4.223   0.941   4.861 -1.0394  0.1121  1.5252
12404SOL    HW238654   4.297   0.840   4.946  1.5948 -0.3511 -1.1297
12405SOL     OW38655   3.921   1.172   1.928  0.1819 -0.4144 -0.0895
12405SOL    HW138656   3.964   1.213   2.004 -1.1039 -0.6860  0.8215
12405SOL    HW238657   3.986   1.177   1.858  0.9475  0.9917  0.6733
12406SOL     OW38658   4.992   0.505   2.726 -0.7303  0.3270  0.1811
12406SOL    HW138659   4.996   0.418   2.767 -4.4140 -0.1270 -0.0588
12406SOL    HW238660   5.062   0.504   2.661  0.7800 -1.5787  1.7249
12407SOL     OW38661   4.372   0.212   4.024 -0.3188 -0.4035  0.1786
12407SOL    HW138662   4.360   0.140   4.086 -0.4784 -0.8815 -0.4003
12407SOL    HW238663   4.455   0.252   4.051 -1.4460  0.8453  2.1131
12408SOL     OW38664   5.100   7.566   2.463  0.2668  0.0804 -0.0628
12408SOL    HW138665   5.155   7.531   2.533  0.6985 -0.1717 -0.5252
12408SOL    HW238666   5.157   7.570   2.386  0.4838  2.5790  0.1482
12409SOL     OW38667   4.215   0.583   1.839  0.3895 -0.3812  0.6914
12409SOL    HW138668   4.206   0.647   1.910  0.9884  0.5343 -0.0369
12409SOL    HW238669   4.290   0.529   1.865 -0.0262 -0.6997  1.2402
12410SOL     OW38670   5.352   0.879   3.548 -0.1057 -0.5864 -0.1725
12410SOL    HW138671   5.399   0.883   3.465 -1.1340 -1.8249 -0.8523
12410SOL    HW238672   5.342   0.971   3.575 -2.2077  0.1230 -2.8581
12411SOL     OW38673   5.624   0.990   1.472  0.0144 -0.1077 -0.2503
12411SOL    HW138674   5.597   0.986   1.564  0.0948  2.1293 -0.0858
12411SOL    HW238675   5.542   0.985   1.423  0.0315 -2.4371 -0.1831
12412SOL     OW38676   4.353   1.436   3.100 -0.3931 -0.1642 -0.0148
12412SOL    HW138677   4.273   1.486   3.086 -0.1342  1.5931  3.5736
12412SOL    HW238678   4.424   1.495   3.075 -0.1687  0.0606  1.0840
12413SOL     OW38679   4.926   1.381   4.608  0.2667  0.2395  0.1376
12413SOL    HW138680   4.996   1.320   4.631 -1.4793 -1.3470  1.6125
12413SOL    HW238681   4.861   1.370   4.678 -1.5138  1.5227 -1.2262
12414SOL     OW38682   4.912   1.633   1.418 -0.1891  0.1845  0.0421
12414SOL    HW138683   4.878   1.708   1.466  0.3561  0.1826  0.4284
12414SOL    HW238684   4.909   1.561   1.481 -1.8591 -0.4225 -0.6752
12415SOL     OW38685   3.263   0.443   2.523  0.4777 -0.6370  0.0363
12415SOL    HW138686   3.243   0.524   2.571 -0.3018 -0.1301 -1.0918
12415SOL    HW238687   3.272   0.377   2.591 -2.5388 -0.3508  0.8664
12416SOL     OW38688   6.029   1.222   6.335 -0.4114  0.3024 -0.3168
12416SOL    HW138689   6.115   1.218   6.295 -0.8367 -0.5763 -1.1677
12416SOL    HW238690   5.974   1.268   6.271 -0.9386 -0.5201 -0.4659
12417SOL     OW38691   5.211   2.103   2.855  0.1385 -0.2025 -0.1499
12417SOL    HW138692   5.163   2.172   2.808 -2.6000 -1.0981  1.1009
12417SOL    HW238693   5.150   2.029   2.855  1.8809 -1.6914  0.9426
12418SOL     OW38694   3.731   0.348   3.950  0.2397 -0.5585  0.0778
12418SOL    HW138695   3.810   0.295   3.953  1.0919  0.7154  1.1229
12418SOL    HW238696   3.755   0.425   3.898 -0.0177  0.2315  1.0818
12419SOL     OW38697   4.741   7.145   3.668 -0.1310 -0.1414 -0.4752
12419SOL    HW138698   4.656   7.178   3.637 -0.2931 -2.0411 -2.2794
12419SOL    HW238699   4.789   7.125   3.588  1.7116  0.0536  0.5292
12420SOL     OW38700   3.744   2.828   2.166 -0.3762  1.0256  0.3847
12420SOL    HW138701   3.786   2.744   2.185 -1.8065  0.4429  1.1750
12420SOL    HW238702   3.707   2.855   2.250 -0.4473  2.1472 -0.0001
12421SOL     OW38703   5.314   1.022   2.027 -0.2826  0.0623  0.0473
12421SOL    HW138704   5.296   0.939   1.984  2.4475 -0.7129  0.1989
12421SOL    HW238705   5.359   1.075   1.961  1.3693 -0.0586  1.0158
12422SOL     OW38706   2.658   6.769   2.238 -0.3243 -0.0416  0.9052
12422SOL    HW138707   2.628   6.705   2.303  1.4735 -1.7345  0.1423
12422SOL    HW238708   2.613   6.744   2.157  0.8106 -0.7419  0.4704
12423SOL     OW38709   6.067   1.653   2.439 -0.3348  0.2663 -0.0253
12423SOL    HW138710   6.157   1.686   2.431  0.3122 -1.2503  0.5213
12423SOL    HW238711   6.013   1.719   2.396  0.8205  2.1852  1.3151
12424SOL     OW38712   5.486   1.273   2.614  0.2508 -0.1228  0.1848
12424SOL    HW138713   5.420   1.289   2.681  0.9656  2.4492  0.4031
12424SOL    HW238714   5.463   1.188   2.576 -1.5626 -0.5374  2.0473
12425SOL     OW38715   5.082   7.607   3.431  0.0466  0.1413  0.2141
12425SOL    HW138716   5.118   7.524   3.398  0.1395  0.0210  0.6034
12425SOL    HW238717   5.024   7.581   3.503 -0.9842  0.3249 -0.5400
12426SOL     OW38718   3.908   2.911   3.651 -0.1828 -0.3127  0.5433
12426SOL    HW138719   3.962   2.851   3.703 -1.9471 -1.3581  1.2758
12426SOL    HW238720   3.963   2.988   3.639  2.2008 -2.0352 -0.4717
12427SOL     OW38721   2.809   0.315   2.848  0.4021  0.1730 -0.0716
12427SOL    HW138722   2.766   0.246   2.797  1.0525  1.1130 -2.0074
12427SOL    HW238723   2.887   0.274   2.884  0.1528 -0.4199 -0.2019
12428SOL     OW38724   3.972   7.928   2.902 -0.7787 -0.1828  0.0708
12428SOL    HW138725   3.947   7.945   2.811 -0.6041  1.3994  0.2967
12428SOL    HW238726   4.009   8.010   2.933  1.4663 -1.3803  0.8423
12429SOL     OW38727   4.027   7.348   3.166  0.4735 -0.6014 -0.0630
12429SOL    HW138728   4.037   7.254   3.180 -2.8339 -0.8894  1.2692
12429SOL    HW238729   4.114   7.377   3.140  1.9901 -3.7511  0.9054
12430SOL     OW38730   2.111   0.326   3.640  0.4576  0.3752 -0.3353
12430SOL    HW138731   2.178   0.313   3.707  1.7623 -1.3744 -1.8656
12430SOL    HW238732   2.029   0.305   3.684  1.1637  0.2256  0.9712
12431SOL     OW38733   3.734   7.962   3.870 -0.3310 -0.7923  0.2017
12431SOL    HW138734   3.817   7.920   3.849  0.4727 -0.2940  2.1342
12431SOL    HW238735   3.673   7.931   3.803  1.4915 -0.8577 -1.5009
12432SOL     OW38736   5.254   1.680   3.729 -0.0322  0.5928 -0.6534
12432SOL    HW138737   5.247   1.774   3.745 -0.1838  1.0197 -2.8357
12432SOL    HW238738   5.243   1.639   3.815 -1.9004  2.4742  0.0928
12433SOL     OW38739   4.198   0.411   2.584 -0.6773  0.3044 -0.2292
12433SOL    HW138740   4.228   0.481   2.642 -0.7172  0.3363 -0.2461
12433SOL    HW238741   4.256   0.338   2.602 -0.0892  0.6106 -0.8150
12434SOL     OW38742   5.273   7.818   4.736  0.6418  0.3163 -0.2378
12434SOL    HW138743   5.198   7.774   4.776  0.6202  0.5242 -0.0505
12434SOL    HW238744   5.305   7.878   4.803 -0.7777  2.3444 -1.2490
12435SOL     OW38745   3.979   0.898   4.160  0.0615 -0.0843  0.5088
12435SOL    HW138746   4.074   0.904   4.171 -0.1035  0.9795  1.6573
12435SOL    HW238747   3.958   0.963   4.093  0.1688 -0.4803  0.0921
12436SOL     OW38748   3.218   6.833   2.982 -0.3409  0.1029 -0.1060
12436SOL    HW138749   3.199   6.904   3.044  1.2331  0.2615  0.2566
12436SOL    HW238750   3.190   6.866   2.897 -0.9482  0.5720  0.2689
12437SOL     OW38751   5.367   7.918   1.429  0.1595 -0.2041  0.2882
12437SOL    HW138752   5.418   7.949   1.503  0.3426 -0.3521  0.2236
12437SOL    HW238753   5.287   7.882   1.469  0.0547  0.1249  0.3792
12438SOL     OW38754   3.323   6.611   1.857  0.3314  0.3216  0.0791
12438SOL    HW138755   3.367   6.527   1.854 -1.4550 -0.6461 -0.4060
12438SOL    HW238756   3.232   6.590   1.880  0.1781  2.2547  1.5171
12439SOL     OW38757   4.573   7.464   3.828  0.1917 -0.0015 -0.1162
12439SOL    HW138758   4.571   7.482   3.734  0.4324  0.9353  0.0500
12439SOL    HW238759   4.665   7.478   3.852  0.0766  0.0169  0.3092
12440SOL     OW38760   3.168   7.883   1.660  0.0179 -0.0972  0.0778
12440SOL    HW138761   3.085   7.923   1.635 -0.8471 -1.6744  0.3219
12440SOL    HW238762   3.150   7.839   1.742  1.7423  1.4963  1.4257
12441SOL     OW38763   3.078   2.977   3.560 -0.2504  0.3508 -0.1761
12441SOL    HW138764   3.110   2.916   3.626  0.8026  0.9220 -0.1354
12441SOL    HW238765   3.060   3.058   3.609  0.1310  0.6451 -0.5127
12442SOL     OW38766   5.856   2.267   2.681 -0.3524  0.4354 -0.6714
12442SOL    HW138767   5.811   2.235   2.759 -0.4364  0.1815 -0.8229
12442SOL    HW238768   5.807   2.345   2.655  0.1329  0.9737 -0.0254
12443SOL     OW38769   4.475   7.913   3.691 -0.0935 -0.2057 -0.4941
12443SOL    HW138770   4.380   7.928   3.692 -0.1441 -0.5203 -0.4367
12443SOL    HW238771   4.509   7.982   3.634 -0.3071  0.1919 -0.1492
12444SOL     OW38772   4.983   6.975   2.575 -0.0678  0.9449 -0.1574
12444SOL    HW138773   4.906   6.996   2.627  0.1289  0.6376  0.2586
12444SOL    HW238774   5.043   7.048   2.589  0.6999  0.0507  1.4502
12445SOL     OW38775   4.988   0.198   1.142  0.5472  0.2633  0.0780
12445SOL    HW138776   5.031   0.120   1.106 -1.4848 -1.6435  1.5376
12445SOL    HW238777   5.029   0.210   1.227 -0.8147 -0.7937  0.9264
12446SOL     OW38778   5.637   2.182   1.439  0.5329  0.1019  0.0560
12446SOL    HW138779   5.562   2.138   1.401  1.7613 -0.2082 -2.2003
12446SOL    HW238780   5.657   2.133   1.519  0.3812 -1.9570 -1.1042
12447SOL     OW38781   4.617   7.006   1.686 -0.5376 -0.7102  0.2320
12447SOL    HW138782   4.604   6.950   1.762  0.8089 -2.5409 -0.7920
12447SOL    HW238783   4.537   6.996   1.635 -1.1513 -0.0281  1.0259
12448SOL     OW38784   4.296   0.864   3.347 -0.2774  0.0702 -0.6473
12448SOL    HW138785   4.297   0.894   3.438  0.4833 -1.0343 -0.2646
12448SOL    HW238786   4.215   0.899   3.311  0.1418  1.8092  0.0024
12449SOL     OW38787   4.777   0.433   4.551  0.6897  0.5576  0.1042
12449SOL    HW138788   4.710   0.420   4.484  1.2069 -0.7521 -0.1873
12449SOL    HW238789   4.745   0.507   4.603 -1.1445 -0.2127  0.1634
12450SOL     OW38790   5.982   0.509   3.050 -0.4852  0.2887  0.2348
12450SOL    HW138791   5.941   0.479   3.131  0.5518 -1.2581  0.2193
12450SOL    HW238792   5.996   0.603   3.064 -0.0608  0.0054  1.9779
12451SOL     OW38793   4.838   7.815   1.811  0.1503  0.0554 -0.7429
12451SOL    HW138794   4.863   7.882   1.875  0.1060  1.7592 -2.4335
12451SOL    HW238795   4.919   7.769   1.790  0.0518 -1.0327  1.0034
12452SOL     OW38796   3.758   0.545   2.819 -0.2280  0.5007 -0.5904
12452SOL    HW138797   3.737   0.454   2.838 -1.6492  0.9044 -0.1493
12452SOL    HW238798   3.689   0.596   2.861  0.5332  1.7954 -0.8277
12453SOL     OW38799   4.232   2.046   2.297  0.4827  0.3243  0.0958
12453SOL    HW138800   4.270   2.121   2.251  0.1064  0.5634  0.1637
12453SOL    HW238801   4.249   2.064   2.390  0.8696  0.0537  0.0781
12454SOL     OW38802   4.658   1.119   2.069 -0.2502 -0.2111 -0.0732
12454SOL    HW138803   4.678   1.044   2.013  0.5656  0.8884 -1.3165
12454SOL    HW238804   4.660   1.084   2.158 -0.3222 -1.7427 -0.6461
12455SOL     OW38805   3.185   7.594   2.945  0.1598  0.5829 -0.4600
12455SOL    HW138806   3.146   7.626   2.864  3.0761  1.9011 -1.5194
12455SOL    HW238807   3.163   7.501   2.948 -2.1394  1.0321 -1.3729
12456SOL     OW38808   2.720   7.551   3.151 -0.0572 -0.0893 -0.9061
12456SOL    HW138809   2.703   7.537   3.245  3.2463  1.6509  0.1091
12456SOL    HW238810   2.649   7.608   3.122 -1.1653 -0.6712  0.5223
12457SOL     OW38811   3.729   0.464   4.209  0.3012  0.1812  0.0037
12457SOL    HW138812   3.739   0.556   4.186 -0.2451 -0.2424 -2.1962
12457SOL    HW238813   3.719   0.419   4.125  0.5452 -1.8984  1.0072
12458SOL     OW38814   5.663   1.749   1.776 -0.0892  0.3133 -0.0180
12458SOL    HW138815   5.690   1.732   1.686 -0.7318  1.3338 -0.4232
12458SOL    HW238816   5.692   1.672   1.825 -0.6757 -0.7544 -1.2874
12459SOL     OW38817   4.346   7.410   3.179 -0.1885 -0.4957 -0.6958
12459SOL    HW138818   4.343   7.451   3.265  0.6503  1.2867 -1.4649
12459SOL    HW238819   4.403   7.334   3.190 -0.5607 -0.6321  0.4318
12460SOL     OW38820   5.084   0.912   4.195  0.3084  0.2969  0.0123
12460SOL    HW138821   5.109   0.872   4.112  0.2384  0.0188  0.1249
12460SOL    HW238822   5.162   0.904   4.250 -0.5581 -2.3272  1.0342
12461SOL     OW38823   4.549   0.574   2.344  0.5909 -0.1278 -0.1384
12461SOL    HW138824   4.533   0.484   2.373  0.8492 -0.0753  0.1692
12461SOL    HW238825   4.590   0.616   2.419  2.0471 -0.2244 -0.8612
12462SOL     OW38826   5.304   1.367   2.797 -0.0121  0.0907  0.1941
12462SOL    HW138827   5.355   1.351   2.877 -2.2545 -1.2520  1.4758
12462SOL    HW238828   5.226   1.415   2.827 -1.4313 -1.3845 -0.9380
12463SOL     OW38829   3.757   0.174   1.827 -0.1717 -0.1634  0.0075
12463SOL    HW138830   3.705   0.124   1.890 -3.5150  3.8745  0.8943
12463SOL    HW238831   3.787   0.251   1.875  1.1434  0.8332 -2.2255
12464SOL     OW38832   5.310   1.655   4.015  0.3721 -0.3568 -0.2338
12464SOL    HW138833   5.401   1.686   4.021  0.3609 -0.4534  0.6792
12464SOL    HW238834   5.267   1.693   4.091 -0.5223  0.1685 -0.9847
12465SOL     OW38835   3.761   0.160   3.563 -0.1236 -0.3503  0.1109
12465SOL    HW138836   3.679   0.122   3.532  0.5526 -1.9108  0.1489
12465SOL    HW238837   3.764   0.139   3.656 -0.1798  0.6847  0.3668
12466SOL     OW38838   4.233   1.351   3.720 -0.5984 -0.0113  0.0111
12466SOL    HW138839   4.176   1.349   3.644 -2.2761 -1.1843  1.2307
12466SOL    HW238840   4.183   1.307   3.789  1.4278 -0.2844  1.3990
12467SOL     OW38841   7.722   0.625   3.643 -0.3766  0.4106  0.6984
12467SOL    HW138842   7.810   0.589   3.650 -0.3492  0.6026  1.3799
12467SOL    HW238843   7.666   0.560   3.686 -0.4824  0.6162  0.8704
12468SOL     OW38844   3.719   1.540   2.811 -0.2882  0.2633  0.3015
12468SOL    HW138845   3.745   1.449   2.794 -1.0790 -0.1574  1.2754
12468SOL    HW238846   3.802   1.587   2.818  0.1329 -0.3534 -0.3308
12469SOL     OW38847   4.007   2.053   2.583  0.1809 -0.0764  0.3086
12469SOL    HW138848   3.978   2.045   2.492  0.5510 -0.8110  0.2550
12469SOL    HW238849   4.102   2.062   2.578  0.2778 -0.8549  0.6620
12470SOL     OW38850   3.921   1.867   4.759  0.2160  0.2750  0.1363
12470SOL    HW138851   4.009   1.866   4.720  0.3024  0.7311  0.3160
12470SOL    HW238852   3.863   1.849   4.685  0.4153  0.6671 -0.1250
12471SOL     OW38853   6.831   4.233   2.856 -0.3927  0.3924  0.0199
12471SOL    HW138854   6.765   4.293   2.889  0.4481  2.2194 -1.3925
12471SOL    HW238855   6.787   4.183   2.788 -0.5136  1.1544 -0.4754
12472SOL     OW38856   4.238   1.457   2.111 -0.5180  0.2716 -0.3002
12472SOL    HW138857   4.270   1.544   2.089  1.0174 -0.2923 -0.4056
12472SOL    HW238858   4.304   1.397   2.076 -2.3158 -1.0387 -1.6293
12473SOL     OW38859   3.889   1.020   2.734 -0.0167 -0.1709 -0.1652
12473SOL    HW138860   3.976   1.016   2.693  0.3035  3.6592 -0.1958
12473SOL    HW238861   3.903   0.986   2.822  1.2324 -0.6780 -0.5275
12474SOL     OW38862   3.435   2.802   2.191  0.6325 -0.5168  0.2905
12474SOL    HW138863   3.367   2.808   2.124  1.3409 -0.5961 -0.4537
12474SOL    HW238864   3.512   2.772   2.143  1.7939  1.6564  0.6843
12475SOL     OW38865   3.584   1.542   0.741  0.4424  0.6516  0.0506
12475SOL    HW138866   3.642   1.605   0.783  0.6000 -0.1253  1.0460
12475SOL    HW238867   3.639   1.465   0.725  0.1622  0.6164 -0.7979
12476SOL     OW38868   5.170   1.808   3.493 -0.0578  0.2488 -0.2508
12476SOL    HW138869   5.158   1.746   3.565 -0.2634 -0.0804 -0.5698
12476SOL    HW238870   5.081   1.828   3.464  0.0444  0.0912 -0.6658
12477SOL     OW38871   6.653   7.772   3.444 -0.0117 -0.1225 -0.4152
12477SOL    HW138872   6.633   7.801   3.533  0.0060  0.7796 -0.6928
12477SOL    HW238873   6.745   7.795   3.432  0.3682 -1.4293 -0.2299
12478SOL     OW38874   4.036   1.271   2.155  0.1087 -0.2422  0.6354
12478SOL    HW138875   4.081   1.356   2.148 -0.7454  0.3990  2.2768
12478SOL    HW238876   4.106   1.206   2.147  1.1493  0.6964  1.7158
12479SOL     OW38877   5.569   1.756   0.934  0.2933 -0.1335  0.7963
12479SOL    HW138878   5.624   1.681   0.955  2.6876  2.0582  3.1899
12479SOL    HW238879   5.516   1.770   1.013 -1.0341  0.0057 -0.0886
12480SOL     OW38880   5.236   7.783   2.114 -0.6374  0.4594 -0.7164
12480SOL    HW138881   5.176   7.806   2.186  0.5051 -0.7474  0.7034
12480SOL    HW238882   5.323   7.791   2.153 -0.0420 -2.0924 -1.3354
12481SOL     OW38883   5.795   1.535   1.908  0.0604 -0.3532 -0.5476
12481SOL    HW138884   5.835   1.559   1.992  0.2096 -0.0783 -0.6970
12481SOL    HW238885   5.706   1.507   1.932 -0.8262  2.1780 -0.5167
12482SOL     OW38886   5.916   3.041   3.407 -0.0344  0.0390 -0.8364
12482SOL    HW138887   6.001   3.037   3.362  0.2994 -1.8165 -0.1230
12482SOL    HW238888   5.939   3.031   3.500 -0.9754  0.6406 -0.5237
12483SOL     OW38889   5.525   1.877   2.230 -0.1824 -0.0631  0.1812
12483SOL    HW138890   5.493   1.863   2.140 -0.3233  1.3171 -0.0001
12483SOL    HW238891   5.454   1.846   2.285  1.4374 -4.9049  0.0149
12484SOL     OW38892   6.077   1.374   2.406 -0.2707 -0.1291  0.3422
12484SOL    HW138893   5.981   1.368   2.409 -0.3283  0.5242  0.0662
12484SOL    HW238894   6.094   1.455   2.357  0.4248 -0.9721 -0.8686
12485SOL     OW38895   5.791   1.025   3.262  0.1638  0.2065 -0.3718
12485SOL    HW138896   5.744   1.045   3.181  0.4825  1.9573 -0.1540
12485SOL    HW238897   5.728   1.046   3.331  0.2001 -0.4403 -0.1355
12486SOL     OW38898   4.241   0.602   2.775 -0.2207  1.0872  0.2033
12486SOL    HW138899   4.296   0.674   2.747  1.3486  0.4408  1.4946
12486SOL    HW238900   4.151   0.635   2.764  0.3997  2.4289 -1.2133
12487SOL     OW38901   5.241   0.792   1.866 -0.3268  0.1433  0.2566
12487SOL    HW138902   5.153   0.788   1.903  0.9553 -3.6259  3.5724
12487SOL    HW238903   5.241   0.728   1.795 -0.0451 -0.6559  0.9619
12488SOL     OW38904   5.505   6.684   3.704 -0.3369 -0.2935  0.4952
12488SOL    HW138905   5.527   6.624   3.632 -1.4367  2.0161 -1.9365
12488SOL    HW238906   5.468   6.627   3.772  2.5181 -2.8300  0.1361
12489SOL     OW38907   4.626   2.136   1.048  0.2486  0.5831 -0.1167
12489SOL    HW138908   4.678   2.215   1.064  1.2092 -0.4804  2.7713
12489SOL    HW238909   4.597   2.109   1.135 -2.6835 -0.5660 -1.3323
12490SOL     OW38910   4.953   3.143   3.433 -0.6165 -0.1076 -0.2069
12490SOL    HW138911   4.995   3.072   3.384  0.0928 -0.0397  0.2906
12490SOL    HW238912   4.867   3.109   3.455 -1.0386 -0.0636 -1.6802
12491SOL     OW38913   4.294   6.881   3.842 -0.4474  0.0157  0.0622
12491SOL    HW138914   4.368   6.864   3.784  0.4639  0.3482  1.1004
12491SOL    HW238915   4.246   6.951   3.799  0.7855  0.9677  0.1907
12492SOL     OW38916   5.563   7.367   3.034 -0.0659  0.1398 -0.1985
12492SOL    HW138917   5.652   7.357   3.001  0.1874 -0.7715  0.6933
12492SOL    HW238918   5.572   7.418   3.114 -0.2347 -0.7002  0.3625
12493SOL     OW38919   6.672   1.503   3.261  0.0278 -0.4302  0.5301
12493SOL    HW138920   6.696   1.527   3.350 -2.5967  0.2113  1.1480
12493SOL    HW238921   6.576   1.504   3.261 -0.0743  1.2858 -2.7444
12494SOL     OW38922   3.823   7.933   1.707  0.1104  0.1855 -0.1311
12494SOL    HW138923   3.805   8.018   1.747  2.2489  1.4121 -1.5566
12494SOL    HW238924   3.831   7.952   1.613  2.9863 -1.1043 -0.2357
12495SOL     OW38925   6.938   0.809   1.654  0.3159 -0.1390 -0.4234
12495SOL    HW138926   6.990   0.884   1.625 -1.9414  1.0323 -1.6603
12495SOL    HW238927   6.985   0.733   1.619  0.6963  0.9357 -2.4038
12496SOL     OW38928   5.216   0.596   2.320 -0.4781 -0.1102 -0.2905
12496SOL    HW138929   5.189   0.687   2.325 -0.7218 -0.1003 -1.4272
12496SOL    HW238930   5.153   0.555   2.260  0.3475 -0.7296 -0.7740
12497SOL     OW38931   3.354   1.983   1.146 -0.4373 -0.1639  0.4712
12497SOL    HW138932   3.413   1.908   1.133  0.3046 -0.0553  2.7588
12497SOL    HW238933   3.412   2.054   1.173 -1.3786  0.6102  0.4828
12498SOL     OW38934   5.602   2.458   4.512  0.1193  0.8069 -0.0208
12498SOL    HW138935   5.513   2.495   4.514  0.4638  1.6397  0.0138
12498SOL    HW238936   5.644   2.499   4.437  0.0012 -0.7326 -0.9626
12499SOL     OW38937   4.579   1.352   3.696  0.1067  0.0362  0.0812
12499SOL    HW138938   4.547   1.269   3.731 -0.4601  0.8100  1.4678
12499SOL    HW238939   4.651   1.327   3.638 -1.1631 -1.5310 -0.9191
12500SOL     OW38940   3.035   2.741   2.292 -0.0254 -0.3531 -0.2044
12500SOL    HW138941   3.073   2.822   2.260  2.4202 -1.7692 -1.1974
12500SOL    HW238942   3.036   2.748   2.387 -0.2035  0.8927 -0.2873
12501SOL     OW38943   4.418   1.497   3.870 -0.2462  0.3864 -0.1945
12501SOL    HW138944   4.497   1.468   3.824 -0.4338 -0.9021  0.2470
12501SOL    HW238945   4.349   1.440   3.836 -0.2512 -1.1801  2.1914
12502SOL     OW38946   4.875   7.280   3.937  0.3549  0.0372 -0.1776
12502SOL    HW138947   4.784   7.255   3.956  1.0418 -1.1316  1.8717
12502SOL    HW238948   4.877   7.374   3.952 -0.7272  0.2491 -1.2153
12503SOL     OW38949   4.029   0.089   2.007 -0.4418  0.2466 -0.1246
12503SOL    HW138950   4.025   0.097   1.912  0.6147  0.4614 -0.1596
12503SOL    HW238951   4.083   0.163   2.035  0.2380 -0.4735  0.5281
12504SOL     OW38952   3.929   6.554   2.264  0.1781 -0.3919 -0.1476
12504SOL    HW138953   4.001   6.604   2.226 -1.1000  0.6231 -1.3373
12504SOL    HW238954   3.953   6.462   2.248  2.0897 -0.1611  1.2112
12505SOL     OW38955   5.784   0.104   3.654  0.3185 -0.1459 -0.5566
12505SOL    HW138956   5.703   0.125   3.608  0.4014 -1.1278 -1.1945
12505SOL    HW238957   5.808   0.184   3.700 -0.0003  0.7459 -1.8924
12506SOL     OW38958   5.066   1.753   0.886  0.1129  0.2576 -0.2793
12506SOL    HW138959   5.161   1.755   0.876  0.0947 -1.0712 -0.8339
12506SOL    HW238960   5.034   1.703   0.811 -0.9374 -0.2492  0.4732
12507SOL     OW38961   5.293   2.460   2.765 -0.2890  0.0579 -0.2158
12507SOL    HW138962   5.333   2.547   2.761 -0.6954  0.2791  0.3692
12507SOL    HW238963   5.240   2.462   2.845  1.4563 -1.4883  1.0866
12508SOL     OW38964   4.929   1.252   3.448  0.7358  0.7849 -0.0849
12508SOL    HW138965   4.929   1.184   3.381 -2.2892  0.6077 -0.0445
12508SOL    HW238966   4.988   1.320   3.413  0.2356  0.1551 -2.3156
12509SOL     OW38967   4.910   2.270   3.248  0.5453 -0.3545  0.4495
12509SOL    HW138968   4.870   2.191   3.212  0.6425  0.0628 -0.6221
12509SOL    HW238969   4.864   2.342   3.205  1.5612  0.1521  0.1702
12510SOL     OW38970   4.537   1.774   2.449 -0.1240 -0.3292  0.3814
12510SOL    HW138971   4.485   1.694   2.459 -0.1326 -0.0474  3.4019
12510SOL    HW238972   4.541   1.812   2.537  3.1815  0.9571 -0.1818
12511SOL     OW38973   5.135   0.839   5.449  0.4057  0.4943  0.4725
12511SOL    HW138974   5.159   0.926   5.415  2.2995 -0.6851 -1.4227
12511SOL    HW238975   5.099   0.857   5.536  0.6565  3.1865  0.1148
12512SOL     OW38976   4.581   7.961   2.847 -0.1314 -0.0263 -0.1528
12512SOL    HW138977   4.617   7.976   2.760 -0.0878  2.6399  0.2640
12512SOL    HW238978   4.490   7.936   2.832 -0.4220  1.4551 -0.9507
12513SOL     OW38979   4.261   0.556   3.159 -0.4496 -0.2394  0.9062
12513SOL    HW138980   4.241   0.513   3.076 -1.6223 -0.2954  1.1984
12513SOL    HW238981   4.306   0.637   3.134 -4.1586  1.7772 -0.1268
12514SOL     OW38982   3.876   0.942   3.213  0.5409 -0.4435 -0.0450
12514SOL    HW138983   3.782   0.955   3.224  0.5960  0.7301 -0.7704
12514SOL    HW238984   3.890   0.850   3.233 -0.9304 -0.8993 -0.9197
12515SOL     OW38985   1.646   6.785   2.397 -0.7223 -0.0053 -0.0518
12515SOL    HW138986   1.611   6.838   2.469  1.1594  1.8305 -0.4049
12515SOL    HW238987   1.664   6.847   2.327  1.5612 -1.0595 -0.5062
12516SOL     OW38988   4.777   0.976   2.598 -0.5390  0.5779  0.0038
12516SOL    HW138989   4.739   1.024   2.671 -0.0883 -0.0297  0.6549
12516SOL    HW238990   4.840   0.916   2.639 -1.8499 -1.3475 -0.6508
12517SOL     OW38991   4.630   0.707   2.896 -0.2552 -0.0021  0.0824
12517SOL    HW138992   4.577   0.755   2.833  1.6564  3.9123  1.1796
12517SOL    HW238993   4.581   0.713   2.978 -0.0531 -0.0660  0.2085
12518SOL     OW38994   5.572   1.477   0.702 -0.0830 -0.4200  0.1601
12518SOL    HW138995   5.590   1.487   0.608  1.4507 -2.9089  0.0968
12518SOL    HW238996   5.477   1.468   0.707 -0.0780 -2.3111 -1.4884
12519SOL     OW38997   5.960   7.314   4.080 -0.3926  0.1884  0.1602
12519SOL    HW138998   5.968   7.326   4.175  0.2224 -1.0554  0.2852
12519SOL    HW238999   5.979   7.401   4.043 -0.5152  0.6518  1.1643
12520SOL     OW39000   2.111   6.551   2.335  0.2850 -0.0003  0.7811
12520SOL    HW139001   2.025   6.583   2.309  0.4634  0.0341  0.2291
12520SOL    HW239002   2.146   6.510   2.256 -0.0552 -1.8274  1.5451
12521SOL     OW39003   3.594   1.663   1.923 -0.9502  0.6501 -0.6305
12521SOL    HW139004   3.555   1.609   1.855 -0.2755  1.0418 -1.3511
12521SOL    HW239005   3.549   1.637   2.003 -0.2082 -1.4364 -0.8282
12522SOL     OW39006   4.581   3.049   2.745 -0.1186 -0.0380  0.6263
12522SOL    HW139007   4.500   3.100   2.739  0.0628  0.3017  1.0106
12522SOL    HW239008   4.579   2.992   2.668 -0.6492  0.0738  0.5511
12523SOL     OW39009   4.112   6.456   0.874  0.5328  0.4728  0.4440
12523SOL    HW139010   4.134   6.383   0.931  0.6479  0.9579  1.0237
12523SOL    HW239011   4.055   6.512   0.926 -0.6357  0.1451 -0.4315
12524SOL     OW39012   5.122   0.868   1.236 -0.1811 -0.3738  0.0393
12524SOL    HW139013   5.082   0.785   1.261  1.5440 -1.7548 -1.5537
12524SOL    HW239014   5.198   0.844   1.183  0.5449  2.2218 -0.2536
12525SOL     OW39015   4.431   1.410   3.481  0.3780  0.1033  0.6101
12525SOL    HW139016   4.420   1.395   3.575  1.1587  0.2687  0.7336
12525SOL    HW239017   4.524   1.397   3.465  0.1456 -0.6297 -0.2777
12526SOL     OW39018   4.590   1.413   2.329  0.4750  0.0892 -0.0339
12526SOL    HW139019   4.509   1.459   2.355  0.3118 -0.3127  0.1823
12526SOL    HW239020   4.563   1.322   2.321  0.3107  0.3052 -2.5003
12527SOL     OW39021   4.606   2.283   2.743  0.5647 -0.7845 -0.5280
12527SOL    HW139022   4.700   2.271   2.727  1.0027 -1.3710  2.1370
12527SOL    HW239023   4.574   2.194   2.761 -0.1886 -0.3806  0.1419
12528SOL     OW39024   4.957   7.979   4.859 -0.4423 -0.2591  0.2595
12528SOL    HW139025   4.943   7.999   4.766 -0.4940  0.4144  0.4063
12528SOL    HW239026   4.869   7.980   4.897 -0.3526  0.1919  0.4543
12529SOL     OW39027   2.406   7.023   5.624 -0.5967  0.4164 -0.4822
12529SOL    HW139028   2.436   6.939   5.657  1.6918  0.8764 -1.2260
12529SOL    HW239029   2.312   7.024   5.643 -0.2816 -1.3395  1.5591
12530SOL     OW39030   3.048   7.420   4.151  0.3789 -0.2553 -0.6469
12530SOL    HW139031   3.064   7.406   4.244 -2.0493  0.3532 -0.0751
12530SOL    HW239032   3.132   7.450   4.116  0.7189  2.1017  1.9023
12531SOL     OW39033   2.719   7.828   6.931 -0.0735  0.1480 -0.3461
12531SOL    HW139034   2.724   7.839   6.836  1.8715 -0.2406 -0.3282
12531SOL    HW239035   2.803   7.860   6.963 -1.3192  1.8668  1.4487
12532SOL     OW39036   4.144   0.494   4.105  0.2848  0.1108 -0.7429
12532SOL    HW139037   4.085   0.487   4.030 -0.7790  2.2754 -0.1767
12532SOL    HW239038   4.202   0.568   4.083  0.6089  0.1284  0.1398
12533SOL     OW39039   4.650   0.334   3.091 -0.5659 -0.2427 -0.1946
12533SOL    HW139040   4.596   0.258   3.069 -1.3559  0.0322  0.7056
12533SOL    HW239041   4.717   0.336   3.023 -0.7840 -1.4877 -0.4845
12534SOL     OW39042   6.922   1.547   4.532  0.7977  0.1600 -0.8460
12534SOL    HW139043   6.951   1.637   4.517  0.1563  0.5716  0.2565
12534SOL    HW239044   6.854   1.555   4.599  1.4069 -1.2440 -0.0337
12535SOL     OW39045   4.155   0.176   5.265 -0.1018 -0.1487  0.0830
12535SOL    HW139046   4.105   0.145   5.190  0.7606 -0.1867 -0.4822
12535SOL    HW239047   4.213   0.104   5.288  0.6293  0.3657 -0.1027
12536SOL     OW39048   4.003   7.368   5.732 -0.0747  0.3018 -0.3025
12536SOL    HW139049   3.960   7.400   5.811 -0.2235 -0.5400 -0.0260
12536SOL    HW239050   3.932   7.335   5.677  0.2428 -2.8466  0.9567
12537SOL     OW39051   4.236   6.612   5.970  0.2048  0.3278 -0.3678
12537SOL    HW139052   4.264   6.700   5.995  1.6977 -0.6347  1.5861
12537SOL    HW239053   4.279   6.597   5.885 -0.2376  1.5207 -0.8332
12538SOL     OW39054   3.739   2.208   5.536 -0.0308  0.3542  0.2848
12538SOL    HW139055   3.832   2.232   5.544  0.7414 -2.0453 -0.5163
12538SOL    HW239056   3.726   2.142   5.605 -0.8235 -0.1742 -0.3562
12539SOL     OW39057   2.871   0.709   5.640 -0.5658 -0.3236  0.3589
12539SOL    HW139058   2.946   0.649   5.632  0.5036  1.0504 -0.4462
12539SOL    HW239059   2.838   0.694   5.728  1.5365 -0.0291  1.2681
12540SOL     OW39060   4.485   1.708   5.164 -0.3573  0.9101  0.7728
12540SOL    HW139061   4.402   1.661   5.170  0.3732 -0.4867  0.3740
12540SOL    HW239062   4.488   1.740   5.074 -0.1915  0.4031  0.5928
12541SOL     OW39063   2.576   7.872   7.164 -0.1106  1.0334  0.1300
12541SOL    HW139064   2.602   7.871   7.072  0.3605 -2.4725  0.1610
12541SOL    HW239065   2.644   7.923   7.208  2.4776 -1.3035 -0.8873
12542SOL     OW39066   5.860   0.150   4.957  0.1576 -0.6940  0.4941
12542SOL    HW139067   5.782   0.184   5.000 -0.2735 -0.7433 -0.2291
12542SOL    HW239068   5.860   0.057   4.978 -0.8070 -0.9940 -0.7051
12543SOL     OW39069   3.261   0.347   3.490 -0.2884  0.1387 -0.4647
12543SOL    HW139070   3.343   0.376   3.450  0.2307 -0.9005 -0.1849
12543SOL    HW239071   3.286   0.318   3.578 -0.9357 -0.2931 -0.4175
12544SOL     OW39072   3.490   6.923   4.299 -0.5705  0.0507 -0.3171
12544SOL    HW139073   3.401   6.943   4.270 -0.2351 -0.8403 -2.1857
12544SOL    HW239074   3.489   6.828   4.314  0.5986 -0.4716 -2.8644
12545SOL     OW39075   3.658   6.875   4.748  0.3683 -0.2746  0.0487
12545SOL    HW139076   3.694   6.805   4.802 -0.7326 -1.0695 -0.2197
12545SOL    HW239077   3.614   6.830   4.675  1.3508  0.7554 -1.2290
12546SOL     OW39078   3.969   0.261   5.425  0.1556 -0.3998 -0.3142
12546SOL    HW139079   4.039   0.212   5.383 -0.3952 -3.0763  1.5991
12546SOL    HW239080   3.903   0.273   5.357  1.5734  0.3228 -1.5877
12547SOL     OW39081   2.865   0.165   5.204  0.3476  0.2564 -0.1016
12547SOL    HW139082   2.955   0.157   5.234  0.5246 -0.0455 -0.6922
12547SOL    HW239083   2.824   0.225   5.266  1.1706  1.0396 -0.2900
12548SOL     OW39084   3.685   0.099   4.644 -0.2556  0.4397 -0.4403
12548SOL    HW139085   3.672   0.016   4.690 -2.8469  0.2317 -1.3659
12548SOL    HW239086   3.686   0.165   4.712 -1.8956 -0.0485  0.0911
12549SOL     OW39087   0.219   1.454   6.381  0.1940 -0.0032 -0.4565
12549SOL    HW139088   0.195   1.542   6.352  0.4585 -0.6269 -2.7715
12549SOL    HW239089   0.163   1.396   6.329 -0.4098 -1.2349  1.4539
12550SOL     OW39090   4.398   6.404   4.852  0.4416 -0.2794 -0.1443
12550SOL    HW139091   4.377   6.444   4.768  0.6839  0.2648  0.0513
12550SOL    HW239092   4.353   6.319   4.850  0.1988 -0.1419 -0.6951
12551SOL     OW39093   3.577   2.557   4.185 -0.2687 -0.4392 -0.4544
12551SOL    HW139094   3.649   2.605   4.145  0.2636  0.2297  1.2386
12551SOL    HW239095   3.504   2.619   4.187 -0.6357 -0.8218 -1.3287
12552SOL     OW39096   3.436   2.197   4.117  0.3828 -0.2668  0.3616
12552SOL    HW139097   3.466   2.207   4.026 -1.0969 -2.1547 -0.4009
12552SOL    HW239098   3.395   2.281   4.137  0.9246  0.2602 -0.6437
12553SOL     OW39099   5.971   2.602   4.087  0.3762  0.1281  0.1786
12553SOL    HW139100   5.885   2.593   4.046  0.8631  1.0879 -1.1088
12553SOL    HW239101   5.959   2.567   4.176 -1.0699 -0.6911 -0.3021
12554SOL     OW39102   5.079   1.096   3.244  0.6756 -0.1909  0.0942
12554SOL    HW139103   5.100   1.024   3.184  0.2596  0.1327 -0.4452
12554SOL    HW239104   5.008   1.062   3.298  1.9902 -0.9997  1.3859
12555SOL     OW39105   2.544   7.483   5.039  0.4052 -0.3235  0.6118
12555SOL    HW139106   2.487   7.406   5.036  0.0465 -0.0847  1.1422
12555SOL    HW239107   2.565   7.495   5.131  0.5694  0.1337  0.5218
12556SOL     OW39108   5.449   1.070   5.553  0.1710 -0.0776  0.0700
12556SOL    HW139109   5.367   1.090   5.598 -0.1788  0.7944 -0.9169
12556SOL    HW239110   5.453   0.975   5.551  1.1774 -0.2611  3.6655
12557SOL     OW39111   5.935   0.963   6.248 -0.0760  0.0701  0.5912
12557SOL    HW139112   5.956   1.050   6.280 -0.8851  0.7383 -0.6341
12557SOL    HW239113   5.990   0.904   6.300  0.0303  1.2483  1.8483
12558SOL     OW39114   3.783   6.700   4.431 -0.2226 -0.1763 -0.1782
12558SOL    HW139115   3.714   6.727   4.491  1.4733  0.5518  1.5245
12558SOL    HW239116   3.785   6.605   4.437  0.0098 -0.1014  1.0397
12559SOL     OW39117   3.472   0.208   5.255  1.1259  0.3994 -0.1617
12559SOL    HW139118   3.548   0.160   5.285  0.8590 -0.9897 -1.5899
12559SOL    HW239119   3.482   0.214   5.160 -0.4483  0.3084 -0.3739
12560SOL     OW39120   4.052   1.123   4.903  0.1449 -0.1037  0.2707
12560SOL    HW139121   4.018   1.190   4.844 -2.2563  0.6711  2.3732
12560SOL    HW239122   4.145   1.145   4.913 -0.2173  1.8935 -0.3974
12561SOL     OW39123   3.592   3.197   6.318 -0.0456 -0.1143  0.1952
12561SOL    HW139124   3.562   3.167   6.404 -0.4115 -1.0256 -0.2379
12561SOL    HW239125   3.616   3.288   6.332 -1.0717  0.0450  1.0337
12562SOL     OW39126   2.103   0.149   4.537  0.2611  0.0441  0.4849
12562SOL    HW139127   2.186   0.135   4.492  0.0133 -0.0664  0.0525
12562SOL    HW239128   2.038   0.150   4.467 -0.1661 -0.4127  0.8681
12563SOL     OW39129   4.355   1.003   3.606 -0.0299  0.5553  0.2623
12563SOL    HW139130   4.351   1.019   3.700 -1.1205 -0.2205  0.3719
12563SOL    HW239131   4.266   1.022   3.575  0.1637  0.2439 -0.5112
12564SOL     OW39132   4.919   1.073   5.280 -0.7061  0.2123  0.2379
12564SOL    HW139133   4.863   1.068   5.357 -0.1969 -0.6194  0.5616
12564SOL    HW239134   5.007   1.061   5.313 -0.0685  3.2099 -0.0183
12565SOL     OW39135   4.646   2.650   4.335 -0.5129 -0.2926 -0.1014
12565SOL    HW139136   4.621   2.611   4.418  0.5932 -2.0474 -0.5293
12565SOL    HW239137   4.693   2.730   4.359 -1.3940 -0.0492  0.8840
12566SOL     OW39138   4.791   1.994   4.536  0.5830  0.0092 -0.4593
12566SOL    HW139139   4.849   2.046   4.592  0.2271 -1.5050  1.4185
12566SOL    HW239140   4.845   1.971   4.461  1.4529  1.1182 -0.2138
12567SOL     OW39141   6.709   1.460   3.861  0.5360 -0.0392  0.8314
12567SOL    HW139142   6.762   1.421   3.931 -0.5643 -0.9422  1.1866
12567SOL    HW239143   6.621   1.429   3.878  0.1453  0.2276 -0.6289
12568SOL     OW39144   5.523   4.737   6.843 -0.5355  0.5418 -0.2600
12568SOL    HW139145   5.518   4.683   6.765 -1.9452  0.5116 -0.1874
12568SOL    HW239146   5.552   4.678   6.912 -0.5874  0.2389 -0.4965
12569SOL     OW39147   2.739   1.483   6.864  0.2412  0.3199  0.1103
12569SOL    HW139148   2.667   1.544   6.874  0.3095  0.2523  1.1501
12569SOL    HW239149   2.809   1.519   6.919  0.4042 -0.5034  0.4565
12570SOL     OW39150   2.132   6.612   4.559 -0.4909  0.2426 -0.9999
12570SOL    HW139151   2.120   6.682   4.623  0.6449 -0.4657  0.0326
12570SOL    HW239152   2.044   6.576   4.546 -0.4981 -0.8971  1.7118
12571SOL     OW39153   4.831   0.053   5.349  0.0172  0.0671  0.2942
12571SOL    HW139154   4.904   0.049   5.412  0.6732 -0.8304 -0.4817
12571SOL    HW239155   4.860   0.116   5.283  0.4294 -0.8332 -0.4008
12572SOL     OW39156   4.115   7.758   3.308 -0.2312 -0.1361 -0.1781
12572SOL    HW139157   4.019   7.757   3.303 -0.3040 -0.0403  1.0014
12572SOL    HW239158   4.138   7.675   3.349  0.1537  0.1296  0.1513
12573SOL     OW39159   5.033   7.165   4.105 -0.2961 -0.3948  0.5287
12573SOL    HW139160   5.000   7.208   4.027  1.1785 -1.3738 -0.7002
12573SOL    HW239161   4.961   7.169   4.168 -0.8993  1.9961 -0.2353
12574SOL     OW39162   3.741   2.111   6.059  0.3134 -0.0664  0.5749
12574SOL    HW139163   3.676   2.044   6.082  0.0196 -0.4194 -1.1567
12574SOL    HW239164   3.691   2.191   6.047 -0.5984 -1.0879 -4.5458
12575SOL     OW39165   5.834   7.253   3.846  0.4908 -0.2903  0.2359
12575SOL    HW139166   5.870   7.298   3.923 -1.1607 -1.7935  1.9960
12575SOL    HW239167   5.739   7.263   3.854  0.2651 -0.3679 -1.7417
12576SOL     OW39168   7.010   1.849   6.249  0.1337  0.1599 -0.4869
12576SOL    HW139169   7.087   1.873   6.197  0.3282 -1.4224 -0.9908
12576SOL    HW239170   7.044   1.789   6.315 -0.5552  0.0082 -0.2614
12577SOL     OW39171   5.176   1.105   5.357  0.6017 -0.6032 -0.1155
12577SOL    HW139172   5.255   1.113   5.305  2.0761 -0.3656  2.0251
12577SOL    HW239173   5.138   1.193   5.358  1.5937 -0.1666  0.7066
12578SOL     OW39174   1.641   6.132   3.849  0.3947 -0.2544 -0.1865
12578SOL    HW139175   1.717   6.114   3.793 -0.6862  0.5830 -1.9874
12578SOL    HW239176   1.647   6.225   3.868  0.1730 -0.3263  0.2397
12579SOL     OW39177   4.870   2.297   3.882  0.1560 -0.5357  0.3037
12579SOL    HW139178   4.902   2.377   3.925 -0.2861  0.7746 -1.6670
12579SOL    HW239179   4.775   2.298   3.898  0.2629 -1.1750  1.0319
12580SOL     OW39180   3.483   0.698   4.075  0.1755 -0.2154  0.0108
12580SOL    HW139181   3.497   0.747   3.994  0.3017  0.0776  0.2084
12580SOL    HW239182   3.559   0.719   4.130 -0.3840  0.3443  0.5765
12581SOL     OW39183   5.540   2.155   4.613 -0.4203 -0.2993  0.2214
12581SOL    HW139184   5.598   2.223   4.579  1.7280 -2.3195 -0.4997
12581SOL    HW239185   5.455   2.172   4.573  0.5343  0.8673 -1.4113
12582SOL     OW39186   5.475   2.577   5.195  0.1530  0.3771  0.1225
12582SOL    HW139187   5.443   2.653   5.147 -0.5262  0.2060  0.3054
12582SOL    HW239188   5.419   2.571   5.272 -0.1224 -0.5991 -0.1404
12583SOL     OW39189   3.025   0.383   5.397 -0.0958  0.2040  0.3597
12583SOL    HW139190   3.068   0.297   5.397  2.1048  1.1929 -1.3834
12583SOL    HW239191   2.934   0.364   5.417 -0.1076 -2.8071 -1.8162
12584SOL     OW39192   4.831   0.501   4.197  0.2085 -0.4105  0.0575
12584SOL    HW139193   4.821   0.588   4.235  0.3509 -0.2091 -0.3696
12584SOL    HW239194   4.900   0.460   4.249 -0.1144 -0.4089  0.4990
12585SOL     OW39195   2.394   2.865   6.945 -0.6753 -0.2683 -0.4189
12585SOL    HW139196   2.403   2.812   6.867  4.0243 -0.5415  0.0622
12585SOL    HW239197   2.422   2.952   6.919 -0.2582 -0.0590  0.6542
12586SOL     OW39198   3.812   2.755   4.428 -0.2692 -0.1751  0.1724
12586SOL    HW139199   3.890   2.806   4.451 -1.0381  1.1847 -0.1137
12586SOL    HW239200   3.739   2.817   4.440 -1.1055 -0.7277 -1.6981
12587SOL     OW39201   4.279   7.282   5.864 -0.3019 -0.4629 -0.0019
12587SOL    HW139202   4.248   7.262   5.952 -1.7758 -1.1604 -0.6317
12587SOL    HW239203   4.199   7.305   5.816  0.2280 -1.8092 -1.5922
12588SOL     OW39204   6.257   1.857   4.813  0.3592  0.1420 -0.7126
12588SOL    HW139205   6.203   1.801   4.757  0.4105 -2.4437  1.6482
12588SOL    HW239206   6.197   1.926   4.843 -0.7619 -0.8203 -0.6818
12589SOL     OW39207   3.435   0.285   2.897  0.1457 -0.1201  0.0609
12589SOL    HW139208   3.413   0.373   2.930  0.4421 -1.4872  4.5491
12589SOL    HW239209   3.350   0.244   2.882 -0.0609  0.0219  0.7988
12590SOL     OW39210   5.236   0.097   4.091  0.4642  0.3061  0.3549
12590SOL    HW139211   5.150   0.125   4.121 -0.0974 -1.2389  0.2798
12590SOL    HW239212   5.226   0.082   3.997  0.6348 -0.5139  0.4632
12591SOL     OW39213   3.088   2.112   4.979 -0.1402 -0.3939  0.1640
12591SOL    HW139214   3.161   2.161   5.017 -1.8281  2.1459  0.3807
12591SOL    HW239215   3.081   2.145   4.890 -1.2438 -0.3231  0.2645
12592SOL     OW39216   5.633   3.626   3.722  0.3125 -0.1366 -0.4798
12592SOL    HW139217   5.607   3.541   3.757  1.4565 -0.1178  0.4849
12592SOL    HW239218   5.603   3.689   3.788 -0.0266  0.1556 -0.9134
12593SOL     OW39219   4.150   1.938   4.892 -0.2117 -0.2890 -0.3266
12593SOL    HW139220   4.175   2.028   4.874 -0.7565 -0.2376 -0.8371
12593SOL    HW239221   4.056   1.934   4.873 -0.0181 -1.1860 -1.2116
12594SOL     OW39222   6.049   1.156   3.875 -0.4129 -0.5414  0.1488
12594SOL    HW139223   6.082   1.067   3.882 -1.2279 -0.8111  0.6451
12594SOL    HW239224   6.126   1.208   3.852  0.0615 -1.3689 -0.1720
12595SOL     OW39225   2.716   2.085   3.768 -0.3074  0.8027 -0.3953
12595SOL    HW139226   2.754   2.011   3.720  0.9365 -0.1968  1.9864
12595SOL    HW239227   2.762   2.162   3.733  0.2834  0.1692 -1.0519
12596SOL     OW39228   4.427   0.005   5.739 -0.4258 -0.5075  0.6631
12596SOL    HW139229   4.496   0.002   5.805 -2.3531 -2.5896  2.7758
12596SOL    HW239230   4.449  -0.064   5.676 -1.4118 -2.4596  2.3538
12597SOL     OW39231   2.756   0.578   5.309 -0.2519  0.3823 -0.3408
12597SOL    HW139232   2.682   0.626   5.270  0.7445  0.9495 -1.5937
12597SOL    HW239233   2.831   0.602   5.256  0.4164 -2.1311 -0.6678
12598SOL     OW39234   3.414   2.368   5.803 -0.1156 -0.0684 -0.0014
12598SOL    HW139235   3.409   2.285   5.755  1.2268 -0.2686  0.1809
12598SOL    HW239236   3.507   2.388   5.806  0.0297 -0.7079  3.6354
12599SOL     OW39237   4.924   0.686   6.135 -0.0313  0.0080 -0.0370
12599SOL    HW139238   4.863   0.754   6.107  1.1970  1.1809  0.0634
12599SOL    HW239239   4.985   0.730   6.194 -0.0769 -1.5149  1.2137
12600SOL     OW39240   4.117   7.692   5.922  0.2166 -0.2638 -0.5694
12600SOL    HW139241   4.188   7.628   5.912 -1.3013 -2.3033  0.7710
12600SOL    HW239242   4.065   7.682   5.842 -0.2778 -1.1144 -0.1608
12601SOL     OW39243   5.708   6.732   5.188  0.2736 -0.1347  0.1195
12601SOL    HW139244   5.787   6.786   5.188 -0.0989  0.4200  0.4839
12601SOL    HW239245   5.662   6.757   5.268 -0.5988  0.0390 -0.4244
12602SOL     OW39246   5.222   3.690   3.526 -0.1147 -0.0536 -0.1357
12602SOL    HW139247   5.181   3.605   3.545 -0.9643  0.2238 -0.6855
12602SOL    HW239248   5.195   3.746   3.599 -0.2911 -0.0167 -0.2279
12603SOL     OW39249   4.101   1.519   3.068  0.0877  0.0802 -0.2386
12603SOL    HW139250   4.035   1.484   3.008  0.4597  0.7810 -1.0826
12603SOL    HW239251   4.057   1.592   3.112 -0.8046 -1.5662  1.7828
12604SOL     OW39252   3.060   6.621   6.477 -0.2985  0.6191 -0.3462
12604SOL    HW139253   3.135   6.682   6.480  0.8764 -0.8228  1.1665
12604SOL    HW239254   3.023   6.635   6.390  0.6049  2.6800 -0.4809
12605SOL     OW39255   4.273   1.787   5.705  0.3370 -0.4164 -0.6756
12605SOL    HW139256   4.346   1.731   5.732  0.5462  0.5957  1.0013
12605SOL    HW239257   4.212   1.784   5.779 -0.4223  0.2389 -1.2626
12606SOL     OW39258   4.902   3.291   2.819  0.1644  0.2132 -0.0384
12606SOL    HW139259   4.850   3.370   2.834  0.3166  0.5556 -1.1986
12606SOL    HW239260   4.887   3.237   2.897  0.4160  1.5766  0.9898
12607SOL     OW39261   3.490   0.246   4.042 -0.3174 -0.0580 -0.3565
12607SOL    HW139262   3.581   0.268   4.022 -0.5519  0.2202 -1.1821
12607SOL    HW239263   3.448   0.331   4.058 -0.4950 -0.1623 -0.2698
12608SOL     OW39264   5.014   0.267   4.531 -0.4050 -0.1715  0.3310
12608SOL    HW139265   4.945   0.330   4.555  0.5962  0.3862  1.8477
12608SOL    HW239266   4.980   0.183   4.560 -0.6893  0.0249  0.5803
12609SOL     OW39267   2.849   7.646   3.866  0.1982  0.6626 -0.7950
12609SOL    HW139268   2.799   7.565   3.864  0.7604  0.2085  1.3249
12609SOL    HW239269   2.783   7.715   3.878 -0.1497  0.3604 -0.9660
12610SOL     OW39270   4.071   6.975   5.142 -0.3583 -0.3507  0.2068
12610SOL    HW139271   4.043   6.898   5.092 -1.1350 -0.7771  1.2513
12610SOL    HW239272   4.016   7.046   5.108  1.2689  0.0818 -1.6846
12611SOL     OW39273   2.297   6.509   4.238  0.4347  0.6978  0.2079
12611SOL    HW139274   2.314   6.456   4.316  3.9485 -0.8590 -1.4137
12611SOL    HW239275   2.259   6.447   4.176  1.1331  0.9847 -0.5094
12612SOL     OW39276   2.753   6.277   2.357 -0.0582  0.2770  0.0476
12612SOL    HW139277   2.678   6.300   2.412  0.6477  0.3541  1.0096
12612SOL    HW239278   2.829   6.308   2.407  0.5354  1.7192 -1.6683
12613SOL     OW39279   2.707   5.513   4.476  0.3220  0.2165  0.1319
12613SOL    HW139280   2.703   5.418   4.465  0.5143  0.2241 -0.0218
12613SOL    HW239281   2.774   5.526   4.544  0.4249  0.2487  0.0248
12614SOL     OW39282   3.533   1.605   2.630 -0.2539  0.1424  0.1059
12614SOL    HW139283   3.579   1.608   2.547 -1.4785  0.2052 -0.5931
12614SOL    HW239284   3.596   1.568   2.692  0.6870  0.1616 -0.8278
12615SOL     OW39285   4.841   1.582   5.002 -0.7045  0.2286  0.2230
12615SOL    HW139286   4.827   1.494   4.968 -0.0454 -0.3054  1.2887
12615SOL    HW239287   4.805   1.580   5.091  1.1672  0.3918  1.0400
12616SOL     OW39288   4.605   0.377   4.309 -0.3870  0.0720 -0.1872
12616SOL    HW139289   4.666   0.433   4.260  0.6172  1.9246  2.9124
12616SOL    HW239290   4.522   0.425   4.305  0.1265  1.1687  1.2610
12617SOL     OW39291   5.820   1.842   3.109  0.2817  0.4628 -0.1068
12617SOL    HW139292   5.835   1.758   3.067  0.0342  0.2759  0.1742
12617SOL    HW239293   5.881   1.902   3.067  0.8539  0.0191  0.0833
12618SOL     OW39294   6.288   2.677   1.407 -0.1960 -0.0952  0.3389
12618SOL    HW139295   6.207   2.667   1.357  1.0566  0.3270 -1.9295
12618SOL    HW239296   6.273   2.755   1.460 -1.8160 -0.9288  1.1840
12619SOL     OW39297   4.237   7.529   3.393  0.4942  0.0343 -0.2561
12619SOL    HW139298   4.295   7.585   3.444  1.9890 -0.8855 -0.8709
12619SOL    HW239299   4.223   7.452   3.449  0.4341 -0.0450 -0.3796
12620SOL     OW39300   4.358   7.234   3.758 -0.1515  0.4890  0.0322
12620SOL    HW139301   4.381   7.307   3.816  0.6617  1.3355 -1.2945
12620SOL    HW239302   4.427   7.235   3.691 -0.3041 -1.3150 -0.1845
12621SOL     OW39303   4.885   0.530   5.482  0.1531  0.0305  0.2487
12621SOL    HW139304   4.826   0.594   5.440 -0.1108 -0.7629 -0.6297
12621SOL    HW239305   4.827   0.470   5.528  0.3248 -0.2543  0.0970
12622SOL     OW39306   4.419   1.589   5.542  0.3092  0.4503 -0.2493
12622SOL    HW139307   4.463   1.670   5.516  0.1769  0.2319 -1.1918
12622SOL    HW239308   4.484   1.521   5.530  0.3323  0.3725  0.2761
12623SOL     OW39309   4.326   2.461   5.316 -0.2377  0.2100  0.2221
12623SOL    HW139310   4.286   2.418   5.392 -2.3901 -0.3872 -1.1595
12623SOL    HW239311   4.315   2.555   5.334 -0.7678  0.0738  0.6378
12624SOL     OW39312   4.361   2.170   6.321  0.2675  0.1880 -0.4303
12624SOL    HW139313   4.293   2.227   6.358  2.0404  2.4861 -0.4940
12624SOL    HW239314   4.350   2.177   6.226 -0.0437 -0.2944 -0.4348
12625SOL     OW39315   3.816   0.527   4.984  0.0908  0.1750  0.2224
12625SOL    HW139316   3.767   0.586   5.041  0.1697  0.7447 -0.2902
12625SOL    HW239317   3.904   0.564   4.982 -0.4882  1.5904 -2.1952
12626SOL     OW39318   4.419   6.093   4.800  0.0908 -0.5505  0.4510
12626SOL    HW139319   4.447   6.016   4.850 -1.8423 -1.4695  0.2012
12626SOL    HW239320   4.352   6.060   4.741  1.3974  0.7569 -1.9085
12627SOL     OW39321   5.213   0.369   4.925 -0.9100 -0.4101  0.3153
12627SOL    HW139322   5.165   0.292   4.955 -2.3969  0.3555 -0.0187
12627SOL    HW239323   5.145   0.432   4.901  0.2454  0.2563 -1.4113
12628SOL     OW39324   4.131   1.322   4.237 -0.2372  0.2359  0.2736
12628SOL    HW139325   4.117   1.265   4.313  1.0454  0.7577  0.9456
12628SOL    HW239326   4.123   1.411   4.273  0.3352  0.4841 -0.1970
12629SOL     OW39327   4.419   6.499   5.769  0.3363 -0.1633 -0.1632
12629SOL    HW139328   4.435   6.405   5.774  0.9396 -0.0825 -0.4047
12629SOL    HW239329   4.473   6.528   5.695 -1.1383  0.1099 -1.1696
12630SOL     OW39330   7.164   1.653   3.810  0.0502  0.2540  0.4512
12630SOL    HW139331   7.172   1.723   3.875  0.2850 -0.1308  0.8402
12630SOL    HW239332   7.245   1.602   3.820  1.2317  1.5500 -1.7596
12631SOL     OW39333   2.997   3.604   3.176 -0.0309  0.0180  0.1567
12631SOL    HW139334   3.052   3.632   3.250 -0.1248 -0.7738  0.5303
12631SOL    HW239335   2.945   3.682   3.155 -0.2169  0.1729  1.1205
12632SOL     OW39336   2.447   0.012   2.724  0.2613  0.5685  0.0412
12632SOL    HW139337   2.381  -0.055   2.740  0.0581  1.0712  1.4336
12632SOL    HW239338   2.414   0.061   2.648  0.2369 -0.6543 -0.7623
12633SOL     OW39339   4.136   0.213   3.854  0.3046 -0.2303  0.5653
12633SOL    HW139340   4.203   0.234   3.919 -0.3508  0.9486  0.8787
12633SOL    HW239341   4.056   0.201   3.905 -0.6593  2.5683 -0.1004
12634SOL     OW39342   3.807   2.028   3.924 -1.1309  0.4630 -0.3364
12634SOL    HW139343   3.893   2.043   3.962 -0.6029  1.8617 -1.9751
12634SOL    HW239344   3.779   1.944   3.960  1.0401 -0.1666  0.0180
12635SOL     OW39345   7.468   0.050   4.890  0.0205 -0.2218  0.6690
12635SOL    HW139346   7.394   0.054   4.830  0.2301  1.1750  0.4720
12635SOL    HW239347   7.524   0.124   4.864  1.7048 -1.4943  0.5377
12636SOL     OW39348   3.708   7.869   4.911  0.9165 -0.6877  0.3001
12636SOL    HW139349   3.699   7.875   5.006  0.6640  0.5801  0.2158
12636SOL    HW239350   3.791   7.822   4.897  1.6841  0.3739  1.1551
12637SOL     OW39351   5.305   0.321   4.473  0.5688  0.1434 -0.2986
12637SOL    HW139352   5.215   0.305   4.499  1.0029 -1.2163  0.4611
12637SOL    HW239353   5.306   0.308   4.378  0.2665 -1.4329 -0.1030
12638SOL     OW39354   4.718   1.051   5.530 -0.1525 -0.1925 -0.0338
12638SOL    HW139355   4.670   1.084   5.606  0.6828 -1.1340  0.9402
12638SOL    HW239356   4.679   0.965   5.512  1.8560 -1.5709  1.5763
12639SOL     OW39357   3.435   7.858   5.153 -0.1420 -0.0371 -0.2029
12639SOL    HW139358   3.475   7.772   5.147  0.1662  0.0540  0.4156
12639SOL    HW239359   3.459   7.890   5.241  1.6498  1.6102 -1.2029
12640SOL     OW39360   1.992   0.668   4.074  0.0547 -0.2721 -0.0506
12640SOL    HW139361   2.067   0.698   4.125  0.6467 -0.1197 -0.9757
12640SOL    HW239362   1.959   0.748   4.032  1.4566 -0.7971 -2.3012
12641SOL     OW39363   5.072   0.405   5.372 -0.0314  0.3612 -0.4448
12641SOL    HW139364   5.003   0.444   5.425  1.0049  1.0986  0.3963
12641SOL    HW239365   5.106   0.478   5.320  0.4465  0.1051 -0.4973
12642SOL     OW39366   5.929   2.104   4.684  0.5924 -0.1680  0.4244
12642SOL    HW139367   5.951   2.018   4.647 -3.1774 -0.6587 -1.1172
12642SOL    HW239368   5.933   2.164   4.609 -1.0794  0.0453  0.4556
12643SOL     OW39369   5.385   1.156   3.616 -0.3424  0.9049 -0.3941
12643SOL    HW139370   5.331   1.141   3.693  1.2599 -0.3285  0.5522
12643SOL    HW239371   5.398   1.251   3.614  0.0939  0.9084  1.2478
12644SOL     OW39372   4.396   6.088   5.529  0.4996 -0.4453 -0.1452
12644SOL    HW139373   4.316   6.086   5.583 -0.3676  1.3391 -1.2914
12644SOL    HW239374   4.458   6.140   5.579  0.4131 -0.5190  0.0399
12645SOL     OW39375   2.277   7.862   5.232 -0.2528 -0.4047  0.2285
12645SOL    HW139376   2.208   7.884   5.169  0.7273  1.8468 -0.1365
12645SOL    HW239377   2.356   7.851   5.179 -0.1484 -2.3436  0.7117
12646SOL     OW39378   2.523   1.153   3.832  0.1424 -0.0960  0.1318
12646SOL    HW139379   2.596   1.125   3.778 -2.2321 -1.0218 -2.8633
12646SOL    HW239380   2.493   1.235   3.792 -0.9497 -0.1615  0.7624
12647SOL     OW39381   5.781   1.681   5.436 -0.2661  0.2381  0.1103
12647SOL    HW139382   5.733   1.644   5.510 -0.2361  1.3253  0.6889
12647SOL    HW239383   5.800   1.605   5.380  1.7906 -1.0591  2.3459
12648SOL     OW39384   4.637   7.112   4.531 -0.1959 -0.2757 -0.1740
12648SOL    HW139385   4.663   7.194   4.488 -0.5244  0.7839  1.5820
12648SOL    HW239386   4.543   7.106   4.514 -0.2278 -0.1334 -0.0535
12649SOL     OW39387   4.052   7.407   5.265 -0.6127 -0.5939  0.0403
12649SOL    HW139388   3.969   7.368   5.292 -0.1845 -0.6141  1.3643
12649SOL    HW239389   4.110   7.396   5.340  0.5231 -0.3615 -0.7735
12650SOL     OW39390   3.158   0.364   4.015 -0.0932  0.3344  0.2984
12650SOL    HW139391   3.090   0.300   4.035 -0.9132  0.7046 -1.1889
12650SOL    HW239392   3.210   0.324   3.946 -0.1929  0.9841 -0.1623
12651SOL     OW39393   3.747   1.257   5.233  0.6878 -0.6810 -0.0506
12651SOL    HW139394   3.738   1.300   5.148  0.2032  0.4616  0.5610
12651SOL    HW239395   3.770   1.167   5.211 -1.2139 -0.8825 -1.4269
12652SOL     OW39396   6.066   1.050   4.959  0.2765  0.2646  0.4059
12652SOL    HW139397   6.070   1.013   5.047 -0.9053 -1.7178 -0.3098
12652SOL    HW239398   5.989   1.107   4.961  0.1304  0.0665  0.6192
12653SOL     OW39399   4.480   1.617   4.709 -0.0493  0.7825  0.3751
12653SOL    HW139400   4.461   1.578   4.624  1.6998 -1.6089  0.9619
12653SOL    HW239401   4.535   1.693   4.689 -0.6576  0.9794 -0.6461
12654SOL     OW39402   5.891   7.862   3.821  0.2564 -0.1036 -0.0921
12654SOL    HW139403   5.800   7.839   3.802  0.0330  1.3691 -0.9615
12654SOL    HW239404   5.890   7.890   3.912  0.1227 -1.3803  0.3192
12655SOL     OW39405   5.562   7.331   3.878 -0.4059  0.0392  0.2001
12655SOL    HW139406   5.573   7.394   3.949  1.5423 -1.9270  1.8026
12655SOL    HW239407   5.474   7.296   3.890 -0.0864 -0.3123  1.7635
12656SOL     OW39408   5.475   1.216   4.650  0.1312  0.0718 -0.2728
12656SOL    HW139409   5.537   1.281   4.617  1.6558 -0.9502  0.4763
12656SOL    HW239410   5.423   1.192   4.573 -0.4296  2.0853 -0.5788
12657SOL     OW39411   3.982   0.358   4.281 -0.0778  0.0887  0.2505
12657SOL    HW139412   4.025   0.418   4.220  1.6640 -0.9671  0.3752
12657SOL    HW239413   3.890   0.383   4.278  0.5565  2.7969  0.3217
12658SOL     OW39414   4.539   0.069   3.079  0.3571 -0.0207  0.2620
12658SOL    HW139415   4.547   0.025   2.994 -0.8086 -1.8583  1.0425
12658SOL    HW239416   4.616   0.041   3.128  1.0202  1.0253 -0.1543
12659SOL     OW39417   7.450   1.588   6.106 -0.4988  0.0656  0.4994
12659SOL    HW139418   7.390   1.640   6.160 -0.5827  1.6539 -1.0418
12659SOL    HW239419   7.515   1.651   6.076 -0.3082 -0.8240 -1.0236
12660SOL     OW39420   5.469   7.539   6.087  0.1716  0.8592 -0.3471
12660SOL    HW139421   5.552   7.506   6.121 -0.1283  1.1798  0.7605
12660SOL    HW239422   5.443   7.608   6.149 -2.2984 -1.1042  1.0031
12661SOL     OW39423   6.457   1.603   3.550  0.1469  0.4884  0.4801
12661SOL    HW139424   6.454   1.507   3.555 -0.3164  0.4997  0.5005
12661SOL    HW239425   6.550   1.624   3.549  0.2665 -0.0101 -0.3949
12662SOL     OW39426   4.231   1.576   4.907 -0.3192 -0.2799 -0.2759
12662SOL    HW139427   4.317   1.615   4.892  0.1796 -1.1932  0.0811
12662SOL    HW239428   4.199   1.553   4.820 -0.6504  0.9417 -0.4960
12663SOL     OW39429   3.735   0.599   5.778  0.2216  0.0793 -0.1752
12663SOL    HW139430   3.796   0.544   5.729 -0.8459 -0.4027 -1.0144
12663SOL    HW239431   3.693   0.539   5.840 -1.8539 -0.4381 -1.9329
12664SOL     OW39432   7.139   6.459   6.264 -0.1175  0.0147  0.7033
12664SOL    HW139433   7.065   6.477   6.205 -0.2317  1.0370  1.1362
12664SOL    HW239434   7.098   6.447   6.350  0.3291  2.8695  1.4140
12665SOL     OW39435   4.979   2.008   6.078 -0.1800  0.4054  0.0324
12665SOL    HW139436   4.943   2.093   6.053  0.6963  1.0193  0.7839
12665SOL    HW239437   5.064   2.004   6.033 -0.2884 -0.1364 -0.1212
12666SOL     OW39438   3.703   7.803   4.370 -0.2637 -0.4265 -0.4848
12666SOL    HW139439   3.711   7.889   4.329  0.9313 -0.3414 -0.1267
12666SOL    HW239440   3.638   7.815   4.439  0.1799  0.3099 -0.1791
12667SOL     OW39441   6.370   1.120   5.959  0.0253  0.0026 -0.0072
12667SOL    HW139442   6.328   1.156   5.881  1.7208  0.4873 -0.7201
12667SOL    HW239443   6.325   1.036   5.974 -0.0279 -0.3032 -1.7469
12668SOL     OW39444   5.435   1.461   4.977  0.0971  0.3895 -0.1727
12668SOL    HW139445   5.380   1.491   4.905  0.6019  1.4970 -0.1122
12668SOL    HW239446   5.414   1.519   5.050  1.3156  0.8262 -0.1403
12669SOL     OW39447   6.751   1.018   4.674 -0.3313 -0.1953  0.4928
12669SOL    HW139448   6.803   1.045   4.599  0.0104 -1.3821  0.2778
12669SOL    HW239449   6.782   1.072   4.746  0.5766 -0.2626  0.1667
12670SOL     OW39450   4.572   1.453   4.938  0.2921 -0.4691  0.3319
12670SOL    HW139451   4.491   1.500   4.918  0.6244  0.6358  1.4524
12670SOL    HW239452   4.571   1.445   5.034  1.1010 -1.1926  0.2877
12671SOL     OW39453   4.438   0.734   4.292 -0.0292 -0.4359  0.6199
12671SOL    HW139454   4.388   0.773   4.364  1.8743  0.9403  1.2818
12671SOL    HW239455   4.413   0.641   4.293 -1.2490 -0.1350  1.9986
12672SOL     OW39456   4.666   0.440   5.921  0.1945  0.4165  0.1796
12672SOL    HW139457   4.760   0.451   5.934  0.1637  0.4146  0.3997
12672SOL    HW239458   4.651   0.472   5.832  0.1653  1.8933  0.6843
12673SOL     OW39459   2.752   1.101   3.715 -0.3219 -0.1526  0.2549
12673SOL    HW139460   2.737   1.056   3.632 -1.0941  2.0564 -0.8824
12673SOL    HW239461   2.823   1.162   3.697 -0.7235  0.5878  1.1263
12674SOL     OW39462   4.235   2.272   3.363  0.2635  0.3692 -0.2024
12674SOL    HW139463   4.152   2.277   3.410 -0.2812 -2.2980 -0.7459
12674SOL    HW239464   4.231   2.344   3.299 -1.3184  0.7017  0.2285
12675SOL     OW39465   5.823   1.502   5.747 -0.6233  0.1027 -0.1751
12675SOL    HW139466   5.757   1.476   5.682 -1.0443 -0.1362  0.3390
12675SOL    HW239467   5.791   1.465   5.829  0.2898 -0.2398  0.0351
12676SOL     OW39468   4.745   6.706   3.705  0.1735  0.0070  0.1710
12676SOL    HW139469   4.746   6.644   3.632  1.9546 -0.7906  0.8097
12676SOL    HW239470   4.788   6.659   3.777 -1.9368  0.5762  1.9371
12677SOL     OW39471   4.474   1.533   6.055 -0.3096  0.0103  0.6330
12677SOL    HW139472   4.480   1.628   6.051 -1.2133  0.1254  1.6238
12677SOL    HW239473   4.423   1.509   5.977  1.7437  0.0969 -0.8378
12678SOL     OW39474   4.053   0.900   5.220  0.1997 -0.3733 -0.0261
12678SOL    HW139475   3.982   0.958   5.195 -0.5988 -0.6369  1.4987
12678SOL    HW239476   4.054   0.903   5.316 -0.4082 -3.4551  0.1870
12679SOL     OW39477   3.531   1.244   5.732  0.8981  0.0590  0.4354
12679SOL    HW139478   3.578   1.313   5.778 -0.4109  0.4107  1.3248
12679SOL    HW239479   3.509   1.181   5.801  0.2685 -0.1899  0.0177
12680SOL     OW39480   5.080   1.470   5.051  0.0810 -0.3094  0.0573
12680SOL    HW139481   5.015   1.538   5.033  0.6357 -0.0485 -1.0482
12680SOL    HW239482   5.119   1.450   4.966  1.5131 -0.3898  0.6912
12681SOL     OW39483   4.254   7.883   2.066  0.1897 -0.3712  0.2176
12681SOL    HW139484   4.347   7.867   2.050 -0.6513 -2.7406 -3.5626
12681SOL    HW239485   4.226   7.938   1.994 -1.5324 -0.5064  0.7325
12682SOL     OW39486   4.665   0.210   4.022  0.9635  1.1530  0.1995
12682SOL    HW139487   4.609   0.135   4.001 -1.1748  2.5466  0.6088
12682SOL    HW239488   4.733   0.173   4.079  1.0759 -0.7791 -1.0811
12683SOL     OW39489   6.573   1.124   3.244 -0.2234 -0.3917 -0.3135
12683SOL    HW139490   6.617   1.197   3.201  2.1628 -1.8948 -0.5905
12683SOL    HW239491   6.494   1.110   3.191 -0.4057  1.5111 -0.6322
12684SOL     OW39492   6.002   1.885   4.560  0.2936  0.3054  0.1626
12684SOL    HW139493   6.042   1.799   4.576  1.5990  0.7945 -0.3702
12684SOL    HW239494   5.985   1.887   4.466 -1.5021 -0.0830  0.4431
12685SOL     OW39495   4.357   7.521   5.513  0.4770 -0.1551  0.6025
12685SOL    HW139496   4.355   7.442   5.459  1.0712 -0.9311  1.6789
12685SOL    HW239497   4.369   7.489   5.603 -0.6789  1.0870  1.2412
12686SOL     OW39498   2.806   0.966   3.471  0.2100  0.1302 -0.2083
12686SOL    HW139499   2.743   0.955   3.399  0.2214 -1.0474 -0.0636
12686SOL    HW239500   2.842   0.878   3.484  0.4634  0.4017  1.0059
12687SOL     OW39501   5.403   1.725   5.083 -0.3614  0.2273  0.1716
12687SOL    HW139502   5.461   1.801   5.082  1.7375 -1.2773 -0.1765
12687SOL    HW239503   5.325   1.753   5.036  0.1879  2.2611  0.3874
12688SOL     OW39504   4.380   7.580   3.992  0.0242 -0.1764 -0.8805
12688SOL    HW139505   4.414   7.635   4.063 -1.1912  0.0435 -0.4549
12688SOL    HW239506   4.458   7.542   3.952  0.9717  2.2666 -1.5444
12689SOL     OW39507   2.000   0.869   3.860 -0.1880 -0.0780  0.3002
12689SOL    HW139508   2.051   0.910   3.790 -0.5360  0.0341  0.1072
12689SOL    HW239509   1.942   0.808   3.814 -0.5542  0.1383  0.4723
12690SOL     OW39510   6.301   0.297   3.289 -0.3807 -0.7251  0.1872
12690SOL    HW139511   6.213   0.273   3.316 -0.3605 -0.4183  0.5282
12690SOL    HW239512   6.341   0.337   3.366  0.3111 -1.5268  0.2581
12691SOL     OW39513   2.820   7.313   5.328  0.2891 -0.1699  0.6784
12691SOL    HW139514   2.853   7.386   5.275  0.6939 -0.6400  0.2631
12691SOL    HW239515   2.835   7.236   5.273 -0.3612 -0.5374  1.0109
12692SOL     OW39516   4.508   2.533   4.105  0.3475 -0.0835  0.3202
12692SOL    HW139517   4.564   2.593   4.055  0.5262  0.0766  0.7116
12692SOL    HW239518   4.541   2.538   4.195  1.4405 -2.0152  0.0791
12693SOL     OW39519   5.161   1.926   3.857 -0.0295 -0.0518  0.2198
12693SOL    HW139520   5.196   1.945   3.944  0.4843 -1.0379  0.2367
12693SOL    HW239521   5.130   2.011   3.825 -1.6344  0.0907  1.9542
12694SOL     OW39522   4.938   0.853   5.781  0.7869 -0.1028  0.5171
12694SOL    HW139523   4.945   0.828   5.873  0.4165 -0.8578  0.3502
12694SOL    HW239524   4.844   0.863   5.766  0.8547  0.1555  0.2554
12695SOL     OW39525   4.603   0.828   5.458 -0.2320 -0.2013 -0.0222
12695SOL    HW139526   4.518   0.862   5.487  0.5272  2.7553 -0.9081
12695SOL    HW239527   4.584   0.787   5.374 -1.0099 -1.0846  0.5546
12696SOL     OW39528   3.572   0.655   3.505 -0.0324  0.1128  0.2768
12696SOL    HW139529   3.661   0.660   3.471 -0.8872 -0.0392 -2.1475
12696SOL    HW239530   3.544   0.747   3.512 -0.5009  0.1331 -1.4028
12697SOL     OW39531   6.371   0.696   3.682  0.4022 -0.4297 -1.3644
12697SOL    HW139532   6.311   0.675   3.754 -0.1138  0.4118 -1.5355
12697SOL    HW239533   6.363   0.623   3.621  0.8246 -1.1413 -0.5907
12698SOL     OW39534   4.285   1.221   5.672 -0.3341 -0.5799  0.6044
12698SOL    HW139535   4.190   1.221   5.686 -0.4025  0.8469  0.2932
12698SOL    HW239536   4.296   1.236   5.578  0.2037 -0.5385  0.6705
12699SOL     OW39537   5.967   7.497   3.146  0.1400  0.1606 -0.0906
12699SOL    HW139538   5.996   7.541   3.226 -0.5647  0.2929  0.1041
12699SOL    HW239539   6.004   7.408   3.152 -0.1750  0.0680  0.5406
12700SOL     OW39540   3.410   2.448   4.471  0.0712 -0.1217 -0.5205
12700SOL    HW139541   3.505   2.463   4.474 -0.1117  0.9090  1.0726
12700SOL    HW239542   3.372   2.533   4.493 -1.1615 -1.1890  1.8335
12701SOL     OW39543   4.224   0.004   4.531  0.2783  0.0353  0.5992
12701SOL    HW139544   4.292  -0.062   4.525  1.1293  0.8686  0.8709
12701SOL    HW239545   4.142  -0.046   4.538  0.9192 -0.9762  1.0179
12702SOL     OW39546   4.216   0.358   6.760  0.5296  0.0831 -0.1187
12702SOL    HW139547   4.275   0.283   6.751  0.7423  0.1460  0.6575
12702SOL    HW239548   4.166   0.359   6.679  1.6607  0.0766 -0.8390
12703SOL     OW39549   2.837   0.004   2.218  0.0320  0.1864 -0.4342
12703SOL    HW139550   2.766  -0.057   2.235 -1.4044  1.7210 -0.6447
12703SOL    HW239551   2.889   0.004   2.298 -0.6365 -0.4195  0.0095
12704SOL     OW39552   4.671   7.657   5.900 -0.7922 -0.0232  0.3068
12704SOL    HW139553   4.594   7.653   5.957 -0.8667 -1.6921  0.1639
12704SOL    HW239554   4.743   7.629   5.956 -0.2730  1.4538  0.4172
12705SOL     OW39555   4.118   7.660   3.883  0.0796 -0.1608  0.3345
12705SOL    HW139556   4.057   7.616   3.943 -0.2407  0.9827  0.8831
12705SOL    HW239557   4.204   7.633   3.913 -0.0863  0.1952  1.1673
12706SOL     OW39558   4.382   1.687   3.454 -0.7050  0.4731 -0.5598
12706SOL    HW139559   4.398   1.592   3.459 -2.2262  0.0752 -2.1880
12706SOL    HW239560   4.396   1.718   3.544 -0.5665 -1.3611  0.1035
12707SOL     OW39561   2.296   0.132   5.338 -0.0227 -0.1661 -0.0474
12707SOL    HW139562   2.329   0.192   5.272 -2.5408 -0.8497 -2.1100
12707SOL    HW239563   2.310   0.045   5.301 -0.6335 -0.6126  0.7253
12708SOL     OW39564   4.990   3.524   3.960 -0.6445 -0.2367 -0.3484
12708SOL    HW139565   5.038   3.496   4.037  1.1199 -1.4319 -1.8128
12708SOL    HW239566   5.043   3.595   3.923 -2.8354  2.2351  0.9120
12709SOL     OW39567   3.326   0.336   5.452  0.2139  0.0676 -0.0396
12709SOL    HW139568   3.384   0.401   5.493 -0.4911  0.7312 -0.0604
12709SOL    HW239569   3.383   0.288   5.391  0.9250  0.1213  0.5716
12710SOL     OW39570   4.698   2.640   5.818 -0.0371 -0.5391  0.2306
12710SOL    HW139571   4.712   2.679   5.905  1.4898 -0.0549 -0.2081
12710SOL    HW239572   4.627   2.691   5.780  0.1058  0.0394  0.7221
12711SOL     OW39573   4.287   2.120   2.580 -0.0190  0.2588  0.1395
12711SOL    HW139574   4.270   2.173   2.658  0.7703  1.0409 -0.1997
12711SOL    HW239575   4.349   2.172   2.529  0.2854 -0.7181 -0.5116
12712SOL     OW39576   4.706   0.799   5.027 -0.0237  0.1425 -0.0359
12712SOL    HW139577   4.659   0.787   5.110 -0.8851  0.4891 -0.4596
12712SOL    HW239578   4.648   0.855   4.975  0.4037 -0.2599 -0.9599
12713SOL     OW39579   3.302   7.440   4.077  0.5222  0.2580 -0.7424
12713SOL    HW139580   3.361   7.513   4.093  0.4141  0.7795 -2.5222
12713SOL    HW239581   3.355   7.376   4.029  0.0249  0.1428 -1.1548
12714SOL     OW39582   4.660   7.997   5.980  0.3693 -0.0117  0.1918
12714SOL    HW139583   4.709   7.948   6.046 -0.2612  0.6317  1.1653
12714SOL    HW239584   4.608   8.060   6.030 -2.9544 -1.8619 -0.5722
12715SOL     OW39585   5.796   1.634   4.640  0.1864  0.3749 -0.2758
12715SOL    HW139586   5.741   1.617   4.717 -1.2492 -1.6281 -1.6492
12715SOL    HW239587   5.775   1.724   4.616 -3.9742 -0.7366 -1.6999
12716SOL     OW39588   6.737   1.503   5.008  0.1467 -0.1215 -0.6552
12716SOL    HW139589   6.670   1.560   5.045  0.9713  0.3170  0.2162
12716SOL    HW239590   6.723   1.419   5.051  0.2496  0.0085 -0.3681
12717SOL     OW39591   4.354   1.028   3.885  0.4323  0.3146 -0.0043
12717SOL    HW139592   4.407   0.953   3.912  0.0485 -0.1691 -0.5670
12717SOL    HW239593   4.374   1.096   3.949  3.1568  0.7916 -1.2139
12718SOL     OW39594   4.444   1.158   2.279 -0.3062  0.0615 -0.0468
12718SOL    HW139595   4.366   1.122   2.238 -1.2619 -2.4806  3.4751
12718SOL    HW239596   4.514   1.096   2.256 -0.2338  0.1512 -0.0688
12719SOL     OW39597   3.710   0.704   5.151 -0.0381 -0.0040  0.1551
12719SOL    HW139598   3.637   0.658   5.192  0.6551 -0.7545  0.5688
12719SOL    HW239599   3.673   0.787   5.123 -0.6927  0.2881  1.7640
12720SOL     OW39600   5.588   1.666   4.057  0.6705 -0.6494 -0.0596
12720SOL    HW139601   5.557   1.666   4.147  0.0629 -1.2044 -0.2592
12720SOL    HW239602   5.671   1.617   4.060  1.4398  0.6294  0.4321
12721SOL     OW39603   5.525   0.270   5.348 -0.0016 -0.0524  0.6824
12721SOL    HW139604   5.498   0.309   5.431 -1.3403 -0.1373  0.3107
12721SOL    HW239605   5.483   0.184   5.347 -0.5546  0.2078 -0.3555
12722SOL     OW39606   3.565   1.507   6.438  0.2799  0.1470  0.1725
12722SOL    HW139607   3.634   1.448   6.469  0.4281  0.9287  1.4344
12722SOL    HW239608   3.584   1.519   6.345  1.3195 -0.3750  0.2980
12723SOL     OW39609   3.733   0.706   6.045  0.2598  0.0338  0.0893
12723SOL    HW139610   3.638   0.695   6.055  0.3742 -1.4169 -0.2770
12723SOL    HW239611   3.748   0.704   5.951  0.5332  1.5658  0.0766
12724SOL     OW39612   4.994   2.978   5.902  0.0140  0.3477  0.0355
12724SOL    HW139613   4.973   3.069   5.882 -3.4415 -0.0741  1.1954
12724SOL    HW239614   4.933   2.927   5.850  0.0451 -1.1766  1.4035
12725SOL     OW39615   7.525   0.651   5.378 -0.7381  0.5055  0.3220
12725SOL    HW139616   7.514   0.720   5.312  0.3277  1.0392  0.6627
12725SOL    HW239617   7.501   0.693   5.460 -0.0313  0.5049  0.5399
12726SOL     OW39618   4.437   2.820   3.593 -0.0448  0.2635  0.0222
12726SOL    HW139619   4.390   2.770   3.660  0.1026 -0.6055 -0.5125
12726SOL    HW239620   4.416   2.776   3.511 -0.6282  1.6169 -0.5800
12727SOL     OW39621   5.232   0.202   5.732  0.0727  0.1870  0.0493
12727SOL    HW139622   5.279   0.260   5.673  2.6554 -3.3475 -1.7919
12727SOL    HW239623   5.290   0.192   5.807  0.5944 -1.2925 -0.5019
12728SOL     OW39624   2.363   0.717   3.061  0.1335  0.6387 -0.4685
12728SOL    HW139625   2.281   0.765   3.058  0.2208  0.7697 -0.9665
12728SOL    HW239626   2.344   0.634   3.017  0.7035  1.3801 -2.2153
12729SOL     OW39627   4.246   1.273   5.984  0.7834 -0.3589  0.0782
12729SOL    HW139628   4.282   1.339   5.924  0.8912 -0.0998  0.4187
12729SOL    HW239629   4.229   1.197   5.930  1.6904 -0.4238 -0.1268
12730SOL     OW39630   3.255   0.810   4.191  0.0697 -0.3332  0.8453
12730SOL    HW139631   3.302   0.747   4.138 -1.6433 -1.3528  0.4440
12730SOL    HW239632   3.311   0.824   4.268  0.4947 -2.3891  0.9753
12731SOL     OW39633   3.474   0.247   4.964  0.1657  0.9725 -0.1797
12731SOL    HW139634   3.415   0.311   4.925  0.3862  1.6743  0.6300
12731SOL    HW239635   3.452   0.165   4.920  0.0497  1.6310 -1.4065
12732SOL     OW39636   5.207   1.171   3.816  0.0216  0.0243 -0.4576
12732SOL    HW139637   5.169   1.253   3.785  1.0592  0.7139  0.0532
12732SOL    HW239638   5.170   1.160   3.904 -0.3348 -0.2121 -0.6332
12733SOL     OW39639   3.321   1.724   4.791  0.3532 -0.4152 -0.0200
12733SOL    HW139640   3.353   1.688   4.708 -1.1539 -1.1175 -0.3263
12733SOL    HW239641   3.360   1.812   4.795 -0.1532 -0.0496 -1.8739
12734SOL     OW39642   3.291   0.047   3.661 -0.3287  0.7049 -0.2411
12734SOL    HW139643   3.290   0.125   3.718  0.1392  1.1195 -0.7877
12734SOL    HW239644   3.383   0.020   3.660 -0.6706 -0.5762  0.8945
12735SOL     OW39645   4.445   7.669   7.235  0.0021 -0.0133  0.4729
12735SOL    HW139646   4.394   7.672   7.154  2.0150 -0.2383 -0.8816
12735SOL    HW239647   4.457   7.576   7.252  0.4000  0.0355  0.4692
12736SOL     OW39648   5.710   7.807   3.248 -0.1008  0.6398 -0.1407
12736SOL    HW139649   5.687   7.815   3.340  0.3592  0.3077  0.0064
12736SOL    HW239650   5.641   7.854   3.201 -0.5557  0.4507  0.3447
12737SOL     OW39651   5.596   1.422   4.442  0.6839 -0.0659  0.1138
12737SOL    HW139652   5.563   1.502   4.482 -0.2732 -0.0904 -0.5881
12737SOL    HW239653   5.691   1.429   4.448  0.5879  0.7877  0.6990
12738SOL     OW39654   5.698   1.995   4.807  0.7639 -0.4743  0.4180
12738SOL    HW139655   5.778   2.033   4.771  0.6435 -0.2080  0.4262
12738SOL    HW239656   5.630   2.020   4.744  0.3388  1.0417  1.4436
12739SOL     OW39657   3.253   0.307   5.710 -0.3093  0.1816  0.0175
12739SOL    HW139658   3.189   0.240   5.732 -1.0133  1.2674  1.5181
12739SOL    HW239659   3.271   0.295   5.617 -0.1153 -2.3019  0.3175
12740SOL     OW39660   4.190   6.640   5.601 -0.4799  0.4108  0.2578
12740SOL    HW139661   4.212   6.707   5.536 -0.2784  0.2650  0.1745
12740SOL    HW239662   4.272   6.627   5.650 -0.5850  0.4007  0.4322
12741SOL     OW39663   4.075   0.639   6.882 -0.2231 -0.6361  0.1567
12741SOL    HW139664   4.056   0.554   6.922 -0.0258 -0.9639 -0.4354
12741SOL    HW239665   4.124   0.617   6.802  1.1197  0.0831  0.7430
12742SOL     OW39666   3.748   7.663   6.842 -0.2150 -0.1918  0.2734
12742SOL    HW139667   3.791   7.630   6.921  0.9113 -1.4769 -0.8242
12742SOL    HW239668   3.781   7.607   6.772 -0.9075  1.1479 -1.1759
12743SOL     OW39669   5.539   2.189   5.985 -0.2850  0.6707  0.5902
12743SOL    HW139670   5.550   2.175   6.079 -0.2753  0.5574  0.5719
12743SOL    HW239671   5.492   2.272   5.979 -1.1301  0.2094  0.7282
12744SOL     OW39672   5.685   1.179   8.167 -0.1788  0.4251 -0.7413
12744SOL    HW139673   5.607   1.123   8.165 -1.1283  1.7000 -3.1724
12744SOL    HW239674   5.735   1.154   8.089 -0.3031  2.4646 -1.5334
12745SOL     OW39675   5.193   2.221   6.178  0.2249  0.1068  0.1613
12745SOL    HW139676   5.243   2.274   6.240  0.2366  0.0766  0.1777
12745SOL    HW239677   5.102   2.233   6.204  0.2148  0.2500  0.0632
12746SOL     OW39678   6.129   0.003   8.108 -0.2245 -0.8684 -0.5956
12746SOL    HW139679   6.208  -0.036   8.146  0.6263 -0.2805 -1.7119
12746SOL    HW239680   6.082   0.039   8.183 -0.2418 -2.6118  0.2675
12747SOL     OW39681   6.139   0.349   6.980  0.5104  0.1767  0.4732
12747SOL    HW139682   6.126   0.410   6.908  0.4936 -0.2845  0.0814
12747SOL    HW239683   6.160   0.266   6.938 -1.1306 -0.5156  0.9171
12748SOL     OW39684   4.382   0.431   5.674  0.0056  0.7759 -0.2990
12748SOL    HW139685   4.427   0.487   5.611  0.6709 -2.3929 -2.9569
12748SOL    HW239686   4.341   0.363   5.620 -1.2995 -0.9157  2.5992
12749SOL     OW39687   4.782   2.161   7.782 -0.6223 -0.4462  0.1267
12749SOL    HW139688   4.689   2.139   7.786 -1.1438  1.1337 -1.7289
12749SOL    HW239689   4.810   2.132   7.695  0.5536 -0.6404  0.5514
12750SOL     OW39690   3.567   1.927   6.941  0.0922  0.0490  0.7860
12750SOL    HW139691   3.609   1.898   7.022  0.5894  0.6598  0.7553
12750SOL    HW239692   3.490   1.976   6.969 -1.2320 -1.9650  0.8237
12751SOL     OW39693   4.403   1.174   6.717 -0.0682  0.4314 -0.4934
12751SOL    HW139694   4.321   1.223   6.724 -0.1607  0.4124 -1.2932
12751SOL    HW239695   4.400   1.111   6.789 -0.6132  0.6425 -0.3261
12752SOL     OW39696   3.729   5.981   5.992  0.1796 -0.3431 -0.2658
12752SOL    HW139697   3.664   6.023   6.047  0.3804 -0.3162 -0.0497
12752SOL    HW239698   3.681   5.910   5.948 -0.6379  1.2496 -2.0742
12753SOL     OW39699   6.219   7.371   5.155 -0.3495 -0.2999 -0.2929
12753SOL    HW139700   6.131   7.377   5.118  0.2572  0.4725 -1.6785
12753SOL    HW239701   6.247   7.461   5.166 -0.0771 -0.5246  1.0668
12754SOL     OW39702   4.481   1.706   6.928 -0.0537  0.0180 -1.0827
12754SOL    HW139703   4.403   1.752   6.898 -0.4537 -0.2287 -0.4311
12754SOL    HW239704   4.471   1.617   6.894 -0.2504 -0.1186 -0.6748
12755SOL     OW39705   4.711   7.709   5.649  0.0596 -0.4874  0.0643
12755SOL    HW139706   4.703   7.680   5.740 -0.6211 -0.4389  0.0250
12755SOL    HW239707   4.709   7.805   5.654 -1.0614 -0.4891 -0.0813
12756SOL     OW39708   2.922   0.334   6.652  0.3628 -0.7175  0.2762
12756SOL    HW139709   2.989   0.332   6.585  1.5278 -0.7859  1.4064
12756SOL    HW239710   2.956   0.394   6.719 -0.9132 -0.3811  0.6528
12757SOL     OW39711   3.005   2.207   6.961 -0.8338  0.3425 -0.5216
12757SOL    HW139712   2.948   2.261   6.907  0.3137  1.5155 -0.6339
12757SOL    HW239713   2.996   2.245   7.049 -1.5626 -0.6052 -0.1739
12758SOL     OW39714   3.230   2.419   5.385 -0.5232  0.2081  0.0260
12758SOL    HW139715   3.315   2.380   5.403 -0.2576  0.6842 -0.1871
12758SOL    HW239716   3.237   2.509   5.418  0.1386  1.2867 -2.7383
12759SOL     OW39717   4.024   0.742   4.995  0.0685  0.4738  0.2307
12759SOL    HW139718   3.998   0.785   5.077 -0.1244  1.4407 -0.3186
12759SOL    HW239719   4.050   0.814   4.937 -0.3062 -0.1521 -0.7414
12760SOL     OW39720   6.361   0.012   5.944 -0.5342  0.0229  0.3513
12760SOL    HW139721   6.367  -0.070   5.896  0.8428  0.1131  0.3119
12760SOL    HW239722   6.424   0.003   6.015  0.1019  1.2488 -0.0107
12761SOL     OW39723   3.800   1.076   6.248 -0.1541  0.2114  0.3471
12761SOL    HW139724   3.873   1.121   6.205  0.8662 -1.2802  0.4466
12761SOL    HW239725   3.796   1.115   6.335  0.6259  0.2263  0.3888
12762SOL     OW39726   3.590   0.420   5.556 -0.5568  0.2813  0.0922
12762SOL    HW139727   3.604   0.333   5.595 -0.8077 -0.0285 -0.5090
12762SOL    HW239728   3.647   0.478   5.608  0.4080 -0.4075 -0.1557
12763SOL     OW39729   3.422   0.957   6.544 -0.0784 -0.2065 -0.3163
12763SOL    HW139730   3.460   0.881   6.500  0.1841 -0.7104  0.7396
12763SOL    HW239731   3.378   0.921   6.621  0.1018  0.7098  0.2357
12764SOL     OW39732   3.012   1.291   7.071  0.2467 -0.2817  0.3029
12764SOL    HW139733   2.981   1.200   7.069  0.6010 -0.4076  0.4777
12764SOL    HW239734   3.050   1.304   6.984 -0.2905 -0.1226  0.0824
12765SOL     OW39735   5.208   1.453   4.795 -0.1187  0.6102  0.1109
12765SOL    HW139736   5.194   1.363   4.764  0.3044 -0.1724  2.0933
12765SOL    HW239737   5.234   1.501   4.716 -0.6695 -0.9150 -1.0530
12766SOL     OW39738   3.280   2.992   6.475 -0.2678 -0.4907  0.5646
12766SOL    HW139739   3.225   2.993   6.553  0.1673  2.3284  0.9120
12766SOL    HW239740   3.370   2.989   6.509 -0.1003 -1.0725  0.0948
12767SOL     OW39741   3.650   7.255   5.947  0.6228 -0.0324  0.0621
12767SOL    HW139742   3.595   7.177   5.956  0.8364 -0.0028  2.4210
12767SOL    HW239743   3.623   7.295   5.865 -0.1781 -2.0610 -0.7104
12768SOL     OW39744   4.669   0.393   6.219  0.3778  0.3389  0.0095
12768SOL    HW139745   4.631   0.306   6.232 -0.3954  0.7037  0.2627
12768SOL    HW239746   4.611   0.435   6.155  1.4801  0.2290 -1.0973
12769SOL     OW39747   4.659   0.836   5.743 -0.0172 -0.3789  0.1786
12769SOL    HW139748   4.624   0.800   5.662 -0.6905 -0.4250  0.4806
12769SOL    HW239749   4.581   0.852   5.798  0.4865 -1.3522  1.2173
12770SOL     OW39750   3.803   0.213   6.626 -0.4009 -0.3707  0.5083
12770SOL    HW139751   3.856   0.262   6.563 -2.1374 -0.7909 -1.3780
12770SOL    HW239752   3.845   0.127   6.631 -0.5073 -0.4970 -0.4966
12771SOL     OW39753   4.862   1.227   6.659  0.1300 -0.5406  0.3746
12771SOL    HW139754   4.885   1.211   6.750 -0.4635  0.9763  0.8131
12771SOL    HW239755   4.828   1.143   6.627  0.8838 -1.2366  1.3683
12772SOL     OW39756   5.693   1.048   8.578 -0.3886 -0.5840 -0.2739
12772SOL    HW139757   5.723   1.135   8.606  1.4834 -1.1641 -0.3397
12772SOL    HW239758   5.605   1.040   8.614  0.3156  0.3978  1.8373
12773SOL     OW39759   5.400   7.404   5.856  0.0726 -0.1386  1.0643
12773SOL    HW139760   5.439   7.443   5.935  1.0274  2.9007 -0.7041
12773SOL    HW239761   5.311   7.380   5.882  0.5196  0.2831  3.1864
12774SOL     OW39762   3.900   7.970   5.527  0.0742  0.7275  0.2089
12774SOL    HW139763   3.958   8.046   5.521  0.4021  0.5870  1.3860
12774SOL    HW239764   3.953   7.904   5.571 -1.0377  0.6685  1.5068
12775SOL     OW39765   7.266   0.266   5.015  0.0774  0.5185 -0.1618
12775SOL    HW139766   7.293   0.321   4.942  0.8902  0.8579  0.3725
12775SOL    HW239767   7.189   0.219   4.984 -0.3480  1.6112 -0.7895
12776SOL     OW39768   3.846   7.326   6.481 -0.4679  0.1704  0.0049
12776SOL    HW139769   3.820   7.243   6.521 -1.2297  1.1276  1.5954
12776SOL    HW239770   3.826   7.315   6.388 -3.1185 -0.5019  0.5795
12777SOL     OW39771   3.901   0.554   6.293 -0.6643 -0.2379  0.5586
12777SOL    HW139772   3.832   0.550   6.360 -0.2347  0.4745  1.0548
12777SOL    HW239773   3.925   0.647   6.290  0.4656 -0.5218  0.5972
12778SOL     OW39774   3.074   7.465   6.835  0.1135  0.0163 -0.2112
12778SOL    HW139775   3.120   7.382   6.831 -0.1830 -0.2027  0.6502
12778SOL    HW239776   3.124   7.524   6.779 -0.8175 -1.2695 -2.5391
12779SOL     OW39777   5.149   0.930   7.914 -0.0470  0.3724  0.0173
12779SOL    HW139778   5.079   0.955   7.854 -1.8945 -2.0741  0.9660
12779SOL    HW239779   5.205   0.871   7.864 -0.4818 -0.1439  0.1347
12780SOL     OW39780   6.122   1.364   8.239 -0.1603  0.2337 -0.2006
12780SOL    HW139781   6.177   1.401   8.171  2.5131 -0.6809  1.3172
12780SOL    HW239782   6.085   1.285   8.200  3.0014 -1.4380 -0.0581
12781SOL     OW39783   5.583   7.090   6.328  0.1767 -0.7825  0.2534
12781SOL    HW139784   5.584   7.036   6.407  1.0993 -0.5851  0.3954
12781SOL    HW239785   5.673   7.125   6.322 -0.4808  1.0776  0.4191
12782SOL     OW39786   3.142   7.427   4.486  0.1125  1.3010  0.0385
12782SOL    HW139787   3.208   7.386   4.542 -0.3241 -0.9691 -0.9800
12782SOL    HW239788   3.182   7.509   4.458  1.1170  1.5587  2.0861
12783SOL     OW39789   2.789   0.364   4.161  0.0161 -0.3080 -0.0454
12783SOL    HW139790   2.866   0.402   4.119 -0.7936  0.7789 -0.6257
12783SOL    HW239791   2.821   0.326   4.242  0.9638  1.2301  0.3349
12784SOL     OW39792   2.945   7.339   3.900 -0.1462 -0.1147 -0.7208
12784SOL    HW139793   2.965   7.345   3.994 -0.1194 -2.5856 -0.5200
12784SOL    HW239794   2.850   7.324   3.898 -0.1088 -0.2936 -1.0822
12785SOL     OW39795   4.340   0.941   5.468 -0.3538  0.0708 -0.1780
12785SOL    HW139796   4.248   0.956   5.492 -1.1249 -2.2280 -1.3910
12785SOL    HW239797   4.364   1.017   5.416 -1.6055  0.6827  0.0940
12786SOL     OW39798   4.487   7.693   6.092  0.0700 -0.3878 -0.5390
12786SOL    HW139799   4.415   7.733   6.042 -0.7840 -0.1854  0.8199
12786SOL    HW239800   4.455   7.606   6.115  0.6016 -0.6075 -0.6188
12787SOL     OW39801   5.959   0.658   6.856  0.1752 -0.1822  0.2094
12787SOL    HW139802   5.922   0.570   6.854  0.5118 -0.3194 -0.0776
12787SOL    HW239803   5.950   0.690   6.767  0.5093 -0.1172  0.1981
12788SOL     OW39804   5.043   8.000   5.773  0.1869  0.6462  0.3656
12788SOL    HW139805   5.105   8.071   5.757 -1.2750  2.2967  1.6148
12788SOL    HW239806   4.967   8.021   5.718 -0.7941  0.8559  1.7189
12789SOL     OW39807   2.075   0.763   4.477 -0.6384 -0.4477  0.3799
12789SOL    HW139808   2.080   0.815   4.557 -1.0639 -0.3892  0.3716
12789SOL    HW239809   1.986   0.728   4.477 -0.7584 -0.1444 -0.2559
12790SOL     OW39810   4.234   0.446   7.259 -1.1684 -0.4999  0.4222
12790SOL    HW139811   4.271   0.417   7.342 -0.5601 -0.6420  0.1014
12790SOL    HW239812   4.193   0.530   7.280  0.4230  0.2947  0.5209
12791SOL     OW39813   2.364   0.032   6.873 -0.0834  0.6496 -0.2338
12791SOL    HW139814   2.307   0.072   6.939 -0.6976  0.1289 -0.4405
12791SOL    HW239815   2.408   0.106   6.831  0.0273  1.0055  0.4975
12792SOL     OW39816   5.772   1.012   5.195 -0.1315 -0.2294 -0.1014
12792SOL    HW139817   5.718   0.934   5.209  1.8276 -1.6720 -0.2025
12792SOL    HW239818   5.711   1.077   5.160 -1.8984 -1.5828  0.2994
12793SOL     OW39819   6.308   2.274   6.677  0.1698  0.1807  0.6221
12793SOL    HW139820   6.224   2.231   6.660 -1.0739  2.6049  0.0277
12793SOL    HW239821   6.303   2.355   6.626  2.5815  0.7621  1.2028
12794SOL     OW39822   2.361   1.009   3.999 -0.0757  0.2858  0.1068
12794SOL    HW139823   2.413   1.016   4.079 -0.3876  0.1866  0.3201
12794SOL    HW239824   2.399   1.074   3.940 -0.4161  0.9931  0.6524
12795SOL     OW39825   6.567   7.932   6.119 -0.4172 -0.0455 -0.2193
12795SOL    HW139826   6.616   8.006   6.083 -1.6243  1.4210  0.9982
12795SOL    HW239827   6.591   7.930   6.211  0.5810 -2.0504 -0.4740
12796SOL     OW39828   3.464   2.083   8.105  0.8791 -0.1192  0.5726
12796SOL    HW139829   3.517   2.120   8.034 -0.6521  0.6631 -0.2004
12796SOL    HW239830   3.434   2.159   8.155 -2.8809 -0.0244 -1.4371
12797SOL     OW39831   4.322   1.943   5.474 -0.1519  0.3248 -0.4234
12797SOL    HW139832   4.310   1.919   5.565 -1.4863  1.9810 -0.1081
12797SOL    HW239833   4.411   1.915   5.453  0.1230 -0.2257  1.3218
12798SOL     OW39834   3.489   0.904   7.439  0.3023  0.4273 -0.7870
12798SOL    HW139835   3.565   0.863   7.481  0.2010 -0.1521 -1.1487
12798SOL    HW239836   3.527   0.956   7.368  0.2745 -1.8100 -2.5805
12799SOL     OW39837   5.319   2.475   4.920  0.4014  0.2676  0.5708
12799SOL    HW139838   5.333   2.547   4.858 -0.7307  1.2841  1.4464
12799SOL    HW239839   5.345   2.512   5.005 -1.1938  0.0084  1.1954
12800SOL     OW39840   2.183   1.717   5.995 -0.2745  0.6807 -0.2351
12800SOL    HW139841   2.234   1.709   5.914 -0.3075  0.5640 -0.2453
12800SOL    HW239842   2.200   1.635   6.042  0.6928  1.2453  0.4332
12801SOL     OW39843   4.339   6.942   5.133 -0.9123  0.3758  0.1700
12801SOL    HW139844   4.246   6.946   5.112 -1.4864 -0.8361  2.2260
12801SOL    HW239845   4.363   7.033   5.152 -2.3214  0.4541  1.9169
12802SOL     OW39846   4.105   1.431   7.492  0.1562  0.0664 -0.1638
12802SOL    HW139847   4.108   1.345   7.534 -0.7683  1.1904  2.4224
12802SOL    HW239848   4.170   1.483   7.540  0.7753  0.8135 -1.7519
12803SOL     OW39849   3.614   2.617   5.847  0.3534  0.1274  0.0035
12803SOL    HW139850   3.552   2.597   5.917 -0.4574  1.1462 -0.3793
12803SOL    HW239851   3.692   2.648   5.891  0.0291  0.2810  0.4770
12804SOL     OW39852   1.631   0.145   5.298  0.7732  0.3241 -0.0584
12804SOL    HW139853   1.689   0.203   5.249  0.9059 -0.3557 -0.7201
12804SOL    HW239854   1.578   0.102   5.231 -1.9243  2.3468  0.5905
12805SOL     OW39855   6.137   1.542   7.102 -0.4274  0.1475  0.0009
12805SOL    HW139856   6.092   1.570   7.181 -1.5818  1.4571 -1.0845
12805SOL    HW239857   6.166   1.623   7.060  1.0680 -0.5744 -0.4250
12806SOL     OW39858   4.968   7.459   6.192 -0.1505 -0.0097  0.1662
12806SOL    HW139859   5.050   7.419   6.163  0.5441  1.3251  0.1938
12806SOL    HW239860   4.991   7.506   6.272 -0.5271  1.7909 -0.7319
12807SOL     OW39861   2.616   2.169   8.170 -0.2710 -0.5983  0.0929
12807SOL    HW139862   2.534   2.201   8.132  0.1440 -0.9927 -1.1792
12807SOL    HW239863   2.646   2.241   8.226 -0.6298  0.2395 -0.7628
12808SOL     OW39864   4.778   0.332   7.673  0.1576  0.4474 -0.2048
12808SOL    HW139865   4.686   0.308   7.688  0.1446 -0.1012 -1.0909
12808SOL    HW239866   4.817   0.331   7.761 -0.4387 -0.3534  0.0737
12809SOL     OW39867   4.393   7.959   6.295 -0.3288  0.3576 -0.5925
12809SOL    HW139868   4.371   7.903   6.370  0.7656 -0.8072 -1.1103
12809SOL    HW239869   4.325   7.939   6.230  0.2985 -0.7508 -0.9418
12810SOL     OW39870   3.432   3.010   6.189 -0.1074 -0.0010  0.0447
12810SOL    HW139871   3.495   3.055   6.245  0.2340 -0.3093 -0.0954
12810SOL    HW239872   3.463   3.026   6.100  0.2890 -0.9281  0.0127
12811SOL     OW39873   3.786   0.931   8.592  0.8906  0.2282 -0.3101
12811SOL    HW139874   3.736   0.866   8.542 -1.0916  1.6872 -0.3471
12811SOL    HW239875   3.870   0.889   8.608 -0.7197 -2.8961  0.8238
12812SOL     OW39876   4.974   6.768   7.074  0.2197 -0.6100  0.0904
12812SOL    HW139877   5.001   6.677   7.067  1.3236 -0.4534  1.6908
12812SOL    HW239878   5.053   6.818   7.053 -0.2434 -0.0185 -0.2925
12813SOL     OW39879   2.002   0.027   6.108 -0.2830  0.1098  0.3243
12813SOL    HW139880   2.096   0.021   6.126 -0.2106 -0.1274 -0.1249
12813SOL    HW239881   1.960   0.009   6.192  0.0962  1.7142  0.8902
12814SOL     OW39882   2.678   7.958   5.341  0.2632  0.4610 -0.3429
12814SOL    HW139883   2.746   8.003   5.291  1.8126 -0.9791  0.3785
12814SOL    HW239884   2.636   7.900   5.277 -1.4068  2.4348 -1.1569
12815SOL     OW39885   4.277   7.303   8.570 -0.3230 -0.5224  0.6168
12815SOL    HW139886   4.262   7.226   8.515  0.0735  0.1592 -0.4787
12815SOL    HW239887   4.340   7.356   8.520 -1.3847  1.0072  0.8435
12816SOL     OW39888   5.651   6.629   7.226 -0.3900 -0.5663  0.5560
12816SOL    HW139889   5.615   6.558   7.172 -0.5861  0.5183 -0.8035
12816SOL    HW239890   5.745   6.627   7.209 -0.4040 -0.4609  0.4646
12817SOL     OW39891   4.590   1.365   9.455 -0.1023  0.0581  0.0236
12817SOL    HW139892   4.641   1.285   9.444 -1.1794 -0.4765 -1.4610
12817SOL    HW239893   4.654   1.430   9.484  0.9034 -1.1800  0.7029
12818SOL     OW39894   3.807   0.190   5.985  0.6040 -0.4726  0.4974
12818SOL    HW139895   3.828   0.125   5.918 -2.9249 -0.9278 -0.3794
12818SOL    HW239896   3.741   0.148   6.040 -0.2674  1.6230  1.1573
12819SOL     OW39897   3.193   2.489   7.419 -0.3990  0.4189 -0.1491
12819SOL    HW139898   3.241   2.511   7.499 -2.4875  1.4445  0.8913
12819SOL    HW239899   3.255   2.507   7.348  0.1722  3.6674  0.9964
12820SOL     OW39900   2.823   5.335   4.017 -0.0806  0.1958  0.2910
12820SOL    HW139901   2.853   5.371   4.101 -0.3429 -0.9559  0.9072
12820SOL    HW239902   2.846   5.242   4.022 -1.6798 -0.2527 -0.1662
12821SOL     OW39903   4.330   0.131   6.713 -0.4724 -0.3531  0.6390
12821SOL    HW139904   4.278   0.051   6.708 -0.5800 -0.2769  0.5200
12821SOL    HW239905   4.352   0.152   6.622 -0.2514 -0.3723  0.6860
12822SOL     OW39906   3.229   6.610   5.516 -0.0127  1.0902  0.0988
12822SOL    HW139907   3.283   6.608   5.595 -0.2062  1.5400  0.2436
12822SOL    HW239908   3.255   6.690   5.470  1.5783 -0.1984 -1.3532
12823SOL     OW39909   4.980   1.262   6.900 -0.3984  0.0246 -0.7035
12823SOL    HW139910   4.981   1.256   6.995 -1.1192 -0.5342 -0.7227
12823SOL    HW239911   4.972   1.355   6.881 -2.3936  0.0131 -0.1731
12824SOL     OW39912   4.193   0.036   7.024 -0.3865 -0.2571  0.3312
12824SOL    HW139913   4.211   0.044   6.931 -1.1011  0.3171  0.2349
12824SOL    HW239914   4.279   0.036   7.066 -0.0844  0.0729 -0.2841
12825SOL     OW39915   5.228   0.464   7.780  0.5773  0.8269 -0.2411
12825SOL    HW139916   5.258   0.398   7.717  1.0896  0.0385  0.7971
12825SOL    HW239917   5.308   0.510   7.806  0.6433 -0.0140  1.1170
12826SOL     OW39918   5.294   0.676   7.132 -0.2989 -0.2922  0.3747
12826SOL    HW139919   5.202   0.652   7.137 -0.5410  0.6293  0.4690
12826SOL    HW239920   5.296   0.770   7.153  0.7893 -0.5531  1.5381
12827SOL     OW39921   4.568   1.095   7.483 -0.1922  0.2662 -0.3973
12827SOL    HW139922   4.498   1.159   7.498  0.1203  0.6503 -0.5569
12827SOL    HW239923   4.564   1.037   7.559 -0.3556  0.5917 -0.1551
12828SOL     OW39924   2.998   1.824   6.457  0.4564  0.1812 -0.1183
12828SOL    HW139925   3.046   1.768   6.517  0.5242  2.1939  1.8491
12828SOL    HW239926   3.050   1.824   6.377  1.7670 -0.5537  0.6925
12829SOL     OW39927   5.455   0.578   5.201 -0.6084  0.2891  0.4681
12829SOL    HW139928   5.420   0.513   5.141 -1.5835  0.2830  1.0285
12829SOL    HW239929   5.382   0.600   5.259 -0.2587  1.7577  0.3952
12830SOL     OW39930   5.093   0.047   6.815 -0.2363 -0.0404  0.2932
12830SOL    HW139931   5.081  -0.045   6.837 -0.1063  0.1897  1.3664
12830SOL    HW239932   5.062   0.055   6.724 -1.1532 -0.9337  0.5210
12831SOL     OW39933   3.354   0.734   5.762  0.0295  0.5443  0.5305
12831SOL    HW139934   3.266   0.748   5.728 -0.2420  0.7607  1.3087
12831SOL    HW239935   3.411   0.746   5.686 -0.4455  2.4463  0.4216
12832SOL     OW39936   3.770   0.350   5.240 -0.3666  0.1726  0.1941
12832SOL    HW139937   3.687   0.311   5.269 -0.5617 -0.7643 -1.4509
12832SOL    HW239938   3.779   0.321   5.149  2.4946 -0.9909  0.7394
12833SOL     OW39939   4.369   7.321   7.766 -0.2558  0.3100 -0.0892
12833SOL    HW139940   4.459   7.340   7.737  0.2705 -1.6264  0.1529
12833SOL    HW239941   4.371   7.229   7.792 -2.0294  0.5649  1.0929
12834SOL     OW39942   5.939   3.206   7.308 -0.2272  0.1299 -0.3718
12834SOL    HW139943   5.924   3.238   7.219 -1.0967 -1.1053 -0.6947
12834SOL    HW239944   5.983   3.278   7.352 -1.6257  1.5667 -1.2100
12835SOL     OW39945   3.003   1.132   6.608  0.0239  0.7684  0.4645
12835SOL    HW139946   2.948   1.211   6.611  2.0751  2.3821 -1.2139
12835SOL    HW239947   3.090   1.165   6.588  1.1701 -1.8881  0.7521
12836SOL     OW39948   5.604   7.869   6.085 -0.1028  0.5012  0.0431
12836SOL    HW139949   5.569   7.840   6.001 -0.1132  2.0908 -0.5491
12836SOL    HW239950   5.528   7.872   6.143 -0.0383 -0.9384  0.2408
12837SOL     OW39951   4.960   7.432   8.345 -0.2670 -0.6240  0.6304
12837SOL    HW139952   5.000   7.513   8.376  0.3219 -1.2930  1.6727
12837SOL    HW239953   5.002   7.414   8.261 -0.2626  0.0333  0.4887
12838SOL     OW39954   5.356   7.431   7.488  0.2390  0.2814 -0.2529
12838SOL    HW139955   5.433   7.403   7.538 -0.9032 -0.8546  0.9380
12838SOL    HW239956   5.373   7.401   7.399  0.6364 -1.0778  0.2616
12839SOL     OW39957   3.074   0.491   5.791 -0.3908  0.5441 -0.3491
12839SOL    HW139958   3.144   0.432   5.765 -0.9363 -0.1538 -0.2591
12839SOL    HW239959   3.116   0.553   5.851  0.6900  1.6696 -2.2072
12840SOL     OW39960   2.648   1.373   8.069 -0.0195  0.8738  0.1800
12840SOL    HW139961   2.564   1.353   8.028  0.9839 -1.2123 -1.0379
12840SOL    HW239962   2.662   1.466   8.051 -1.8518  1.1531  0.0490
12841SOL     OW39963   5.232   0.440   6.000 -0.1722 -0.3636 -0.4514
12841SOL    HW139964   5.287   0.482   5.934  0.2986  1.0140  0.7486
12841SOL    HW239965   5.227   0.504   6.071 -1.1507 -1.5473  0.6016
12842SOL     OW39966   1.786   0.772   7.370  0.0188  0.3136 -0.2948
12842SOL    HW139967   1.865   0.717   7.378 -0.6725 -0.6648  0.0811
12842SOL    HW239968   1.739   0.736   7.295  1.2255  2.6469 -2.2937
12843SOL     OW39969   2.463   0.593   6.241  0.1019  0.5861 -0.3522
12843SOL    HW139970   2.456   0.515   6.186 -3.4773  0.2822  0.3259
12843SOL    HW239971   2.393   0.650   6.211  1.9271  3.1762 -0.0870
12844SOL     OW39972   3.935   1.277   5.479 -0.0527  0.3233 -0.0037
12844SOL    HW139973   3.925   1.266   5.384 -0.3401 -0.5860  0.1263
12844SOL    HW239974   3.920   1.370   5.494 -1.6737  0.1925 -0.6427
12845SOL     OW39975   5.758   2.206   6.385 -0.0817 -0.3720 -0.7082
12845SOL    HW139976   5.769   2.233   6.477 -1.9346 -1.8048  0.0034
12845SOL    HW239977   5.780   2.284   6.335  0.9753  0.4626  0.9496
12846SOL     OW39978   5.239   7.094   7.648 -0.6009 -0.0836 -0.0577
12846SOL    HW139979   5.155   7.139   7.636  0.0102  1.3960  1.0122
12846SOL    HW239980   5.246   7.082   7.742  0.7229  0.4593 -0.0749
12847SOL     OW39981   7.034   0.628   6.412  0.1666 -0.5672 -0.1434
12847SOL    HW139982   7.071   0.709   6.447 -2.6952  0.5481  0.6154
12847SOL    HW239983   7.096   0.599   6.345  1.1937  2.3444 -0.5611
12848SOL     OW39984   4.372   0.690   7.835 -0.4984 -0.2364 -0.1212
12848SOL    HW139985   4.459   0.729   7.845 -0.3690 -0.1135 -1.5138
12848SOL    HW239986   4.313   0.766   7.828 -0.8513 -0.3115  1.5949
12849SOL     OW39987   5.115   0.651   7.534 -0.2390 -0.7629 -0.0950
12849SOL    HW139988   5.068   0.569   7.554  0.4397 -1.1314  0.0203
12849SOL    HW239989   5.089   0.672   7.444  0.3008 -1.6163 -0.4678
12850SOL     OW39990   3.475   2.119   7.423 -0.0691  0.4323  0.0751
12850SOL    HW139991   3.480   2.190   7.487 -0.4317  0.4409  0.0996
12850SOL    HW239992   3.566   2.093   7.408  0.0083  0.3396  0.6907
12851SOL     OW39993   4.957   0.437   7.489 -0.4146 -0.3551 -0.4834
12851SOL    HW139994   4.972   0.379   7.414 -0.5692  0.5812 -1.2455
12851SOL    HW239995   4.903   0.385   7.549  0.8649 -1.6217 -0.3669
12852SOL     OW39996   3.533   0.039   5.870 -0.2086  0.0821  0.4333
12852SOL    HW139997   3.545  -0.033   5.932  1.0999  1.0304  1.3359
12852SOL    HW239998   3.459   0.088   5.905  0.5277  0.6166  1.2814
12853SOL     OW39999   4.817   1.793   6.047 -0.0849 -0.5577 -0.6226
12853SOL    HW140000   4.836   1.747   6.128 -1.7301  0.5089  0.4307
12853SOL    HW240001   4.888   1.856   6.038  0.1540 -0.7363 -0.0572
12854SOL     OW40002   4.707   7.269   6.633 -0.3716  0.2260 -0.5008
12854SOL    HW140003   4.691   7.189   6.583 -2.2956  1.1712 -1.4963
12854SOL    HW240004   4.776   7.314   6.583 -0.6371  0.0780 -1.0072
12855SOL     OW40005   5.112   0.335   6.668 -0.0592 -0.1890  0.4440
12855SOL    HW140006   5.031   0.377   6.639 -1.1395 -2.4607  0.0194
12855SOL    HW240007   5.181   0.389   6.629 -1.1417  3.3267  2.8852
12856SOL     OW40008   2.472   0.177   5.873  0.5834 -0.2962  0.1363
12856SOL    HW140009   2.498   0.106   5.814 -0.7907 -2.0639  1.5484
12856SOL    HW240010   2.460   0.135   5.958  0.0908  1.7217  1.1339
12857SOL     OW40011   2.053   0.468   4.989  0.3010  0.0674 -0.5246
12857SOL    HW140012   2.074   0.435   4.902  2.4223 -0.4095  0.0971
12857SOL    HW240013   2.137   0.498   5.024 -0.4446  0.0195  1.4349
12858SOL     OW40014   5.228   0.329   6.899 -0.0177 -0.5120 -0.4420
12858SOL    HW140015   5.199   0.293   6.815  1.6755  0.5194 -1.5393
12858SOL    HW240016   5.204   0.422   6.894  1.9226  0.0096 -0.7087
12859SOL     OW40017   1.723   7.776   4.574  0.5293  0.1542  0.0855
12859SOL    HW140018   1.760   7.689   4.559  0.3846 -0.2163  1.6605
12859SOL    HW240019   1.628   7.764   4.567  0.3927 -0.2330  1.9610
12860SOL     OW40020   7.555   6.552   5.071 -0.0435  0.1371 -0.6013
12860SOL    HW140021   7.494   6.563   5.145 -0.1809 -0.0238 -0.6901
12860SOL    HW240022   7.543   6.461   5.044  0.7877 -0.1133 -0.1414
12861SOL     OW40023   5.577   0.195   3.975  0.2442  0.1301 -0.6475
12861SOL    HW140024   5.663   0.217   4.012 -0.8805  2.2431  0.9371
12861SOL    HW240025   5.540   0.280   3.950 -1.7139 -0.6471 -0.5463
12862SOL     OW40026   4.269   1.123   8.184 -0.6104 -0.0686  0.5527
12862SOL    HW140027   4.234   1.070   8.256  1.0649 -1.6560  0.2761
12862SOL    HW240028   4.359   1.144   8.211 -1.0059  2.1131  0.3311
12863SOL     OW40029   6.340   1.472   8.094 -0.4052 -0.3953 -0.3296
12863SOL    HW140030   6.288   1.464   8.014  2.6720  0.2294 -2.5705
12863SOL    HW240031   6.344   1.382   8.128 -2.1601 -0.5931 -0.5291
12864SOL     OW40032   4.669   7.833   6.259  0.0250 -0.0583 -0.4891
12864SOL    HW140033   4.744   7.786   6.225  0.8223  1.9006 -1.5858
12864SOL    HW240034   4.595   7.806   6.204  0.3948 -0.2390 -0.8937
12865SOL     OW40035   5.704   0.339   4.771  0.1959 -0.6288 -0.1993
12865SOL    HW140036   5.736   0.251   4.792  2.1923 -0.0409 -0.5217
12865SOL    HW240037   5.642   0.360   4.840  1.2452 -1.5073  1.0600
12866SOL     OW40038   7.875   0.453   5.526  0.1079 -0.4082  0.0522
12866SOL    HW140039   7.868   0.423   5.616  1.1770 -0.4004  0.1416
12866SOL    HW240040   7.921   0.537   5.532  1.5689 -1.1318 -0.6213
12867SOL     OW40041   4.232   0.460   5.228  0.0432  0.2415  0.0847
12867SOL    HW140042   4.211   0.469   5.135 -0.4956  0.0737  0.1860
12867SOL    HW240043   4.197   0.374   5.252 -0.1831  0.4602  0.5411
12868SOL     OW40044   4.200   0.729   6.594  0.0963 -0.2177  0.3833
12868SOL    HW140045   4.274   0.744   6.653  0.7049 -0.7282 -0.2450
12868SOL    HW240046   4.239   0.696   6.513 -0.7510  0.2429 -0.2319
12869SOL     OW40047   2.802   0.630   6.890  0.2527 -0.2448 -0.4653
12869SOL    HW140048   2.824   0.685   6.814  0.8541 -0.3749 -0.3850
12869SOL    HW240049   2.885   0.590   6.916  0.4399  1.2377  1.4262
12870SOL     OW40050   5.506   7.357   8.461  0.5193 -0.4420 -0.5307
12870SOL    HW140051   5.448   7.408   8.518 -0.0358 -0.5602 -0.9839
12870SOL    HW240052   5.494   7.266   8.490 -1.3272 -0.7845 -2.1214
12871SOL     OW40053   7.900   0.544   7.210 -0.1117 -0.0803 -0.6569
12871SOL    HW140054   7.883   0.464   7.160 -0.9194  0.7628 -1.7748
12871SOL    HW240055   7.858   0.530   7.294 -2.2607  0.0472 -1.6604
12872SOL     OW40056   2.859   7.767   5.183 -0.7295  0.1853 -0.1917
12872SOL    HW140057   2.767   7.795   5.185 -0.2215  2.0897 -1.5745
12872SOL    HW240058   2.901   7.827   5.121  1.6826  0.0263  1.2071
12873SOL     OW40059   4.514   1.551   6.384 -0.3719  0.1290 -0.0298
12873SOL    HW140060   4.547   1.473   6.427  0.2774  0.7191  0.5735
12873SOL    HW240061   4.567   1.559   6.304  0.2031  0.4499  0.3725
12874SOL     OW40062   5.006   2.400   8.203  0.3148 -0.4705  0.2496
12874SOL    HW140063   4.930   2.345   8.222 -0.2728  0.9455  2.3419
12874SOL    HW240064   5.065   2.385   8.277  1.1013  0.1174 -0.2425
12875SOL     OW40065   4.994   0.931   6.991  0.1825  0.3596 -0.5648
12875SOL    HW140066   4.973   0.842   6.961 -1.5318  0.7630 -0.6379
12875SOL    HW240067   4.920   0.984   6.963 -0.3248  1.2391  2.1757
12876SOL     OW40068   4.495   0.428   7.132  0.5328 -0.1695  0.5518
12876SOL    HW140069   4.406   0.417   7.166  0.2332  0.3966 -0.0057
12876SOL    HW240070   4.496   0.378   7.051  0.9200 -0.6837  0.8748
12877SOL     OW40071   3.533   0.191   7.680  0.2372 -0.0167 -0.3473
12877SOL    HW140072   3.529   0.106   7.726  1.1391  0.1346  0.0415
12877SOL    HW240073   3.579   0.172   7.598  3.1757  0.5561  1.0081
12878SOL     OW40074   4.220   0.913   7.844 -0.6250 -0.0157  0.4857
12878SOL    HW140075   4.282   0.918   7.917  0.7549 -1.4139 -0.5142
12878SOL    HW240076   4.229   0.996   7.798  0.4720 -0.1577  0.4222
12879SOL     OW40077   4.839   6.848   5.940  0.4081 -0.7103 -0.0588
12879SOL    HW140078   4.750   6.811   5.938 -0.4839  1.1617  1.6515
12879SOL    HW240079   4.879   6.817   5.859 -2.6627  0.3821 -2.2061
12880SOL     OW40080   7.325   0.126   5.312  0.4273  0.6200  0.1248
12880SOL    HW140081   7.414   0.138   5.280  0.0142  0.0141 -1.3724
12880SOL    HW240082   7.311   0.031   5.306 -0.4393  0.7513 -0.0176
12881SOL     OW40083   3.038   0.198   8.976  0.2468 -0.0452  0.2257
12881SOL    HW140084   3.129   0.203   9.006  0.1823  0.0332  0.4063
12881SOL    HW240085   3.037   0.247   8.894  0.1488  0.8294  0.7342
12882SOL     OW40086   2.823   6.214   6.875  0.2903  0.0881 -0.3675
12882SOL    HW140087   2.786   6.163   6.803  0.2200 -0.0860 -0.2061
12882SOL    HW240088   2.908   6.245   6.841 -0.7998  2.0959 -1.4642
12883SOL     OW40089   2.903   2.071   7.256 -0.1663  0.3828 -0.0427
12883SOL    HW140090   2.956   2.149   7.237 -0.4565  0.6999  0.4178
12883SOL    HW240091   2.841   2.100   7.323 -0.4937 -0.1600 -0.1025
12884SOL     OW40092   2.691   7.011   3.126 -0.1055 -0.0503 -0.8977
12884SOL    HW140093   2.758   7.064   3.169  0.5001 -1.0743 -0.5264
12884SOL    HW240094   2.736   6.929   3.105 -0.8838 -0.2505 -1.8755
12885SOL     OW40095   3.442   2.780   7.847  0.3364  0.2072 -0.6245
12885SOL    HW140096   3.491   2.752   7.925  2.5088  1.6753 -1.3640
12885SOL    HW240097   3.470   2.870   7.833  0.8233 -0.3225 -3.6731
12886SOL     OW40098   4.897   1.512   5.370  0.2809  0.5086  0.2288
12886SOL    HW140099   4.886   1.560   5.452 -2.0003 -1.6626  1.3279
12886SOL    HW240100   4.986   1.476   5.376  0.0654  0.1559  1.9230
12887SOL     OW40101   4.999   7.620   5.567  0.3020  0.2505 -0.4435
12887SOL    HW140102   4.906   7.624   5.545 -0.1095 -2.1226  0.5275
12887SOL    HW240103   5.003   7.562   5.643  2.6854 -0.8577 -1.3220
12888SOL     OW40104   3.609   2.597   6.170 -0.1575 -0.0004  0.4957
12888SOL    HW140105   3.617   2.593   6.265 -0.7576  2.2365  0.7108
12888SOL    HW240106   3.669   2.667   6.144  1.2436 -1.6850 -1.0065
12889SOL     OW40107   5.280   1.454   6.174 -0.1516 -0.1932 -0.0210
12889SOL    HW140108   5.217   1.423   6.238 -0.0539  1.7128  1.0475
12889SOL    HW240109   5.267   1.549   6.170  2.0599  0.1538 -0.3884
12890SOL     OW40110   6.863   0.698   6.211 -0.2346  0.1377 -0.3401
12890SOL    HW140111   6.945   0.678   6.165  1.1255  1.1789  1.4929
12890SOL    HW240112   6.876   0.664   6.300 -1.7600  0.4367  0.0283
12891SOL     OW40113   5.429   1.156   6.176  0.1972 -0.2893 -0.6600
12891SOL    HW140114   5.479   1.099   6.118 -0.1463 -1.3445  0.0415
12891SOL    HW240115   5.475   1.240   6.175  2.6028 -1.4914  0.7593
12892SOL     OW40116   6.042   7.003   6.287 -0.4854  0.0324 -0.6293
12892SOL    HW140117   6.083   7.087   6.270  0.0514 -0.2477 -0.7580
12892SOL    HW240118   6.074   6.978   6.374 -1.1263  0.2388 -0.3250
12893SOL     OW40119   4.824   3.459   6.765  0.2877  0.4295 -0.3846
12893SOL    HW140120   4.869   3.448   6.682 -0.4746  1.5903 -0.9787
12893SOL    HW240121   4.867   3.534   6.806 -0.7903  1.2815 -0.7652
12894SOL     OW40122   5.437   0.619   7.883 -0.6473 -0.0853 -0.4191
12894SOL    HW140123   5.386   0.685   7.836 -0.8422  1.5363  1.8651
12894SOL    HW240124   5.528   0.650   7.876 -0.8192  0.9644  1.3007
12895SOL     OW40125   5.178   0.561   5.652 -0.0274  0.1623 -0.1574
12895SOL    HW140126   5.089   0.527   5.646  0.3135 -0.5026 -2.0017
12895SOL    HW240127   5.173   0.649   5.614  0.1573 -0.0067 -0.5795
12896SOL     OW40128   3.448   0.402   7.462  0.1082  0.0975  0.4552
12896SOL    HW140129   3.413   0.312   7.459 -0.1573  0.2081  0.1853
12896SOL    HW240130   3.525   0.399   7.405  0.6895 -0.2050  1.2340
12897SOL     OW40131   4.297   0.618   6.370 -0.2450  0.0149  0.0385
12897SOL    HW140132   4.251   0.671   6.305 -0.3236  1.2843  1.0893
12897SOL    HW240133   4.299   0.530   6.332  0.1364  0.8021 -1.8875
12898SOL     OW40134   5.016   1.349   7.754 -0.0285  0.6398 -0.3283
12898SOL    HW140135   5.043   1.440   7.762 -0.3449  0.7458 -0.4755
12898SOL    HW240136   5.003   1.320   7.845  2.7136 -0.0691 -0.0731
12899SOL     OW40137   5.965   0.483   5.774  0.4811 -0.5692 -0.7514
12899SOL    HW140138   5.982   0.388   5.779  1.2526 -0.4008  0.3131
12899SOL    HW240139   6.010   0.511   5.694 -0.2567 -1.1804 -1.4039
12900SOL     OW40140   3.519   7.600   5.144  0.1323  0.1457  0.2918
12900SOL    HW140141   3.430   7.569   5.130 -0.0635  1.4884 -1.9335
12900SOL    HW240142   3.548   7.555   5.223 -2.5097 -0.3007  1.1111
12901SOL     OW40143   6.345   1.213   5.241  0.2575 -0.0788 -0.3464
12901SOL    HW140144   6.374   1.163   5.164 -1.0698 -0.7135 -0.4655
12901SOL    HW240145   6.416   1.275   5.257  0.3537  0.4051 -2.3827
12902SOL     OW40146   2.920   1.205   7.373  0.2754 -0.1336 -0.0045
12902SOL    HW140147   2.972   1.135   7.411  0.9854 -0.8186 -2.1279
12902SOL    HW240148   2.912   1.183   7.281 -1.8941  1.1352 -0.2064
12903SOL     OW40149   5.482   0.446   4.934  0.5922  0.1983 -0.3567
12903SOL    HW140150   5.388   0.430   4.932  0.7855 -1.6032  1.2638
12903SOL    HW240151   5.492   0.536   4.905 -1.3913 -0.2890 -3.0147
12904SOL     OW40152   3.820   2.830   5.612  0.1141 -0.2550 -0.7179
12904SOL    HW140153   3.812   2.919   5.645  2.3636 -0.8741  1.9008
12904SOL    HW240154   3.877   2.838   5.535  0.4804  0.5442 -0.3745
12905SOL     OW40155   3.392   1.167   7.818  0.3415 -0.5186 -0.1137
12905SOL    HW140156   3.314   1.191   7.768 -1.9440 -0.5987  3.0973
12905SOL    HW240157   3.440   1.250   7.827  0.0922 -0.2365 -1.2156
12906SOL     OW40158   6.080   1.304   6.643  0.3453 -0.3337 -0.2574
12906SOL    HW140159   5.999   1.319   6.594 -1.0634 -1.0267  1.7163
12906SOL    HW240160   6.066   1.348   6.726  1.1456 -2.1477  0.9039
12907SOL     OW40161   6.345   0.890   6.210  0.0938  0.4140  0.0496
12907SOL    HW140162   6.304   0.870   6.125  0.6334  1.5196 -0.4816
12907SOL    HW240163   6.402   0.815   6.227 -0.6966 -0.2463 -0.1088
12908SOL     OW40164   4.298   0.613   5.443 -0.1681 -0.6378  0.5587
12908SOL    HW140165   4.264   0.695   5.406  0.0543 -1.2742 -1.0993
12908SOL    HW240166   4.279   0.547   5.377  1.2296 -1.6272  1.1118
12909SOL     OW40167   4.053   2.779   7.722 -0.6209 -0.4041  0.0094
12909SOL    HW140168   4.006   2.860   7.699  0.3616  0.2460  0.2056
12909SOL    HW240169   4.066   2.786   7.817  0.7178 -0.0918 -0.1853
12910SOL     OW40170   5.174   0.739   6.639  0.5652  0.1639  0.3914
12910SOL    HW140171   5.091   0.776   6.666  0.7859  0.3482  0.8180
12910SOL    HW240172   5.217   0.711   6.720  1.2976  0.8741  0.2592
12911SOL     OW40173   2.796   0.741   4.102 -0.0491  0.6764  0.2086
12911SOL    HW140174   2.763   0.674   4.041  0.6155 -0.3336  0.9176
12911SOL    HW240175   2.891   0.739   4.091 -0.0140  1.4500  0.3102
12912SOL     OW40176   3.545   2.661   8.857  0.1340 -0.2793 -0.8871
12912SOL    HW140177   3.629   2.617   8.848  0.6812  0.6277 -0.3042
12912SOL    HW240178   3.525   2.693   8.769  1.2785  1.0451 -0.6962
12913SOL     OW40179   4.689   5.203   7.053 -0.0186  0.0491  0.3394
12913SOL    HW140180   4.781   5.207   7.079 -0.3483 -0.0988  1.5846
12913SOL    HW240181   4.689   5.226   6.960  1.2524  0.2304  0.3732
12914SOL     OW40182   3.846   7.212   6.955  1.0042 -0.2012  0.9230
12914SOL    HW140183   3.759   7.195   6.918  1.4289 -1.9510  0.6160
12914SOL    HW240184   3.836   7.193   7.048  0.4230  2.3039  1.4504
12915SOL     OW40185   4.812   7.377   5.959  0.0289 -0.2051  0.0823
12915SOL    HW140186   4.718   7.366   5.947  0.1702 -0.9455 -0.3850
12915SOL    HW240187   4.822   7.395   6.053 -0.4447 -1.7221  0.4492
12916SOL     OW40188   2.718   6.073   6.172  0.2372 -0.0408 -0.1262
12916SOL    HW140189   2.791   6.079   6.110  0.5401 -0.0052  0.2329
12916SOL    HW240190   2.674   6.157   6.163 -1.6872 -1.1613 -2.6774
12917SOL     OW40191   4.544   0.740   6.473  0.0295 -0.0405  0.1416
12917SOL    HW140192   4.515   0.781   6.554  0.0212  0.7383 -0.2441
12917SOL    HW240193   4.464   0.708   6.432 -0.3611  2.1056 -0.9203
12918SOL     OW40194   4.438   0.478   6.066  0.2271  0.0594  0.4932
12918SOL    HW140195   4.493   0.448   5.994  2.6267  0.3276  2.1048
12918SOL    HW240196   4.405   0.563   6.037  0.9253  0.0316 -0.4178
12919SOL     OW40197   4.533   0.143   6.152  0.0223 -0.3978 -0.2670
12919SOL    HW140198   4.467   0.194   6.104  0.5587  0.5652 -0.0039
12919SOL    HW240199   4.482   0.084   6.208 -0.6090 -0.9935 -1.4421
12920SOL     OW40200   3.763   0.863   9.545  0.1046 -0.2033  0.8158
12920SOL    HW140201   3.714   0.805   9.488 -0.5052  0.8372  0.2493
12920SOL    HW240202   3.842   0.813   9.568 -0.1141 -1.0209 -0.1289
12921SOL     OW40203   6.199   0.696   6.957  0.1430  0.1881 -0.3468
12921SOL    HW140204   6.239   0.754   6.892 -0.1705 -0.7260 -1.3707
12921SOL    HW240205   6.105   0.704   6.941 -0.0153  0.8209  0.7635
12922SOL     OW40206   4.926   1.654   7.086 -0.0959  0.3970 -0.2310
12922SOL    HW140207   4.880   1.614   7.160 -0.6774  0.1768 -0.6974
12922SOL    HW240208   5.001   1.698   7.125 -0.1746 -0.0471  0.4453
12923SOL     OW40209   5.376   0.342   6.226 -0.3323  0.0587 -0.1368
12923SOL    HW140210   5.455   0.389   6.196 -0.2535  0.8639  1.2558
12923SOL    HW240211   5.314   0.351   6.153  0.4580  0.4022 -0.7883
12924SOL     OW40212   3.910   0.643   4.668 -0.8376  0.4535 -0.3532
12924SOL    HW140213   3.895   0.571   4.607 -1.4726 -0.0813  0.4069
12924SOL    HW240214   3.872   0.613   4.750 -0.9441  1.5899  0.0337
12925SOL     OW40215   3.830   6.765   7.013  0.3646 -0.3692 -0.0195
12925SOL    HW140216   3.884   6.743   7.089 -0.6941  0.6100  1.0591
12925SOL    HW240217   3.742   6.738   7.038 -0.1068  0.5428 -0.6377
12926SOL     OW40218   3.686   1.685   7.049 -0.5012 -0.5835  0.4402
12926SOL    HW140219   3.775   1.717   7.034 -0.5821  1.0418  2.9066
12926SOL    HW240220   3.648   1.679   6.961  0.9695  1.9654 -0.4824
12927SOL     OW40221   4.507   0.685   6.932 -0.2421 -0.1299 -0.0879
12927SOL    HW140222   4.560   0.631   6.991  0.5961  2.8772  2.2304
12927SOL    HW240223   4.418   0.678   6.966 -0.3941 -1.0689 -0.6579
12928SOL     OW40224   4.211   7.152   6.087  0.1847  0.2411  0.1456
12928SOL    HW140225   4.280   7.175   6.150  0.4712 -0.4394  0.0885
12928SOL    HW240226   4.136   7.128   6.141 -0.0200  0.9908  0.2086
12929SOL     OW40227   4.919   1.636   6.303 -0.1205  0.0026 -0.4531
12929SOL    HW140228   4.949   1.560   6.352  0.9163  1.3128  1.0705
12929SOL    HW240229   4.864   1.684   6.365  0.5895  1.3125 -0.8000
12930SOL     OW40230   4.747   0.911   6.348  0.3542  0.0737 -0.3284
12930SOL    HW140231   4.822   0.858   6.377 -0.2936 -1.0543 -0.6735
12930SOL    HW240232   4.671   0.863   6.378 -0.2583  1.2172  0.0204
12931SOL     OW40233   2.267   0.513   3.813  0.1960  0.1591  0.1219
12931SOL    HW140234   2.241   0.604   3.801 -0.4396 -0.1151 -0.6825
12931SOL    HW240235   2.362   0.514   3.811  0.1798  0.7459 -0.3929
12932SOL     OW40236   3.963   1.229   6.099 -0.0838  0.4146  0.8408
12932SOL    HW140237   3.966   1.184   6.014 -1.8666  1.4361  0.1924
12932SOL    HW240238   4.054   1.257   6.114  0.0210  1.6176 -1.5209
12933SOL     OW40239   3.124   1.905   7.110  0.0850 -0.6275 -0.3213
12933SOL    HW140240   3.039   1.945   7.127 -1.4752 -3.4608 -0.8920
12933SOL    HW240241   3.148   1.862   7.192  0.0662 -1.3573 -0.6895
12934SOL     OW40242   3.600   1.075   4.122 -0.0305 -0.6421 -0.0572
12934SOL    HW140243   3.620   1.028   4.041  0.7287  0.7152 -0.6908
12934SOL    HW240244   3.668   1.142   4.128 -1.6521  1.0518  0.2494
12935SOL     OW40245   4.281   1.395   6.277 -0.3547  0.7617  0.1332
12935SOL    HW140246   4.355   1.456   6.278 -0.6005  1.0558  0.6483
12935SOL    HW240247   4.276   1.364   6.186 -2.3581  4.1160 -1.0907
12936SOL     OW40248   6.150   7.760   6.316 -1.0821 -0.0176 -0.2388
12936SOL    HW140249   6.133   7.674   6.277 -2.3374  1.4162 -3.1472
12936SOL    HW240250   6.090   7.766   6.390 -1.4597 -1.3408 -0.4132
12937SOL     OW40251   4.232   6.116   5.308 -0.5580  0.3396  0.6094
12937SOL    HW140252   4.282   6.108   5.389 -1.1602 -0.5142  0.9157
12937SOL    HW240253   4.242   6.208   5.282  0.8251  0.2833  0.8586
12938SOL     OW40254   3.490   2.167   6.362 -0.6473 -0.1461  0.3374
12938SOL    HW140255   3.487   2.209   6.448 -0.9669  1.2011 -0.2989
12938SOL    HW240256   3.583   2.169   6.338 -0.4280 -1.3579  1.0238
12939SOL     OW40257   6.759   0.499   5.374  0.0195 -0.0144 -0.4633
12939SOL    HW140258   6.681   0.542   5.338 -1.0493 -0.2944  1.3756
12939SOL    HW240259   6.743   0.406   5.359 -0.0996 -0.0837  0.0766
12940SOL     OW40260   3.963   7.366   4.921  0.3584 -0.6567  0.6317
12940SOL    HW140261   3.928   7.400   4.839 -0.7695 -0.7850  1.0395
12940SOL    HW240262   4.045   7.414   4.934 -1.1963  2.0340  1.2092
12941SOL     OW40263   7.040   7.783   6.326 -0.3147  0.1201  0.6340
12941SOL    HW140264   7.076   7.853   6.272 -0.0341 -0.2118  0.3924
12941SOL    HW240265   6.979   7.737   6.269 -0.6780  0.3066  0.8633
12942SOL     OW40266   5.861   0.332   6.544 -0.5032  0.7892  0.1171
12942SOL    HW140267   5.792   0.394   6.523  0.1722  0.7613 -2.4626
12942SOL    HW240268   5.835   0.251   6.500  0.4041  0.3060  0.4467
12943SOL     OW40269   6.403   0.744   7.147 -0.4359 -0.2828 -0.1570
12943SOL    HW140270   6.330   0.721   7.089 -0.5240  1.2683 -0.7151
12943SOL    HW240271   6.411   0.670   7.207 -4.9000  0.9382  2.3700
12944SOL     OW40272   4.689   0.988   6.699 -0.1440 -0.7646  0.4216
12944SOL    HW140273   4.614   0.956   6.649  0.0635  0.0622 -0.4441
12944SOL    HW240274   4.657   0.994   6.789 -1.3649  0.3284 -0.0594
12945SOL     OW40275   2.973   7.797   7.337  0.2143 -0.3317  0.2805
12945SOL    HW140276   2.924   7.784   7.256  0.0697  0.4283  0.2402
12945SOL    HW240277   2.969   7.891   7.353  3.3321  0.0823 -0.7586
12946SOL     OW40278   4.517   2.514   4.865  0.0190 -0.3333  0.4697
12946SOL    HW140279   4.496   2.535   4.774 -1.4583 -1.4726  0.5032
12946SOL    HW240280   4.499   2.595   4.913 -0.0063  0.0259 -0.1353
12947SOL     OW40281   5.886   0.357   5.422 -0.2794 -0.5798 -0.6553
12947SOL    HW140282   5.909   0.440   5.466 -1.6142 -0.8651  0.6735
12947SOL    HW240283   5.828   0.383   5.351 -3.2028 -0.4987  1.5931
12948SOL     OW40284   5.405   1.415   5.610 -0.0371 -0.0063  0.3918
12948SOL    HW140285   5.314   1.393   5.628 -0.4625  1.4811  0.1721
12948SOL    HW240286   5.438   1.450   5.693  0.2571 -0.2536  0.3841
12949SOL     OW40287   4.992   2.063   5.266  0.0052 -0.1423 -0.2300
12949SOL    HW140288   4.918   2.004   5.281  0.2005 -0.6032 -1.0053
12949SOL    HW240289   5.066   2.019   5.306  0.4894 -1.2850 -2.2480
12950SOL     OW40290   2.600   1.671   7.698  0.1028 -0.3635 -0.2076
12950SOL    HW140291   2.652   1.592   7.716  0.2308 -0.8716 -2.5095
12950SOL    HW240292   2.509   1.641   7.698 -0.1815  0.2487  2.3942
12951SOL     OW40293   6.064   0.223   9.613 -0.2050  0.0540 -0.0025
12951SOL    HW140294   6.095   0.221   9.522 -1.2001 -0.7685 -0.3440
12951SOL    HW240295   6.142   0.243   9.664  0.8920 -1.8225 -0.8291
12952SOL     OW40296   5.124   1.085   6.750 -0.2760 -0.1068  0.1158
12952SOL    HW140297   5.116   1.017   6.816 -2.4821 -1.0765 -1.0498
12952SOL    HW240298   5.080   1.161   6.788 -0.8677 -0.4244  0.0751
12953SOL     OW40299   4.924   3.420   9.794  0.0396 -0.5746  0.2076
12953SOL    HW140300   5.004   3.426   9.741 -0.2821  0.0713 -0.2220
12953SOL    HW240301   4.946   3.358   9.863  1.5677  0.9721  1.2076
12954SOL     OW40302   3.871   1.546   6.702  0.1522 -0.3277  0.1252
12954SOL    HW140303   3.898   1.601   6.629  0.4734 -0.0052  0.4806
12954SOL    HW240304   3.940   1.557   6.768 -1.4417  1.6120  1.6271
12955SOL     OW40305   4.294   1.242  11.002 -0.1819  0.4234 -0.0674
12955SOL    HW140306   4.363   1.180  10.977  0.9579  1.1418  1.1244
12955SOL    HW240307   4.297   1.243  11.098 -2.5009 -0.2008  0.0652
12956SOL     OW40308   4.626   1.143   8.461  0.4024 -0.4236 -0.2378
12956SOL    HW140309   4.663   1.143   8.373 -1.5352 -1.0625 -1.0928
12956SOL    HW240310   4.634   1.053   8.491  0.6424 -0.3013  0.0772
12957SOL     OW40311   4.213   0.743   9.178  0.0672  0.3180  0.2063
12957SOL    HW140312   4.123   0.760   9.204  0.8671  2.1458  2.0087
12957SOL    HW240313   4.217   0.649   9.164 -1.8333  0.0400  1.2751
12958SOL     OW40314   5.372   0.127   8.945 -0.1832  0.0835 -0.0263
12958SOL    HW140315   5.450   0.074   8.927  0.2943 -0.0795  2.1646
12958SOL    HW240316   5.398   0.217   8.926  1.1310  0.2286  2.1178
12959SOL     OW40317   4.507   7.984   9.999  0.6394 -0.1035 -0.1331
12959SOL    HW140318   4.473   8.058   9.948  1.7169  0.4515 -0.0818
12959SOL    HW240319   4.520   8.019  10.087  0.3537 -0.5949  0.1056
12960SOL     OW40320   4.441   0.815   6.721 -0.2330 -0.0726  0.0492
12960SOL    HW140321   4.393   0.874   6.780 -1.1115  0.0426 -0.7636
12960SOL    HW240322   4.469   0.743   6.778  0.2128  0.7515  0.9077
12961SOL     OW40323   4.635   1.463   8.953  0.1692 -0.4949  0.2529
12961SOL    HW140324   4.584   1.515   8.891 -0.0734  1.3366  1.8817
12961SOL    HW240325   4.570   1.422   9.009  0.4057  0.6520  1.4101
12962SOL     OW40326   6.126   1.283  10.540  0.4993 -0.2703  0.2873
12962SOL    HW140327   6.189   1.352  10.564  1.0748 -1.1771  1.4691
12962SOL    HW240328   6.121   1.227  10.617 -1.4474 -0.4833  0.0572
12963SOL     OW40329   4.509   7.623   7.631  0.1124 -0.6341  0.5865
12963SOL    HW140330   4.415   7.620   7.652  0.3109  0.6787  1.8330
12963SOL    HW240331   4.545   7.544   7.672 -0.6073 -1.8666 -1.0382
12964SOL     OW40332   5.333   2.392   6.674 -0.3414 -0.1968 -0.0537
12964SOL    HW140333   5.311   2.302   6.698  1.2111 -0.0347  2.4221
12964SOL    HW240334   5.269   2.446   6.720 -0.9286  0.0029 -1.0811
12965SOL     OW40335   4.631   0.757   7.890 -0.8538 -0.0729 -0.7756
12965SOL    HW140336   4.725   0.746   7.875 -0.8140  0.1825 -0.7117
12965SOL    HW240337   4.614   0.710   7.971 -0.5419  0.9495 -0.0964
12966SOL     OW40338   0.448   2.948   9.612  0.9536  0.6431 -0.3776
12966SOL    HW140339   0.387   2.958   9.685  1.9711  1.9647  0.3296
12966SOL    HW240340   0.393   2.919   9.539 -0.0234 -1.0660  0.9781
12967SOL     OW40341   4.139   1.947   9.870 -0.2635 -0.3715 -0.3521
12967SOL    HW140342   4.095   1.993   9.942  0.1987  0.3460 -0.5148
12967SOL    HW240343   4.086   1.869   9.855 -0.3726 -0.5281  0.7630
12968SOL     OW40344   3.226   2.695   8.485 -0.2368 -0.2658  0.2163
12968SOL    HW140345   3.144   2.646   8.482  0.0556 -0.8328  1.1597
12968SOL    HW240346   3.206   2.776   8.438 -1.5005 -0.1773  0.8395
12969SOL     OW40347   4.608   1.131   5.993 -0.3024  0.5403 -0.1053
12969SOL    HW140348   4.536   1.106   6.050 -0.0028 -1.2483 -0.4712
12969SOL    HW240349   4.657   1.196   6.044 -0.8693  0.0739  1.0806
12970SOL     OW40350   6.234   7.529   7.039  0.1560  0.3799  0.2835
12970SOL    HW140351   6.328   7.546   7.030  0.6225 -1.1096  1.9229
12970SOL    HW240352   6.199   7.606   7.084  0.8623  0.3112  0.9583
12971SOL     OW40353   2.659   0.079   8.674 -0.0618  0.2016 -0.0738
12971SOL    HW140354   2.665   0.173   8.691 -0.9673  0.0659  1.1065
12971SOL    HW240355   2.750   0.050   8.669  0.3220  0.5126  3.3029
12972SOL     OW40356   5.569   1.526   7.269  0.4653  0.1094  0.2304
12972SOL    HW140357   5.597   1.444   7.310 -1.0254 -1.1396 -1.0722
12972SOL    HW240358   5.589   1.514   7.176 -2.0580  0.0921 -0.3865
12973SOL     OW40359   5.796   0.921   7.646  0.4647 -0.4978  0.0151
12973SOL    HW140360   5.838   0.836   7.630 -1.4393 -1.4806 -0.1645
12973SOL    HW240361   5.813   0.940   7.738  0.6091 -1.2713  0.1571
12974SOL     OW40362   4.202   1.573   8.832  0.0546 -0.5885  0.4720
12974SOL    HW140363   4.119   1.596   8.790  0.2423  0.6832  0.7579
12974SOL    HW240364   4.203   1.478   8.831 -1.0388 -0.6184 -0.2614
12975SOL     OW40365   6.215   2.713   7.192  0.0571 -0.1532  0.1627
12975SOL    HW140366   6.205   2.720   7.287 -0.8755  0.2095  0.0443
12975SOL    HW240367   6.299   2.756   7.175  0.4455 -0.6118  0.8632
12976SOL     OW40368   3.354   2.237   8.296  0.0622  0.1717  0.3539
12976SOL    HW140369   3.387   2.327   8.301  1.0591 -0.1753  0.2258
12976SOL    HW240370   3.408   2.188   8.358 -1.1392 -0.1622  1.1787
12977SOL     OW40371   4.179   1.308   8.884 -0.1850  0.4628 -0.5587
12977SOL    HW140372   4.228   1.235   8.922 -2.4299 -1.4990 -1.2151
12977SOL    HW240373   4.115   1.332   8.952  1.5468  3.0721  0.3366
12978SOL     OW40374   7.088   0.880   8.177 -0.1823 -0.0772  0.1805
12978SOL    HW140375   7.139   0.951   8.217 -0.2725  0.4736 -0.6531
12978SOL    HW240376   6.999   0.914   8.170 -1.0052 -1.4941  2.7686
12979SOL     OW40377   3.309   0.245   9.088 -0.1445  0.0106  0.7931
12979SOL    HW140378   3.366   0.183   9.135 -0.8580 -1.4138 -0.1550
12979SOL    HW240379   3.287   0.311   9.153 -0.6910 -1.6281  2.3540
12980SOL     OW40380   2.170   1.356   9.393 -0.4410  0.2566  0.5509
12980SOL    HW140381   2.140   1.270   9.364  0.8243  0.0060 -0.0969
12980SOL    HW240382   2.201   1.399   9.313 -0.8070  1.2179  0.9076
12981SOL     OW40383   5.313   7.784   8.583 -0.4098  0.5052  0.0603
12981SOL    HW140384   5.332   7.828   8.666  1.3947 -0.1902  0.0688
12981SOL    HW240385   5.333   7.850   8.516 -0.9949  0.7776  0.1508
12982SOL     OW40386   3.421   2.981  10.014  0.5600  0.3793  0.5622
12982SOL    HW140387   3.411   3.075  10.006 -0.2197  0.1975 -0.9636
12982SOL    HW240388   3.336   2.945   9.986  1.8748 -0.8634 -2.1465
12983SOL     OW40389   6.144   0.979   8.737 -0.5459 -0.3748  0.2330
12983SOL    HW140390   6.196   0.908   8.698  0.0986  1.3981 -2.3978
12983SOL    HW240391   6.054   0.957   8.713 -0.2025  0.4710 -2.2010
12984SOL     OW40392   4.453   7.066   8.674 -0.8465 -0.0726  0.2496
12984SOL    HW140393   4.541   7.069   8.638 -1.2787 -0.0787 -0.8283
12984SOL    HW240394   4.437   6.973   8.692 -0.5618 -0.0468  0.6506
12985SOL     OW40395   5.569   1.605   8.025  0.0607 -0.0522  0.0372
12985SOL    HW140396   5.537   1.689   8.057 -0.4199  0.0890 -0.7677
12985SOL    HW240397   5.500   1.575   7.965  0.7298 -0.4891 -0.5327
12986SOL     OW40398   3.994   7.860   7.834  0.2561  1.1615 -0.0841
12986SOL    HW140399   3.999   7.822   7.746 -1.0443  1.0544 -0.1402
12986SOL    HW240400   4.003   7.786   7.893 -2.5217  0.6136 -0.1924
12987SOL     OW40401   2.756   7.912   8.167 -0.0198 -0.0505 -0.3383
12987SOL    HW140402   2.739   8.005   8.182  1.0209  0.0905  0.0232
12987SOL    HW240403   2.851   7.905   8.159 -0.1812 -0.8351 -2.0928
12988SOL     OW40404   4.354   1.329   9.603 -0.4264  0.4917  0.9600
12988SOL    HW140405   4.433   1.339   9.549 -1.2215  1.5462 -0.0662
12988SOL    HW240406   4.320   1.418   9.611 -3.4558 -0.2512 -1.6570
12989SOL     OW40407   3.844   1.840   9.642  0.1079  0.3736  0.0580
12989SOL    HW140408   3.930   1.840   9.684 -0.0397 -1.7466  0.4645
12989SOL    HW240409   3.783   1.819   9.712 -0.6858  1.2390 -0.3565
12990SOL     OW40410   4.580   1.189   7.887 -0.0808 -0.2843 -0.1772
12990SOL    HW140411   4.544   1.240   7.814 -1.6201 -0.6002  0.3160
12990SOL    HW240412   4.588   1.251   7.959 -0.6377 -0.4240  0.0127
12991SOL     OW40413   4.136   2.271   9.093 -0.6049 -0.1053 -0.4361
12991SOL    HW140414   4.132   2.274   8.997 -1.4503  0.0214 -0.3976
12991SOL    HW240415   4.075   2.338   9.122  0.4329  0.5915  0.1961
12992SOL     OW40416   3.427   1.622  10.001 -0.1366 -0.3695 -0.4038
12992SOL    HW140417   3.366   1.557  10.036 -0.0806 -0.0613  0.2840
12992SOL    HW240418   3.377   1.667   9.932 -0.2489 -0.9819 -0.7321
12993SOL     OW40419   3.389   0.298   8.455  0.0253  0.1919  0.1913
12993SOL    HW140420   3.430   0.295   8.541  0.1640  0.9911  0.1632
12993SOL    HW240421   3.458   0.328   8.396  0.2315 -1.3579 -0.4060
12994SOL     OW40422   2.881   0.974   7.795 -0.1551  0.0910  0.5427
12994SOL    HW140423   2.867   1.036   7.867 -0.0194  1.3301 -0.4773
12994SOL    HW240424   2.793   0.939   7.778 -0.1691 -0.3275  1.3943
12995SOL     OW40425   3.257   1.851   8.149  0.0157 -0.2516  0.0342
12995SOL    HW140426   3.320   1.922   8.146 -0.4557  0.2212  0.8537
12995SOL    HW240427   3.203   1.862   8.071  1.3612 -1.0853 -1.0598
12996SOL     OW40428   3.715   1.069   8.151 -0.1430 -0.2659  0.6654
12996SOL    HW140429   3.811   1.076   8.149 -0.2020  0.5387  0.3378
12996SOL    HW240430   3.691   1.047   8.061 -0.1762 -1.9751  1.0605
12997SOL     OW40431   5.387   0.046   7.534  0.3255  0.1005 -0.2217
12997SOL    HW140432   5.340  -0.005   7.600 -1.1063  0.7076 -0.7434
12997SOL    HW240433   5.454  -0.013   7.501 -1.2708 -1.4631 -0.7876
12998SOL     OW40434   5.008   2.689   8.407  0.4958  0.2790  0.0834
12998SOL    HW140435   4.962   2.726   8.332 -2.5209 -0.5568  1.3857
12998SOL    HW240436   5.022   2.764   8.465  3.2639  1.0226 -1.3442
12999SOL     OW40437   4.720   0.400   6.500  0.2516  0.0614  0.1050
12999SOL    HW140438   4.660   0.470   6.476  1.6735  1.3912  0.2983
12999SOL    HW240439   4.762   0.374   6.418  0.5338  0.2103  0.2017
13000SOL     OW40440   5.476   2.218   7.541  0.0820 -0.3230 -0.1338
13000SOL    HW140441   5.457   2.184   7.629  1.6223  0.5135  0.5629
13000SOL    HW240442   5.471   2.313   7.551 -2.3893 -0.2198 -1.6258
13001SOL     OW40443   4.594   0.939   6.959  0.5614 -0.4594  0.1314
13001SOL    HW140444   4.569   0.950   7.051  0.0347 -0.8696  0.0412
13001SOL    HW240445   4.582   0.846   6.942  0.6818 -0.3876 -0.3473
13002SOL     OW40446   5.798   0.531   8.003  0.1204 -0.2246  0.3240
13002SOL    HW140447   5.807   0.495   8.092 -0.3001  1.4379  1.0838
13002SOL    HW240448   5.833   0.620   8.010  2.1899 -0.7789 -1.7482
13003SOL     OW40449   3.704   2.274  10.467  0.6072 -0.9741  0.3634
13003SOL    HW140450   3.751   2.269  10.384  1.7649 -1.4464  1.0240
13003SOL    HW240451   3.702   2.184  10.499  0.8026 -0.6901  1.1931
13004SOL     OW40452   3.858   1.533   7.485 -0.0768 -0.1246 -0.6407
13004SOL    HW140453   3.941   1.489   7.467  0.1580  0.2512 -0.4872
13004SOL    HW240454   3.813   1.475   7.546  0.5403  0.1839  0.1225
13005SOL     OW40455   4.859   2.515   9.047 -0.2582 -0.2937  0.0750
13005SOL    HW140456   4.861   2.420   9.032  1.3729 -0.1023 -1.1539
13005SOL    HW240457   4.850   2.552   8.959  0.8479  0.7186  0.3765
13006SOL     OW40458   4.125   1.904   9.151  0.1959 -0.2985 -0.1478
13006SOL    HW140459   4.176   1.980   9.124 -0.5266  1.1600  2.2486
13006SOL    HW240460   4.187   1.850   9.200 -0.2300  1.0647  2.0460
13007SOL     OW40461   4.153   0.711   7.303 -0.5166 -0.4366  0.3155
13007SOL    HW140462   4.134   0.804   7.287 -1.9118 -0.6837  0.3912
13007SOL    HW240463   4.075   0.679   7.349 -0.2640 -1.7640 -0.1629
13008SOL     OW40464   1.592   0.292   9.639 -0.6395  0.0333  0.5092
13008SOL    HW140465   1.686   0.300   9.655 -0.7620  0.0654  1.2689
13008SOL    HW240466   1.582   0.209   9.593 -0.2292  0.0651  0.3613
13009SOL     OW40467   4.734   0.106   7.086  0.2961 -0.0116 -0.3967
13009SOL    HW140468   4.819   0.066   7.106  1.1867  1.5866 -0.8583
13009SOL    HW240469   4.697   0.050   7.018  1.2912 -0.3514 -0.6753
13010SOL     OW40470   1.889   1.058   8.262 -0.4599  0.0148 -0.3089
13010SOL    HW140471   1.823   1.080   8.195 -1.6818 -0.7925  0.5867
13010SOL    HW240472   1.851   1.091   8.344  1.3290  1.6066 -0.0574
13011SOL     OW40473   5.096   7.758  10.147 -0.4652  0.3811  0.6844
13011SOL    HW140474   5.061   7.684  10.098 -2.0269  0.9174  0.9318
13011SOL    HW240475   5.067   7.835  10.099 -1.4885  0.9038  2.0683
13012SOL     OW40476   4.243   2.660   8.522  0.0263 -0.3024 -0.1531
13012SOL    HW140477   4.269   2.712   8.446  0.9490  0.7111  0.8259
13012SOL    HW240478   4.177   2.714   8.566 -1.7847 -1.6434 -1.1274
13013SOL     OW40479   4.668   1.362   7.114  0.1819  0.1262 -0.0201
13013SOL    HW140480   4.734   1.299   7.084 -0.5576 -0.5034 -0.3664
13013SOL    HW240481   4.589   1.338   7.066 -1.3880 -1.6396  3.1780
13014SOL     OW40482   3.949   1.563   8.730  0.8468  0.4284 -0.2061
13014SOL    HW140483   3.914   1.516   8.806 -0.5148  2.0729  0.2583
13014SOL    HW240484   3.871   1.586   8.679  1.3912  2.5202 -0.1672
13015SOL     OW40485   4.165   0.291   8.144  0.4568 -0.5701  0.2860
13015SOL    HW140486   4.214   0.268   8.065  0.5190 -0.5964  0.3321
13015SOL    HW240487   4.191   0.225   8.208  2.3528  0.8786  1.1214
13016SOL     OW40488   3.105   7.730   7.656 -0.3204  0.1527  0.1102
13016SOL    HW140489   3.093   7.766   7.569 -0.4874 -0.5239 -0.1541
13016SOL    HW240490   3.055   7.787   7.714  0.8978  1.4144 -0.0344
13017SOL     OW40491   6.298   7.337   7.924  0.3158 -0.2986 -0.5001
13017SOL    HW140492   6.278   7.300   8.010 -1.8339  0.4143 -0.6210
13017SOL    HW240493   6.381   7.298   7.900  0.5850 -1.1347  1.5520
13018SOL     OW40494   1.884   1.939   8.268  0.2462 -0.2241  0.0850
13018SOL    HW140495   1.972   1.910   8.291 -0.9415 -2.4785  2.2833
13018SOL    HW240496   1.872   1.911   8.178  1.5719 -0.4284 -0.0402
13019SOL     OW40497   4.764   0.536   7.179 -0.1871  0.3562  0.0116
13019SOL    HW140498   4.694   0.473   7.197 -0.0311  0.0152 -0.5347
13019SOL    HW240499   4.751   0.606   7.243 -1.9051  1.0057 -0.9586
13020SOL     OW40500   4.124   1.278   8.022  0.2458  0.4423  0.6976
13020SOL    HW140501   4.168   1.314   7.945 -0.9850 -0.3757 -0.4299
13020SOL    HW240502   4.189   1.222   8.063  0.5399 -0.1120 -0.4756
13021SOL     OW40503   4.577   7.799   8.083  0.6435 -0.2539  0.3278
13021SOL    HW140504   4.657   7.778   8.035 -0.3819  0.9553 -2.0892
13021SOL    HW240505   4.511   7.811   8.015 -0.7703  2.2757  1.9763
13022SOL     OW40506   3.119   1.317   8.372 -0.3812  0.0840  0.0440
13022SOL    HW140507   3.162   1.297   8.455 -0.7595 -0.4502  0.1182
13022SOL    HW240508   3.031   1.344   8.397 -0.0840  1.2321 -0.1015
13023SOL     OW40509   6.477   7.900   9.065 -0.0434 -0.1729 -0.2585
13023SOL    HW140510   6.547   7.952   9.105 -0.6519 -0.3876  1.1223
13023SOL    HW240511   6.403   7.907   9.125  0.0492 -3.1441  0.3721
13024SOL     OW40512   3.792   6.897   7.589  0.0465  0.3503 -0.0307
13024SOL    HW140513   3.838   6.948   7.523 -0.1120  1.4509  0.6825
13024SOL    HW240514   3.699   6.903   7.564  0.2056 -1.4876 -1.2109
13025SOL     OW40515   5.360   7.998   6.803  0.1558  0.6042 -0.4461
13025SOL    HW140516   5.340   7.906   6.788 -0.9366  0.7179  0.1985
13025SOL    HW240517   5.275   8.042   6.799  0.4080  1.2991  1.1381
13026SOL     OW40518   5.008   0.089   7.246  0.4991 -0.2862 -0.1923
13026SOL    HW140519   5.063   0.034   7.301  1.0792 -0.5539 -1.0077
13026SOL    HW240520   4.939   0.120   7.304  1.1525 -0.4573  0.7105
13027SOL     OW40521   3.925   0.973   8.893  0.0477  0.1060 -0.0240
13027SOL    HW140522   3.895   1.063   8.904  2.3969  0.8988  0.3517
13027SOL    HW240523   4.013   0.971   8.931 -0.7751 -2.9559  2.1437
13028SOL     OW40524   2.684   0.906   9.904  0.0265  0.2561 -0.3685
13028SOL    HW140525   2.763   0.859   9.929  0.4692  1.4171  0.5125
13028SOL    HW240526   2.660   0.869   9.819  1.5439 -0.0818 -0.6858
13029SOL     OW40527   4.553   2.324   8.035  0.1509 -0.2825 -0.6451
13029SOL    HW140528   4.537   2.280   7.951  0.1860 -2.4637  0.4210
13029SOL    HW240529   4.468   2.356   8.063  0.0707  0.0896 -1.2923
13030SOL     OW40530   4.800   0.205   7.365  0.4541  0.6496 -0.1004
13030SOL    HW140531   4.736   0.251   7.420 -1.0860 -0.1777 -1.1174
13030SOL    HW240532   4.756   0.196   7.281  0.5055 -2.9219  0.1230
13031SOL     OW40533   1.629   7.995  10.706  0.2093 -0.0430  0.1953
13031SOL    HW140534   1.579   8.058  10.756 -2.7718 -2.6446  0.7891
13031SOL    HW240535   1.564   7.945  10.656  2.2645 -2.8845  0.0451
13032SOL     OW40536   4.762   0.876   5.992 -0.3135 -0.3506 -0.4661
13032SOL    HW140537   4.717   0.833   5.919 -0.1119  1.2445 -1.5896
13032SOL    HW240538   4.746   0.970   5.978  2.2185  0.1988 -0.1740
13033SOL     OW40539   5.045   0.917   8.181  0.0177  0.6704 -0.0353
13033SOL    HW140540   5.027   0.827   8.151  1.3394 -0.4415  2.2800
13033SOL    HW240541   5.093   0.956   8.108 -1.0449 -0.2653 -1.3151
13034SOL     OW40542   4.363   0.876   8.087  0.1979 -0.1331  0.2780
13034SOL    HW140543   4.420   0.923   8.148 -0.1505  0.0868  0.4407
13034SOL    HW240544   4.277   0.880   8.129 -0.2015  0.6596 -0.5860
13035SOL     OW40545   5.283   0.266   7.239 -0.1257 -0.1884  0.1648
13035SOL    HW140546   5.271   0.242   7.331 -0.9080  0.3053  0.2061
13035SOL    HW240547   5.317   0.355   7.242  0.0285 -0.2396 -0.0255
13036SOL     OW40548   2.843   0.116   9.880  0.1802  0.4559 -0.9737
13036SOL    HW140549   2.786   0.168   9.825  1.2845  0.3424 -2.2805
13036SOL    HW240550   2.928   0.118   9.836  1.0249  0.0857  0.5586
13037SOL     OW40551   6.426   0.548   7.968  0.5001  0.1286  0.5886
13037SOL    HW140552   6.484   0.557   7.892 -1.9416  0.6565 -1.3385
13037SOL    HW240553   6.389   0.460   7.960  1.0479 -0.2409  1.8531
13038SOL     OW40554   2.916   1.158   5.610 -0.2017 -0.3439 -0.7323
13038SOL    HW140555   2.939   1.122   5.695  0.0536  0.5142 -0.4235
13038SOL    HW240556   3.000   1.174   5.567 -0.2871  0.4046 -0.6331
13039SOL     OW40557   3.979   0.389   7.439 -0.2601  0.7598  0.3321
13039SOL    HW140558   4.031   0.399   7.359  0.3567 -0.4315  0.5626
13039SOL    HW240559   4.008   0.461   7.495 -0.0640  1.0897 -0.1865
13040SOL     OW40560   4.557   1.073   8.160  0.2492 -0.1015 -0.2874
13040SOL    HW140561   4.651   1.059   8.169  0.3286 -0.7695 -1.7561
13040SOL    HW240562   4.544   1.085   8.065 -0.8326  2.3916  0.0948
13041SOL     OW40563   5.913   0.914   8.599  0.7638  0.0239 -0.5833
13041SOL    HW140564   5.832   0.960   8.578  1.0262  0.2373 -1.1530
13041SOL    HW240565   5.885   0.829   8.633  0.3094 -0.1160 -1.2917
13042SOL     OW40566   5.818   0.355   9.377  0.1784  0.1259 -0.1784
13042SOL    HW140567   5.900   0.315   9.348  0.4683  1.5341 -1.4776
13042SOL    HW240568   5.785   0.399   9.298 -1.2929  0.4442  0.5901
13043SOL     OW40569   4.402   0.700  10.295 -0.3143  0.0275 -0.6444
13043SOL    HW140570   4.471   0.738  10.349 -0.4624 -0.9635  0.2719
13043SOL    HW240571   4.408   0.605  10.311 -1.8680 -0.0742 -0.5695
13044SOL     OW40572   5.489   1.355   8.223  0.7274 -0.3031  0.2046
13044SOL    HW140573   5.563   1.312   8.179  0.2423 -1.6280  0.6145
13044SOL    HW240574   5.416   1.346   8.161  1.0106  1.5438 -0.4658
13045SOL     OW40575   6.070   0.521   8.499  0.0413 -0.3683 -0.2116
13045SOL    HW140576   6.097   0.546   8.588  1.2536  0.2446 -0.7182
13045SOL    HW240577   6.153   0.507   8.453 -0.5784 -1.2723 -1.0986
13046SOL     OW40578   6.782   7.849   9.585 -0.4168 -0.3885 -0.4302
13046SOL    HW140579   6.875   7.827   9.595 -0.3701 -0.3491 -0.7749
13046SOL    HW240580   6.778   7.903   9.506 -0.7670 -0.5836 -0.5485
13047SOL     OW40581   4.243   7.188   9.539 -0.3210  0.4817 -0.8433
13047SOL    HW140582   4.335   7.166   9.525  0.1607  2.4183 -0.9867
13047SOL    HW240583   4.205   7.191   9.452 -1.1401 -2.4692 -0.7042
13048SOL     OW40584   4.907   3.043   9.537 -0.0521  0.3536  0.3486
13048SOL    HW140585   4.910   2.950   9.515 -0.0469  0.6773 -1.0670
13048SOL    HW240586   4.945   3.087   9.462  0.8857  1.4564  1.4330
13049SOL     OW40587   3.770   1.556   8.509  0.2330 -0.2567 -0.5184
13049SOL    HW140588   3.844   1.582   8.454  1.7057 -2.3157  0.3726
13049SOL    HW240589   3.732   1.481   8.465  0.6926 -1.1908  0.6296
13050SOL     OW40590   4.363   2.245   8.200 -0.1344 -0.0994  0.3374
13050SOL    HW140591   4.299   2.311   8.172 -0.0514  0.0973  0.6169
13050SOL    HW240592   4.368   2.254   8.295 -1.2215 -1.4906  0.5715
13051SOL     OW40593   7.060   7.058   8.400 -0.0378  0.6700 -0.0830
13051SOL    HW140594   7.140   7.069   8.348  1.1100 -1.0676  1.2009
13051SOL    HW240595   7.043   7.145   8.436  0.6970  1.2948 -1.1758
13052SOL     OW40596   4.335   1.995   8.132 -0.3048 -0.1723  0.0513
13052SOL    HW140597   4.276   1.991   8.057  0.1972 -0.8973 -0.3142
13052SOL    HW240598   4.356   2.088   8.141 -0.4723 -0.0639 -0.6245
13053SOL     OW40599   3.509   1.419   7.882 -0.1299  0.0297  0.2620
13053SOL    HW140600   3.521   1.400   7.976  2.5226  0.8247  0.1709
13053SOL    HW240601   3.474   1.508   7.880 -0.0926  0.0514  0.5016
13054SOL     OW40602   3.767   1.351   6.912 -0.0504  0.2699  0.5287
13054SOL    HW140603   3.799   1.388   6.994 -0.6936  1.5740  0.2158
13054SOL    HW240604   3.795   1.414   6.845 -1.6212  0.4977  0.0429
13055SOL     OW40605   3.952   1.855   8.732 -0.4954 -0.0755 -0.2839
13055SOL    HW140606   3.907   1.906   8.665 -0.2320  0.5535  0.0061
13055SOL    HW240607   3.926   1.764   8.716  0.3301 -0.0642 -1.8294
13056SOL     OW40608   5.167   0.536   8.545  0.1023 -0.4621  0.2493
13056SOL    HW140609   5.231   0.495   8.602 -0.0758  0.7522  1.3834
13056SOL    HW240610   5.121   0.464   8.502 -0.3535 -1.4499  2.3225
13057SOL     OW40611   4.179   1.365   7.219  0.0782  0.2462  0.0225
13057SOL    HW140612   4.245   1.395   7.157  1.7496 -0.7885  1.2341
13057SOL    HW240613   4.178   1.432   7.287  1.7958 -0.9345  1.3000
13058SOL     OW40614   5.416   0.812   9.866  0.4965 -0.1232  0.2191
13058SOL    HW140615   5.500   0.799   9.822 -0.3017  0.7001 -1.6697
13058SOL    HW240616   5.383   0.896   9.831 -1.4390 -0.7891  0.3116
13059SOL     OW40617   3.794   3.496   8.048 -0.3251 -0.4283 -0.0141
13059SOL    HW140618   3.739   3.571   8.028 -0.1154  0.5208  2.7005
13059SOL    HW240619   3.732   3.423   8.056 -0.8081 -0.0423 -0.1642
13060SOL     OW40620   5.022   0.948   9.265 -0.0858  0.2504 -0.2384
13060SOL    HW140621   5.087   0.927   9.332  0.5686  0.9342 -0.6530
13060SOL    HW240622   4.984   0.863   9.242  0.7416 -0.1749 -0.0825
13061SOL     OW40623   7.640   7.594   9.253  0.1894 -0.8178 -0.5379
13061SOL    HW140624   7.728   7.584   9.215 -0.5529 -0.1362 -2.5754
13061SOL    HW240625   7.615   7.684   9.232 -0.5717 -0.6250  1.0489
13062SOL     OW40626   5.418   0.422   9.440 -0.2795 -0.4899 -0.2261
13062SOL    HW140627   5.455   0.489   9.382  1.7945 -0.5772  0.8980
13062SOL    HW240628   5.424   0.341   9.389 -2.0440 -0.0286 -1.2791
13063SOL     OW40629   4.293   1.716   8.501 -0.0975  0.1676  0.0261
13063SOL    HW140630   4.332   1.759   8.577  0.3460  0.9053 -0.5988
13063SOL    HW240631   4.362   1.717   8.435 -0.6267 -0.0456 -0.5446
13064SOL     OW40632   4.759   0.880   8.461 -0.1960  0.4211 -0.4376
13064SOL    HW140633   4.666   0.865   8.447 -0.3951  0.1289  1.0145
13064SOL    HW240634   4.796   0.792   8.472 -0.4507  0.5814  2.7591
13065SOL     OW40635   4.432   1.309   9.096  0.0117  0.7303 -0.4920
13065SOL    HW140636   4.386   1.362   9.161  0.5320  0.3626  0.1841
13065SOL    HW240637   4.407   1.219   9.116  1.6376  0.4368  0.4248
13066SOL     OW40638   3.854   1.422   9.265  0.4271 -0.3779 -0.7759
13066SOL    HW140639   3.928   1.415   9.326 -0.1853  0.5448  0.1065
13066SOL    HW240640   3.860   1.510   9.230 -0.5553 -0.0981 -0.2797
13067SOL     OW40641   3.744   1.181   8.668  0.1575  0.4292  0.3267
13067SOL    HW140642   3.754   1.087   8.658  2.5425  0.4903  1.3445
13067SOL    HW240643   3.715   1.212   8.582 -0.1603 -1.1532 -0.1652
13068SOL     OW40644   4.658   1.704   9.922  0.1840  0.3277  0.3669
13068SOL    HW140645   4.697   1.730   9.839 -0.0044 -0.8365 -0.1058
13068SOL    HW240646   4.569   1.739   9.919  0.6493  1.6329  0.7744
13069SOL     OW40647   5.120   0.335   8.042 -0.0922  0.1796  0.7028
13069SOL    HW140648   5.167   0.252   8.046  0.6343  0.5841  0.6774
13069SOL    HW240649   5.152   0.377   7.963 -1.3008 -0.0055  0.0935
13070SOL     OW40650   4.812   7.910   8.658  0.0811 -0.6122  0.0265
13070SOL    HW140651   4.737   7.856   8.634 -0.7489  1.1571 -1.6994
13070SOL    HW240652   4.777   8.000   8.658  1.9379  0.1480  0.3597
13071SOL     OW40653   3.855   1.301   7.944  0.6268 -0.1667  0.0873
13071SOL    HW140654   3.948   1.309   7.963  0.8512  0.7751 -1.1885
13071SOL    HW240655   3.811   1.345   8.017  1.1500 -1.0528  0.9437
13072SOL     OW40656   3.753   1.058   7.878 -0.1963  0.5380  0.6322
13072SOL    HW140657   3.782   1.149   7.887 -1.9272  1.3917 -1.3101
13072SOL    HW240658   3.663   1.065   7.845 -0.4510 -1.8900  0.6101
13073SOL     OW40659   3.144   0.592   8.242  0.0919 -0.3021 -0.1125
13073SOL    HW140660   3.153   0.672   8.191 -1.6189  1.2563  1.8392
13073SOL    HW240661   3.073   0.543   8.201 -0.1480  0.1210 -0.1969
13074SOL     OW40662   6.074   0.740   8.247  0.1004 -0.7705 -0.1933
13074SOL    HW140663   6.109   0.653   8.265 -1.2289 -1.6298 -1.5341
13074SOL    HW240664   6.074   0.747   8.152 -1.1451  0.1054 -0.1576
13075SOL     OW40665   3.496   0.905  10.273  0.1584  0.2942 -0.3553
13075SOL    HW140666   3.461   0.993  10.259  0.3826  0.3778 -0.3901
13075SOL    HW240667   3.588   0.912  10.250 -0.4357 -0.7080 -3.5024
13076SOL     OW40668   3.115   1.137   6.856 -0.3428  0.1425 -0.0361
13076SOL    HW140669   3.066   1.148   6.775  1.0914 -2.3463 -1.3700
13076SOL    HW240670   3.173   1.214   6.859 -1.8983  1.3770 -0.1619
13077SOL     OW40671   4.042   1.345   9.474 -0.2909 -0.1433 -0.2612
13077SOL    HW140672   4.107   1.371   9.539 -1.3102  0.6653  0.4811
13077SOL    HW240673   3.966   1.318   9.526 -0.6701 -0.7671 -1.1088
13078SOL     OW40674   3.219   0.562   7.541  0.0707 -0.3779  0.4292
13078SOL    HW140675   3.270   0.603   7.611  1.2754  1.2344 -1.3054
13078SOL    HW240676   3.284   0.512   7.491 -0.2673  0.5255 -0.9641
13079SOL     OW40677   2.667   1.216   8.702 -0.3377 -0.2651  0.9226
13079SOL    HW140678   2.574   1.204   8.724 -0.7893  2.3482  0.7970
13079SOL    HW240679   2.666   1.242   8.610  0.5146 -0.1291  0.9475
13080SOL     OW40680   3.464   1.523   7.546  0.1932  0.0505  0.1751
13080SOL    HW140681   3.439   1.431   7.539  1.1180 -0.3305  1.4904
13080SOL    HW240682   3.536   1.533   7.484 -2.0428  0.7802 -2.4944
13081SOL     OW40683   5.210   1.496   8.164 -0.8242 -0.1552 -0.3197
13081SOL    HW140684   5.267   1.566   8.194 -0.2358 -0.1200 -1.4856
13081SOL    HW240685   5.123   1.536   8.161 -0.6691  0.2151  0.0341
13082SOL     OW40686   4.953   0.038   7.555 -0.5853  0.0577  0.2674
13082SOL    HW140687   4.887   0.107   7.558  1.7945  2.7724 -2.8493
13082SOL    HW240688   4.922  -0.023   7.488 -1.0528 -0.0710  0.5915
13083SOL     OW40689   4.203   1.881   7.366 -0.2613  0.6408 -0.1670
13083SOL    HW140690   4.178   1.917   7.452 -0.8961 -0.6624  0.2054
13083SOL    HW240691   4.276   1.937   7.339  0.3723  0.7077  1.5098
13084SOL     OW40692   4.244   1.639   8.097 -0.2548  0.6490  0.2871
13084SOL    HW140693   4.190   1.562   8.079  0.6152  0.0162  0.2996
13084SOL    HW240694   4.190   1.694   8.154 -2.6943  2.2191 -3.1987
13085SOL     OW40695   3.957   1.536   7.133  0.3324  0.5921 -0.0715
13085SOL    HW140696   4.003   1.618   7.113  0.2350  0.7121  0.1875
13085SOL    HW240697   4.028   1.473   7.150  0.4148  0.4492 -0.9235
13086SOL     OW40698   4.683   0.583   9.010  0.1203 -0.0726  0.1871
13086SOL    HW140699   4.632   0.598   8.930  1.3627 -0.3174 -0.6848
13086SOL    HW240700   4.771   0.565   8.979  0.5281 -0.6799  1.6095
13087SOL     OW40701   3.963   2.158   8.137 -0.2401 -0.1896 -0.1885
13087SOL    HW140702   3.891   2.216   8.112  1.1951  1.1373 -1.4174
13087SOL    HW240703   4.033   2.217   8.163  0.6382 -1.4400  0.3445
13088SOL     OW40704   4.759   7.292  10.691 -0.0825  0.0751  0.6299
13088SOL    HW140705   4.776   7.213  10.641 -0.9601  0.0690  0.3243
13088SOL    HW240706   4.728   7.356  10.627  1.5288  0.9868  0.7175
13089SOL     OW40707   3.870   1.067   9.970  0.2341 -0.1010 -0.0054
13089SOL    HW140708   3.951   1.069  10.021  0.6105 -1.4149 -0.5024
13089SOL    HW240709   3.897   1.037   9.884 -0.7953 -0.6375 -0.1559
13090SOL     OW40710   3.803   2.554   9.938 -0.1477 -0.2249 -0.0227
13090SOL    HW140711   3.850   2.623   9.986 -0.2989  0.4234 -0.7746
13090SOL    HW240712   3.752   2.601   9.872  0.1893 -1.0865 -0.9335
13091SOL     OW40713   5.172   0.294   9.936 -0.0874 -0.6401 -0.1337
13091SOL    HW140714   5.100   0.357   9.943  0.7978  0.4963 -0.8088
13091SOL    HW240715   5.232   0.335   9.874  1.2399 -1.4705  0.5803
13092SOL     OW40716   2.727   2.588  10.387  0.0352 -0.1105  0.4069
13092SOL    HW140717   2.703   2.680  10.377  2.3328  0.4640 -0.4289
13092SOL    HW240718   2.715   2.551  10.300 -1.4464 -0.8038  0.8696
13093SOL     OW40719   4.197   1.916   7.909  0.2253 -0.1298  0.1800
13093SOL    HW140720   4.184   1.987   7.845 -0.1071 -0.8641 -0.5823
13093SOL    HW240721   4.109   1.882   7.924  0.4700 -0.8588 -0.0209
13094SOL     OW40722   5.049   1.345   8.720  0.3495  0.2697  0.2753
13094SOL    HW140723   5.092   1.387   8.646 -1.0420  0.8614 -0.2413
13094SOL    HW240724   4.957   1.339   8.694  0.2653 -1.9419  0.8769
13095SOL     OW40725   2.802   0.891   9.283 -0.5145  0.1433 -0.3749
13095SOL    HW140726   2.783   0.803   9.250  0.4822  0.0812 -0.8141
13095SOL    HW240727   2.878   0.880   9.340 -1.6716  0.3976  1.3016
13096SOL     OW40728   3.782   1.481   8.133 -0.3714 -0.0665  0.8465
13096SOL    HW140729   3.692   1.509   8.118 -1.1480 -2.1577  1.3440
13096SOL    HW240730   3.821   1.551   8.186 -1.4831  1.1748  0.0644
13097SOL     OW40731   4.593   1.419  10.240 -0.1432 -0.5079  0.3846
13097SOL    HW140732   4.647   1.447  10.166 -0.7181  0.6598  0.3846
13097SOL    HW240733   4.506   1.407  10.202 -0.6869  1.1308  1.0425
13098SOL     OW40734   6.406   0.193   9.208  0.0758 -0.0769  0.0719
13098SOL    HW140735   6.312   0.209   9.200  0.3729  2.1345  0.4786
13098SOL    HW240736   6.433   0.243   9.285  1.5415 -0.9549  0.1691
13099SOL     OW40737   6.163   0.740   7.990 -0.4529 -0.0421 -0.1582
13099SOL    HW140738   6.132   0.811   7.934  1.5598  0.7673 -0.3468
13099SOL    HW240739   6.145   0.661   7.939 -1.7493  0.3868 -0.4191
13100SOL     OW40740   6.143   1.438   7.912 -0.3491  0.2089  0.7950
13100SOL    HW140741   6.086   1.362   7.913 -2.6445  1.7862  2.7027
13100SOL    HW240742   6.148   1.463   7.820 -1.4398 -0.9451  0.3945
13101SOL     OW40743   4.274   2.804   7.502 -0.6423  0.2752  0.8188
13101SOL    HW140744   4.335   2.877   7.490 -0.9465  0.4174  0.0972
13101SOL    HW240745   4.233   2.821   7.587 -0.3215  0.6560  0.9002
13102SOL     OW40746   3.557   2.066  10.192  0.1778 -0.4657  0.2805
13102SOL    HW140747   3.538   2.086  10.100  0.3419 -0.1129  0.3246
13102SOL    HW240748   3.652   2.056  10.195  0.2880  0.5867  0.6202
13103SOL     OW40749   4.006   6.004   7.881 -0.8501  0.2193  0.4004
13103SOL    HW140750   4.012   5.935   7.947 -2.8733  0.0613  0.4922
13103SOL    HW240751   4.097   6.026   7.860 -0.1477 -2.1345  0.7016
13104SOL     OW40752   6.110   0.322   7.981  0.0811 -0.2127  0.0860
13104SOL    HW140753   6.105   0.321   8.077  1.5460 -0.5194  0.1800
13104SOL    HW240754   6.104   0.230   7.956 -0.5999 -0.1081 -0.1414
13105SOL     OW40755   3.417   1.254   7.493 -0.0635  0.1874 -0.1480
13105SOL    HW140756   3.336   1.230   7.539 -0.4275  1.9615  0.1865
13105SOL    HW240757   3.409   1.209   7.409 -0.8657 -0.5528  0.2906
13106SOL     OW40758   4.712   1.720   8.116  0.0836  0.2126 -0.4733
13106SOL    HW140759   4.619   1.713   8.135 -0.0107 -0.7309 -1.2247
13106SOL    HW240760   4.718   1.778   8.041  0.0695 -0.0281 -0.6617
13107SOL     OW40761   4.717   2.453  10.942  0.7884  0.1338  0.1292
13107SOL    HW140762   4.795   2.398  10.954 -0.4089 -1.9184 -0.9060
13107SOL    HW240763   4.645   2.391  10.932 -0.5626  1.8598 -1.8835
13108SOL     OW40764   3.397   1.456   9.227 -0.5030  0.7172 -0.3063
13108SOL    HW140765   3.367   1.472   9.317  0.4914 -1.6975  0.5242
13108SOL    HW240766   3.336   1.391   9.192  0.8182 -0.5904 -0.2884
13109SOL     OW40767   5.186   1.084   8.769 -0.2462 -0.0261  0.4178
13109SOL    HW140768   5.154   1.020   8.832 -0.0378 -0.5400  0.0012
13109SOL    HW240769   5.121   1.155   8.773 -0.6166 -0.3738  0.6890
13110SOL     OW40770   5.251   6.708   6.656 -0.1962  0.2428  0.6983
13110SOL    HW140771   5.306   6.700   6.733  2.1684 -1.1115 -0.9809
13110SOL    HW240772   5.252   6.620   6.617 -2.1403  0.6356 -0.3493
13111SOL     OW40773   4.454   6.323   7.015  0.4867 -0.1006 -0.3323
13111SOL    HW140774   4.433   6.295   7.104  0.9454  1.2402  0.2282
13111SOL    HW240775   4.393   6.275   6.959  0.0481 -0.8000  0.7242
13112SOL     OW40776   5.392   1.147   8.602  0.3018 -0.0465 -0.7311
13112SOL    HW140777   5.325   1.122   8.665 -1.1751  1.1789 -1.7493
13112SOL    HW240778   5.388   1.079   8.535  0.7339 -0.4591 -0.3500
13113SOL     OW40779   3.465   0.938  11.242  0.3885 -0.2663 -0.3860
13113SOL    HW140780   3.449   1.017  11.293 -1.2751 -0.0323 -1.1878
13113SOL    HW240781   3.513   0.880  11.301 -1.2164  0.0784  1.3468
13114SOL     OW40782   5.347   0.685   8.400  0.1087  0.1984 -0.1619
13114SOL    HW140783   5.328   0.638   8.319 -0.8215  0.9944 -0.4158
13114SOL    HW240784   5.318   0.626   8.470  2.4858 -1.2557 -0.2774
13115SOL     OW40785   5.412   6.815   6.475  0.2867 -0.1000  1.2295
13115SOL    HW140786   5.355   6.763   6.530  0.6668  0.3648  2.0780
13115SOL    HW240787   5.454   6.877   6.535  1.2397 -0.0483  0.5374
13116SOL     OW40788   4.227   2.808   8.301 -0.0509 -0.1198 -0.1993
13116SOL    HW140789   4.139   2.846   8.300  0.3784  0.9967  1.4023
13116SOL    HW240790   4.266   2.834   8.218 -0.8337  0.3413 -0.4316
13117SOL     OW40791   4.439   0.183  10.799 -0.0047  0.4267  0.1106
13117SOL    HW140792   4.388   0.254  10.761 -0.8731 -1.1300 -1.8060
13117SOL    HW240793   4.375   0.131  10.848  0.8082  1.4593  2.4054
13118SOL     OW40794   3.938   0.861   7.938  0.0983  0.0030  0.3970
13118SOL    HW140795   3.871   0.926   7.919 -0.2625 -0.7701 -1.0732
13118SOL    HW240796   4.019   0.900   7.907 -0.7132 -2.1218 -5.6052
13119SOL     OW40797   4.821   0.907   8.749 -0.2898 -0.0943  0.0651
13119SOL    HW140798   4.857   0.921   8.661 -0.8276 -1.5165 -0.4189
13119SOL    HW240799   4.822   0.811   8.760  0.8188  0.0807  2.0717
13120SOL     OW40800   2.959   0.975   8.689 -0.3699 -0.9830  0.3714
13120SOL    HW140801   3.043   1.020   8.697 -0.9518  0.4421 -0.9381
13120SOL    HW240802   2.927   0.968   8.778  0.5036 -0.2527  0.7616
13121SOL     OW40803   5.487   7.701   9.299  0.5141  0.2456 -0.0700
13121SOL    HW140804   5.547   7.646   9.249  1.4434 -1.0492  2.3063
13121SOL    HW240805   5.400   7.678   9.266  1.1268  0.6762 -2.1622
13122SOL     OW40806   4.822   1.362   8.299  0.0725 -0.0068 -0.2473
13122SOL    HW140807   4.906   1.319   8.311  0.5060  1.0181  0.5446
13122SOL    HW240808   4.827   1.441   8.353 -0.5275  1.2560 -1.9234
13123SOL     OW40809   5.428   1.282   9.226  0.3630  0.1154  0.5257
13123SOL    HW140810   5.519   1.312   9.217  0.4018 -0.0751  0.2673
13123SOL    HW240811   5.412   1.280   9.320 -0.0331  2.1337  0.5444
13124SOL     OW40812   4.846   1.571   8.460  0.1653  0.1518  0.3433
13124SOL    HW140813   4.915   1.615   8.508 -0.8267  0.3785  1.6225
13124SOL    HW240814   4.777   1.637   8.451 -1.0320 -0.8616  1.6157
13125SOL     OW40815   3.059   7.921   6.704  0.5710 -0.2088  0.3547
13125SOL    HW140816   3.068   7.990   6.770  0.5355 -0.7976  0.9868
13125SOL    HW240817   2.964   7.912   6.691  0.4996 -1.2221  1.4511
13126SOL     OW40818   5.163   7.679   9.700 -0.1128  0.0060 -0.0459
13126SOL    HW140819   5.084   7.672   9.755  0.4249 -2.0267  0.5737
13126SOL    HW240820   5.130   7.697   9.612 -1.2216 -0.1623  0.3176
13127SOL     OW40821   5.374   0.452   7.460  0.0684 -0.3564 -0.1123
13127SOL    HW140822   5.402   0.541   7.441  1.3415 -0.5562  0.7448
13127SOL    HW240823   5.285   0.461   7.494  0.2419  0.6011  0.0991
13128SOL     OW40824   5.167   7.730   6.613 -0.4446  0.4489  0.4930
13128SOL    HW140825   5.135   7.644   6.586  0.5408 -0.1730  1.2381
13128SOL    HW240826   5.089   7.784   6.617 -0.9392 -0.0437 -1.2508
13129SOL     OW40827   4.557   7.426  10.013 -0.3022 -0.0889  0.0512
13129SOL    HW140828   4.582   7.336  10.038  0.7383  0.2447  0.2551
13129SOL    HW240829   4.616   7.482  10.064  1.3220  0.6544 -2.4886
13130SOL     OW40830   3.794   2.396   9.243 -0.1421 -0.3432  0.4335
13130SOL    HW140831   3.848   2.475   9.233 -0.8251  0.2559  1.2790
13130SOL    HW240832   3.757   2.404   9.331 -1.1851 -0.9989  0.0745
13131SOL     OW40833   4.892   2.069   8.053 -0.0917 -0.6997  0.9233
13131SOL    HW140834   4.910   2.107   7.967 -0.9868 -1.8448  0.1939
13131SOL    HW240835   4.848   2.139   8.102 -1.9281 -0.7968 -0.4735
13132SOL     OW40836   4.644   7.848  10.285 -0.5429  0.1390 -0.2825
13132SOL    HW140837   4.595   7.925  10.256 -0.3800 -0.0343 -1.0430
13132SOL    HW240838   4.736   7.872  10.273 -0.4928 -0.1954 -0.5985
13133SOL     OW40839   3.924   2.788  10.448  0.4256  0.1591 -0.0689
13133SOL    HW140840   3.830   2.770  10.459  0.2392  0.3408 -1.2497
13133SOL    HW240841   3.934   2.878  10.476  0.4391 -0.1700  1.0227
13134SOL     OW40842   3.849   7.857   8.175 -0.5312 -0.4599  0.3036
13134SOL    HW140843   3.935   7.898   8.183 -1.0271  0.9733 -1.3615
13134SOL    HW240844   3.813   7.891   8.094 -1.9881 -2.3718  0.0728
13135SOL     OW40845   4.107   0.192   9.030  0.0458  0.0615 -0.7364
13135SOL    HW140846   4.084   0.112   8.984  0.6969 -1.3679  1.2493
13135SOL    HW240847   4.024   0.223   9.067 -0.0720 -0.2295 -0.7504
13136SOL     OW40848   3.598   1.748   7.374 -0.0795  0.2987  0.1299
13136SOL    HW140849   3.557   1.685   7.315  1.1036 -0.3965  0.0137
13136SOL    HW240850   3.525   1.801   7.408 -0.9464 -0.3176 -0.7305
13137SOL     OW40851   6.203   1.620  10.687  0.2847 -0.0550  0.7948
13137SOL    HW140852   6.211   1.633  10.782  0.2871 -2.1644  1.1329
13137SOL    HW240853   6.278   1.566  10.664 -0.2297 -0.3523 -0.2394
13138SOL     OW40854   3.667   1.738   7.806  0.4063  0.2923 -0.0233
13138SOL    HW140855   3.602   1.797   7.767  1.1712 -0.0045 -1.8810
13138SOL    HW240856   3.620   1.656   7.820  0.2094  0.2664 -0.7861
13139SOL     OW40857   5.043   1.462   9.567  0.1325 -0.0209 -0.9858
13139SOL    HW140858   4.994   1.382   9.588  0.9402 -0.4986 -0.8720
13139SOL    HW240859   5.039   1.468   9.472  0.0257 -0.1716 -0.9916
13140SOL     OW40860   3.593   1.858   8.167 -0.5463  0.1073 -0.4011
13140SOL    HW140861   3.667   1.895   8.215 -1.3289  1.2088  0.0142
13140SOL    HW240862   3.543   1.935   8.138 -1.1957 -0.5979 -1.1993
13141SOL     OW40863   3.229   1.098   7.295 -0.5960 -0.2118 -0.0216
13141SOL    HW140864   3.203   1.043   7.222 -0.1122 -0.3088 -0.1260
13141SOL    HW240865   3.208   1.046   7.373 -1.3322 -0.0106 -0.0788
13142SOL     OW40866   3.760   1.356   6.540  0.7199  0.2121 -0.0997
13142SOL    HW140867   3.833   1.315   6.493  1.3051  0.4569  0.5864
13142SOL    HW240868   3.801   1.413   6.604 -0.0228 -1.0766  1.6044
13143SOL     OW40869   6.032   1.249   9.508  0.0616  0.2854 -0.2590
13143SOL    HW140870   5.977   1.171   9.499 -0.2280  0.4291  0.2080
13143SOL    HW240871   6.023   1.295   9.425 -1.4109  0.8683  0.1918
13144SOL     OW40872   4.233   3.075   9.151 -0.3458 -0.5494  0.4943
13144SOL    HW140873   4.233   3.171   9.159 -0.6752 -0.4454 -0.5241
13144SOL    HW240874   4.325   3.052   9.140 -0.3326 -0.2709  0.0052
13145SOL     OW40875   4.443   2.442   8.489  0.1727 -0.4431 -0.2607
13145SOL    HW140876   4.375   2.506   8.507  2.3750  1.4647  2.1209
13145SOL    HW240877   4.498   2.483   8.422 -1.1644 -2.1788 -2.5392
13146SOL     OW40878   4.492   2.704   9.344  0.1269 -0.0345  0.1992
13146SOL    HW140879   4.554   2.770   9.314  1.3410 -1.4746 -0.5733
13146SOL    HW240880   4.508   2.629   9.288 -0.6335 -1.2802  1.5845
13147SOL     OW40881   4.872   0.381   7.913 -0.2208  0.2691 -0.7536
13147SOL    HW140882   4.898   0.468   7.883 -1.1938  0.5291 -0.8879
13147SOL    HW240883   4.951   0.345   7.954 -0.7798  2.8471  3.0981
13148SOL     OW40884   2.311   1.472   5.775 -0.0091  0.6115 -0.7419
13148SOL    HW140885   2.354   1.389   5.753 -0.4052  0.5345 -1.2231
13148SOL    HW240886   2.278   1.458   5.864  0.2417  0.3829 -0.6807
13149SOL     OW40887   5.635   1.833   8.239 -0.0152 -0.2610 -0.1873
13149SOL    HW140888   5.614   1.910   8.291  2.5052  0.6247 -0.3688
13149SOL    HW240889   5.590   1.761   8.284 -2.3662  1.2358  0.0235
13150SOL     OW40890   4.678   0.499   8.392  0.8884 -0.7520 -0.5958
13150SOL    HW140891   4.719   0.549   8.463  0.5979 -2.2786  0.7077
13150SOL    HW240892   4.752   0.462   8.344  1.1118  0.9984 -1.6877
13151SOL     OW40893   4.688   2.474   9.785 -0.6735  0.2818  0.4419
13151SOL    HW140894   4.686   2.494   9.879  0.9697  0.3511  0.4811
13151SOL    HW240895   4.731   2.549   9.745 -2.1472  0.6628 -0.5135
13152SOL     OW40896   6.156   6.650   7.778  0.0431 -0.6561  0.6093
13152SOL    HW140897   6.199   6.684   7.856 -1.6305 -1.4785  1.9820
13152SOL    HW240898   6.180   6.710   7.708  0.0106  1.2823  2.1802
13153SOL     OW40899   4.736   0.703  10.001  0.5292 -0.4346 -0.0132
13153SOL    HW140900   4.640   0.700  10.001  0.3116  2.6620  1.5531
13153SOL    HW240901   4.759   0.722   9.910 -0.6079  1.9281  0.1256
13154SOL     OW40902   3.580   0.092   6.913 -0.2957 -0.2018 -0.1286
13154SOL    HW140903   3.590   0.041   6.833 -0.4624  0.4394 -0.5700
13154SOL    HW240904   3.617   0.177   6.892 -2.8878  0.9361 -0.5108
13155SOL     OW40905   4.409   1.299   8.433 -0.1611  0.2434 -0.1756
13155SOL    HW140906   4.346   1.268   8.497  0.8099 -1.2461  0.0886
13155SOL    HW240907   4.484   1.240   8.441  0.4066  0.6455 -1.9592
13156SOL     OW40908   3.651   0.109   7.457  0.3251  0.2233 -1.0114
13156SOL    HW140909   3.737   0.117   7.496 -0.2265 -2.7004  1.1685
13156SOL    HW240910   3.666   0.065   7.373  0.8922 -2.3726  0.3654
13157SOL     OW40911   4.938   0.668  10.275  0.7943  0.8030  0.1299
13157SOL    HW140912   5.009   0.694  10.216 -0.5539  1.6607 -1.1641
13157SOL    HW240913   4.862   0.717  10.245 -0.8967 -1.6560  0.1361
13158SOL     OW40914   3.547   7.100   7.720  0.7517 -0.2234 -0.0616
13158SOL    HW140915   3.533   7.027   7.780 -0.6690 -1.0694 -1.3545
13158SOL    HW240916   3.568   7.059   7.636 -0.3792  0.8265 -0.8961
13159SOL     OW40917   3.231   0.706   9.534 -0.6540 -0.2808 -0.3587
13159SOL    HW140918   3.251   0.613   9.546 -1.0819 -0.1673  1.4529
13159SOL    HW240919   3.316   0.747   9.518 -0.0206 -0.5712  1.9343
13160SOL     OW40920   2.806   0.325  10.080  0.3766 -0.0211  0.1523
13160SOL    HW140921   2.821   0.258  10.013  0.0783  2.1437 -2.2312
13160SOL    HW240922   2.892   0.363  10.096  0.4517 -0.5497  1.0654
13161SOL     OW40923   3.688   0.355   7.314 -0.2515 -0.0031  0.3380
13161SOL    HW140924   3.719   0.325   7.228 -1.3199  0.2951 -0.1820
13161SOL    HW240925   3.700   0.280   7.372  0.9016 -0.0646  0.0366
13162SOL     OW40926   5.211   0.432  12.298  0.4985  0.2862  0.1607
13162SOL    HW140927   5.164   0.509  12.266  1.6994  0.8019 -0.4409
13162SOL    HW240928   5.145   0.363  12.302 -0.2658  0.9319 -0.8405
13163SOL     OW40929   4.443   1.039  11.465  0.4743 -0.6900 -0.3150
13163SOL    HW140930   4.418   1.085  11.545 -0.0163 -0.5438 -0.5480
13163SOL    HW240931   4.537   1.054  11.457  0.3213  0.3175 -0.4093
13164SOL     OW40932   2.693   7.610  10.186 -0.6473  0.2650  0.0627
13164SOL    HW140933   2.667   7.615  10.094 -1.1407 -1.0494  0.1084
13164SOL    HW240934   2.753   7.535  10.190 -2.2105 -0.9948  1.1333
13165SOL     OW40935   3.132   1.168  11.059  0.3755  0.6399  0.4215
13165SOL    HW140936   3.047   1.210  11.070  0.0355 -0.6642  4.8560
13165SOL    HW240937   3.193   1.226  11.106  1.1468 -0.4130  0.7425
13166SOL     OW40938   4.114   0.813  10.241 -0.3118 -0.3501  0.1618
13166SOL    HW140939   4.190   0.756  10.243 -0.4541 -0.6348 -1.3216
13166SOL    HW240940   4.137   0.887  10.297  1.3422 -0.0942 -0.8149
13167SOL     OW40941   4.710   7.530   8.367  0.4182  0.0041 -0.3851
13167SOL    HW140942   4.788   7.485   8.336 -1.8579 -3.0659 -2.1886
13167SOL    HW240943   4.712   7.520   8.462  1.9289 -0.4827 -0.4466
13168SOL     OW40944   3.643   2.736  10.430 -0.2497  0.2398 -0.1640
13168SOL    HW140945   3.648   2.768  10.340 -1.7170 -0.3142 -0.4584
13168SOL    HW240946   3.582   2.662  10.427 -0.7003  0.5098  1.3714
13169SOL     OW40947   3.902   1.355  11.419  0.6258  0.0651  0.4975
13169SOL    HW140948   3.881   1.311  11.337  0.9147 -0.5280  0.7315
13169SOL    HW240949   3.962   1.425  11.394 -1.7926  1.9959 -0.2205
13170SOL     OW40950   6.376   2.328  10.005  0.0319  0.1044  0.0355
13170SOL    HW140951   6.301   2.272  10.024  0.6786 -0.6471  0.4365
13170SOL    HW240952   6.338   2.413   9.985 -0.8087  0.6414  3.3590
13171SOL     OW40953   5.936   0.985   9.785  0.0213  0.2419  0.6151
13171SOL    HW140954   5.879   1.001   9.710  0.8899  1.6853  0.2214
13171SOL    HW240955   5.888   1.021   9.860 -1.3533 -2.2114  1.0009
13172SOL     OW40956   4.495   2.289  10.435 -0.4141  0.1622  0.3099
13172SOL    HW140957   4.507   2.345  10.359 -0.5038  1.8249  1.4641
13172SOL    HW240958   4.582   2.257  10.456  0.0035  1.5764  0.8546
13173SOL     OW40959   4.710   1.849  12.009  0.1713  0.2168 -0.7654
13173SOL    HW140960   4.633   1.858  12.064  0.0316 -0.2646 -0.8796
13173SOL    HW240961   4.784   1.871  12.066 -0.1138  1.8079 -0.9494
13174SOL     OW40962   4.482   1.259  12.016  0.1582  0.1653  0.5554
13174SOL    HW140963   4.476   1.242  12.110 -0.2394 -0.9311  0.3537
13174SOL    HW240964   4.396   1.233  11.982  0.4319  0.1770 -0.1626
13175SOL     OW40965   5.076   0.007  11.086  0.3317 -0.4454  0.4326
13175SOL    HW140966   5.105   0.060  11.012 -2.8756  1.3316  0.2771
13175SOL    HW240967   5.145   0.018  11.152  1.4541  1.0023 -0.9103
13176SOL     OW40968   3.228   1.945  10.719 -0.3614 -0.1644 -0.4203
13176SOL    HW140969   3.263   1.889  10.649 -1.5738  1.5649 -2.5075
13176SOL    HW240970   3.133   1.935  10.713 -0.6312  2.1581 -0.9746
13177SOL     OW40971   6.466   2.087   0.287  0.3529  0.2224  0.0352
13177SOL    HW140972   6.401   2.155   0.269  1.0726  0.6117 -1.2605
13177SOL    HW240973   6.448   2.059   0.377 -3.2265 -1.4805 -1.0144
13178SOL     OW40974   5.056   1.352  11.996 -0.5872  0.2642 -0.0162
13178SOL    HW140975   5.015   1.372  12.081  0.6926  1.6503  0.3149
13178SOL    HW240976   5.127   1.291  12.018 -0.2056  0.6857 -0.0781
13179SOL     OW40977   4.279   0.423  11.128 -0.6441  0.1621 -0.1709
13179SOL    HW140978   4.266   0.468  11.212 -2.7221  0.7689 -0.7404
13179SOL    HW240979   4.202   0.366  11.119  0.0571 -0.6689 -1.2086
13180SOL     OW40980   4.001   1.190  10.269 -0.2488  0.2093  0.0076
13180SOL    HW140981   4.022   1.170  10.361 -0.9834 -4.4849 -0.6322
13180SOL    HW240982   4.074   1.152  10.220 -0.2127  2.0704 -1.4807
13181SOL     OW40983   4.385   1.760   9.839  0.8093 -0.2166  0.2787
13181SOL    HW140984   4.423   1.747   9.752  2.2825 -0.8341  0.9756
13181SOL    HW240985   4.294   1.787   9.822  0.6391 -1.6769 -1.4252
13182SOL     OW40986   3.610   7.083  11.065 -0.4024 -0.0255  0.3444
13182SOL    HW140987   3.548   7.085  11.138  0.3088 -1.2002  1.0018
13182SOL    HW240988   3.690   7.125  11.100 -0.4340  0.4587 -0.1408
13183SOL     OW40989   4.735   0.883  10.203  0.1558  0.4021  0.2182
13183SOL    HW140990   4.772   0.965  10.172  1.9831  0.3388  2.0068
13183SOL    HW240991   4.743   0.823  10.128  1.2805  1.1478 -0.2845
13184SOL     OW40992   5.928   1.691  10.472  0.7139 -0.2245 -0.3196
13184SOL    HW140993   5.924   1.675  10.377  1.3496  0.8712 -0.5419
13184SOL    HW240994   6.017   1.667  10.497  0.6689 -0.1338 -0.0693
13185SOL     OW40995   3.091   1.703  10.440 -0.0688  0.0822 -0.1441
13185SOL    HW140996   3.112   1.667  10.354 -1.5305  0.1648 -0.5619
13185SOL    HW240997   3.081   1.797  10.425  1.5634  0.4031  0.5234
13186SOL     OW40998   5.510   0.841  10.987  0.6190 -0.0421  0.0888
13186SOL    HW140999   5.461   0.900  11.044  0.2614  0.3501 -0.6040
13186SOL    HW241000   5.467   0.849  10.902  1.5982 -0.0400 -0.4256
13187SOL     OW41001   4.618   2.104   9.499 -0.5730 -0.2343 -0.1286
13187SOL    HW141002   4.678   2.088   9.572  0.8628  1.9045 -0.7576
13187SOL    HW241003   4.561   2.174   9.530 -0.6783 -0.0756 -0.6774
13188SOL     OW41004   3.909   0.323   9.184 -0.0322 -0.1170  0.0720
13188SOL    HW141005   3.846   0.307   9.113  0.1916 -0.7426  0.0073
13188SOL    HW241006   3.855   0.354   9.257 -0.4831 -1.0511  0.1531
13189SOL     OW41007   5.468   2.136  10.089  0.3089  0.4009 -0.0620
13189SOL    HW141008   5.420   2.068  10.043  2.2120 -1.2613  0.2792
13189SOL    HW241009   5.406   2.209  10.095 -1.6771 -1.1306 -0.7673
13190SOL     OW41010   5.825   2.578   9.763 -0.3127 -0.1569 -0.2064
13190SOL    HW141011   5.859   2.662   9.794  0.7595  0.0542 -1.8162
13190SOL    HW241012   5.761   2.601   9.696  0.0715 -0.6054 -0.7423
13191SOL     OW41013   4.620   7.792   9.841  0.1385 -0.4442 -0.1820
13191SOL    HW141014   4.618   7.855   9.768 -1.8179 -0.0665  0.1443
13191SOL    HW241015   4.600   7.845   9.918 -0.2864 -1.2506  0.2754
13192SOL     OW41016   3.019   7.598  11.452 -0.4157 -0.4538  0.1395
13192SOL    HW141017   2.983   7.541  11.520  0.5148  0.2542  1.2610
13192SOL    HW241018   3.070   7.664  11.500 -0.8388  0.8751 -1.1584
13193SOL     OW41019   5.954   2.219   8.546 -0.0529 -0.4102  0.3302
13193SOL    HW141020   6.030   2.270   8.517 -0.1861 -0.1664  0.4029
13193SOL    HW241021   5.953   2.230   8.641 -0.4537 -0.0158  0.2872
13194SOL     OW41022   5.301   2.290  10.911 -0.5807  0.0861 -0.0348
13194SOL    HW141023   5.235   2.281  10.842  1.5453  0.3982 -2.2608
13194SOL    HW241024   5.332   2.201  10.926 -0.2201  0.1600 -0.3428
13195SOL     OW41025   4.454   0.161  11.202 -0.0767 -0.0122  0.0876
13195SOL    HW141026   4.416   0.248  11.195 -2.1036 -0.7275  1.1945
13195SOL    HW241027   4.438   0.136  11.293 -0.7035 -2.0365 -0.5418
13196SOL     OW41028   4.442   3.002  10.189 -0.7033 -0.3571  0.0994
13196SOL    HW141029   4.451   3.089  10.228  1.2969 -1.8557  3.3701
13196SOL    HW241030   4.493   3.007  10.108  0.5771  1.1206  0.9423
13197SOL     OW41031   5.356   0.932  10.765 -0.7538 -0.3566 -0.3278
13197SOL    HW141032   5.290   0.868  10.738  1.3468 -1.9894 -1.9078
13197SOL    HW241033   5.355   0.998  10.696 -1.3108  0.0711  0.0876
13198SOL     OW41034   5.048   6.965   9.659  0.0642  0.0492  0.6538
13198SOL    HW141035   5.059   6.990   9.567  1.9736  0.2675  0.8998
13198SOL    HW241036   5.043   6.869   9.657 -0.8202  0.0966  0.2541
13199SOL     OW41037   6.483   1.325   9.805  0.3560  0.3979 -0.1482
13199SOL    HW141038   6.418   1.281   9.751  0.2337  0.2146  0.1482
13199SOL    HW241039   6.551   1.259   9.819 -1.0687 -0.6402  2.5534
13200SOL     OW41040   6.192   1.038   9.873 -0.4466 -0.5825  0.3717
13200SOL    HW141041   6.102   1.012   9.853 -0.2380 -1.8456  0.9280
13200SOL    HW241042   6.208   1.000   9.959  0.0124  1.2353  1.1291
13201SOL     OW41043   3.683   5.665  10.938 -0.1882 -0.0042  0.2005
13201SOL    HW141044   3.762   5.624  10.972 -0.4264 -0.4798  0.1822
13201SOL    HW241045   3.694   5.663  10.843  1.2272  2.7720  0.1906
13202SOL     OW41046   5.921   7.126   8.312  0.0742  0.0943 -0.4612
13202SOL    HW141047   5.922   7.033   8.334  0.7954  0.1569 -0.2252
13202SOL    HW241048   5.885   7.168   8.390  1.3349  0.1751  0.0994
13203SOL     OW41049   3.391   0.009  10.263  0.2994 -0.3805  0.2681
13203SOL    HW141050   3.310  -0.040  10.277  1.5423 -2.0096  2.3703
13203SOL    HW241051   3.434  -0.036  10.191  0.7037 -1.4765  1.1598
13204SOL     OW41052   5.894   1.429  10.577  0.0490  0.4254  0.5986
13204SOL    HW141053   5.979   1.408  10.539  0.1112  0.4607  0.7223
13204SOL    HW241054   5.867   1.510  10.533 -0.7296 -0.5252 -0.7792
13205SOL     OW41055   5.015   1.410  10.203  1.5080  0.0319 -0.0058
13205SOL    HW141056   5.048   1.454  10.124  1.7146  0.9542  0.5786
13205SOL    HW241057   4.974   1.480  10.254  0.4733 -0.7380  0.2469
13206SOL     OW41058   4.503   0.819  10.920  0.0490 -0.0014 -0.6097
13206SOL    HW141059   4.586   0.820  10.966 -0.7006  1.5556  0.8179
13206SOL    HW241060   4.483   0.727  10.908  0.4031 -0.4864  2.0015
13207SOL     OW41061   3.617   1.905   0.004 -0.0178  0.3869 -0.0466
13207SOL    HW141062   3.676   1.953   0.062  0.4451 -0.2643  0.0228
13207SOL    HW241063   3.640   1.813   0.016 -0.0664  0.2270 -1.1105
13208SOL     OW41064   2.376   1.445  10.731  0.2310  0.7689  0.1450
13208SOL    HW141065   2.292   1.459  10.687 -0.2705  0.1138  0.8683
13208SOL    HW241066   2.434   1.410  10.663 -0.2227  0.7657 -0.2402
13209SOL     OW41067   5.725   1.195  11.017 -0.0401 -0.7505  0.1335
13209SOL    HW141068   5.682   1.158  11.094  0.3713 -2.6738 -0.5031
13209SOL    HW241069   5.811   1.222  11.049 -0.5600  0.2282  0.7388
13210SOL     OW41070   3.847   2.046   8.583  0.0220 -0.0903  0.4995
13210SOL    HW141071   3.780   2.087   8.636  0.8093  1.4742  0.3612
13210SOL    HW241072   3.908   2.117   8.562  1.5987 -1.3885  0.4323
13211SOL     OW41073   5.042   1.070   0.411  0.2669  0.0057  0.1542
13211SOL    HW141074   4.968   1.031   0.365  0.3643 -0.2070  0.1818
13211SOL    HW241075   5.006   1.151   0.448 -0.2122 -0.5908  1.0064
13212SOL     OW41076   5.699   2.075   9.975  0.2849 -0.5257  0.0247
13212SOL    HW141077   5.610   2.102   9.999  0.5896  0.6129 -0.0749
13212SOL    HW241078   5.756   2.126  10.032  0.8923 -0.9742 -0.1665
13213SOL     OW41079   4.425   0.551  11.734  0.3362  0.2154  0.0635
13213SOL    HW141080   4.459   0.641  11.735 -0.0752  0.3736  0.8032
13213SOL    HW241081   4.498   0.498  11.766  0.3796  0.3665  0.2170
13214SOL     OW41082   6.041   0.891  11.226 -0.1437  0.1504  0.4395
13214SOL    HW141083   6.110   0.886  11.293  0.2741  0.6298  0.0599
13214SOL    HW241084   6.048   0.808  11.179 -0.1542 -0.0112  0.7225
13215SOL     OW41085   6.007   1.663  11.253  1.2072 -0.1735  0.1530
13215SOL    HW141086   5.967   1.632  11.172 -0.1444  0.9522  0.3740
13215SOL    HW241087   5.935   1.667  11.316  1.7943  1.1829  0.7701
13216SOL     OW41088   4.276   1.466   9.859 -0.2093 -0.1932  0.3259
13216SOL    HW141089   4.348   1.521   9.888 -0.0556 -0.7150  0.9479
13216SOL    HW241090   4.317   1.398   9.805 -0.3968  0.2794 -0.4254
13217SOL     OW41091   6.096   2.522  11.778 -0.5608 -0.4207  0.0834
13217SOL    HW141092   6.136   2.596  11.823 -0.4462 -0.5778  0.2429
13217SOL    HW241093   6.093   2.549  11.686 -2.3773  0.6031  0.4022
13218SOL     OW41094   6.655   2.259   9.884  0.4700 -0.2352 -0.4909
13218SOL    HW141095   6.689   2.348   9.873 -1.3730  0.6042  0.2430
13218SOL    HW241096   6.560   2.270   9.892  0.2319 -2.2350 -0.0158
13219SOL     OW41097   1.947   7.505  12.134  0.1143 -0.0838  0.0349
13219SOL    HW141098   1.859   7.510  12.097 -0.1240  2.6078  0.6879
13219SOL    HW241099   1.934   7.466  12.221 -0.2825 -0.5990 -0.2495
13220SOL     OW41100   6.273   1.488   9.218  0.3832 -0.0992 -0.7792
13220SOL    HW141101   6.211   1.415   9.231 -3.4619  2.9272 -0.0489
13220SOL    HW241102   6.313   1.471   9.133 -0.3918 -2.9614 -0.6898
13221SOL     OW41103   3.698   1.773   9.290 -0.7118  0.5151 -0.0271
13221SOL    HW141104   3.764   1.820   9.238  0.0584  0.8791  1.2256
13221SOL    HW241105   3.617   1.822   9.275 -1.0094 -0.5532 -2.4320
13222SOL     OW41106   5.370   7.528   8.607 -0.1074 -0.8048  0.0402
13222SOL    HW141107   5.296   7.494   8.658 -0.7108  0.0445 -0.2458
13222SOL    HW241108   5.354   7.623   8.602  0.8098 -0.6596 -0.3391
13223SOL     OW41109   5.715   1.569  10.985 -0.1159 -0.1459 -0.1032
13223SOL    HW141110   5.749   1.488  10.947 -0.5429 -0.1946 -0.3910
13223SOL    HW241111   5.786   1.602  11.040 -0.6601 -1.8533  1.7449
13224SOL     OW41112   6.527   2.231   9.435  0.1955  0.1124  0.1365
13224SOL    HW141113   6.445   2.225   9.484  0.7245 -0.3392  0.9801
13224SOL    HW241114   6.588   2.273   9.495  0.5045  0.7628 -0.6074
13225SOL     OW41115   3.487   7.929  10.917  0.2112  0.3196  1.1970
13225SOL    HW141116   3.477   7.911  10.823  0.3742 -0.8335  1.3813
13225SOL    HW241117   3.567   7.981  10.923 -0.7896  2.0137  0.5407
13226SOL     OW41118   5.860   1.325   0.259 -0.0483  0.1202 -0.4775
13226SOL    HW141119   5.794   1.360   0.199 -0.2263  0.4359 -0.0957
13226SOL    HW241120   5.942   1.366   0.231 -0.2651  0.8968  0.0082
13227SOL     OW41121   5.954   0.821   9.409  0.4711  0.3514  0.1906
13227SOL    HW141122   6.010   0.749   9.438  1.6907  1.4386  0.6692
13227SOL    HW241123   5.951   0.814   9.314  1.1618  0.0822  0.1884
13228SOL     OW41124   2.842   7.337  10.889 -0.4085 -0.0700  0.3823
13228SOL    HW141125   2.800   7.256  10.859 -0.5009  0.5087 -1.1522
13228SOL    HW241126   2.769   7.398  10.902 -0.2504  0.1296  0.3302
13229SOL     OW41127   4.805   1.558  10.565 -0.0053  0.2617  0.0810
13229SOL    HW141128   4.713   1.536  10.549  0.0246  0.9601 -1.1536
13229SOL    HW241129   4.824   1.517  10.649 -1.3641 -0.1344  0.2317
13230SOL     OW41130   6.395   1.070  11.413  0.1548 -0.1494 -0.1881
13230SOL    HW141131   6.398   1.145  11.472  0.4496 -0.9394  0.8465
13230SOL    HW241132   6.382   1.107  11.326 -0.0459  1.0655  0.3462
13231SOL     OW41133   4.913   1.771  11.099  0.0568  0.0676  0.0217
13231SOL    HW141134   4.985   1.809  11.048 -0.3278  2.7974  1.3007
13231SOL    HW241135   4.835   1.786  11.046  0.0903 -0.3915 -0.1597
13232SOL     OW41136   4.510   0.666   8.814  0.0916  0.1471  0.4111
13232SOL    HW141137   4.499   0.636   8.724 -0.3628  1.0352  0.1532
13232SOL    HW241138   4.434   0.631   8.860  0.5080 -0.6047  0.5400
13233SOL     OW41139   3.889   1.996   9.275  0.1583  0.0534 -0.1282
13233SOL    HW141140   3.965   1.956   9.233  0.2370  1.8627 -1.8657
13233SOL    HW241141   3.926   2.059   9.337  0.0553 -0.6656  0.6687
13234SOL     OW41142   6.236   0.386  11.776 -0.7337  0.2658  0.6477
13234SOL    HW141143   6.185   0.467  11.784 -3.2545 -0.9295 -1.3779
13234SOL    HW241144   6.213   0.335  11.853 -1.6869  0.2595  0.3767
13235SOL     OW41145   5.810   0.069  11.909  0.0339  0.3061 -1.1241
13235SOL    HW141146   5.864   0.148  11.913  3.8334 -2.0611 -0.2231
13235SOL    HW241147   5.817   0.039  11.819 -1.2942  0.8514 -1.4332
13236SOL     OW41148   5.634   7.823  11.368  0.0796 -0.1013  0.2114
13236SOL    HW141149   5.591   7.777  11.296 -0.5178  1.7149 -0.6353
13236SOL    HW241150   5.726   7.798  11.360  0.1801  0.6706 -1.7303
13237SOL     OW41151   5.109   0.036   9.952 -0.3083  0.1070 -0.7659
13237SOL    HW141152   5.013   0.041   9.954 -0.5174 -2.1492  1.7595
13237SOL    HW241153   5.138   0.125   9.936 -2.8322  1.0895 -0.2645
13238SOL     OW41154   4.974   1.631  10.377 -0.1913 -0.0381  0.2353
13238SOL    HW141155   4.917   1.612  10.451  0.4686 -2.3696  0.2032
13238SOL    HW241156   4.915   1.637  10.302 -0.7214  1.1048  0.7090
13239SOL     OW41157   5.804   2.268   9.465  0.8187  0.3191 -0.6322
13239SOL    HW141158   5.755   2.186   9.470  0.4968  0.4140 -1.9807
13239SOL    HW241159   5.746   2.333   9.505  1.3284 -0.1873  1.0165
13240SOL     OW41160   2.335   7.448  10.691  0.2628  0.3170  0.0722
13240SOL    HW141161   2.357   7.361  10.658 -0.8388  1.2342 -3.4551
13240SOL    HW241162   2.417   7.497  10.687  0.6971 -0.2525  1.2897
13241SOL     OW41163   4.275   6.789  11.638 -0.2378  0.3498 -0.0070
13241SOL    HW141164   4.319   6.705  11.653  0.2093  0.4937 -0.4904
13241SOL    HW241165   4.212   6.770  11.569  0.1227  0.5011 -0.3761
13242SOL     OW41166   3.694   6.621  10.011  0.0845  0.2688 -0.1516
13242SOL    HW141167   3.610   6.630  10.056 -0.8473  0.0702 -1.7711
13242SOL    HW241168   3.748   6.692  10.045 -0.6212  0.2043  1.1539
13243SOL     OW41169   6.251   0.623  10.698 -0.2986 -0.2472 -0.0956
13243SOL    HW141170   6.272   0.628  10.605  0.2587 -0.7189 -0.0062
13243SOL    HW241171   6.170   0.571  10.701 -0.4317 -0.0586 -0.3228
13244SOL     OW41172   5.825   2.272   6.692  0.1597 -0.5893  0.1460
13244SOL    HW141173   5.741   2.308   6.722  0.5280  0.7455 -0.3439
13244SOL    HW241174   5.891   2.320   6.742  0.6856 -0.2895 -0.8087
13245SOL     OW41175   7.000   1.095  12.098 -0.1130  0.2322 -0.2016
13245SOL    HW141176   6.919   1.077  12.146 -0.1949 -1.0977 -0.7975
13245SOL    HW241177   7.067   1.099  12.167 -0.6892  1.6083  0.3220
13246SOL     OW41178   5.899   1.666   9.524  0.2023 -0.6393  0.4824
13246SOL    HW141179   5.855   1.587   9.491 -1.2205 -0.4302  1.7640
13246SOL    HW241180   5.918   1.717   9.446 -0.4726 -1.4423 -0.2292
13247SOL     OW41181   3.513   1.357   8.707 -0.1689  0.4786 -0.2441
13247SOL    HW141182   3.566   1.303   8.648 -0.9304 -0.7032  0.1165
13247SOL    HW241183   3.460   1.411   8.648 -1.1120 -0.8754 -0.7087
13248SOL     OW41184   5.422   1.333   9.490 -0.2915  0.1876  0.4263
13248SOL    HW141185   5.349   1.283   9.527 -0.0747  0.4543  1.2376
13248SOL    HW241186   5.398   1.424   9.504 -0.9142  0.3711 -1.4777
13249SOL     OW41187   5.877   0.518  10.952  0.1515 -0.2183  0.1426
13249SOL    HW141188   5.858   0.426  10.972 -1.0616  0.0592  0.3879
13249SOL    HW241189   5.791   0.556  10.932  0.5442  0.9991  0.6455
13250SOL     OW41190   5.413   0.132   9.349  0.0417  0.0380  0.2398
13250SOL    HW141191   5.438   0.155   9.259 -0.6305 -1.4484 -0.3617
13250SOL    HW241192   5.482   0.072   9.378  0.6073  1.0180  0.9779
13251SOL     OW41193   6.337   7.556  11.092  0.1954 -0.2304 -0.2134
13251SOL    HW141194   6.428   7.574  11.070 -0.1628  1.1354 -0.6768
13251SOL    HW241195   6.300   7.520  11.012 -0.0307  0.6432 -0.5142
13252SOL     OW41196   6.430   2.231  10.920 -0.3907 -0.0273 -0.1957
13252SOL    HW141197   6.339   2.235  10.950  0.2671 -0.7357  2.1077
13252SOL    HW241198   6.440   2.141  10.889 -0.1278 -0.3850  0.8827
13253SOL     OW41199   6.518   1.187  10.825  0.0666  0.3044 -0.6680
13253SOL    HW141200   6.554   1.230  10.748 -0.6827 -0.1630 -1.2991
13253SOL    HW241201   6.473   1.257  10.872  0.2764  0.5379 -0.8130
13254SOL     OW41202   4.797   0.623  11.542 -0.7711 -0.2976  0.2151
13254SOL    HW141203   4.878   0.668  11.520 -1.3311  2.1209  2.5573
13254SOL    HW241204   4.823   0.533  11.560  1.2347  0.1953  0.0150
13255SOL     OW41205   5.208   0.761  10.148  0.2872 -0.4105 -0.3707
13255SOL    HW141206   5.216   0.853  10.175  0.0326  0.1450 -2.0280
13255SOL    HW241207   5.291   0.722  10.174  0.6644  0.4576 -0.2158
13256SOL     OW41208   5.509   1.505  11.439  0.0096 -0.7616  0.1915
13256SOL    HW141209   5.514   1.594  11.473  0.0645 -0.8524  0.4308
13256SOL    HW241210   5.487   1.515  11.347  0.2202 -0.4948  0.1697
13257SOL     OW41211   4.695   1.411  12.478 -0.1325 -0.4053 -0.4285
13257SOL    HW141212   4.754   1.406  12.553 -0.0380  0.4985 -0.4353
13257SOL    HW241213   4.728   1.345  12.417  1.2213  0.4720 -0.6789
13258SOL     OW41214   4.638   7.597  10.375  0.1946  0.8061 -0.4157
13258SOL    HW141215   4.713   7.557  10.332 -0.2843 -0.5939 -0.0101
13258SOL    HW241216   4.640   7.688  10.348  2.6098  1.0426  0.3828
13259SOL     OW41217   4.318   1.449  10.157 -0.1297  0.0901  1.4250
13259SOL    HW141218   4.289   1.464  10.067  2.5164  1.3522  0.6762
13259SOL    HW241219   4.267   1.511  10.209 -2.3085 -1.2333  1.0279
13260SOL     OW41220   1.694   6.623  10.055  0.4444 -0.1452 -0.5600
13260SOL    HW141221   1.614   6.616  10.106  0.1915  1.8278 -0.6145
13260SOL    HW241222   1.666   6.610   9.964  0.3451 -0.3530 -0.5001
13261SOL     OW41223   4.119   2.068  10.440 -0.1960 -0.2406  0.0162
13261SOL    HW141224   4.207   2.031  10.442 -0.3973 -0.6923  1.2081
13261SOL    HW241225   4.129   2.157  10.474 -0.0749  0.0325 -0.7031
13262SOL     OW41226   2.275   1.331  10.104  0.1474 -0.2720 -0.2319
13262SOL    HW141227   2.200   1.386  10.123 -0.1684 -0.9846  0.6799
13262SOL    HW241228   2.340   1.390  10.067  0.3214  0.9927  1.9340
13263SOL     OW41229   4.114   3.848  10.248  0.1147 -0.2052 -0.2350
13263SOL    HW141230   4.151   3.833  10.161 -1.2785 -1.4765 -0.6502
13263SOL    HW241231   4.066   3.930  10.239  0.7875  0.1802 -0.3742
13264SOL     OW41232   4.871   0.542  10.580  0.0495  0.0888 -0.1355
13264SOL    HW141233   4.918   0.549  10.497 -1.9237 -0.2910 -1.3560
13264SOL    HW241234   4.915   0.470  10.626  0.3054 -0.6501 -1.4778
13265SOL     OW41235   4.683   0.191  10.653  0.1135  0.5913 -0.2937
13265SOL    HW141236   4.608   0.132  10.662  1.5012 -1.0240  1.3360
13265SOL    HW241237   4.644   0.279  10.653 -1.7726 -0.1867  0.6187
13266SOL     OW41238   6.281   0.029   8.467  0.0952 -0.1931  0.4683
13266SOL    HW141239   6.250  -0.059   8.447  0.1485 -0.2529  0.6431
13266SOL    HW241240   6.339   0.052   8.394 -1.7225  0.6231 -0.7890
13267SOL     OW41241   4.943   2.182  10.300  0.2119  0.1169 -0.4117
13267SOL    HW141242   4.880   2.242  10.261 -1.6257 -1.6872 -0.4220
13267SOL    HW241243   4.995   2.149  10.226 -1.6155 -1.4269 -1.1106
13268SOL     OW41244   4.815   1.705  10.153 -0.4477 -0.2681 -0.9915
13268SOL    HW141245   4.750   1.768  10.184  1.6675  2.0728 -0.9773
13268SOL    HW241246   4.805   1.704  10.058 -1.9827 -1.7239 -0.8543
13269SOL     OW41247   6.357   0.076   9.734 -0.3666 -0.0894 -0.0506
13269SOL    HW141248   6.357  -0.020   9.728  0.8811 -0.1430  0.3954
13269SOL    HW241249   6.368   0.105   9.643 -2.5335 -0.2916 -0.4251
13270SOL     OW41250   5.629   2.065   1.076  0.4112  0.2247 -0.0246
13270SOL    HW141251   5.586   2.048   1.160  1.6514 -2.3503  0.1921
13270SOL    HW241252   5.623   1.982   1.029  2.9906  0.4465 -0.9185
13271SOL     OW41253   1.656   5.790   0.238  0.1687 -0.3394  0.0742
13271SOL    HW141254   1.695   5.728   0.177 -0.0662  0.3778 -0.8399
13271SOL    HW241255   1.727   5.813   0.298 -0.3234 -3.2764  2.0077
13272SOL     OW41256   3.034   7.666  10.704 -0.1761 -0.1430  0.6574
13272SOL    HW141257   3.119   7.709  10.691  0.2288 -0.9047  0.7498
13272SOL    HW241258   3.053   7.591  10.759 -0.5489 -1.5383 -1.0245
13273SOL     OW41259   4.707   1.973  10.202 -0.0329 -0.1199  0.2564
13273SOL    HW141260   4.628   1.977  10.149  1.0113  2.4382 -1.2847
13273SOL    HW241261   4.692   2.037  10.272  1.1715  1.5828 -0.9486
13274SOL     OW41262   5.154   0.477   9.480 -0.2463 -0.1607  0.5534
13274SOL    HW141263   5.129   0.567   9.501 -0.0391 -0.4441  2.1102
13274SOL    HW241264   5.246   0.483   9.454 -0.7907  0.3444 -1.4782
13275SOL     OW41265   3.095   7.443  10.863  0.2185  0.4363 -0.3397
13275SOL    HW141266   3.022   7.382  10.868  1.4301 -0.9704  1.1784
13275SOL    HW241267   3.109   7.471  10.953  0.9181  1.4774 -0.7595
13276SOL     OW41268   2.775   1.846   8.782  0.0028  0.9132  0.0125
13276SOL    HW141269   2.763   1.911   8.852 -2.2115  0.4897  0.1060
13276SOL    HW241270   2.687   1.810   8.767  0.6232  0.1320 -2.1839
13277SOL     OW41271   4.332   0.399  10.629 -0.0469 -0.1110 -0.4307
13277SOL    HW141272   4.424   0.419  10.614  0.0292  0.1572  0.3200
13277SOL    HW241273   4.299   0.370  10.544 -0.3762  4.0568 -1.9802
13278SOL     OW41274   4.532   1.798   0.565 -0.0860  0.2576 -0.3186
13278SOL    HW141275   4.446   1.837   0.548 -1.1117 -0.2276  2.9947
13278SOL    HW241276   4.558   1.834   0.650  1.5462 -1.9401  0.1904
13279SOL     OW41277   4.877   0.531  12.080 -0.0468 -0.2829 -0.3907
13279SOL    HW141278   4.863   0.590  12.006 -0.6398  0.7892  0.5460
13279SOL    HW241279   4.964   0.555  12.113 -0.5011  0.4339  0.3023
13280SOL     OW41280   3.973   1.728   9.890 -0.5989 -0.1204  0.0963
13280SOL    HW141281   3.981   1.725   9.986 -0.7692  0.0172  0.1160
13280SOL    HW241282   3.972   1.636   9.864  1.4047 -0.1725  0.0495
13281SOL     OW41283   6.089   1.254   9.189  0.0216  0.2603 -0.5770
13281SOL    HW141284   6.031   1.187   9.152  0.4113  0.0581 -0.8354
13281SOL    HW241285   6.176   1.213   9.186  0.1882  0.5970 -0.2880
13282SOL     OW41286   3.112   7.951  10.309 -1.0440  0.0652  0.8385
13282SOL    HW141287   3.050   7.993  10.249 -0.8773 -1.4979 -0.4884
13282SOL    HW241288   3.071   7.867  10.330 -0.1489 -0.2599  1.3114
13283SOL     OW41289   5.417   0.269  12.193  0.8358  0.4859 -0.4375
13283SOL    HW141290   5.390   0.180  12.213  0.2107  0.5762 -0.8239
13283SOL    HW241291   5.359   0.324  12.246  0.3618  0.6833 -1.1446
13284SOL     OW41292   3.989   1.404   9.849  0.0524 -0.1289  0.4404
13284SOL    HW141293   4.081   1.378   9.843 -0.3869 -1.9172  0.6965
13284SOL    HW241294   3.968   1.396   9.942 -0.3704  0.2471  0.3815
13285SOL     OW41295   6.001   0.492  10.558  0.0007 -0.0043  0.3161
13285SOL    HW141296   5.997   0.491  10.462  1.8971 -0.6345  0.2230
13285SOL    HW241297   5.958   0.410  10.584  1.3185 -0.8556 -0.1041
13286SOL     OW41298   6.405   0.574   9.592  0.0528  0.3034 -0.2364
13286SOL    HW141299   6.383   0.666   9.606 -0.1258  0.2985 -0.4969
13286SOL    HW241300   6.400   0.535   9.680  1.4078  0.8106  0.1078
13287SOL     OW41301   5.421   1.821  10.550  0.0121  0.0247 -0.2554
13287SOL    HW141302   5.516   1.833  10.550 -0.0559  0.6653 -1.1318
13287SOL    HW241303   5.402   1.784  10.464 -0.3259 -2.0746  0.6536
13288SOL     OW41304   4.408   0.558  10.916  0.3526  0.0027 -0.3643
13288SOL    HW141305   4.348   0.523  10.981  0.3723  1.2297  0.3395
13288SOL    HW241306   4.409   0.492  10.846 -1.6557 -0.1491 -0.3092
13289SOL     OW41307   3.884   7.985  10.721 -0.2455  0.1605 -0.4526
13289SOL    HW141308   3.822   8.022  10.659 -0.3771  0.1845 -0.3070
13289SOL    HW241309   3.969   8.023  10.696 -0.5344  1.4321  0.3567
13290SOL     OW41310   4.173   0.570   0.089 -0.8489 -0.2923  0.4677
13290SOL    HW141311   4.176   0.571   0.184  0.8752  0.4443  0.4448
13290SOL    HW241312   4.251   0.522   0.062 -0.0092  1.5064 -0.5496
13291SOL     OW41313   4.569   6.688  10.641  0.2035  0.4005  0.3513
13291SOL    HW141314   4.577   6.744  10.718 -0.6590  0.3917  0.4620
13291SOL    HW241315   4.534   6.606  10.675  0.7230  0.0650  0.0812
13292SOL     OW41316   4.932   1.396  10.986  0.3551  0.1267 -0.5499
13292SOL    HW141317   4.933   1.470  10.925 -0.3851 -0.3930 -1.2107
13292SOL    HW241318   4.912   1.320  10.931 -0.6621 -0.3095  0.3852
13293SOL     OW41319   3.757   3.044  10.238  0.1474 -0.0387 -0.0348
13293SOL    HW141320   3.832   3.103  10.235  0.0206  0.0879 -1.1664
13293SOL    HW241321   3.681   3.101  10.224 -0.4145  0.1527  2.9959
13294SOL     OW41322   4.286   0.978   9.413  0.1397 -0.3982  0.6146
13294SOL    HW141323   4.335   0.951   9.335  0.5979  1.1592  0.3370
13294SOL    HW241324   4.210   1.025   9.379  0.7463  0.9678  1.0894
13295SOL     OW41325   4.639   0.789  10.444 -0.2145 -0.4445 -0.1513
13295SOL    HW141326   4.607   0.859  10.501  0.7958 -0.9534  1.0877
13295SOL    HW241327   4.674   0.834  10.368 -2.8835  0.1919 -1.1262
13296SOL     OW41328   3.521   7.743  10.466 -0.8388  0.1186 -0.0461
13296SOL    HW141329   3.595   7.712  10.415 -1.7244 -1.0123 -0.7131
13296SOL    HW241330   3.492   7.666  10.515 -0.1705  1.1080  2.0149
13297SOL     OW41331   3.078   0.113  11.178  0.2208 -0.7764  0.1549
13297SOL    HW141332   2.990   0.139  11.207  0.4951 -0.1427  0.4426
13297SOL    HW241333   3.134   0.186  11.205  0.6456 -0.5963 -1.1204
13298SOL     OW41334   6.054   2.436  10.749 -0.1327 -0.4989  0.3049
13298SOL    HW141335   6.073   2.518  10.795  0.0418  0.1509 -0.8841
13298SOL    HW241336   6.057   2.369  10.817  2.8504  0.0341  0.8398
13299SOL     OW41337   3.030   6.650  10.123 -0.2711 -0.3897 -0.2229
13299SOL    HW141338   2.970   6.689  10.187 -1.3442  1.5634 -2.2849
13299SOL    HW241339   2.974   6.599  10.065  0.4328 -0.6365 -0.7007
13300SOL     OW41340   6.788   1.690  11.976 -0.7876 -0.8382  0.0268
13300SOL    HW141341   6.762   1.782  11.961 -1.0788 -0.6994  1.2484
13300SOL    HW241342   6.706   1.641  11.966 -0.7337 -0.8957 -0.1221
13301SOL     OW41343   4.559   2.298   9.217 -0.0798 -0.5792  0.2682
13301SOL    HW141344   4.543   2.222   9.162  0.6402 -0.0654 -0.6659
13301SOL    HW241345   4.647   2.285   9.251 -0.8934 -1.4379  2.2382
13302SOL     OW41346   5.291   0.712  10.522 -0.5437  0.2730  0.0242
13302SOL    HW141347   5.237   0.789  10.506 -1.4868  0.0578  1.8864
13302SOL    HW241348   5.245   0.640  10.479  0.3055  0.6787 -1.6623
13303SOL     OW41349   4.854   2.014   9.978 -0.3687  0.1080 -0.2854
13303SOL    HW141350   4.922   2.065  10.021 -1.6570  1.0845  0.6686
13303SOL    HW241351   4.801   1.979  10.050 -2.3601  1.4867 -0.9849
13304SOL     OW41352   3.655   1.585  10.178 -0.5394 -0.4139  0.1170
13304SOL    HW141353   3.591   1.593  10.107 -0.0072  1.2223 -0.2401
13304SOL    HW241354   3.728   1.537  10.139  0.6368  2.2203 -1.2080
13305SOL     OW41355   5.140   0.735  11.106  0.1365  0.0721 -0.2624
13305SOL    HW141356   5.202   0.808  11.103  1.9083 -1.3738 -1.7673
13305SOL    HW241357   5.191   0.660  11.074 -2.4746 -1.1422 -1.8844
13306SOL     OW41358   5.517   2.121  11.428 -0.6224 -0.0884  0.0144
13306SOL    HW141359   5.611   2.131  11.416 -0.9579  1.9734 -1.4297
13306SOL    HW241360   5.485   2.089  11.343 -1.1978 -1.1619  0.6127
13307SOL     OW41361   5.903   7.857   9.277 -0.1152 -0.0656  0.0159
13307SOL    HW141362   5.831   7.868   9.339  0.0740  1.9328 -0.0339
13307SOL    HW241363   5.956   7.936   9.288  1.5529 -1.0489 -0.6282
13308SOL     OW41364   3.885   1.714  11.569 -0.8089 -0.4256  0.0489
13308SOL    HW141365   3.813   1.762  11.610 -1.5702 -0.2642 -1.4120
13308SOL    HW241366   3.889   1.631  11.617 -3.3605 -1.3215 -1.0994
13309SOL     OW41367   6.737   1.384  10.721 -0.3546  0.7882  0.3604
13309SOL    HW141368   6.793   1.352  10.791 -0.1450  1.0731  0.3232
13309SOL    HW241369   6.775   1.348  10.641  0.0937  1.4280  0.2856
13310SOL     OW41370   4.590   0.594   8.100  0.1991  0.0781  0.4368
13310SOL    HW141371   4.609   0.615   8.191  1.1408  0.6101  0.1229
13310SOL    HW241372   4.497   0.569   8.100  0.0228  0.6927  1.4270
13311SOL     OW41373   3.777   0.077  10.085 -0.1435  0.3808  0.0135
13311SOL    HW141374   3.852   0.134  10.066 -0.8081  2.0943  2.1200
13311SOL    HW241375   3.799   0.036  10.168 -1.2919  0.4766  0.3805
13312SOL     OW41376   4.901   0.005   9.696  0.2622  0.2914  0.0362
13312SOL    HW141377   4.850   0.014   9.615 -0.1264 -1.6733 -0.0095
13312SOL    HW241378   4.982   0.053   9.679 -0.3203  0.9391 -1.0468
13313SOL     OW41379   4.543   1.238  11.220 -0.5171  0.1811 -0.2018
13313SOL    HW141380   4.496   1.179  11.279  0.0308 -0.8849 -0.8232
13313SOL    HW241381   4.514   1.214  11.133 -0.8111  1.3054 -0.4255
13314SOL     OW41382   5.583   1.852  12.321  0.1618 -0.0640 -0.1821
13314SOL    HW141383   5.557   1.821  12.407  2.5524  1.1816  1.0796
13314SOL    HW241384   5.610   1.943  12.334  0.3210  0.2656 -2.3118
13315SOL     OW41385   4.770   1.276  10.763 -0.4766  0.5742  0.2716
13315SOL    HW141386   4.853   1.292  10.719  0.6377  0.2542  2.1431
13315SOL    HW241387   4.720   1.222  10.702  1.0637 -0.0337 -0.5110
13316SOL     OW41388   3.531   0.239  10.580 -0.0650  0.5192 -0.1679
13316SOL    HW141389   3.482   0.274  10.655 -2.1274  1.2740 -1.7565
13316SOL    HW241390   3.570   0.316  10.540  2.0414 -0.0119  0.7168
13317SOL     OW41391   4.968   1.609   8.118 -0.1821  0.5101  0.3393
13317SOL    HW141392   4.880   1.626   8.151 -0.6371 -0.9878 -0.0319
13317SOL    HW241393   4.991   1.688   8.069 -1.2532  0.9830  0.5723
13318SOL     OW41394   4.405   2.287  12.032  0.7297  0.2022 -0.2157
13318SOL    HW141395   4.387   2.223  11.963 -0.1609 -0.5059  0.6490
13318SOL    HW241396   4.409   2.371  11.986  0.7011 -0.3179 -1.1977
13319SOL     OW41397   5.768   0.220   9.619 -0.1020 -0.3370 -0.5453
13319SOL    HW141398   5.730   0.260   9.540 -0.9283 -0.6311 -0.3115
13319SOL    HW241399   5.860   0.209   9.598  0.0919  1.3862 -0.7335
13320SOL     OW41400   4.088   7.848  11.054 -0.1544  0.5453 -0.4410
13320SOL    HW141401   4.164   7.793  11.076  0.5223  1.7065  0.3219
13320SOL    HW241402   4.038   7.798  10.990  0.8160 -0.6200 -0.3140
13321SOL     OW41403   6.110   1.669   8.581  0.4522 -0.2345 -0.2402
13321SOL    HW141404   6.170   1.681   8.655  0.9489  0.0218 -0.6801
13321SOL    HW241405   6.024   1.692   8.617  0.6943 -0.0547  0.2414
13322SOL     OW41406   3.698   0.746   9.914  0.0882  0.1372 -0.4019
13322SOL    HW141407   3.754   0.738   9.991 -1.3392 -0.8798  0.5738
13322SOL    HW241408   3.712   0.836   9.884  2.3955 -0.1544 -0.3611
13323SOL     OW41409   5.057   2.523   9.592  0.2492 -0.0269 -0.2250
13323SOL    HW141410   5.120   2.584   9.554  1.1656 -0.8309 -0.0410
13323SOL    HW241411   5.004   2.494   9.518  0.4203  0.2786 -0.4679
13324SOL     OW41412   5.948   0.795  10.145  0.0005  0.1929 -0.8404
13324SOL    HW141413   5.909   0.820  10.061 -1.3914  0.1349 -0.2397
13324SOL    HW241414   5.876   0.805  10.208  0.7349 -0.7693  0.1687
13325SOL     OW41415   1.475   1.357  12.137  0.1446 -0.0779 -0.3911
13325SOL    HW141416   1.509   1.443  12.161 -1.1928  0.3853 -0.0744
13325SOL    HW241417   1.383   1.373  12.114  0.1332 -1.2691 -1.2729
13326SOL     OW41418   6.383   1.309  11.524 -0.0902 -0.0527  0.0358
13326SOL    HW141419   6.321   1.338  11.591 -0.4690 -1.2558  0.2359
13326SOL    HW241420   6.423   1.389  11.492 -1.4990  0.7227  0.1567
13327SOL     OW41421   3.852   1.658  10.775  0.2738  0.7709  0.0458
13327SOL    HW141422   3.816   1.676  10.688  1.1910  0.7477 -0.3552
13327SOL    HW241423   3.826   1.568  10.794 -0.3389  0.9389  0.0032
13328SOL     OW41424   5.367   1.025   9.150  0.0116 -0.5355 -0.1417
13328SOL    HW141425   5.339   1.015   9.241 -1.8745  1.0393 -0.4983
13328SOL    HW241426   5.390   1.118   9.142 -1.2325 -0.3273 -1.6233
13329SOL     OW41427   4.487   4.039  11.150  0.2128  0.3330  0.1253
13329SOL    HW141428   4.465   3.954  11.188 -0.0274  1.0484  1.6556
13329SOL    HW241429   4.529   4.018  11.067  0.5743 -1.3017  0.6839
13330SOL     OW41430   6.249   0.829  11.398  0.3068 -0.4760 -0.2323
13330SOL    HW141431   6.323   0.888  11.414  0.2835 -0.7674  1.1341
13330SOL    HW241432   6.288   0.742  11.397 -0.0167 -0.6417  0.6400
13331SOL     OW41433   5.711   1.484  10.102  0.2146  0.2045  0.0623
13331SOL    HW141434   5.626   1.514  10.067 -0.5329  0.0538  1.6617
13331SOL    HW241435   5.749   1.432  10.031 -0.4992  1.2121 -1.1099
13332SOL     OW41436   3.393   1.796  10.538  0.3543 -1.1295 -0.0405
13332SOL    HW141437   3.370   1.789  10.445  0.8970  2.0941 -0.5404
13332SOL    HW241438   3.362   1.714  10.577 -1.2020 -1.9685 -2.7904
13333SOL     OW41439   5.332   1.355  10.059 -0.5532  0.0707 -0.2455
13333SOL    HW141440   5.425   1.335  10.050 -0.5080  0.2210 -0.1251
13333SOL    HW241441   5.287   1.280  10.020 -0.3931 -0.4774  0.5915
13334SOL     OW41442   2.472   7.679   9.504 -0.1321  0.0903 -0.4139
13334SOL    HW141443   2.459   7.747   9.438 -0.4540  1.2178  0.7636
13334SOL    HW241444   2.560   7.694   9.538 -0.0523 -0.3433 -0.4191
13335SOL     OW41445   5.785   0.853  11.043 -0.5598 -0.0551  0.0978
13335SOL    HW141446   5.782   0.934  11.093  0.0518  0.7816 -1.1738
13335SOL    HW241447   5.703   0.851  10.994 -0.1973  0.2304 -0.5245
13336SOL     OW41448   5.037   6.843  10.063 -0.0958 -0.4199  0.1565
13336SOL    HW141449   5.061   6.770  10.121 -0.7735 -1.3282 -0.6935
13336SOL    HW241450   4.942   6.840  10.058 -0.1267  0.4864  0.0442
13337SOL     OW41451   6.389   1.707   9.304 -0.4877  0.0278  0.2729
13337SOL    HW141452   6.341   1.752   9.373 -1.3202  1.6207 -1.2349
13337SOL    HW241453   6.335   1.631   9.283 -0.7054  0.0520  0.7349
13338SOL     OW41454   3.520   1.900  10.910  0.3539 -0.4908  0.2553
13338SOL    HW141455   3.531   1.982  10.861 -0.5188 -0.8746 -0.6134
13338SOL    HW241456   3.429   1.902  10.940  0.2579 -1.2534  0.0188
13339SOL     OW41457   6.112   0.592   8.791 -0.4853 -0.1204 -0.6674
13339SOL    HW141458   6.183   0.527   8.792 -1.7124 -1.5066  0.5961
13339SOL    HW241459   6.157   0.676   8.798  1.0758 -0.8889 -0.9122
13340SOL     OW41460   5.743   1.157  11.817 -0.1224  0.4705 -0.7224
13340SOL    HW141461   5.689   1.231  11.789  2.7618  2.8223 -0.5680
13340SOL    HW241462   5.782   1.124  11.736 -0.0272  0.2796 -0.5980
13341SOL     OW41463   4.664   0.171  12.247 -0.3474  0.4196  0.0939
13341SOL    HW141464   4.678   0.077  12.251  1.2170  0.5917 -0.6560
13341SOL    HW241465   4.714   0.200  12.171 -0.6114  1.8988  0.4404
13342SOL     OW41466   3.941   1.100   0.660  0.2172  0.4757  0.1063
13342SOL    HW141467   3.875   1.107   0.728  0.8496 -0.3681  0.8304
13342SOL    HW241468   4.024   1.118   0.705  0.9197 -2.4137  0.1458
13343SOL     OW41469   4.740   0.815  11.045  0.3645 -0.5555  0.2387
13343SOL    HW141470   4.719   0.798  11.137 -1.6420 -1.6298 -0.3640
13343SOL    HW241471   4.789   0.897  11.047 -0.4347 -0.0556  2.1866
13344SOL     OW41472   5.431   7.764   7.822 -0.0259 -0.2353 -0.1401
13344SOL    HW141473   5.492   7.821   7.776 -1.4066  2.3814  1.0312
13344SOL    HW241474   5.461   7.766   7.913 -1.5066  0.7248  0.3667
13345SOL     OW41475   4.320   2.573  10.876  0.6765  0.2295 -0.0625
13345SOL    HW141476   4.240   2.545  10.832  0.8018 -0.6278  0.2466
13345SOL    HW241477   4.293   2.591  10.966  0.6803  0.7013 -0.1534
13346SOL     OW41478   4.963   1.210  11.395  0.5680  0.9846 -0.2802
13346SOL    HW141479   5.026   1.208  11.467  0.6564  1.4796 -0.3408
13346SOL    HW241480   4.879   1.226  11.436  0.2923 -0.7895 -0.0825
13347SOL     OW41481   5.644   7.790  11.053 -0.2829 -0.2284 -0.1780
13347SOL    HW141482   5.590   7.723  11.096 -0.6984  1.8728  2.9837
13347SOL    HW241483   5.612   7.793  10.963 -2.0883 -2.3478  0.2996
13348SOL     OW41484   4.982   1.944  10.865  0.0879 -0.0299  0.0620
13348SOL    HW141485   5.046   1.971  10.799 -0.2314  0.7131  0.0413
13348SOL    HW241486   4.909   1.908  10.814  0.5007 -0.9083  0.0871
13349SOL     OW41487   4.236   1.538  11.046 -0.4370  0.7020  0.0253
13349SOL    HW141488   4.262   1.459  10.998  1.5355  3.0112 -3.0772
13349SOL    HW241489   4.318   1.571  11.083 -0.5788  2.7927 -1.3287
13350SOL     OW41490   6.129   7.800   9.876 -0.0903  0.2338 -0.0659
13350SOL    HW141491   6.133   7.874   9.937  1.1406  0.2252 -0.1134
13350SOL    HW241492   6.068   7.829   9.808  0.3624  1.2131 -0.0779
13351SOL     OW41493   5.042   1.237   9.244  0.4381 -0.1154 -0.0676
13351SOL    HW141494   4.953   1.229   9.210  0.5313  0.2998 -0.4193
13351SOL    HW241495   5.061   1.152   9.283 -0.7967  0.3484  1.6553
13352SOL     OW41496   5.465   0.459  10.178 -0.1257  0.2559  0.3261
13352SOL    HW141497   5.488   0.531  10.236  0.2053  1.4791 -1.2623
13352SOL    HW241498   5.471   0.495  10.090 -0.8830 -1.4558 -0.4919
13353SOL     OW41499   4.323   1.740  11.920  0.8538 -0.9491 -0.0042
13353SOL    HW141500   4.324   1.669  11.855  0.3424  0.1472 -1.2428
13353SOL    HW241501   4.230   1.758  11.934  0.9806  0.0980 -0.4289
13354SOL     OW41502   5.566   0.235   9.811 -0.1189  0.5520  0.2250
13354SOL    HW141503   5.610   0.220   9.728 -5.6319 -1.4793 -2.8836
13354SOL    HW241504   5.563   0.148   9.852  1.1969  1.2490  1.9364
13355SOL     OW41505   5.672   0.609   9.482  0.3787  0.0273  0.3064
13355SOL    HW141506   5.734   0.536   9.478  2.2483  1.5817 -1.3589
13355SOL    HW241507   5.654   0.631   9.390  2.4916  3.6574  0.5606
13356SOL     OW41508   4.814   0.687  11.874 -0.3056  0.7160 -0.0490
13356SOL    HW141509   4.882   0.754  11.876 -0.4002  0.8126  1.2149
13356SOL    HW241510   4.732   0.737  11.869 -0.3569  0.6887  0.4587
13357SOL     OW41511   3.427   0.290  10.839 -0.5991 -0.0528  0.0014
13357SOL    HW141512   3.353   0.350  10.834 -1.0747 -0.5350  1.0724
13357SOL    HW241513   3.435   0.269  10.932  0.6367 -0.3193 -0.1466
13358SOL     OW41514   6.587   0.934   8.482  0.3116  0.1364  0.2856
13358SOL    HW141515   6.525   1.007   8.483  0.7747  0.5391  0.1261
13358SOL    HW241516   6.667   0.971   8.520  0.8292 -0.0397 -0.6108
13359SOL     OW41517   5.561   0.710  11.478  0.1743 -0.6143  0.5784
13359SOL    HW141518   5.630   0.736  11.416  0.4650 -0.7467  0.8393
13359SOL    HW241519   5.506   0.650  11.428  0.3074 -0.5847  0.3944
13360SOL     OW41520   4.737   0.320   9.292 -0.1647 -0.2388  0.0710
13360SOL    HW141521   4.655   0.364   9.273 -0.8613 -1.2499  0.6339
13360SOL    HW241522   4.714   0.227   9.299  1.2457 -0.7365 -1.1466
13361SOL     OW41523   5.323   0.312   8.289  0.6554  0.4525 -0.1600
13361SOL    HW141524   5.412   0.335   8.315  0.1412  1.6168  0.6957
13361SOL    HW241525   5.296   0.383   8.231 -0.0042  0.5818  0.2839
13362SOL     OW41526   5.396   2.041  10.349  0.3324 -0.0671  0.5432
13362SOL    HW141527   5.423   2.077  10.264 -3.1518  0.0620 -0.7102
13362SOL    HW241528   5.393   1.947  10.335 -1.3699  0.0245  0.0497
13363SOL     OW41529   5.265   2.388  11.265 -0.0953  0.0722 -0.0139
13363SOL    HW141530   5.190   2.380  11.324  0.1613  0.0070  0.3088
13363SOL    HW241531   5.254   2.316  11.202  0.0043 -0.2960  0.3827
13364SOL     OW41532   5.018   2.059  12.304  0.3115  0.2644 -0.0133
13364SOL    HW141533   4.980   1.975  12.330 -0.8046  0.4157 -1.0674
13364SOL    HW241534   4.963   2.125  12.346  0.2378  0.4810 -0.4481
13365SOL     OW41535   5.477   0.661   8.793  0.3810 -0.0941  0.3775
13365SOL    HW141536   5.467   0.738   8.848  1.3257  0.8064 -0.6618
13365SOL    HW241537   5.391   0.619   8.795 -0.4026  1.4256  0.3318
13366SOL     OW41538   6.448   1.619  12.366 -0.6400  0.0714 -0.0341
13366SOL    HW141539   6.461   1.713  12.354 -0.3759  0.1538  0.8536
13366SOL    HW241540   6.509   1.595  12.436 -1.4857 -0.5479  0.5072
13367SOL     OW41541   5.854   7.975  11.638 -0.2120  0.1811 -0.5840
13367SOL    HW141542   5.800   7.897  11.626  0.9244 -0.7595  0.2068
13367SOL    HW241543   5.931   7.959  11.584  0.6862  0.0913  0.6959
13368SOL     OW41544   4.175   1.527   0.040 -0.0661 -0.4404 -0.3215
13368SOL    HW141545   4.085   1.496   0.051 -0.0531  0.0776  1.4962
13368SOL    HW241546   4.226   1.448   0.024 -0.6697 -0.8741 -0.1352
13369SOL     OW41547   4.331   0.995   9.918  0.0840 -0.5073 -0.3417
13369SOL    HW141548   4.302   1.005   9.827 -0.8363 -0.3115 -0.0293
13369SOL    HW241549   4.407   1.052   9.925 -0.2959  0.0596 -0.7791
13370SOL     OW41550   2.958   0.897  10.962  0.2347 -0.1552 -0.5322
13370SOL    HW141551   2.930   0.819  10.913 -1.7448  1.7151 -2.6004
13370SOL    HW241552   3.053   0.888  10.968  0.0316 -3.1349  0.1531
13371SOL     OW41553   2.908   1.292  11.013  0.1255 -0.1140 -0.4571
13371SOL    HW141554   2.823   1.318  11.048  1.2125  2.1556  0.7027
13371SOL    HW241555   2.890   1.264  10.923 -1.6415  1.8409 -0.7706
13372SOL     OW41556   3.776   7.382  12.287 -0.0890  0.0186  0.1706
13372SOL    HW141557   3.703   7.350  12.234 -0.2696  2.5075 -1.2562
13372SOL    HW241558   3.854   7.360  12.236 -0.2496  2.2000 -1.1623
13373SOL     OW41559   3.180   0.789  11.611  0.1710 -0.0855  0.8372
13373SOL    HW141560   3.190   0.756  11.701  1.5822 -2.3400 -0.0521
13373SOL    HW241561   3.267   0.820  11.587  0.1254 -0.6667 -0.1392
13374SOL     OW41562   5.864   2.389  11.496  0.5775  0.2293  0.3143
13374SOL    HW141563   5.824   2.304  11.480  1.5922 -0.6159  2.0310
13374SOL    HW241564   5.955   2.378  11.468  0.3684  1.2701 -0.9083
13375SOL     OW41565   4.383   1.210  12.257 -0.1316  0.6093 -0.2424
13375SOL    HW141566   4.397   1.286  12.314  0.6439 -0.1410  0.5967
13375SOL    HW241567   4.329   1.150  12.309 -2.6790  1.4724 -1.7180
13376SOL     OW41568   6.007   0.875  10.888 -0.7142  0.1362  0.0014
13376SOL    HW141569   6.046   0.793  10.919 -0.8206 -0.4467 -1.3386
13376SOL    HW241570   5.928   0.886  10.941 -2.0811 -1.9818 -1.4564
13377SOL     OW41571   3.150   7.712   0.626  0.0765 -0.1997  0.0187
13377SOL    HW141572   3.205   7.771   0.677 -2.3953  0.7940  1.7361
13377SOL    HW241573   3.158   7.745   0.536 -0.9837  2.7129  0.8626
13378SOL     OW41574   3.190   1.963  11.601 -0.6462  0.1365  0.0380
13378SOL    HW141575   3.231   1.973  11.515  0.3069  0.2315  0.4964
13378SOL    HW241576   3.227   1.882  11.636  0.6933  1.2286  1.2760
13379SOL     OW41577   5.438   2.135   0.300  0.0055  0.1758 -0.2223
13379SOL    HW141578   5.399   2.129   0.387 -0.4034 -1.3191 -0.4694
13379SOL    HW241579   5.372   2.180   0.247 -1.1054 -1.6261 -0.4486
13380SOL     OW41580   4.033   7.511  11.301 -0.2878 -0.1574 -0.5532
13380SOL    HW141581   4.102   7.557  11.349  0.0890 -1.3148  0.0553
13380SOL    HW241582   4.067   7.503  11.212 -0.1107  0.2197 -0.5224
13381SOL     OW41583   3.498   1.981  11.981  0.1019  0.0180 -0.1526
13381SOL    HW141584   3.590   1.962  12.000 -0.0692  0.0071  0.7383
13381SOL    HW241585   3.453   1.967  12.065 -1.0107 -1.8242 -0.9996
13382SOL     OW41586   2.599   2.305  10.385  0.3449 -0.3460 -0.1224
13382SOL    HW141587   2.615   2.359  10.308  1.3551 -0.5113 -0.0427
13382SOL    HW241588   2.549   2.362  10.444  2.6575  1.0762  0.5768
13383SOL     OW41589   5.116   0.230   0.183  0.5299 -0.4323 -0.1382
13383SOL    HW141590   5.021   0.227   0.192  0.3682  0.6526 -1.1832
13383SOL    HW241591   5.148   0.153   0.231 -0.7636 -0.0431  1.4518
13384SOL     OW41592   4.378   6.478  10.673 -0.0512  0.2244 -0.3648
13384SOL    HW141593   4.337   6.562  10.693 -1.1149 -0.1728 -0.8140
13384SOL    HW241594   4.305   6.420  10.652  0.5604 -1.0886  0.8911
13385SOL     OW41595   2.470   6.238  11.751 -0.0237 -0.0032 -0.4439
13385SOL    HW141596   2.546   6.187  11.780  0.6168  2.2749  2.3279
13385SOL    HW241597   2.424   6.180  11.691  1.3244 -3.3601  1.4886
13386SOL     OW41598   5.558   1.201   9.944  0.5096  0.0466  0.0755
13386SOL    HW141599   5.590   1.282   9.903 -0.5062  0.1468 -0.5484
13386SOL    HW241600   5.547   1.140   9.871  1.6973 -0.8270  0.5907
13387SOL     OW41601   4.866   1.577   8.996  0.3099  0.0021  0.0293
13387SOL    HW141602   4.892   1.544   9.082 -0.2146 -2.9107 -0.8113
13387SOL    HW241603   4.771   1.565   8.993  0.1133  1.4574 -0.4541
13388SOL     OW41604   7.051   7.857   1.022  0.2193 -0.1731  0.5835
13388SOL    HW141605   7.132   7.817   0.993  0.2311  0.4687 -0.3133
13388SOL    HW241606   7.055   7.947   0.990 -0.5817  0.0428  1.0405
13389SOL     OW41607   5.004   2.487  10.750 -0.0413  0.0639  0.1492
13389SOL    HW141608   5.013   2.493  10.845 -1.5382  0.2358  0.3172
13389SOL    HW241609   4.929   2.544  10.730  0.1498 -0.0943 -1.1127
13390SOL     OW41610   4.605   1.162   0.284  0.0741  0.1432 -0.2501
13390SOL    HW141611   4.618   1.204   0.369  0.4974 -0.8015  0.1649
13390SOL    HW241612   4.516   1.187   0.258 -0.4106 -0.3026  0.9082
13391SOL     OW41613   3.601   1.450  12.284 -0.2175 -0.6504 -0.1675
13391SOL    HW141614   3.678   1.403  12.253  0.0017 -0.1962 -0.3284
13391SOL    HW241615   3.624   1.478  12.373  0.2086  0.3451 -0.5705
13392SOL     OW41616   4.784   6.876  11.728 -0.4148  0.3030 -0.2243
13392SOL    HW141617   4.858   6.936  11.740  0.6260 -0.8859 -0.4778
13392SOL    HW241618   4.745   6.868  11.815  0.9310 -0.5078  0.3341
13393SOL     OW41619   3.093   0.727   1.416 -0.2448  0.2975 -0.2368
13393SOL    HW141620   3.059   0.665   1.479  0.5146  1.7313  1.6702
13393SOL    HW241621   3.137   0.673   1.350 -0.4256 -1.2122  0.8322
13394SOL     OW41622   6.430   1.888  12.338 -0.1801  0.2448 -0.0949
13394SOL    HW141623   6.469   1.966  12.298  0.6782  0.2897  0.7839
13394SOL    HW241624   6.341   1.885  12.304 -0.3105  1.7660  0.0536
13395SOL     OW41625   4.981   3.924  11.339 -0.3802 -0.2688 -0.6207
13395SOL    HW141626   4.933   3.843  11.356 -1.5978  0.9281  2.0993
13395SOL    HW241627   4.914   3.991  11.331  0.6966  0.8260 -0.7550
13396SOL     OW41628   3.869   2.517  11.533  0.5902 -0.4047 -0.1906
13396SOL    HW141629   3.885   2.599  11.580  0.9752 -1.1963  1.0924
13396SOL    HW241630   3.925   2.522  11.456  1.0116  0.2981  0.1514
13397SOL     OW41631   6.287   0.128  11.601  0.3405 -0.4841  0.3687
13397SOL    HW141632   6.337   0.210  11.609 -0.5480  0.0050  1.0690
13397SOL    HW241633   6.334   0.065  11.655  0.6020 -0.2281  0.4412
13398SOL     OW41634   4.175   6.600   1.716 -0.1979  0.6412  0.2370
13398SOL    HW141635   4.176   6.543   1.639  0.9567  1.0331 -0.0433
13398SOL    HW241636   4.238   6.560   1.776 -0.7439  0.6029  0.7966
13399SOL     OW41637   5.783   2.122  10.579  0.4804 -0.5510  0.1559
13399SOL    HW141638   5.778   2.131  10.484  0.0272  0.1044  0.2365
13399SOL    HW241639   5.777   2.028  10.594  2.0629 -0.7994 -0.5444
13400SOL     OW41640   5.553   0.831  11.732  0.2428 -0.3062 -0.0160
13400SOL    HW141641   5.559   0.777  11.653  0.0638  0.9457 -0.9051
13400SOL    HW241642   5.639   0.824  11.772  0.0822 -1.6293  0.1556
13401SOL     OW41643   4.672   1.420  11.456  0.6789  0.1518 -0.2682
13401SOL    HW141644   4.731   1.494  11.446 -1.3123  1.9147  0.3838
13401SOL    HW241645   4.669   1.379  11.369  1.6596  0.9429 -0.6900
13402SOL     OW41646   4.080   1.023  11.706 -0.3181  0.2058  0.4755
13402SOL    HW141647   4.040   0.947  11.749 -3.3610  0.9570 -0.7847
13402SOL    HW241648   4.010   1.087  11.699  1.9265  2.8641  0.6735
13403SOL     OW41649   2.930   7.937  12.265 -0.2891  0.0178 -0.4428
13403SOL    HW141650   2.957   7.922  12.175 -0.5112 -0.9241 -0.3551
13403SOL    HW241651   2.889   8.024  12.263  0.1064  0.1999 -1.1480
13404SOL     OW41652   5.517   0.589   1.297 -0.0515 -0.2542  0.2961
13404SOL    HW141653   5.491   0.603   1.206  1.3829 -0.3754 -0.1539
13404SOL    HW241654   5.490   0.669   1.342 -2.5837 -0.9909  0.2168
13405SOL     OW41655   3.963   0.817  11.852  0.6635 -0.7700 -0.3546
13405SOL    HW141656   4.030   0.751  11.832  0.0385 -1.0424 -1.6772
13405SOL    HW241657   3.969   0.830  11.946  2.4197 -0.9603 -0.4151
13406SOL     OW41658   3.855   1.770  12.346  1.1022  0.2245  0.3133
13406SOL    HW141659   3.931   1.761  12.289  0.7806 -0.9647  0.0416
13406SOL    HW241660   3.781   1.774  12.285  0.6845 -1.7882  0.6226
13407SOL     OW41661   2.875   0.804  11.503 -0.0689  0.0744  0.1441
13407SOL    HW141662   2.958   0.832  11.540  0.6176 -1.3788 -0.2153
13407SOL    HW241663   2.883   0.821  11.409 -1.1260  2.1093  0.3629
13408SOL     OW41664   4.088   2.455  10.817 -0.3254  0.3170 -0.5392
13408SOL    HW141665   4.006   2.432  10.773 -2.6165 -0.2815  3.4794
13408SOL    HW241666   4.142   2.376  10.810 -1.6288 -0.6327 -0.2397
13409SOL     OW41667   4.718   1.712  11.463 -0.1042 -0.2690 -0.6242
13409SOL    HW141668   4.743   1.800  11.436 -1.5407  0.6610  0.9453
13409SOL    HW241669   4.718   1.715  11.559 -3.6577 -0.8699 -0.4724
13410SOL     OW41670   4.413   6.925   0.003  0.2721 -0.1048  0.1794
13410SOL    HW141671   4.497   6.879   0.006 -0.5980 -1.7279  0.4736
13410SOL    HW241672   4.437   7.018   0.006  2.0303 -0.5360  1.0970
13411SOL     OW41673   4.797   1.200  12.309  0.1126  0.1678 -0.4036
13411SOL    HW141674   4.855   1.127  12.286  1.2851 -0.0017  2.6489
13411SOL    HW241675   4.800   1.258  12.232 -0.3041 -2.5723 -2.6347
13412SOL     OW41676   4.722   1.756  10.899 -0.4287 -0.0755  0.2070
13412SOL    HW141677   4.649   1.712  10.855 -0.8633  1.0903 -0.2956
13412SOL    HW241678   4.688   1.842  10.921  0.7623  0.4585  0.0639
13413SOL     OW41679   2.533   2.437  11.365  0.0832  0.1611 -0.6307
13413SOL    HW141680   2.481   2.516  11.380 -0.0898  0.0979 -0.9000
13413SOL    HW241681   2.479   2.383  11.307 -0.6212 -0.9609  0.9780
13414SOL     OW41682   5.194   0.918  11.612  0.2518  0.4215  0.7468
13414SOL    HW141683   5.202   1.010  11.638  0.7948  0.4337  0.5581
13414SOL    HW241684   5.262   0.906  11.546 -0.2534  0.0532  0.2807
13415SOL     OW41685   4.692   3.510   0.810  0.5448 -0.0931  0.6539
13415SOL    HW141686   4.664   3.419   0.794 -1.6676  0.4387  1.0694
13415SOL    HW241687   4.697   3.517   0.905  0.8149  0.1973  0.6199
13416SOL     OW41688   4.786   0.838   0.010 -0.4885  0.1548 -0.6219
13416SOL    HW141689   4.842   0.837  -0.068 -0.9445 -1.3980 -0.9553
13416SOL    HW241690   4.713   0.896  -0.015  0.7149  1.8695 -0.3237
13417SOL     OW41691   2.531   2.539  10.784  0.0828 -0.3214 -0.5929
13417SOL    HW141692   2.494   2.463  10.740 -1.7884 -0.0577  0.4452
13417SOL    HW241693   2.473   2.611  10.762  2.4676  1.2024 -2.5507
13418SOL     OW41694   4.125   7.279   0.749  0.1806  0.2540 -0.0408
13418SOL    HW141695   4.167   7.344   0.692 -1.6304  2.9666  1.4333
13418SOL    HW241696   4.057   7.239   0.694 -0.6160  1.8175 -0.2597
13419SOL     OW41697   5.668   0.422  12.245  0.4770  0.0195 -0.3904
13419SOL    HW141698   5.682   0.474  12.166  1.1042 -0.2320 -0.4545
13419SOL    HW241699   5.593   0.366  12.224 -0.4311  1.1322 -0.1932
13420SOL     OW41700   3.546   0.806   0.815  0.1683  0.5053  0.5538
13420SOL    HW141701   3.491   0.828   0.890 -1.4740  0.3363 -0.5423
13420SOL    HW241702   3.497   0.836   0.739  1.1635 -0.5019 -0.5442
13421SOL     OW41703   4.832   1.302  11.635  0.1599 -0.6422 -0.0430
13421SOL    HW141704   4.775   1.345  11.572  0.1456 -0.2266  0.2505
13421SOL    HW241705   4.771   1.255  11.693  0.2402 -2.5636 -1.4173
13422SOL     OW41706   6.128   1.126  10.821 -0.2510 -0.4040  0.0413
13422SOL    HW141707   6.167   1.130  10.908  0.8851  1.5414 -0.5008
13422SOL    HW241708   6.078   1.044  10.821 -0.7301 -0.2063  2.6813
13423SOL     OW41709   2.689   7.898  11.443 -0.3957 -0.1081  0.9555
13423SOL    HW141710   2.754   7.843  11.400  1.1847  1.9286  0.5573
13423SOL    HW241711   2.671   7.968  11.379  0.1232  1.5964  2.5818
13424SOL     OW41712   4.661   0.742  11.302  0.6116  0.1900 -0.4085
13424SOL    HW141713   4.697   0.698  11.379  0.9785  0.9537 -0.1340
13424SOL    HW241714   4.572   0.767  11.328  1.7125  3.2022  0.9622
13425SOL     OW41715   5.383   0.656   0.413  0.4351  0.1496  0.1798
13425SOL    HW141716   5.428   0.690   0.491  0.3013  0.7298  0.0120
13425SOL    HW241717   5.430   0.697   0.340 -0.4532  0.8933  0.0051
13426SOL     OW41718   4.257   3.501   9.847  0.2772  0.1718  0.1519
13426SOL    HW141719   4.190   3.513   9.915  0.6971  1.0036  0.4300
13426SOL    HW241720   4.219   3.541   9.769 -0.5349 -1.4767 -0.3393
13427SOL     OW41721   6.253   1.928  10.676  0.2879  0.4960 -0.0310
13427SOL    HW141722   6.257   1.835  10.655 -4.2207  0.1958 -0.4431
13427SOL    HW241723   6.214   1.969  10.599 -2.0079  1.9267  1.7620
13428SOL     OW41724   5.140   0.109   9.302 -0.2683 -0.2071  0.1335
13428SOL    HW141725   5.162   0.045   9.234 -1.4899 -0.3371 -0.1783
13428SOL    HW241726   5.221   0.158   9.317  0.6199 -1.6338  0.1871
13429SOL     OW41727   2.963   1.445  10.650  0.0266  0.3505  0.2801
13429SOL    HW141728   2.951   1.401  10.566  3.3706  0.1077 -0.1860
13429SOL    HW241729   2.972   1.538  10.627 -0.4748  0.4768  0.5646
13430SOL     OW41730   3.928   6.916  11.053  0.3327  0.5764 -0.0841
13430SOL    HW141731   3.853   6.856  11.042  0.3609 -0.0007  2.3797
13430SOL    HW241732   4.005   6.859  11.046  0.6300  1.1607 -2.5439
13431SOL     OW41733   3.745   0.657  11.889  0.2400  1.0791 -0.0612
13431SOL    HW141734   3.788   0.722  11.834 -1.6346  0.3014 -2.6471
13431SOL    HW241735   3.660   0.694  11.909 -0.8570 -0.4746 -1.5681
13432SOL     OW41736   6.657   1.582   0.612 -0.0174  0.1931 -0.3391
13432SOL    HW141737   6.719   1.518   0.646 -0.2250 -0.0365 -0.3889
13432SOL    HW241738   6.599   1.531   0.555  0.2199  0.5356 -0.9001
13433SOL     OW41739   5.811   7.628   0.571  0.4296 -0.1138 -0.2381
13433SOL    HW141740   5.825   7.581   0.489 -0.1605  1.1437 -1.0848
13433SOL    HW241741   5.738   7.687   0.553  0.1441  0.0296  1.2652
13434SOL     OW41742   6.745   0.682  12.420  0.0350 -0.4036 -0.3240
13434SOL    HW141743   6.804   0.615  12.386  0.1066 -0.7802  0.5220
13434SOL    HW241744   6.802   0.756  12.439 -0.0463 -0.0810 -1.2682
13435SOL     OW41745   4.913   7.374  11.749  0.2170 -0.3092 -0.5361
13435SOL    HW141746   4.917   7.435  11.675  0.3450  0.7285  0.3030
13435SOL    HW241747   4.820   7.351  11.756  0.2713 -0.7952 -1.3073
13436SOL     OW41748   4.914   3.029  11.653  0.9652  0.2911 -0.6953
13436SOL    HW141749   4.847   3.089  11.622  1.8667  1.8566  0.2304
13436SOL    HW241750   4.874   2.985  11.728  0.1904 -0.5192 -1.5649
13437SOL     OW41751   5.231   3.180  10.034 -0.7593 -1.0207 -0.1039
13437SOL    HW141752   5.177   3.235  10.091  1.9540 -0.2007  1.8668
13437SOL    HW241753   5.265   3.240   9.968 -0.1036 -0.9200  0.3153
13438SOL     OW41754   5.298   0.962  11.157 -0.0386  0.4905  0.1059
13438SOL    HW141755   5.232   1.031  11.144 -1.1699 -0.6338 -0.2961
13438SOL    HW241756   5.324   0.972  11.249 -1.8646  0.0513  0.7144
13439SOL     OW41757   3.956   0.028   0.281 -0.1667  0.6371 -0.0821
13439SOL    HW141758   3.917   0.051   0.365 -1.4256  0.4511 -0.5947
13439SOL    HW241759   3.884   0.033   0.218  0.1694 -1.5878 -0.7477
13440SOL     OW41760   4.178   1.140   0.788 -0.8097 -0.5229 -0.1125
13440SOL    HW141761   4.216   1.103   0.868 -0.4575  0.8464  0.3829
13440SOL    HW241762   4.237   1.111   0.718 -0.4241 -0.7340  0.2905
13441SOL     OW41763   5.797   7.453   0.785  0.5202  0.5487 -0.3825
13441SOL    HW141764   5.720   7.398   0.771 -0.0027  1.1586  0.0217
13441SOL    HW241765   5.820   7.484   0.698 -0.5402  1.4634 -0.3586
13442SOL     OW41766   4.394   7.860   0.468  0.0095  0.0286 -0.2275
13442SOL    HW141767   4.328   7.793   0.450  0.0438  0.2265 -1.1151
13442SOL    HW241768   4.478   7.815   0.456  0.0323  0.1823 -0.6597
13443SOL     OW41769   4.821   0.728   1.222 -0.3316 -0.1309  0.2625
13443SOL    HW141770   4.818   0.765   1.134 -0.3571  0.5937  0.5609
13443SOL    HW241771   4.838   0.635   1.208  0.2989  0.0855 -0.4883
13444SOL     OW41772   5.122   7.993   1.010  0.2323  0.0043 -0.2783
13444SOL    HW141773   5.211   8.015   0.983  0.2070  1.7971  0.9374
13444SOL    HW241774   5.131   7.911   1.058  1.6789  1.3549  1.9364
13445SOL     OW41775   5.350   0.342  11.938  0.4381 -1.1400 -0.2689
13445SOL    HW141776   5.346   0.438  11.943  0.2929 -1.1472 -0.2396
13445SOL    HW241777   5.369   0.314  12.027  0.9854 -1.1151 -0.3751
13446SOL     OW41778   4.477   1.953   0.284  0.1896  0.5374 -0.1351
13446SOL    HW141779   4.404   1.893   0.266 -0.4231  1.2416 -0.0875
13446SOL    HW241780   4.444   2.010   0.353 -0.7876  3.4596 -2.7404
13447SOL     OW41781   6.518   1.140   1.607 -0.1531  0.4323  0.4832
13447SOL    HW141782   6.482   1.054   1.587 -0.6605  0.4700  1.2066
13447SOL    HW241783   6.610   1.123   1.629 -0.2061  0.1027  0.4476
13448SOL     OW41784   5.768   2.153  11.194  0.0365  0.1266  0.2125
13448SOL    HW141785   5.832   2.173  11.126  0.4121 -2.2844 -0.2628
13448SOL    HW241786   5.691   2.205  11.172  1.2530  1.8639 -0.1311
13449SOL     OW41787   3.474   0.736  11.988  0.3133 -0.5453 -0.1514
13449SOL    HW141788   3.532   0.812  11.996 -1.0916  0.4916  0.5833
13449SOL    HW241789   3.472   0.698  12.076 -0.9710  0.0861  0.1038
13450SOL     OW41790   4.226   1.751   0.773 -0.1310 -0.2411 -0.1614
13450SOL    HW141791   4.239   1.674   0.828 -0.2243  0.0527  0.2740
13450SOL    HW241792   4.168   1.720   0.703  0.2406 -0.6965 -0.2757
13451SOL     OW41793   3.255   7.516  11.108  0.0528  0.0888  0.0686
13451SOL    HW141794   3.335   7.464  11.106  0.6958  1.0505  0.2737
13451SOL    HW241795   3.285   7.607  11.097 -0.8950  0.5801  1.3526
13452SOL     OW41796   5.675   1.522   0.949  0.1000  0.1349  0.9065
13452SOL    HW141797   5.752   1.465   0.954 -0.3678 -0.4602  1.5160
13452SOL    HW241798   5.630   1.494   0.869 -0.0743 -0.2921  1.1505
13453SOL     OW41799   3.714   2.039  10.616  0.0602  0.3057  0.0430
13453SOL    HW141800   3.795   2.066  10.661 -0.8518  1.0465  1.3146
13453SOL    HW241801   3.644   2.084  10.664 -1.1565 -0.7525 -0.6801
13454SOL     OW41802   3.595   0.783   2.495 -0.6349 -0.2358  0.1978
13454SOL    HW141803   3.672   0.833   2.469 -0.1514 -0.7455  0.6097
13454SOL    HW241804   3.566   0.824   2.576 -0.0317 -0.8070  0.7234
13455SOL     OW41805   4.474   1.815  12.163 -0.7875  0.8505 -0.3222
13455SOL    HW141806   4.433   1.751  12.222  0.9762 -0.3049 -0.2846
13455SOL    HW241807   4.455   1.781  12.075  1.3948 -0.6659 -0.3000
13456SOL     OW41808   3.647   0.550   0.016  0.1506 -0.0134  0.0676
13456SOL    HW141809   3.739   0.567  -0.005  0.4094 -1.8763 -0.4871
13456SOL    HW241810   3.633   0.597   0.098  1.5369  0.5066  0.0407
13457SOL     OW41811   4.206   6.511  11.625  0.2626 -0.3725 -0.4345
13457SOL    HW141812   4.221   6.471  11.540  2.3451 -0.1721 -0.2047
13457SOL    HW241813   4.111   6.524  11.629 -0.1927 -2.8366 -1.5793
13458SOL     OW41814   6.444   1.976   0.544  0.0700 -0.5906 -0.6119
13458SOL    HW141815   6.535   1.949   0.556 -0.4831 -2.5807 -0.5832
13458SOL    HW241816   6.399   1.945   0.622 -0.7789 -0.3466 -0.9917
13459SOL     OW41817   5.226   1.194  12.118  0.7719  0.1032 -0.1821
13459SOL    HW141818   5.290   1.124  12.119  0.5595 -0.1375 -1.6397
13459SOL    HW241819   5.173   1.180  12.197  1.7327 -0.4098  0.3810
13460SOL     OW41820   5.402   0.544  10.715 -0.2030 -0.1096  0.0416
13460SOL    HW141821   5.377   0.584  10.632 -0.8536  1.4544  0.9622
13460SOL    HW241822   5.479   0.593  10.743 -0.4559 -0.0989  0.7341
13461SOL     OW41823   3.891   0.545   0.905  0.1099 -0.0126 -0.3628
13461SOL    HW141824   3.905   0.615   0.842  0.9172  1.0351  0.9264
13461SOL    HW241825   3.940   0.471   0.868  0.7220  0.6270 -0.8867
13462SOL     OW41826   2.129   7.505  10.875  0.1158 -0.2190  0.3229
13462SOL    HW141827   2.192   7.502  10.802 -1.8159 -1.4575 -1.3809
13462SOL    HW241828   2.170   7.452  10.943  1.3012 -0.3075 -0.4187
13463SOL     OW41829   3.186   6.366  11.551 -0.4838  0.6747 -0.6599
13463SOL    HW141830   3.104   6.407  11.525  0.4769  2.9755 -0.2923
13463SOL    HW241831   3.207   6.405  11.636  1.0272  0.2070 -0.7867
13464SOL     OW41832   4.299   7.885   2.530  0.4920  0.2713 -0.1937
13464SOL    HW141833   4.251   7.914   2.608 -0.7902  1.2813 -1.3115
13464SOL    HW241834   4.244   7.913   2.456  1.5312 -0.9111 -1.4627
13465SOL     OW41835   2.739   1.692  11.406  0.5316  0.2679 -0.1207
13465SOL    HW141836   2.683   1.618  11.384 -1.1377  1.5066 -0.2223
13465SOL    HW241837   2.771   1.674  11.494  0.1736 -0.5688 -0.1595
13466SOL     OW41838   6.057   0.949   1.611 -0.1758 -0.2678  0.5469
13466SOL    HW141839   5.971   0.923   1.577 -1.4510  2.8937  1.0171
13466SOL    HW241840   6.065   0.903   1.694 -0.6731 -1.7827 -0.2042
13467SOL     OW41841   4.761   2.343  10.103 -0.5445 -0.5854 -0.0000
13467SOL    HW141842   4.703   2.298  10.164 -1.8894  0.8100 -0.1815
13467SOL    HW241843   4.712   2.422  10.078  0.5448 -0.4486 -1.8347
13468SOL     OW41844   3.930   7.303  11.429 -0.2363  0.1758  0.2333
13468SOL    HW141845   3.955   7.385  11.385  0.0489  0.3297  0.6736
13468SOL    HW241846   3.999   7.241  11.405 -0.4776  0.0480 -0.1394
13469SOL     OW41847   3.837   7.290  11.668  0.2466 -0.0814 -0.3103
13469SOL    HW141848   3.882   7.284  11.584  0.2924 -0.0558 -0.2873
13469SOL    HW241849   3.782   7.368  11.660  0.4607  0.0805 -0.2154
13470SOL     OW41850   5.456   1.044  12.137 -0.4165 -0.1765 -0.6307
13470SOL    HW141851   5.531   1.104  12.137 -2.6793  2.9355 -0.3814
13470SOL    HW241852   5.467   0.993  12.217  1.2768  0.3842 -0.4529
13471SOL     OW41853   5.359   1.273  11.482 -0.0442  0.7040 -0.0685
13471SOL    HW141854   5.411   1.353  11.489  0.6952  0.3070 -0.8272
13471SOL    HW241855   5.347   1.244  11.572 -0.2272  1.6081  0.2055
13472SOL     OW41856   4.446   0.342  12.158  0.6607 -0.3985 -0.0982
13472SOL    HW141857   4.484   0.304  12.079 -0.6809  1.3873 -1.6866
13472SOL    HW241858   4.508   0.320  12.227  3.0776 -0.0941 -2.0393
13473SOL     OW41859   5.999   1.071   0.187  0.5400 -0.0254  0.2216
13473SOL    HW141860   5.928   1.132   0.209 -0.5390 -1.3035  0.3952
13473SOL    HW241861   6.017   1.025   0.269  0.5821 -0.6996 -0.1631
13474SOL     OW41862   4.487   1.186  10.371  0.0632 -0.0264 -0.1492
13474SOL    HW141863   4.541   1.251  10.325  2.1005 -1.5953 -0.1370
13474SOL    HW241864   4.405   1.231  10.388 -0.0750  1.3220 -3.5284
13475SOL     OW41865   6.043   0.543  11.850 -0.3348 -0.1278 -0.4444
13475SOL    HW141866   5.989   0.581  11.781  0.7257  1.1960 -0.5892
13475SOL    HW241867   6.021   0.594  11.928  0.0862 -0.1469 -0.3137
13476SOL     OW41868   5.419   7.892  10.362  0.5301 -0.3639 -0.2012
13476SOL    HW141869   5.433   7.966  10.421  0.6649 -1.1690  0.8213
13476SOL    HW241870   5.403   7.931  10.276 -0.2437  0.8676  0.4794
13477SOL     OW41871   3.523   2.188   1.240  0.1566 -0.4112  0.0654
13477SOL    HW141872   3.546   2.214   1.150  1.3651 -2.8174 -0.4082
13477SOL    HW241873   3.607   2.180   1.285 -0.2794 -1.4563  0.7329
13478SOL     OW41874   3.503   1.016   1.218 -0.3429 -0.3692  0.0503
13478SOL    HW141875   3.598   1.020   1.231 -0.4342  0.7398  0.4921
13478SOL    HW241876   3.466   1.020   1.306 -0.7965 -2.1760 -0.0146
13479SOL     OW41877   4.596   2.540  12.365  0.0659 -0.3350  0.0389
13479SOL    HW141878   4.598   2.511  12.456  0.3756 -1.0720 -0.2018
13479SOL    HW241879   4.542   2.475  12.320 -1.0757  0.6602 -0.0937
13480SOL     OW41880   5.926   7.073  10.395  0.2879  0.3581  0.2947
13480SOL    HW141881   5.973   7.000  10.436 -1.5643  0.5040  2.9710
13480SOL    HW241882   5.835   7.044  10.392 -1.0232  3.3156  3.8826
13481SOL     OW41883   3.348   1.568  10.673 -0.2888 -0.2867 -0.2498
13481SOL    HW141884   3.414   1.596  10.736  1.0919 -1.0200 -1.2855
13481SOL    HW241885   3.369   1.475  10.657 -0.6084 -0.1424 -1.7094
13482SOL     OW41886   5.343   1.762  10.308 -0.5500 -0.0505 -0.4160
13482SOL    HW141887   5.363   1.669  10.299  0.2114  0.0449  0.1242
13482SOL    HW241888   5.249   1.765  10.325 -0.2088 -0.9337  2.1192
13483SOL     OW41889   4.727   0.211  11.092 -0.2287  0.1042  0.3862
13483SOL    HW141890   4.634   0.204  11.116 -0.4218 -1.3757 -0.6603
13483SOL    HW241891   4.754   0.296  11.125 -2.1808  0.9277 -0.0301
13484SOL     OW41892   5.289   1.160   0.466  0.7065 -0.5731 -1.0124
13484SOL    HW141893   5.207   1.114   0.447  0.0126 -0.2324  0.9271
13484SOL    HW241894   5.262   1.249   0.489  1.3098 -1.0600  1.9683
13485SOL     OW41895   4.632   7.894  12.257  0.2379 -0.2766  0.0698
13485SOL    HW141896   4.685   7.816  12.269  0.4215 -0.0016  1.1745
13485SOL    HW241897   4.546   7.862  12.230  0.6533 -0.7806 -0.6777
13486SOL     OW41898   2.943   0.483  11.111  0.6015 -0.0671 -0.0389
13486SOL    HW141899   2.978   0.418  11.172  0.0877 -0.6662 -0.3726
13486SOL    HW241900   2.959   0.446  11.024  0.8501  0.5357 -0.2527
13487SOL     OW41901   5.117   2.111  10.709 -0.4503 -0.3245  0.3480
13487SOL    HW141902   5.209   2.086  10.714 -0.2138  0.3669 -0.3659
13487SOL    HW241903   5.091   2.088  10.620 -1.1431 -1.0564  0.7208
13488SOL     OW41904   5.947   1.298  11.185 -0.0017 -0.1252 -0.7508
13488SOL    HW141905   6.034   1.333  11.169 -0.5031  1.3816 -0.2975
13488SOL    HW241906   5.905   1.361  11.243 -0.9504 -1.4866  0.1063
13489SOL     OW41907   6.364   1.851   1.194  0.2334 -1.1659  0.0523
13489SOL    HW141908   6.309   1.777   1.167 -0.5735 -0.2645 -0.8717
13489SOL    HW241909   6.342   1.865   1.286 -3.2406  0.8760 -0.9036
13490SOL     OW41910   5.609   1.381  11.700  0.0177  0.2776 -0.2827
13490SOL    HW141911   5.525   1.362  11.741  0.0785  2.1165  0.8112
13490SOL    HW241912   5.589   1.395  11.608 -0.6859 -0.3925 -0.2374
13491SOL     OW41913   5.844   1.118  11.561 -0.0830  0.5709 -0.3494
13491SOL    HW141914   5.763   1.085  11.523 -0.4517 -0.3242  1.1285
13491SOL    HW241915   5.903   1.043  11.561  0.5751  1.0709 -0.9107
13492SOL     OW41916   6.510   0.693  11.948  0.1539 -0.5144 -0.7691
13492SOL    HW141917   6.550   0.608  11.933  1.9342 -0.0944  1.1044
13492SOL    HW241918   6.508   0.703  12.043 -0.8006  1.1753 -0.9154
13493SOL     OW41919   3.907   0.842  10.998 -0.0969  0.4295  0.0425
13493SOL    HW141920   3.952   0.759  11.017  0.9714  1.3546  1.7989
13493SOL    HW241921   3.820   0.832  11.037 -0.6454 -0.5124 -1.3531
13494SOL     OW41922   5.755   2.362  12.207 -0.5730  0.1491  0.0385
13494SOL    HW141923   5.840   2.360  12.250 -0.4913  1.8369  0.0006
13494SOL    HW241924   5.699   2.307  12.262  0.4416 -0.7311  0.2307
13495SOL     OW41925   2.998   1.371  10.393  0.0930  0.1970  0.2144
13495SOL    HW141926   2.970   1.297  10.340  0.0447  0.8966 -0.7557
13495SOL    HW241927   3.093   1.364  10.396  0.1652  0.6632 -0.7390
13496SOL     OW41928   3.219   0.734   8.986  0.7251  0.0951  0.0057
13496SOL    HW141929   3.229   0.686   9.068  0.6957 -1.4643 -0.8547
13496SOL    HW241930   3.125   0.729   8.967  0.9625 -1.2350 -1.0327
13497SOL     OW41931   4.842   2.237   0.648  0.1001  0.0982 -0.6191
13497SOL    HW141932   4.829   2.148   0.680  0.4716  0.6958  1.3928
13497SOL    HW241933   4.891   2.227   0.567 -0.1124 -1.5316 -0.5786
13498SOL     OW41934   5.162   1.814  11.452  0.1850 -0.3381  0.2373
13498SOL    HW141935   5.067   1.807  11.454 -0.0552  2.1409  1.9198
13498SOL    HW241936   5.185   1.812  11.359 -1.3849 -1.9531 -0.1498
13499SOL     OW41937   5.458   2.464   0.084  0.0001  0.1744  0.4796
13499SOL    HW141938   5.456   2.531   0.152  0.2518 -0.3432  1.0051
13499SOL    HW241939   5.544   2.423   0.093 -0.7902 -1.3899  1.3142
13500SOL     OW41940   6.284   2.299   0.227 -0.0923  0.2974  0.7074
13500SOL    HW141941   6.190   2.296   0.209  0.4381 -0.1951 -2.7149
13500SOL    HW241942   6.300   2.387   0.259 -1.6021  0.6329  0.6197
13501SOL     OW41943   6.929   1.550  12.255 -0.5574 -0.7139  0.2519
13501SOL    HW141944   7.018   1.541  12.223 -1.1030 -0.1530 -1.5533
13501SOL    HW241945   6.927   1.637  12.295 -0.2005 -0.8991  0.6838
13502SOL     OW41946   3.822   1.910  10.901  0.2219 -0.3572 -0.2135
13502SOL    HW141947   3.849   1.828  10.860 -0.6871  0.0967 -1.7955
13502SOL    HW241948   3.729   1.898  10.921  0.1262  0.2262 -0.2839
13503SOL     OW41949   5.367   0.194   0.074  0.3142  0.0236  0.7232
13503SOL    HW141950   5.286   0.231   0.111  0.3676 -0.6298  1.5300
13503SOL    HW241951   5.435   0.257   0.099  0.3030 -0.2618  1.5240
13504SOL     OW41952   4.158   1.076  12.341 -0.2657 -0.7707 -0.4802
13504SOL    HW141953   4.138   1.060  12.248 -0.5595 -0.9460 -0.3879
13504SOL    HW241954   4.146   0.991  12.383  1.6228 -1.1100 -0.5740
13505SOL     OW41955   6.314   2.109   1.142  0.3462  0.1699  0.0257
13505SOL    HW141956   6.348   2.022   1.162  1.4373  0.8270  1.1470
13505SOL    HW241957   6.261   2.132   1.218  0.0038  0.4760 -0.2962
13506SOL     OW41958   4.429   0.897  12.266  0.1446  0.2270  0.0864
13506SOL    HW141959   4.455   0.983  12.233  0.0899 -0.3066 -1.3988
13506SOL    HW241960   4.506   0.865  12.314  0.7171  0.4607 -0.6645
13507SOL     OW41961   4.577   1.115   9.940  0.1670 -0.1882 -0.5224
13507SOL    HW141962   4.646   1.063   9.899 -0.0868 -0.9214 -0.0393
13507SOL    HW241963   4.624   1.177   9.996  0.4489 -0.5601 -0.3380
13508SOL     OW41964   6.080   0.972   0.428 -0.2197 -0.5081  0.2997
13508SOL    HW141965   6.174   0.987   0.435 -0.0263 -1.3978 -0.3272
13508SOL    HW241966   6.041   1.056   0.454  0.7695  0.2543 -0.5587
13509SOL     OW41967   4.246   1.119  11.265  0.0642  0.3128  0.0313
13509SOL    HW141968   4.303   1.042  11.268  2.3401  1.9042  0.1190
13509SOL    HW241969   4.179   1.096  11.200 -0.3616 -2.3492  1.2572
13510SOL     OW41970   7.358   0.264  11.543  0.1601 -0.0818 -0.3612
13510SOL    HW141971   7.323   0.258  11.632  0.1541  1.4798 -0.2308
13510SOL    HW241972   7.432   0.324  11.550  1.1376 -1.1515 -1.1492
13511SOL     OW41973   4.729   7.656  12.107  0.1287  0.3302 -0.1913
13511SOL    HW141974   4.808   7.607  12.129 -0.0971  0.3809  0.7788
13511SOL    HW241975   4.672   7.593  12.064  0.5832  0.2236 -0.6383
13512SOL     OW41976   5.263   3.497  12.127  0.2905  0.0049 -0.1837
13512SOL    HW141977   5.281   3.568  12.066  1.6888  0.6460  0.9391
13512SOL    HW241978   5.223   3.540  12.203  0.1203 -0.5646  0.0529
13513SOL     OW41979   4.842   1.006   0.227  0.2420 -0.1067 -0.0081
13513SOL    HW141980   4.826   0.969   0.140 -1.4146 -0.3829  0.3742
13513SOL    HW241981   4.755   1.027   0.260  0.9421  1.4104  0.9875
13514SOL     OW41982   4.678   0.016   0.431 -0.4370  0.5298 -0.1152
13514SOL    HW141983   4.662   0.080   0.500 -0.8348 -2.0593  2.3787
13514SOL    HW241984   4.773   0.015   0.420 -0.3717  0.9835  0.3770
13515SOL     OW41985   5.940   1.915   0.834 -0.0938 -0.0619  0.0253
13515SOL    HW141986   5.928   1.827   0.800  0.2281  0.5530 -1.7851
13515SOL    HW241987   5.938   1.904   0.929 -2.0459 -1.7264 -0.1326
13516SOL     OW41988   4.524   1.704  12.457 -0.2879  0.8196 -0.0572
13516SOL    HW141989   4.611   1.667  12.441 -0.0418  0.4826  1.9029
13516SOL    HW241990   4.537   1.798  12.452  0.8015  0.8963  2.7883
13517SOL     OW41991   5.601   7.269  10.755 -0.6141  0.5458 -0.4065
13517SOL    HW141992   5.655   7.222  10.819 -0.8662  0.8335  0.0185
13517SOL    HW241993   5.512   7.238  10.770 -0.4747 -0.5655 -1.6772
13518SOL     OW41994   5.376   6.717   9.773  0.1646 -0.5554  0.2298
13518SOL    HW141995   5.425   6.695   9.694  0.9714 -1.0164  0.8484
13518SOL    HW241996   5.284   6.718   9.744  0.5030  0.0735 -0.8820
13519SOL     OW41997   5.689   7.641  12.259  0.2271 -0.0881  0.4539
13519SOL    HW141998   5.724   7.558  12.291  1.6752  1.3518  2.9265
13519SOL    HW241999   5.766   7.693  12.238 -0.6544  0.7347 -0.8619
13520SOL     OW42000   3.616   1.476  11.577 -0.0308  0.0733  0.4205
13520SOL    HW142001   3.645   1.528  11.502 -0.4432  0.6539  0.6540
13520SOL    HW242002   3.588   1.541  11.642  0.2279 -0.4218  1.0432
13521SOL     OW42003   3.863   2.155   0.537 -0.0604  0.1671  0.7532
13521SOL    HW142004   3.916   2.231   0.561  0.4208 -0.2781  1.1244
13521SOL    HW242005   3.810   2.185   0.463  0.3643  0.7621  0.6847
13522SOL     OW42006   5.385   4.156  11.880  0.3565 -0.1900  0.7054
13522SOL    HW142007   5.456   4.209  11.844  1.5585 -0.6529  2.2896
13522SOL    HW242008   5.341   4.121  11.803  1.4843  0.5823 -0.3318
13523SOL     OW42009   4.639   2.461   0.372 -0.0097 -0.2152  0.3524
13523SOL    HW142010   4.618   2.380   0.419 -0.0441  0.2988  1.2450
13523SOL    HW242011   4.691   2.512   0.434 -0.8533  0.8823  0.1814
13524SOL     OW42012   2.531   0.451   0.358  0.1825  0.3007  0.5131
13524SOL    HW142013   2.579   0.415   0.283 -0.4737 -1.0497  0.7173
13524SOL    HW242014   2.465   0.509   0.319  0.4264  0.3049  0.1039
13525SOL     OW42015   5.755   4.537   0.747 -0.5642 -0.4399 -0.0630
13525SOL    HW142016   5.687   4.566   0.686 -1.2807 -0.0354  0.8968
13525SOL    HW242017   5.791   4.458   0.707 -0.4746  0.2402 -1.3855
13526SOL     OW42018   4.553   2.703   0.643 -0.2225 -0.0239 -0.3257
13526SOL    HW142019   4.644   2.727   0.657  0.1577 -0.7173 -1.5083
13526SOL    HW242020   4.534   2.731   0.553 -1.2724  0.3795 -0.0005
13527SOL     OW42021   6.877   2.829   0.916  0.2586 -0.5602 -0.2965
13527SOL    HW142022   6.946   2.864   0.973  1.2603 -1.6442 -0.8011
13527SOL    HW242023   6.875   2.735   0.935  0.4671 -0.9137 -1.8895
13528SOL     OW42024   5.250   2.968   1.041  0.6176  0.1068 -0.2070
13528SOL    HW142025   5.243   2.943   0.948  1.4991 -3.9285  0.6143
13528SOL    HW242026   5.166   2.941   1.079  1.2472 -0.7623  0.6029
13529SOL     OW42027   5.109   3.455   2.006  0.3395 -0.2315 -0.2740
13529SOL    HW142028   5.125   3.458   2.101  0.5192  1.1213 -0.3203
13529SOL    HW242029   5.148   3.536   1.973 -0.2002 -0.4248 -1.4350
13530SOL     OW42030   5.913   1.908   1.690  0.1683 -0.6246  0.4077
13530SOL    HW142031   5.823   1.888   1.716 -0.9834  0.3225 -2.4552
13530SOL    HW242032   5.926   1.859   1.609  1.4760  0.8411 -0.3252
13531SOL     OW42033   3.829   3.940  11.837 -0.3512 -0.0088 -0.2927
13531SOL    HW142034   3.922   3.936  11.818 -0.2240  0.5939  0.1709
13531SOL    HW242035   3.788   3.889  11.767  0.1993  1.0460 -1.4300
13532SOL     OW42036   4.267   1.980   1.319 -0.1859 -0.0290  0.2742
13532SOL    HW142037   4.300   1.905   1.369  0.7852 -0.5771 -1.1187
13532SOL    HW242038   4.173   1.965   1.312 -0.5814  0.7164  2.9465
13533SOL     OW42039   4.404   2.395   1.873 -0.2879  0.1472 -0.0679
13533SOL    HW142040   4.311   2.388   1.848 -0.0826 -0.5422 -0.6920
13533SOL    HW242041   4.403   2.429   1.962 -1.1193  0.8953 -0.3387
13534SOL     OW42042   5.198   4.154   1.253 -0.4285  0.0500 -0.8157
13534SOL    HW142043   5.111   4.166   1.214 -0.2136 -0.4248 -1.4579
13534SOL    HW242044   5.258   4.167   1.180  0.0605  0.6493 -0.3149
13535SOL     OW42045   3.575   2.088   0.956 -0.3946 -0.1607  0.1556
13535SOL    HW142046   3.489   2.123   0.936 -0.0729  0.5164 -0.0662
13535SOL    HW242047   3.634   2.163   0.948  0.6236 -1.1304 -2.3299
13536SOL     OW42048   4.806   3.205  11.986 -0.1558 -0.4973 -0.1975
13536SOL    HW142049   4.898   3.228  11.974 -0.3155 -0.1305 -0.7538
13536SOL    HW242050   4.804   3.109  11.980  0.1461 -0.4874 -0.4592
13537SOL     OW42051   4.844   3.301   1.262 -0.1246 -0.2347 -0.2532
13537SOL    HW142052   4.820   3.346   1.344  0.3864  0.1934 -0.3295
13537SOL    HW242053   4.936   3.278   1.275 -0.3719 -1.2588 -0.2258
13538SOL     OW42054   5.829   4.118   0.845 -0.6122 -0.2633 -0.1278
13538SOL    HW142055   5.904   4.140   0.902 -1.5477 -0.6960  1.3261
13538SOL    HW242056   5.808   4.200   0.801  0.6891 -0.1263 -0.5337
13539SOL     OW42057   5.542   3.956   0.520  0.6524 -0.1826  0.2705
13539SOL    HW142058   5.625   3.966   0.474 -0.2409  3.9283 -0.8867
13539SOL    HW242059   5.535   4.036   0.573 -1.7215 -1.3203  1.8326
13540SOL     OW42060   3.682   3.436   1.606 -0.0232 -0.1345  0.1407
13540SOL    HW142061   3.660   3.510   1.549 -0.3167  1.1835  1.9074
13540SOL    HW242062   3.777   3.443   1.618  0.0324 -0.3881 -0.1380
13541SOL     OW42063   4.556   3.953  12.327  0.0906 -0.1126 -0.1287
13541SOL    HW142064   4.546   3.951  12.422  1.7883 -0.6109  0.0688
13541SOL    HW242065   4.638   4.001  12.312  1.0240 -1.9135 -1.1860
13542SOL     OW42066   3.472   3.137  12.400  0.1889  0.0328 -0.8454
13542SOL    HW142067   3.458   3.165  12.490  0.7082  2.4735 -1.4255
13542SOL    HW242068   3.567   3.141  12.388  0.1592 -0.6965 -1.3819
13543SOL     OW42069   5.320   1.599   2.016  0.7213 -0.5039  0.3989
13543SOL    HW142070   5.335   1.690   2.041 -1.1604 -0.4037  1.3075
13543SOL    HW242071   5.250   1.569   2.074 -0.6680 -1.6622 -1.7376
13544SOL     OW42072   4.393   3.006  11.972  0.3127 -0.0812 -0.4247
13544SOL    HW142073   4.430   3.094  11.980  1.5835 -0.6901  0.8187
13544SOL    HW242074   4.378   2.978  12.063  0.3373 -1.3065 -0.7850
13545SOL     OW42075   4.409   2.803  12.443  0.0897 -0.0752  0.3677
13545SOL    HW142076   4.356   2.839  12.514 -2.4350 -2.6319 -0.0393
13545SOL    HW242077   4.465   2.738  12.486 -0.4733 -0.6683  0.2137
13546SOL     OW42078   1.649   3.374  12.157  0.4341  0.2028  0.0619
13546SOL    HW142079   1.571   3.369  12.101  0.8011  0.0527 -0.4442
13546SOL    HW242080   1.616   3.404  12.241 -0.5396 -1.9856  0.5534
13547SOL     OW42081   5.857   2.589  12.034  0.0034 -0.2180 -0.3652
13547SOL    HW142082   5.922   2.648  11.998 -1.4999  0.3295 -2.3468
13547SOL    HW242083   5.846   2.618  12.125  0.8933  1.1105 -0.6555
13548SOL     OW42084   7.587   1.994   0.087 -0.1206  0.3646  0.2914
13548SOL    HW142085   7.530   2.070   0.082  0.9202  1.0845 -1.2732
13548SOL    HW242086   7.542   1.927   0.036 -0.6973  0.1272  1.0851
13549SOL     OW42087   4.457   2.263   2.430  0.5827  0.3240 -0.3905
13549SOL    HW142088   4.540   2.271   2.382  0.6020 -0.0412 -0.4215
13549SOL    HW242089   4.424   2.352   2.435  0.4894  0.3532 -1.2492
13550SOL     OW42090   2.184   3.301   1.268 -0.3799 -0.5003 -1.0263
13550SOL    HW142091   2.218   3.245   1.198  0.3765 -0.6732 -0.5248
13550SOL    HW242092   2.117   3.247   1.310  0.2479 -0.9874 -0.6346
13551SOL     OW42093   6.797   3.683   2.325  0.1065 -0.3842 -0.8229
13551SOL    HW142094   6.806   3.774   2.353  0.1645 -0.4724 -0.5488
13551SOL    HW242095   6.819   3.632   2.403  0.0089 -0.6318 -0.9568
13552SOL     OW42096   2.658   1.122   0.917  0.7446  0.5264 -0.4742
13552SOL    HW142097   2.693   1.199   0.963  0.4067  0.9983 -0.9883
13552SOL    HW242098   2.663   1.146   0.824  2.0273 -0.6670 -0.7481
13553SOL     OW42099   6.198   1.404   0.647  0.0239  0.4491 -0.3772
13553SOL    HW142100   6.146   1.480   0.670 -1.0465 -0.3001 -0.2717
13553SOL    HW242101   6.260   1.394   0.719  0.0503  1.1029 -0.3075
13554SOL     OW42102   4.067   3.205  11.391 -0.6173  0.5717 -0.0045
13554SOL    HW142103   3.984   3.210  11.345 -1.1659 -1.0266  0.7512
13554SOL    HW242104   4.132   3.191  11.323 -1.0985  0.6937 -0.4923
13555SOL     OW42105   5.721   3.298   1.535  0.1612 -0.0652 -0.2351
13555SOL    HW142106   5.806   3.277   1.574 -0.8472 -1.4197  1.3378
13555SOL    HW242107   5.736   3.292   1.441  1.9564  0.3605 -0.0078
13556SOL     OW42108   5.476   0.310   0.797 -0.2608  0.2828  0.8472
13556SOL    HW142109   5.406   0.300   0.732  0.6374  0.0434 -0.1022
13556SOL    HW242110   5.466   0.234   0.854  0.0174 -0.4625 -0.0674
13557SOL     OW42111   6.796   3.758   1.455  0.2202  0.3182  0.1006
13557SOL    HW142112   6.810   3.687   1.516 -0.2478 -0.5475 -0.7671
13557SOL    HW242113   6.871   3.756   1.396 -1.3038 -1.6232 -1.9504
13558SOL     OW42114   6.175   1.814   1.414  0.4577  0.1920  0.9025
13558SOL    HW142115   6.201   1.805   1.506  1.2296  0.1121  0.6900
13558SOL    HW242116   6.125   1.734   1.395  0.5307  0.0800  1.1806
13559SOL     OW42117   2.374   3.951   0.916 -0.4515  0.6109 -0.2912
13559SOL    HW142118   2.465   3.924   0.911 -0.5027  0.6841 -1.9745
13559SOL    HW242119   2.347   3.966   0.826 -2.1803  0.4731  0.1512
13560SOL     OW42120   3.460   1.880   0.388  0.2382  0.0764 -0.0651
13560SOL    HW142121   3.445   1.935   0.464 -0.3597  1.0335 -0.8498
13560SOL    HW242122   3.427   1.932   0.314  1.1787 -0.6392 -1.0228
13561SOL     OW42123   5.510   3.327   0.292  0.8174 -0.2625 -0.1548
13561SOL    HW142124   5.524   3.255   0.231 -0.3174 -1.1306  0.5460
13561SOL    HW242125   5.469   3.285   0.368  0.1628  1.1290  0.2854
13562SOL     OW42126   3.464   2.320   1.968 -0.4884  0.5507 -0.3055
13562SOL    HW142127   3.467   2.288   2.058 -0.0215 -1.2397 -0.9029
13562SOL    HW242128   3.527   2.392   1.965 -1.1796  1.2315  0.9880
13563SOL     OW42129   3.507   1.308   2.551 -0.1549  0.0177  0.7329
13563SOL    HW142130   3.445   1.380   2.564 -0.5056  0.4447 -2.4021
13563SOL    HW242131   3.550   1.329   2.469  0.5086 -2.8260  0.2503
13564SOL     OW42132   6.195   1.925   0.695  0.0665  0.1189  0.0190
13564SOL    HW142133   6.105   1.951   0.717  0.3448  2.6661 -1.4702
13564SOL    HW242134   6.185   1.870   0.617 -0.2075  0.6240 -0.3112
13565SOL     OW42135   5.038   2.951   1.407  0.2616  0.1902  0.0631
13565SOL    HW142136   5.127   2.915   1.404  0.0366 -0.3151 -0.6758
13565SOL    HW242137   4.981   2.875   1.417 -0.2089  0.3304 -1.3870
13566SOL     OW42138   5.009   2.235   0.429 -0.4665 -0.2301 -0.0799
13566SOL    HW142139   5.076   2.302   0.439 -0.6566  0.0563 -0.6499
13566SOL    HW242140   5.057   2.152   0.428 -0.1992 -0.0780  0.3072
13567SOL     OW42141   3.686   2.912   2.433 -0.0135  0.4711 -0.5303
13567SOL    HW142142   3.741   2.858   2.490  1.1260  0.6330 -1.4262
13567SOL    HW242143   3.711   3.002   2.454  1.1723  0.5177 -1.9405
13568SOL     OW42144   5.448   5.435   1.625  0.1013 -0.4763  0.1352
13568SOL    HW142145   5.357   5.419   1.650  0.1543 -0.6576  0.2073
13568SOL    HW242146   5.462   5.527   1.648 -0.6291  0.1032 -1.5698
13569SOL     OW42147   3.211   3.478   0.008  0.3918  0.2175  0.0113
13569SOL    HW142148   3.284   3.445   0.061  0.4240  0.8085  0.3446
13569SOL    HW242149   3.251   3.544  -0.048  0.1018  0.5815  0.2321
13570SOL     OW42150   5.930   2.910   2.471  0.1979 -0.4776  0.2458
13570SOL    HW142151   6.023   2.915   2.449  0.5124 -3.2851  0.5328
13570SOL    HW242152   5.891   2.987   2.430  2.1609 -0.8027 -2.4784
13571SOL     OW42153   5.880   1.966  12.163 -0.1813  0.0783  0.7751
13571SOL    HW142154   5.910   1.951  12.253 -0.9617 -0.4717  0.9564
13571SOL    HW242155   5.957   1.951  12.109  0.9539  2.7392  1.4832
13572SOL     OW42156   4.339   1.374   1.136 -0.6167  0.1662  0.0748
13572SOL    HW142157   4.325   1.462   1.172  0.1616  0.1283  0.5053
13572SOL    HW242158   4.377   1.325   1.209  0.0165 -0.2070 -0.4997
13573SOL     OW42159   3.825   3.444   0.295 -0.4472 -0.3738  0.5276
13573SOL    HW142160   3.738   3.439   0.336 -1.1363  0.3259 -0.7909
13573SOL    HW242161   3.857   3.531   0.316 -0.8037 -0.0108 -0.3947
13574SOL     OW42162   1.966   2.126   0.971 -0.5638 -0.0221  0.3403
13574SOL    HW142163   1.872   2.131   0.990 -0.9345  1.1887 -1.4744
13574SOL    HW242164   1.987   2.211   0.933  1.2719 -0.2966  0.6410
13575SOL     OW42165   5.274   1.849  11.711 -0.1532 -0.5187  0.5038
13575SOL    HW142166   5.218   1.778  11.743  1.5126 -2.9635 -1.5705
13575SOL    HW242167   5.256   1.854  11.617  0.8717  0.7462  0.3433
13576SOL     OW42168   4.105   3.909   0.392  0.0509  0.1810  0.2988
13576SOL    HW142169   4.170   3.878   0.329  2.1151  1.1143  1.8183
13576SOL    HW242170   4.070   3.989   0.353  1.6985  1.0482  0.4896
13577SOL     OW42171   2.556   3.051  12.356  0.5708 -0.0993 -0.3536
13577SOL    HW142172   2.651   3.050  12.357  0.5781 -1.3291 -0.4025
13577SOL    HW242173   2.532   2.977  12.300 -0.4109  0.6536 -0.9603
13578SOL     OW42174   6.649   1.443   1.978  0.0722  0.3647 -0.3067
13578SOL    HW142175   6.682   1.374   1.920 -2.4479 -1.0707 -0.1772
13578SOL    HW242176   6.581   1.400   2.031 -1.3485  2.8371  0.0497
13579SOL     OW42177   3.688   4.489   0.544 -0.2118  0.0168 -0.0056
13579SOL    HW142178   3.598   4.523   0.541 -0.0665  0.3963 -0.1741
13579SOL    HW242179   3.679   4.395   0.529 -0.5776  0.0590 -0.0627
13580SOL     OW42180   4.288   3.473   0.114  0.3420 -0.1966 -0.1307
13580SOL    HW142181   4.194   3.459   0.127 -0.2219  2.4252 -0.7478
13580SOL    HW242182   4.296   3.497   0.021  1.6837 -0.7344 -0.1769
13581SOL     OW42183   4.935   2.515   1.214  0.0667 -0.1115 -0.1998
13581SOL    HW142184   4.885   2.594   1.230  0.5133  0.0058  0.6801
13581SOL    HW242185   5.026   2.543   1.219  0.2645 -0.2146 -2.3182
13582SOL     OW42186   4.331   3.066   1.818 -0.1820  0.4066  0.0460
13582SOL    HW142187   4.317   3.158   1.796  0.1462  0.4719  0.1047
13582SOL    HW242188   4.426   3.057   1.824 -0.2369  0.3165  1.0824
13583SOL     OW42189   6.016   3.691   9.662 -0.1414 -0.1079 -0.1688
13583SOL    HW142190   6.016   3.698   9.567  1.3490 -1.3214 -0.2854
13583SOL    HW242191   5.951   3.623   9.681 -0.6616  0.3507 -0.2867
13584SOL     OW42192   5.586   0.406   2.036  0.1625  0.2287 -0.3066
13584SOL    HW142193   5.530   0.368   1.968  0.8191  0.8912 -1.2332
13584SOL    HW242194   5.534   0.398   2.116 -0.9436  0.1281 -1.0116
13585SOL     OW42195   3.824   4.029   1.924  0.1360 -1.0119 -0.1214
13585SOL    HW142196   3.905   4.079   1.934  0.3584 -1.2246 -0.8100
13585SOL    HW242197   3.850   3.951   1.875 -0.5191 -0.9926 -0.5184
13586SOL     OW42198   4.085   2.959  12.388 -0.4535  0.3696  0.3007
13586SOL    HW142199   4.176   2.974  12.365 -0.2874  2.0837  1.8763
13586SOL    HW242200   4.041   3.041  12.368 -1.7723 -0.5544 -0.8059
13587SOL     OW42201   2.214   3.082   1.094 -0.2791  0.1279 -0.4589
13587SOL    HW142202   2.152   3.008   1.096 -0.4277  0.1288 -2.8578
13587SOL    HW242203   2.181   3.139   1.025  0.5643  1.8386  0.4924
13588SOL     OW42204   7.289   4.477   1.759 -0.2523 -0.5165  0.3378
13588SOL    HW142205   7.358   4.446   1.701  0.8357 -0.5311  1.6094
13588SOL    HW242206   7.315   4.566   1.781 -0.3849 -0.6915  1.2065
13589SOL     OW42207   3.732   1.379   0.439  0.3815 -0.4149 -0.7033
13589SOL    HW142208   3.725   1.351   0.530  1.1764  2.5481  0.3812
13589SOL    HW242209   3.825   1.391   0.424  0.2355 -0.5291 -1.8052
13590SOL     OW42210   7.327   2.591   1.319  0.3543 -0.1045 -0.7031
13590SOL    HW142211   7.394   2.611   1.254 -1.3843  0.9995 -2.2643
13590SOL    HW242212   7.245   2.616   1.277 -1.1645 -2.3706  0.7255
13591SOL     OW42213   4.151   4.079   1.516 -0.1893  0.9770 -0.1463
13591SOL    HW142214   4.175   3.993   1.480  0.7069  0.4423  1.6144
13591SOL    HW242215   4.218   4.138   1.483 -0.5068  0.9087 -0.9375
13592SOL     OW42216   4.585   1.993   1.330 -0.4341 -0.0509  0.4711
13592SOL    HW142217   4.562   2.023   1.418 -2.4211 -2.2545  0.8095
13592SOL    HW242218   4.501   1.990   1.283  0.2518 -1.0718 -0.7529
13593SOL     OW42219   5.924   3.262   2.673 -0.6355 -0.2283 -0.5993
13593SOL    HW142220   5.880   3.338   2.712  0.7906  0.0984  0.4819
13593SOL    HW242221   5.967   3.296   2.595  3.0012  1.1290  1.6836
13594SOL     OW42222   5.462   1.838   1.973 -0.1942  0.2857  0.4243
13594SOL    HW142223   5.390   1.886   1.932 -1.1552 -1.4506 -0.0706
13594SOL    HW242224   5.530   1.835   1.905  0.1815  1.5376  0.7270
13595SOL     OW42225   3.000   1.742   0.972 -0.5359  0.0579  0.0804
13595SOL    HW142226   2.935   1.760   0.905 -1.8246 -1.0029  1.0045
13595SOL    HW242227   3.045   1.663   0.942  2.6894  2.4599 -2.1884
13596SOL     OW42228   6.736   2.552  12.286  0.6283  0.0520  0.1224
13596SOL    HW142229   6.818   2.571  12.241  0.3992 -2.5207 -1.6465
13596SOL    HW242230   6.757   2.558  12.379  2.4013  0.9006 -0.2895
13597SOL     OW42231   3.541   1.176  12.097 -0.5912  0.2898 -0.0611
13597SOL    HW142232   3.539   1.204  12.189  1.4142 -0.5976  0.3093
13597SOL    HW242233   3.512   1.253  12.048  1.5773  1.9831  1.1157
13598SOL     OW42234   5.660   2.051   0.780 -0.2383 -0.3351  0.0527
13598SOL    HW142235   5.662   2.060   0.875  0.6228  0.2246 -0.0139
13598SOL    HW242236   5.722   1.981   0.761 -0.3925 -0.4297 -0.1034
13599SOL     OW42237   7.080   3.636   1.223  0.9541  0.1866 -0.1416
13599SOL    HW142238   7.084   3.727   1.251  1.4817  0.2998 -0.5729
13599SOL    HW242239   7.153   3.626   1.163  0.3786 -0.2933 -0.7841
13600SOL     OW42240   4.374   2.371   1.217  0.0606 -0.2923 -0.5460
13600SOL    HW142241   4.356   2.363   1.123 -1.4593  0.0773 -0.3051
13600SOL    HW242242   4.288   2.372   1.258  0.7135 -0.5940  0.8801
13601SOL     OW42243   3.016   3.632  11.335  0.1588  0.4687  0.4236
13601SOL    HW142244   3.042   3.700  11.273 -0.2593 -0.0607 -0.3387
13601SOL    HW242245   2.943   3.587  11.293  0.5801 -0.6124  0.8112
13602SOL     OW42246   5.011   1.485  11.450 -0.0743  0.5424  0.6465
13602SOL    HW142247   4.932   1.483  11.397 -0.2833  1.1919  0.9206
13602SOL    HW242248   5.080   1.514  11.390 -0.1872  0.6870  0.5881
13603SOL     OW42249   5.591   2.333   1.170  0.3141 -0.5729  0.1411
13603SOL    HW142250   5.589   2.239   1.153 -0.2491 -0.3556 -1.1568
13603SOL    HW242251   5.536   2.346   1.246  2.3729 -1.5490  1.9003
13604SOL     OW42252   2.409   3.724  11.207 -0.4082 -0.1801 -0.0671
13604SOL    HW142253   2.503   3.704  11.198 -0.7275 -0.8827 -2.4809
13604SOL    HW242254   2.407   3.805  11.258  1.5223 -0.0288 -0.1532
13605SOL     OW42255   4.100   2.957   0.985  0.0349 -0.4027  0.3789
13605SOL    HW142256   4.132   3.002   1.063 -0.9200  2.1379 -0.5909
13605SOL    HW242257   4.168   2.893   0.964  1.9758  1.2433  1.3106
13606SOL     OW42258   4.022   4.229   0.562  0.0404  0.2582  0.3156
13606SOL    HW142259   4.054   4.303   0.614  2.1458 -0.4526  0.1273
13606SOL    HW242260   4.002   4.267   0.476  0.9923  0.6544  0.2558
13607SOL     OW42261   3.355   3.966   0.277 -0.0022  0.2227  0.2975
13607SOL    HW142262   3.316   4.046   0.313  0.4724  1.5129 -1.8376
13607SOL    HW242263   3.447   3.971   0.301 -0.1896 -0.3127  1.1652
13608SOL     OW42264   5.446   3.225   0.529 -0.3126  0.1282  0.0416
13608SOL    HW142265   5.496   3.258   0.604  0.7777  1.7865 -1.3360
13608SOL    HW242266   5.356   3.249   0.548 -0.0040  0.8129  0.6933
13609SOL     OW42267   5.252   2.234   0.109 -0.4329  0.2255 -0.1836
13609SOL    HW142268   5.170   2.195   0.080 -1.0925 -0.0602  1.9095
13609SOL    HW242269   5.247   2.325   0.080 -0.7123 -0.2013 -1.5311
13610SOL     OW42270   6.616   2.594   0.403 -0.2791 -0.1950 -0.4130
13610SOL    HW142271   6.646   2.660   0.465 -0.5377  0.7019 -1.2163
13610SOL    HW242272   6.619   2.637   0.318 -1.3317 -0.9099 -0.8462
13611SOL     OW42273   2.038   4.292  12.222 -0.2080  0.1722  0.0768
13611SOL    HW142274   2.089   4.340  12.288  0.2051  0.6646 -0.5891
13611SOL    HW242275   2.054   4.199  12.242  0.9218  0.3173 -0.0907
13612SOL     OW42276   5.519   3.838   0.900 -0.4925  0.3630 -0.3210
13612SOL    HW142277   5.562   3.790   0.970 -1.4134  0.4003  0.2838
13612SOL    HW242278   5.440   3.787   0.880 -1.8657  1.9165  0.8066
13613SOL     OW42279   5.682   2.268   0.615  0.4426 -0.4045 -0.3509
13613SOL    HW142280   5.606   2.321   0.641  0.6705 -0.6874  1.0095
13613SOL    HW242281   5.670   2.185   0.662  1.1749 -0.7592 -0.7769
13614SOL     OW42282   4.273   2.418   0.057 -0.4261  0.2129  0.3922
13614SOL    HW142283   4.247   2.468  -0.020  0.1866  0.4848  0.3518
13614SOL    HW242284   4.310   2.337   0.021  2.3465  1.4283  0.1953
13615SOL     OW42285   5.225   3.726   0.058  0.3648 -0.1146  0.3196
13615SOL    HW142286   5.184   3.657   0.007  2.6475 -0.7816 -0.7308
13615SOL    HW242287   5.296   3.759   0.002  2.0584  0.1129  2.4623
13616SOL     OW42288   3.610   4.243   0.845  0.5053 -0.0277  0.4508
13616SOL    HW142289   3.695   4.216   0.879 -0.1954 -0.1117  2.2171
13616SOL    HW242290   3.590   4.178   0.777  2.0962  0.3509 -0.4368
13617SOL     OW42291   5.615   5.357   0.955 -0.0604  0.2261 -0.8707
13617SOL    HW142292   5.675   5.284   0.943 -0.8997 -0.3409 -1.9172
13617SOL    HW242293   5.533   5.326   0.915 -1.0531  0.9567  0.5277
13618SOL     OW42294   5.909   2.992   0.624 -0.1444  0.8698 -0.3485
13618SOL    HW142295   5.974   2.932   0.659 -0.7040  1.2944  1.5192
13618SOL    HW242296   5.899   2.966   0.532 -0.2065 -1.7389  0.3292
13619SOL     OW42297   4.987   2.235   1.043 -0.1608  0.4041  0.3743
13619SOL    HW142298   4.954   2.166   0.986 -0.9669  1.2411 -0.2225
13619SOL    HW242299   4.931   2.311   1.023  2.1473  1.9424 -0.7394
13620SOL     OW42300   6.076   2.876   1.849 -0.0948 -0.4512  0.1854
13620SOL    HW142301   5.987   2.873   1.883  0.4245 -1.3403  1.5975
13620SOL    HW242302   6.128   2.828   1.914  0.9660 -2.4675 -1.9881
13621SOL     OW42303   4.655   1.755  11.748 -0.3662 -0.0329  0.0032
13621SOL    HW142304   4.656   1.774  11.842  0.7243  0.9045 -0.1702
13621SOL    HW242305   4.570   1.786  11.717 -0.5343  0.1019  0.5952
13622SOL     OW42306   3.682   3.704   0.325 -0.2421  0.1271  0.1308
13622SOL    HW142307   3.690   3.721   0.419  0.7920  0.6152 -0.0288
13622SOL    HW242308   3.681   3.790   0.284 -0.0869 -0.0887 -0.3442
13623SOL     OW42309   3.946   2.775   1.727 -0.0473  0.8235 -0.9070
13623SOL    HW142310   3.903   2.836   1.787  0.0117  0.8953 -0.9378
13623SOL    HW242311   3.877   2.752   1.664 -0.0465  0.9258 -0.9461
13624SOL     OW42312   7.433   3.327   2.181  0.4302  0.2891 -0.0903
13624SOL    HW142313   7.480   3.247   2.203 -0.8140 -0.2361  0.7837
13624SOL    HW242314   7.413   3.367   2.266 -1.0977  0.2346 -0.3808
13625SOL     OW42315   5.049   4.821   1.146  0.0800  0.1335  1.2262
13625SOL    HW142316   5.054   4.756   1.075 -0.5444 -0.2416  1.5168
13625SOL    HW242317   5.096   4.780   1.219  0.1739  0.2506  1.2317
13626SOL     OW42318   2.354   4.659  12.219 -0.0955  0.4396 -0.7988
13626SOL    HW142319   2.309   4.589  12.266  0.9518 -0.4239 -1.0464
13626SOL    HW242320   2.430   4.680  12.273 -0.9511  2.1428 -0.1990
13627SOL     OW42321   4.744   2.877   0.869  0.5860  0.3730  0.0711
13627SOL    HW142322   4.691   2.943   0.914  0.5065  0.7042 -0.4953
13627SOL    HW242323   4.793   2.927   0.803  1.7253  0.1043  0.6805
13628SOL     OW42324   3.938   3.545   1.262 -0.3915  0.3129 -0.7726
13628SOL    HW142325   3.943   3.538   1.167  0.5381 -1.3673 -0.6561
13628SOL    HW242326   3.894   3.464   1.290 -0.2839  0.5846  0.2316
13629SOL     OW42327   4.807   2.088   1.999 -0.1136 -0.2193 -0.1006
13629SOL    HW142328   4.750   2.013   2.013 -0.9053  0.4882  0.5078
13629SOL    HW242329   4.875   2.055   1.939 -0.9234 -1.1777 -0.5217
13630SOL     OW42330   6.232   1.401   1.079 -0.0898 -0.7566  0.2508
13630SOL    HW142331   6.274   1.319   1.056  0.9512 -0.7185  1.8240
13630SOL    HW242332   6.226   1.398   1.175 -0.0940  0.9605  0.3299
13631SOL     OW42333   3.704   3.780   0.913 -0.3005 -0.4388  0.5396
13631SOL    HW142334   3.797   3.764   0.931 -0.2613 -1.6413 -0.5452
13631SOL    HW242335   3.681   3.853   0.970  0.9249 -1.0815  1.9436
13632SOL     OW42336   5.498   2.844   1.771 -0.0477  0.2203  0.7553
13632SOL    HW142337   5.550   2.906   1.719 -0.3804 -1.0529 -1.1864
13632SOL    HW242338   5.491   2.885   1.857  2.6299  1.2753  0.5520
13633SOL     OW42339   4.567   2.180   1.804  0.1731 -0.1835 -0.9422
13633SOL    HW142340   4.502   2.245   1.831 -0.8752 -1.8472  0.7889
13633SOL    HW242341   4.650   2.216   1.834 -0.3249  0.5851 -0.4475
13634SOL     OW42342   7.569   4.189   3.039 -0.2670  0.3836  0.0801
13634SOL    HW142343   7.494   4.146   2.999 -0.3937 -0.3722  1.0988
13634SOL    HW242344   7.540   4.211   3.128  0.8449 -0.3278  0.6454
13635SOL     OW42345   5.369   0.887   1.076  0.6681 -0.0879 -0.1427
13635SOL    HW142346   5.443   0.946   1.066  1.4205 -0.9872  0.0188
13635SOL    HW242347   5.393   0.808   1.027 -0.1295 -0.4347 -0.0021
13636SOL     OW42348   7.025   4.357   1.790 -0.1449  0.3507  0.2512
13636SOL    HW142349   7.006   4.300   1.716  1.1571 -0.9119  0.8459
13636SOL    HW242350   7.119   4.376   1.783 -0.4482  2.0645  0.3373
13637SOL     OW42351   4.284   3.048   1.548 -0.4124  0.5337 -0.2541
13637SOL    HW142352   4.372   3.014   1.533 -1.2143 -1.7878 -0.0410
13637SOL    HW242353   4.271   3.042   1.642 -1.7375 -1.8605 -0.5020
13638SOL     OW42354   3.290   2.468   0.296  0.1785  0.3363  0.7331
13638SOL    HW142355   3.357   2.536   0.293  0.3611  0.1712 -1.8421
13638SOL    HW242356   3.208   2.514   0.313  0.4815  1.0223  0.3500
13639SOL     OW42357   3.199   0.872   2.814  0.1342 -0.1613  0.1227
13639SOL    HW142358   3.221   0.935   2.883  0.7052 -0.6932  0.4309
13639SOL    HW242359   3.201   0.924   2.733 -0.9329  0.5548  0.5300
13640SOL     OW42360   3.487   3.009   0.913  0.0665  0.1170  0.0238
13640SOL    HW142361   3.506   3.004   0.820  1.2838  1.5710  0.1619
13640SOL    HW242362   3.520   3.095   0.940 -0.6277 -0.1063  1.7137
13641SOL     OW42363   4.910   3.590   0.382 -0.7999  0.1632  0.9692
13641SOL    HW142364   4.952   3.662   0.430  0.8589  0.2702 -0.5388
13641SOL    HW242365   4.878   3.531   0.451  0.6436  0.7760  2.2236
13642SOL     OW42366   6.288   4.101   1.140  0.1382  0.2385  0.4151
13642SOL    HW142367   6.226   4.124   1.209  0.4181  1.1480  0.3685
13642SOL    HW242368   6.372   4.091   1.186  0.1930  0.1750  0.3005
13643SOL     OW42369   2.790   4.107  11.842 -0.0853 -0.1404 -0.3242
13643SOL    HW142370   2.757   4.113  11.931 -1.2280  1.1846 -0.8025
13643SOL    HW242371   2.875   4.064  11.851 -0.4283 -0.5469  1.3244
13644SOL     OW42372   6.602   4.148   0.319 -0.5931  0.5117 -0.4787
13644SOL    HW142373   6.598   4.055   0.297  0.6423  0.5032 -0.7364
13644SOL    HW242374   6.561   4.154   0.406  1.4156 -0.6714  0.6191
13645SOL     OW42375   5.063   3.259  12.319  0.1670 -0.1070 -0.6172
13645SOL    HW142376   5.009   3.307  12.256 -0.0566  0.3326 -0.1000
13645SOL    HW242377   5.008   3.252  12.397  0.0142 -1.6335 -0.8332
13646SOL     OW42378   4.771   1.809   1.230 -0.2365 -0.4089 -0.5861
13646SOL    HW142379   4.707   1.874   1.258 -1.9544 -2.1680 -0.2346
13646SOL    HW242380   4.819   1.786   1.310 -0.1564 -0.1572 -0.5604
13647SOL     OW42381   6.337   3.894   1.487 -0.6912 -0.4251  0.1760
13647SOL    HW142382   6.399   3.825   1.511 -0.6088 -0.5906 -0.4744
13647SOL    HW242383   6.385   3.976   1.504 -0.5873 -0.5387  0.4321
13648SOL     OW42384   3.613   3.850   1.599  0.7506  0.3433 -0.5451
13648SOL    HW142385   3.573   3.925   1.554 -0.5081  0.0033 -0.0429
13648SOL    HW242386   3.549   3.826   1.666  1.7698 -0.3134  0.2220
13649SOL     OW42387   5.289   1.948  12.453  0.8713 -0.0309  0.2574
13649SOL    HW142388   5.283   2.025  12.397  1.7992  0.1890  0.4450
13649SOL    HW242389   5.230   1.968  12.526 -0.1953 -0.2394 -0.5225
13650SOL     OW42390   5.690   1.729   0.449 -0.3177  0.2387 -0.1905
13650SOL    HW142391   5.622   1.777   0.401  1.0607  0.2350 -2.3059
13650SOL    HW242392   5.681   1.639   0.419 -0.3035 -0.0470  0.6469
13651SOL     OW42393   5.322   4.201   0.099  0.4935  0.3521 -0.3541
13651SOL    HW142394   5.338   4.118   0.144 -0.6203  1.0153  1.3741
13651SOL    HW242395   5.330   4.180   0.006  0.3503 -1.6613  0.0438
13652SOL     OW42396   5.158   3.539   1.421 -0.1701 -0.4469 -0.0283
13652SOL    HW142397   5.204   3.598   1.481  2.1048 -1.1050 -1.0289
13652SOL    HW242398   5.076   3.585   1.401  0.2963  1.0860  1.3188
13653SOL     OW42399   2.742   2.284   1.198  0.2039 -0.2997  0.3385
13653SOL    HW142400   2.819   2.261   1.251  1.3671  2.0618 -0.1754
13653SOL    HW242401   2.777   2.304   1.112 -1.3019 -1.1534 -0.5195
13654SOL     OW42402   6.509   1.966   2.662 -0.0412  0.1539 -0.3062
13654SOL    HW142403   6.581   1.972   2.725 -1.5221  0.1257  1.4836
13654SOL    HW242404   6.441   2.023   2.699 -1.1589 -0.2945 -1.6075
13655SOL     OW42405   6.100   2.735   3.038 -0.2311  0.3966  0.1960
13655SOL    HW142406   6.130   2.644   3.034 -1.1059  0.0599  0.9124
13655SOL    HW242407   6.082   2.758   2.947  0.9793  0.2061 -0.1054
13656SOL     OW42408   3.985   4.105   0.166 -0.0684  0.1160 -0.1534
13656SOL    HW142409   3.968   4.155   0.086  1.1217 -0.2857 -0.6721
13656SOL    HW242410   4.080   4.105   0.175 -0.1202 -0.9517  0.5479
13657SOL     OW42411   4.380   3.809   0.013 -0.1034 -0.3782 -0.3774
13657SOL    HW142412   4.354   3.793  -0.078 -0.4447  0.8665 -0.5180
13657SOL    HW242413   4.468   3.773   0.020  1.2044  2.1964 -2.0924
13658SOL     OW42414   6.642   1.460  11.782 -0.1505  0.0311 -0.1285
13658SOL    HW142415   6.609   1.372  11.764 -0.0915 -0.0058 -0.0568
13658SOL    HW242416   6.737   1.449  11.790  0.0439  0.3472 -1.6460
13659SOL     OW42417   2.635   2.869   1.014  0.2917 -0.4171  0.9488
13659SOL    HW142418   2.576   2.924   0.962  2.1960  1.9687  1.1548
13659SOL    HW242419   2.722   2.901   0.993  1.7054 -4.3265  0.0465
13660SOL     OW42420   3.381   1.817   2.630 -0.4453 -0.5327  0.0002
13660SOL    HW142421   3.294   1.783   2.611 -0.5280 -0.6116  0.5050
13660SOL    HW242422   3.440   1.742   2.617 -0.3429 -0.2866 -1.1147
13661SOL     OW42423   5.658   3.061   1.924 -0.4259  0.0161 -0.0465
13661SOL    HW142424   5.639   3.143   1.970 -1.4326  0.2727 -0.8881
13661SOL    HW242425   5.698   3.005   1.991 -0.2525  0.9849  0.6858
13662SOL     OW42426   3.264   2.198  11.326 -0.3656  0.3829 -0.1704
13662SOL    HW142427   3.241   2.251  11.402  1.8015  0.8042  0.2564
13662SOL    HW242428   3.309   2.122  11.363  0.6745  0.5728 -1.0172
13663SOL     OW42429   5.367   2.690   0.508  0.2794 -0.5336 -0.0797
13663SOL    HW142430   5.378   2.776   0.549 -2.2297 -1.0569  1.9440
13663SOL    HW242431   5.436   2.636   0.547  1.3852  0.3300 -0.7827
13664SOL     OW42432   3.527   4.482   0.950 -0.3310 -0.4068  0.4529
13664SOL    HW142433   3.572   4.407   0.912  0.5108  0.0362  0.5442
13664SOL    HW242434   3.597   4.535   0.988 -0.6823  1.4374 -1.3124
13665SOL     OW42435   6.720   2.708   1.248  0.6539  0.6940 -0.1485
13665SOL    HW142436   6.803   2.668   1.220  0.9690  1.4139 -0.2755
13665SOL    HW242437   6.674   2.638   1.294  0.2949 -0.4430 -2.1136
13666SOL     OW42438   5.110   3.333   0.803  0.1712 -0.0597 -0.0765
13666SOL    HW142439   5.183   3.361   0.859 -0.5858  1.4029  0.2251
13666SOL    HW242440   5.047   3.294   0.864  0.7875 -1.6308 -0.3759
13667SOL     OW42441   2.768   4.503  11.293  0.1398 -0.1791  0.1683
13667SOL    HW142442   2.851   4.490  11.246 -0.3062 -1.1964 -0.3611
13667SOL    HW242443   2.701   4.497  11.225 -0.3569  0.9894  0.5458
13668SOL     OW42444   4.330   2.873   0.859 -0.6307  0.1105  0.0020
13668SOL    HW142445   4.358   2.903   0.772  0.1288 -1.8944 -0.5027
13668SOL    HW242446   4.409   2.879   0.913  0.0307 -2.4882 -0.5689
13669SOL     OW42447   5.640   3.245   2.394  0.8107  0.3346 -0.6001
13669SOL    HW142448   5.632   3.236   2.489 -1.3593  0.4659 -0.7088
13669SOL    HW242449   5.608   3.333   2.375 -1.3353 -0.5903 -1.6288
13670SOL     OW42450   7.016   1.785   1.151 -0.0105 -0.2778 -0.1794
13670SOL    HW142451   7.001   1.693   1.129 -0.3276 -0.1539 -0.4988
13670SOL    HW242452   6.935   1.829   1.125 -1.1525 -0.3624  2.8819
13671SOL     OW42453   7.194   3.736   1.508  0.2576  0.1214 -0.2688
13671SOL    HW142454   7.228   3.655   1.547  0.5242  0.8502  1.0465
13671SOL    HW242455   7.256   3.756   1.438  0.1989 -0.7913 -0.6005
13672SOL     OW42456   3.777   4.930   1.155  0.0533  0.4538  0.3283
13672SOL    HW142457   3.723   4.974   1.221  0.4654  2.2931 -0.4939
13672SOL    HW242458   3.842   4.882   1.205 -1.3761 -0.5386  1.3001
13673SOL     OW42459   3.751   3.088  11.728 -0.2944  0.7507  0.1472
13673SOL    HW142460   3.790   3.135  11.801 -0.4571 -0.0322  0.7552
13673SOL    HW242461   3.682   3.034  11.768  0.3412 -0.5314 -0.4072
13674SOL     OW42462   2.652   3.704   0.097  0.1952  0.0603  0.2591
13674SOL    HW142463   2.616   3.725   0.183 -0.6889 -1.3895  0.2660
13674SOL    HW242464   2.698   3.621   0.109  1.4334  0.6336 -0.3321
13675SOL     OW42465   3.836   0.039   2.698 -0.0822  0.3737  0.5652
13675SOL    HW142466   3.882   0.119   2.671 -0.2814  0.0096 -0.9414
13675SOL    HW242467   3.747   0.068   2.718  0.0548  0.6447  0.7963
13676SOL     OW42468   5.593   2.469   0.388 -0.2378 -0.6052  0.1142
13676SOL    HW142469   5.635   2.451   0.304 -3.9833  0.0340 -2.1132
13676SOL    HW242470   5.555   2.385   0.414 -1.1179 -0.3064 -0.1496
13677SOL     OW42471   5.588   3.537  12.230 -0.2470 -0.3249  0.7019
13677SOL    HW142472   5.586   3.498  12.318  2.4977 -1.7808  0.2214
13677SOL    HW242473   5.528   3.483  12.178 -0.7531 -0.3801  1.3295
13678SOL     OW42474   4.055   3.516   2.583  0.1582  0.2660  0.8631
13678SOL    HW142475   4.106   3.436   2.565  1.4687  1.2279  0.0322
13678SOL    HW242476   4.103   3.559   2.653  2.1630  2.4530 -1.6056
13679SOL     OW42477   6.575   2.176   1.096  0.7300 -0.5593 -0.2154
13679SOL    HW142478   6.605   2.123   1.169 -0.0760  0.2471  0.7347
13679SOL    HW242479   6.480   2.178   1.105  0.4533 -1.7857 -2.2537
13680SOL     OW42480   4.825   0.831   0.625 -0.2218 -0.3328  0.3704
13680SOL    HW142481   4.898   0.792   0.673 -0.5778 -0.2031  1.0395
13680SOL    HW242482   4.820   0.920   0.660 -0.0393 -0.0026 -0.4287
13681SOL     OW42483   5.313   4.532   1.666  0.1984  0.3985  0.0381
13681SOL    HW142484   5.343   4.525   1.575 -0.5246  0.8697 -0.2444
13681SOL    HW242485   5.332   4.446   1.704 -1.3612 -0.5414 -1.1582
13682SOL     OW42486   5.687   3.728   1.082  0.2005 -0.0061  0.4130
13682SOL    HW142487   5.710   3.806   1.133 -1.1431  0.8122 -0.1685
13682SOL    HW242488   5.669   3.661   1.147  2.7198 -0.2791  0.9059
13683SOL     OW42489   6.561   2.926   1.196 -0.3698  0.3574 -0.2283
13683SOL    HW142490   6.506   2.907   1.121  0.1321  0.1398 -0.5439
13683SOL    HW242491   6.620   2.852   1.203  0.0688  0.7158 -0.0643
13684SOL     OW42492   5.037   2.363  12.154  0.2136  0.2620  0.4636
13684SOL    HW142493   4.950   2.401  12.144  0.2146  0.3542  0.8011
13684SOL    HW242494   5.062   2.384  12.243  0.1360 -0.6940  0.7192
13685SOL     OW42495   5.347   4.012   0.292  0.0238  0.6682  0.6771
13685SOL    HW142496   5.395   3.981   0.369  0.3279  1.1233  0.6711
13685SOL    HW242497   5.262   4.039   0.326 -0.9209 -1.7297  0.4576
13686SOL     OW42498   4.841   3.916   0.269 -0.5090  0.1051  0.0970
13686SOL    HW142499   4.916   3.949   0.219 -0.5701  0.1786  0.0521
13686SOL    HW242500   4.878   3.878   0.348 -0.5924  2.3252  1.2653
13687SOL     OW42501   5.708   1.666   9.721 -0.2494 -0.4273  0.0970
13687SOL    HW142502   5.748   1.711   9.795 -0.4161  0.6031 -0.4153
13687SOL    HW242503   5.759   1.695   9.645 -1.7405  0.6807 -0.5310
13688SOL     OW42504   7.071   3.442  12.111 -0.0245  0.5446  0.1378
13688SOL    HW142505   6.989   3.397  12.134  0.3042 -0.0249  0.2305
13688SOL    HW242506   7.122   3.440  12.192  0.9041 -0.9537 -0.4419
13689SOL     OW42507   4.983   3.001   0.824 -0.0520  0.0047 -0.5231
13689SOL    HW142508   4.948   2.977   0.910 -0.3658 -0.2233 -0.7118
13689SOL    HW242509   5.071   2.963   0.822  0.3637  0.8875  0.0954
13690SOL     OW42510   5.392   3.539   1.727  0.0319  0.1999 -0.4587
13690SOL    HW142511   5.416   3.557   1.637 -0.5774 -1.0805 -0.9046
13690SOL    HW242512   5.453   3.471   1.755 -0.2357  0.0819 -0.1488
13691SOL     OW42513   5.520   2.456   0.931  0.5682  0.5065 -0.2658
13691SOL    HW142514   5.470   2.516   0.987 -0.6763 -0.1147 -0.6634
13691SOL    HW242515   5.571   2.403   0.992 -0.9826 -0.3491  0.3510
13692SOL     OW42516   7.192   4.571   1.370  0.0223 -0.3542 -0.0221
13692SOL    HW142517   7.257   4.511   1.334  0.5786  1.0770 -1.5748
13692SOL    HW242518   7.233   4.657   1.363 -1.4033  0.4036  0.4959
13693SOL     OW42519   3.953   3.463   0.976  0.2932 -0.2046  0.5720
13693SOL    HW142520   3.910   3.379   0.959 -0.2496 -0.0602  1.1911
13693SOL    HW242521   3.972   3.498   0.890  1.6377 -1.5237  0.3004
13694SOL     OW42522   4.721   1.786   0.950 -0.2857 -0.2473 -0.8793
13694SOL    HW142523   4.721   1.770   1.044  0.4364  1.7974 -0.4657
13694SOL    HW242524   4.630   1.804   0.927 -0.4617 -0.7595 -0.5765
13695SOL     OW42525   3.461   1.702   1.584 -0.6826  0.0427 -0.2991
13695SOL    HW142526   3.463   1.761   1.660 -0.2325 -0.0126 -0.2650
13695SOL    HW242527   3.522   1.741   1.522  1.2037 -1.4371  0.5222
13696SOL     OW42528   4.119   1.516   1.320 -0.4381  0.3771  0.4434
13696SOL    HW142529   4.062   1.450   1.359 -0.6893  0.7322  0.6832
13696SOL    HW242530   4.074   1.543   1.240 -0.1275 -0.0469  0.1229
13697SOL     OW42531   5.403   3.257   2.600 -0.0618 -0.1722 -0.5094
13697SOL    HW142532   5.394   3.328   2.536 -0.9057  0.6521  0.4873
13697SOL    HW242533   5.359   3.290   2.678  0.2135 -1.4990  0.2274
13698SOL     OW42534   5.920   1.372   1.004 -0.2058 -0.2637  0.3362
13698SOL    HW142535   6.008   1.386   0.969 -0.7915 -0.4829 -1.2681
13698SOL    HW242536   5.935   1.335   1.091  1.2811 -0.8421 -0.1415
13699SOL     OW42537   3.790   2.364   0.345  0.6819  0.0223  0.3157
13699SOL    HW142538   3.734   2.400   0.276  1.1439  0.1648  0.0082
13699SOL    HW242539   3.861   2.320   0.297  0.1863 -1.2172  0.6777
13700SOL     OW42540   6.556   2.966  11.852 -0.1957  0.1381  0.1293
13700SOL    HW142541   6.473   3.004  11.880 -0.0645 -1.0169  2.3022
13700SOL    HW242542   6.617   3.039  11.849 -1.2462  0.9966 -1.4669
13701SOL     OW42543   4.668   3.785   0.098  0.1932  0.0952 -0.1558
13701SOL    HW142544   4.719   3.709   0.069  1.3268  1.0073 -0.6579
13701SOL    HW242545   4.730   3.837   0.150 -0.0572  1.4528 -1.1451
13702SOL     OW42546   4.308   4.129   0.912  0.1093 -0.1408  0.0157
13702SOL    HW142547   4.284   4.041   0.882  0.6653 -0.2961  0.0050
13702SOL    HW242548   4.324   4.178   0.831 -1.0568  0.2267 -0.0012
13703SOL     OW42549   5.890   2.148   1.331  0.2002 -0.1161 -0.0330
13703SOL    HW142550   5.832   2.132   1.256  0.6251 -1.1003 -0.1668
13703SOL    HW242551   5.833   2.183   1.398 -0.6674 -1.5277  0.0040
13704SOL     OW42552   4.860   3.241   2.563  0.4828 -0.3470 -0.2240
13704SOL    HW142553   4.868   3.235   2.658 -0.4005 -1.9963 -0.2249
13704SOL    HW242554   4.793   3.308   2.548 -0.8507 -1.5026  0.3991
13705SOL     OW42555   3.147   3.656   1.127  0.0529  0.4008 -0.3403
13705SOL    HW142556   3.239   3.661   1.103  0.3507 -0.5062  0.5413
13705SOL    HW242557   3.144   3.680   1.219 -0.3863 -0.9893  0.0265
13706SOL     OW42558   6.469   3.370   2.669 -0.1990  0.5191  0.2751
13706SOL    HW142559   6.421   3.336   2.744 -0.9939 -0.2544 -0.5561
13706SOL    HW242560   6.462   3.465   2.677 -1.3265  0.4275  0.5181
13707SOL     OW42561   4.150   1.415   0.601 -0.5880 -0.2860  0.5056
13707SOL    HW142562   4.072   1.464   0.626 -0.1747 -0.2780  1.8411
13707SOL    HW242563   4.210   1.427   0.674 -0.2160 -2.2032  0.5675
13708SOL     OW42564   2.174   3.981   0.650 -0.1771 -0.1322  0.0860
13708SOL    HW142565   2.187   3.962   0.558 -0.6040 -1.6817  0.3238
13708SOL    HW242566   2.162   3.896   0.691 -0.5927  0.5676  1.4834
13709SOL     OW42567   6.737   2.484   0.866 -0.3804 -0.3006  0.3360
13709SOL    HW142568   6.730   2.405   0.920 -2.3775 -0.2219  0.2785
13709SOL    HW242569   6.810   2.533   0.904  2.1280 -2.9299 -0.7133
13710SOL     OW42570   5.062   3.137  12.038  0.2408  0.4272 -0.6618
13710SOL    HW142571   5.101   3.171  12.119  1.1258  0.1077 -0.9467
13710SOL    HW242572   5.134   3.136  11.975  0.0500 -1.2116 -0.8868
13711SOL     OW42573   5.535   2.357  11.944 -0.6626 -0.0218  0.2726
13711SOL    HW142574   5.521   2.279  11.999 -1.1360  0.1504  0.4014
13711SOL    HW242575   5.458   2.412  11.961 -1.4596 -0.5213 -1.5014
13712SOL     OW42576   4.891   3.432  12.181 -0.3778 -0.0352 -0.0108
13712SOL    HW142577   4.827   3.386  12.127 -0.0584  0.6491 -0.9918
13712SOL    HW242578   4.901   3.517  12.139  0.2685  0.3165  0.8339
13713SOL     OW42579   6.585   2.130   2.193 -0.5361 -0.0666  0.1308
13713SOL    HW142580   6.644   2.056   2.211  0.5931  0.7288 -0.2407
13713SOL    HW242581   6.498   2.094   2.209 -0.0409 -1.6099 -0.4343
13714SOL     OW42582   4.961   1.825  12.114 -0.2296  0.1445 -0.4544
13714SOL    HW142583   4.996   1.759  12.173 -1.4228 -1.1051 -1.0786
13714SOL    HW242584   5.037   1.858  12.067  0.1999 -2.6351 -1.9218
13715SOL     OW42585   5.050   2.059   0.099  0.4417  0.0292  0.1910
13715SOL    HW142586   4.995   1.994   0.055  2.0337 -0.4204 -1.2271
13715SOL    HW242587   4.998   2.087   0.175 -1.3029 -1.0831 -0.5351
13716SOL     OW42588   3.153   3.468   2.752 -0.1901 -0.4374  0.1305
13716SOL    HW142589   3.169   3.442   2.842  0.3454  1.3957  0.6027
13716SOL    HW242590   3.113   3.554   2.758 -0.5866 -0.4806 -1.3828
13717SOL     OW42591   3.040   2.720   1.660  0.5246  0.1302  0.1429
13717SOL    HW142592   2.983   2.753   1.590  2.0046 -0.1008 -1.2635
13717SOL    HW242593   3.061   2.798   1.712 -1.4307  0.1248  1.0217
13718SOL     OW42594   4.112   2.383   1.305 -0.2264  0.0010  0.3453
13718SOL    HW142595   4.073   2.319   1.364 -1.1837 -0.3304 -0.6040
13718SOL    HW242596   4.092   2.468   1.345  0.7339 -0.2519  1.4219
13719SOL     OW42597   7.061   0.712   0.392 -0.0738 -0.0489 -0.5401
13719SOL    HW142598   7.145   0.731   0.434 -0.9513 -0.7691  1.6839
13719SOL    HW242599   6.996   0.727   0.460 -1.7523  0.1251 -2.0988
13720SOL     OW42600   3.995   0.701   2.751  0.1070  0.2604 -0.1153
13720SOL    HW142601   3.919   0.643   2.751  0.5049 -0.4050  2.5160
13720SOL    HW242602   3.968   0.777   2.803  0.7547  0.7433 -0.4667
13721SOL     OW42603   6.943   3.479   0.968  0.4654 -0.2803 -0.3457
13721SOL    HW142604   7.027   3.520   0.989  0.0360  0.8062 -0.6659
13721SOL    HW242605   6.888   3.497   1.045  0.2493 -0.1819 -0.5213
13722SOL     OW42606   5.458   2.120   2.941 -0.4849 -0.1182 -0.5052
13722SOL    HW142607   5.473   2.177   2.866 -1.3835 -0.2506 -0.7893
13722SOL    HW242608   5.363   2.116   2.951 -0.4922  2.8302  2.8680
13723SOL     OW42609   3.961   3.451   1.647  0.0165 -0.3145  0.0829
13723SOL    HW142610   3.973   3.523   1.585 -0.5158 -0.6541 -0.4196
13723SOL    HW242611   4.022   3.383   1.616 -1.1552 -0.9736 -0.8317
13724SOL     OW42612   5.336   4.549   0.272 -0.2821  0.2389 -0.9597
13724SOL    HW142613   5.259   4.517   0.225 -1.0171 -0.1895  0.5055
13724SOL    HW242614   5.408   4.536   0.210 -1.3074  0.2545 -2.1934
13725SOL     OW42615   6.130   1.403   0.164  0.0064 -0.4320  0.0126
13725SOL    HW142616   6.163   1.464   0.231 -0.7730  1.0828 -0.9107
13725SOL    HW242617   6.149   1.448   0.081 -0.3103 -1.6165 -0.7160
13726SOL     OW42618   5.280   1.466   0.475 -0.0340 -0.1876  0.1025
13726SOL    HW142619   5.244   1.450   0.563  1.0492 -0.7590  0.4519
13726SOL    HW242620   5.319   1.554   0.482  0.0103 -0.2127  0.1739
13727SOL     OW42621   4.477   4.944   1.803 -0.0424 -0.5171 -0.3406
13727SOL    HW142622   4.493   4.853   1.778  0.0752 -0.6541  0.2187
13727SOL    HW242623   4.559   4.973   1.842  0.2969  0.1847 -1.5124
13728SOL     OW42624   6.478   1.380   0.544  0.3446 -0.0262  0.2145
13728SOL    HW142625   6.500   1.287   0.542  1.9587  0.3171  0.2563
13728SOL    HW242626   6.456   1.398   0.635  0.2557 -0.3254  0.2521
13729SOL     OW42627   6.744   3.490   0.776  0.0745 -0.1543 -0.2855
13729SOL    HW142628   6.662   3.512   0.821  0.1321  0.4737 -0.4796
13729SOL    HW242629   6.812   3.513   0.840  0.1632  0.8774 -0.7363
13730SOL     OW42630   4.770   3.456   2.313  0.1625 -0.3305 -0.8276
13730SOL    HW142631   4.761   3.493   2.402 -2.5235 -1.6298 -0.4352
13730SOL    HW242632   4.717   3.514   2.258  0.3318 -0.5625 -1.2388
13731SOL     OW42633   3.551   3.391   2.420  0.6025  0.4278 -0.1427
13731SOL    HW142634   3.489   3.350   2.480  0.7788 -0.3569 -0.4778
13731SOL    HW242635   3.499   3.412   2.343  0.8516 -0.8246 -0.6862
13732SOL     OW42636   4.121   1.879  10.711 -0.2318 -0.9230 -0.6435
13732SOL    HW142637   4.104   1.815  10.642  1.7453 -0.7218 -1.3564
13732SOL    HW242638   4.093   1.835  10.792 -0.8605 -1.8548 -1.3475
13733SOL     OW42639   3.162   2.476   1.657  0.5955  0.0561 -0.5922
13733SOL    HW142640   3.214   2.471   1.738  2.5468  2.2049 -1.5869
13733SOL    HW242641   3.129   2.565   1.655 -1.2993 -0.6193 -1.1305
13734SOL     OW42642   4.731   1.538   2.525 -0.3671  0.8150  0.0716
13734SOL    HW142643   4.691   1.483   2.458 -0.2030 -0.4497  0.9855
13734SOL    HW242644   4.823   1.543   2.501 -0.7230  2.4004 -1.1331
13735SOL     OW42645   4.101   1.990   2.853 -0.2291  0.1321  0.2980
13735SOL    HW142646   4.036   2.000   2.922  0.0728  4.0292  0.2555
13735SOL    HW242647   4.062   2.034   2.777 -0.1150 -3.1036 -1.8706
13736SOL     OW42648   6.081   3.732   2.763 -0.3709 -0.4831 -0.0085
13736SOL    HW142649   6.000   3.779   2.743 -0.1099  0.2636  0.6834
13736SOL    HW242650   6.149   3.779   2.715 -0.0974 -0.1023  0.7465
13737SOL     OW42651   5.031   1.800   2.411  0.1613  0.3258 -0.5739
13737SOL    HW142652   5.091   1.751   2.468 -0.5921  0.5368  0.4200
13737SOL    HW242653   5.085   1.872   2.378  0.7474 -0.0791 -0.5312
13738SOL     OW42654   4.166   1.029   2.662 -0.5237 -0.6401 -0.2198
13738SOL    HW142655   4.204   1.096   2.605 -0.0956  0.1447  0.9408
13738SOL    HW242656   4.242   0.986   2.701 -0.7940 -0.2796  0.7346
13739SOL     OW42657   4.615   3.098   3.902  0.0205  0.4719 -0.1398
13739SOL    HW142658   4.571   3.097   3.817 -1.2148  1.5652  0.4414
13739SOL    HW242659   4.599   3.011   3.939 -0.0447  0.2333 -0.7288
13740SOL     OW42660   5.467   2.675   2.749  0.4008 -0.3757 -0.0982
13740SOL    HW142661   5.558   2.670   2.718  0.6282 -0.0684  0.5090
13740SOL    HW242662   5.466   2.750   2.808 -0.4566  0.1739 -0.7883
13741SOL     OW42663   3.048   2.032   1.781 -0.1972 -0.1771 -0.1721
13741SOL    HW142664   3.095   2.109   1.751 -1.1357 -0.7966 -3.8702
13741SOL    HW242665   2.959   2.062   1.796  0.3228  0.1787  2.6150
13742SOL     OW42666   4.328   2.836   2.650  0.0771  0.0487  0.2781
13742SOL    HW142667   4.284   2.918   2.630  1.7145  1.4233  1.9547
13742SOL    HW242668   4.413   2.843   2.607 -0.4936 -1.6947 -1.2538
13743SOL     OW42669   5.521   3.405   3.832  0.1572  0.4627 -0.0323
13743SOL    HW142670   5.535   3.401   3.926  0.0908 -0.3051 -0.0440
13743SOL    HW242671   5.456   3.336   3.814 -1.5016  2.0301 -0.3618
13744SOL     OW42672   3.970   2.615   3.377 -0.4162 -0.4391  0.2106
13744SOL    HW142673   3.911   2.688   3.359  0.7296  0.1674 -1.2918
13744SOL    HW242674   3.979   2.615   3.473 -1.5746  0.4582  0.3386
13745SOL     OW42675   7.389   3.437   2.951  0.4576  0.4386  0.4600
13745SOL    HW142676   7.336   3.399   2.881 -0.6499  1.0663  0.9470
13745SOL    HW242677   7.351   3.403   3.032  0.7385  0.9815  0.8240
13746SOL     OW42678   4.382   2.779   1.867  0.1835 -0.2068  0.4467
13746SOL    HW142679   4.474   2.777   1.893  0.9951 -0.9195 -2.1691
13746SOL    HW242680   4.360   2.872   1.861  0.9001 -0.0226  0.5676
13747SOL     OW42681   4.512   3.940   3.087 -0.2166 -0.5066 -0.3104
13747SOL    HW142682   4.555   3.897   3.014 -0.3489 -0.2565 -0.5387
13747SOL    HW242683   4.583   3.988   3.131 -0.1265 -0.7050 -0.2402
13748SOL     OW42684   2.702   4.550   2.246 -0.1023 -0.2013 -0.2355
13748SOL    HW142685   2.743   4.520   2.327  0.5520  0.5929 -0.2545
13748SOL    HW242686   2.754   4.626   2.220 -0.7789  0.0176 -0.9905
13749SOL     OW42687   5.095   4.433   2.494 -0.5862 -0.4870  0.0846
13749SOL    HW142688   5.123   4.524   2.498 -0.5119 -0.5651  1.8640
13749SOL    HW242689   5.104   4.410   2.401 -1.9108  1.6839 -0.6591
13750SOL     OW42690   5.831   1.620   1.586  0.8764 -0.4842  0.2428
13750SOL    HW142691   5.857   1.668   1.507  0.1974 -1.8629 -0.8418
13750SOL    HW242692   5.913   1.587   1.622  1.2090  0.3187  0.2575
13751SOL     OW42693   3.934   3.348   0.653 -0.2318 -0.1953 -0.1125
13751SOL    HW142694   3.974   3.425   0.692  0.6910  0.1380 -1.6530
13751SOL    HW242695   3.985   3.275   0.687  0.6236  0.1001 -0.7409
13752SOL     OW42696   7.403   4.696   1.533  0.3650 -0.1231  0.0859
13752SOL    HW142697   7.423   4.602   1.538 -1.5078 -0.6433 -1.0153
13752SOL    HW242698   7.409   4.726   1.623  0.1991 -1.5097  0.5922
13753SOL     OW42699   4.482   4.633   2.086  0.3340 -0.1353  0.0304
13753SOL    HW142700   4.513   4.723   2.088  0.3798 -0.1669  1.0303
13753SOL    HW242701   4.422   4.626   2.160 -1.1003 -0.4310 -1.1069
13754SOL     OW42702   5.866   3.100   1.232  0.4455  0.0701  0.1687
13754SOL    HW142703   5.865   3.085   1.327  0.6691 -3.3441 -0.2398
13754SOL    HW242704   5.946   3.057   1.202  0.7578  1.7206 -1.5483
13755SOL     OW42705   7.680   4.264   1.437  0.0027 -0.1600 -0.2206
13755SOL    HW142706   7.766   4.251   1.478 -0.7716 -0.9210  1.2657
13755SOL    HW242707   7.647   4.344   1.476 -0.0235  0.0553 -0.6843
13756SOL     OW42708   4.040   1.279   4.569 -0.6168 -0.7974  0.1477
13756SOL    HW142709   3.950   1.301   4.593 -0.0087 -1.0134  3.0482
13756SOL    HW242710   4.093   1.348   4.608  0.5148 -0.8991 -1.1462
13757SOL     OW42711   4.555   2.038   3.364 -0.1290 -0.0052 -0.4760
13757SOL    HW142712   4.572   2.132   3.369  1.5429 -0.2472 -1.0803
13757SOL    HW242713   4.550   2.020   3.270  0.8908 -0.7343 -0.4020
13758SOL     OW42714   2.874   1.747   0.684  0.0217 -0.5114 -0.4428
13758SOL    HW142715   2.956   1.741   0.635  0.1259 -0.8404 -0.2321
13758SOL    HW242716   2.822   1.673   0.653 -0.4357  0.0215 -0.9984
13759SOL     OW42717   3.184   3.373   2.997  0.0040 -0.0628  0.3750
13759SOL    HW142718   3.174   3.279   3.008 -0.6727  0.0764  1.0625
13759SOL    HW242719   3.094   3.406   2.989  0.2927  0.3283 -1.7122
13760SOL     OW42720   6.016   2.521   1.659 -0.4643  0.0858 -0.4114
13760SOL    HW142721   5.921   2.528   1.667 -0.4355 -0.9896  1.5888
13760SOL    HW242722   6.043   2.472   1.737  1.6775 -0.1278 -1.2161
13761SOL     OW42723   5.208   4.363   3.372  0.4004 -0.0204 -0.0799
13761SOL    HW142724   5.215   4.458   3.376  0.2529  0.0350 -0.9591
13761SOL    HW242725   5.192   4.343   3.280  2.1624 -1.0102 -0.2219
13762SOL     OW42726   4.989   2.712   2.526  0.4206  0.1907 -0.1295
13762SOL    HW142727   4.993   2.801   2.492  1.9702 -0.0487 -0.6233
13762SOL    HW242728   4.908   2.710   2.578  1.5196  2.5722  1.8612
13763SOL     OW42729   6.732   3.548   2.826 -0.1430 -0.0314 -0.8387
13763SOL    HW142730   6.729   3.642   2.845 -0.4746 -0.3099  0.6547
13763SOL    HW242731   6.640   3.524   2.813 -0.2621 -0.4689  0.6431
13764SOL     OW42732   4.816   3.699   1.741  0.5216  0.5016  0.3988
13764SOL    HW142733   4.838   3.749   1.819 -0.6496  1.5830  0.0681
13764SOL    HW242734   4.876   3.730   1.674  1.7501 -0.6641  0.9256
13765SOL     OW42735   3.590   1.372   2.287  0.0338 -0.2997 -0.1775
13765SOL    HW142736   3.524   1.363   2.219  2.1488  0.2283 -2.4225
13765SOL    HW242737   3.656   1.307   2.266  1.2752  0.6161  0.7183
13766SOL     OW42738   5.886   4.448   1.886 -0.3186  0.6138  0.6221
13766SOL    HW142739   5.801   4.405   1.891 -0.2095  0.0669 -1.4924
13766SOL    HW242740   5.873   4.532   1.930 -2.3705  1.1590 -0.8815
13767SOL     OW42741   5.603   0.335   2.473 -0.7430 -0.0101 -0.3139
13767SOL    HW142742   5.669   0.382   2.422  0.0143 -0.8760 -0.1612
13767SOL    HW242743   5.531   0.397   2.481  1.1700  2.1522  2.0555
13768SOL     OW42744   3.277   2.745   2.768  0.4965 -0.0823 -0.4689
13768SOL    HW142745   3.349   2.683   2.780  2.3823  1.9136 -0.7520
13768SOL    HW242746   3.218   2.703   2.706  1.1805 -1.9770  0.1187
13769SOL     OW42747   4.602   2.323   3.045  0.0495  0.3783  0.0634
13769SOL    HW142748   4.607   2.318   2.950 -1.5070  0.5158 -0.0620
13769SOL    HW242749   4.656   2.398   3.069 -2.2087  2.5045 -1.0652
13770SOL     OW42750   5.739   4.048   2.567  0.4065  0.0847  0.0687
13770SOL    HW142751   5.816   4.028   2.619  0.1102 -1.7862 -0.1342
13770SOL    HW242752   5.691   4.112   2.619 -0.8481 -3.0690  3.1978
13771SOL     OW42753   4.951   3.357   1.651 -0.0653 -0.1119  0.1074
13771SOL    HW142754   4.978   3.265   1.659 -0.7204 -0.4656 -1.4380
13771SOL    HW242755   4.941   3.386   1.742  1.0652 -1.2760  0.6464
13772SOL     OW42756   4.885   3.307   4.309  0.0023 -0.2905  0.0626
13772SOL    HW142757   4.864   3.292   4.217  3.0787  0.3639 -0.8541
13772SOL    HW242758   4.800   3.321   4.351 -1.5447 -1.3317 -2.5112
13773SOL     OW42759   4.422   3.687   2.072 -0.2188 -0.0839  0.6422
13773SOL    HW142760   4.384   3.665   2.157 -0.0505  0.7772  0.9546
13773SOL    HW242761   4.372   3.764   2.043  0.3789  0.2311  0.4359
13774SOL     OW42762   4.277   1.224   2.509  0.1520 -0.0402  0.2122
13774SOL    HW142763   4.326   1.222   2.427 -0.1217  0.4928  0.0299
13774SOL    HW242764   4.187   1.245   2.482  0.1920  0.7848  0.6997
13775SOL     OW42765   5.673   2.933   4.030 -0.5205  0.0251 -0.3690
13775SOL    HW142766   5.634   2.989   4.097 -0.0692  0.0308 -0.1068
13775SOL    HW242767   5.609   2.864   4.015 -0.0555 -0.7406  1.0499
13776SOL     OW42768   5.758   3.361   3.027  0.7200 -0.4797 -0.2205
13776SOL    HW142769   5.789   3.440   2.984  0.3013  0.0839  0.4804
13776SOL    HW242770   5.836   3.308   3.040  0.8332 -0.7275 -1.7732
13777SOL     OW42771   4.425   0.853   1.957  0.0261 -0.0125 -0.4809
13777SOL    HW142772   4.452   0.851   2.049 -0.8058 -0.2369 -0.2398
13777SOL    HW242773   4.477   0.784   1.915 -0.4794 -0.7281  0.0619
13778SOL     OW42774   4.344   4.099   2.826  0.0458 -0.0865  0.4883
13778SOL    HW142775   4.297   4.094   2.909  0.9693 -0.5445  0.9965
13778SOL    HW242776   4.422   4.150   2.846 -0.3460  0.9198 -0.4150
13779SOL     OW42777   4.105   2.465   2.449  0.2754  0.0862  0.3373
13779SOL    HW142778   4.084   2.493   2.360 -0.6005 -0.0035  0.5069
13779SOL    HW242779   4.050   2.388   2.463  1.2004 -0.5447  0.5778
13780SOL     OW42780   7.844   4.003   1.453  0.5698 -0.1265 -0.4171
13780SOL    HW142781   7.844   3.909   1.468  0.2855 -0.2946 -1.4120
13780SOL    HW242782   7.891   4.040   1.529 -0.0326 -0.9859  0.3936
13781SOL     OW42783   3.121   2.442   2.445 -0.1567  0.1256  0.2271
13781SOL    HW142784   3.121   2.475   2.535 -0.1371  1.5847 -0.2759
13781SOL    HW242785   3.183   2.498   2.400  0.6145 -1.2584 -0.4859
13782SOL     OW42786   3.416   4.108   2.128 -0.3076  0.0906  0.2646
13782SOL    HW142787   3.446   4.093   2.218  0.1928 -0.2563  0.0407
13782SOL    HW242788   3.402   4.203   2.123  0.6560  0.2442  0.4038
13783SOL     OW42789   3.638   2.634   2.743  0.4628  0.1281  0.4794
13783SOL    HW142790   3.560   2.580   2.729  0.4583  0.4712 -1.0376
13783SOL    HW242791   3.612   2.698   2.808 -0.0095 -0.7409  1.1667
13784SOL     OW42792   4.665   2.298   4.252 -0.0837 -0.5708  0.2517
13784SOL    HW142793   4.620   2.360   4.310  1.4388 -2.0191  3.2029
13784SOL    HW242794   4.756   2.328   4.252  0.1023 -1.1062 -0.7355
13785SOL     OW42795   5.226   4.790   0.523 -0.2717 -0.0479  0.3282
13785SOL    HW142796   5.304   4.801   0.469  1.2675 -0.6689  2.3483
13785SOL    HW242797   5.187   4.708   0.492  1.0475 -0.8225  0.6759
13786SOL     OW42798   3.223   1.914   3.100  0.2538  0.0110  0.6880
13786SOL    HW142799   3.269   1.843   3.055  0.3119 -0.0495  0.8442
13786SOL    HW242800   3.133   1.909   3.066  0.1188 -0.4866  1.1145
13787SOL     OW42801   3.706   3.912   2.465  0.0151  0.1258 -0.3760
13787SOL    HW142802   3.797   3.887   2.482 -0.0773  0.5217  0.8653
13787SOL    HW242803   3.677   3.854   2.395  0.8860 -0.7558 -0.0251
13788SOL     OW42804   4.997   3.849   0.504  0.6984  0.2749  0.0228
13788SOL    HW142805   5.081   3.892   0.489  0.3348  0.4588 -1.6284
13788SOL    HW242806   4.994   3.836   0.599  1.4799  2.5294  0.4283
13789SOL     OW42807   5.607   1.142   3.071  0.0851  0.3084 -0.2485
13789SOL    HW142808   5.580   1.233   3.087 -0.6821  0.3631 -1.6083
13789SOL    HW242809   5.529   1.101   3.032 -0.6962 -1.8485  3.1213
13790SOL     OW42810   5.197   3.441   2.303  0.1022  0.7671  0.5017
13790SOL    HW142811   5.140   3.518   2.305 -0.9839  0.0321 -0.5523
13790SOL    HW242812   5.148   3.373   2.349 -0.3317 -0.1284 -1.1725
13791SOL     OW42813   4.626   1.887   3.575  0.0057 -0.1404 -0.0539
13791SOL    HW142814   4.585   1.918   3.494 -0.6046  1.3405  0.7822
13791SOL    HW242815   4.553   1.858   3.629  0.5216 -2.7213 -0.6128
13792SOL     OW42816   6.691   3.248   1.525  0.0751  0.0170  0.2464
13792SOL    HW142817   6.645   3.250   1.442  0.9260 -1.4970 -0.2994
13792SOL    HW242818   6.651   3.175   1.573  0.3640  0.1420  0.6819
13793SOL     OW42819   4.041   0.728   3.588 -0.1809  0.6677 -0.0930
13793SOL    HW142820   4.066   0.650   3.539  0.8256  1.2430 -0.5127
13793SOL    HW242821   4.063   0.707   3.679  0.6741  0.6958 -0.2885
13794SOL     OW42822   4.887   3.810   1.151  0.1668 -0.2246  0.0258
13794SOL    HW142823   4.980   3.815   1.129 -0.0493  2.3513 -0.6196
13794SOL    HW242824   4.880   3.851   1.237 -0.4353  0.0390 -0.1444
13795SOL     OW42825   4.468   1.579   1.918  0.1703  0.0288 -0.8070
13795SOL    HW142826   4.551   1.609   1.880  0.3070 -1.7623 -2.0447
13795SOL    HW242827   4.493   1.503   1.971 -0.4843  0.4888  0.1952
13796SOL     OW42828   2.315   1.898   1.281 -0.1355 -0.1520  0.3049
13796SOL    HW142829   2.372   1.951   1.226  0.3110 -0.6293  0.2973
13796SOL    HW242830   2.281   1.959   1.347  2.2315 -0.2925  1.7630
13797SOL     OW42831   5.317   3.606   1.193  0.0429  0.0287 -0.4416
13797SOL    HW142832   5.260   3.570   1.261 -0.8829  0.6583 -0.8653
13797SOL    HW242833   5.402   3.613   1.235 -0.0522 -1.3826  0.0612
13798SOL     OW42834   4.390   1.043   1.730 -0.0425 -0.3003 -0.4856
13798SOL    HW142835   4.394   0.998   1.815 -2.1267 -0.2077 -0.2806
13798SOL    HW242836   4.371   0.973   1.668 -0.1890 -0.1420 -0.6186
13799SOL     OW42837   5.012   3.080   1.656 -0.0409 -0.2417  0.1962
13799SOL    HW142838   4.952   3.008   1.677 -1.2687  0.8081  0.4412
13799SOL    HW242839   5.038   3.064   1.565 -1.6068 -0.1401 -0.3099
13800SOL     OW42840   2.205   2.752   2.215 -0.2591  0.2641 -0.1018
13800SOL    HW142841   2.277   2.799   2.173 -0.1359 -0.8373 -1.1701
13800SOL    HW242842   2.209   2.781   2.307 -0.9076  3.1716 -0.8842
13801SOL     OW42843   3.786   1.763   5.884  0.4334  0.0315  0.1310
13801SOL    HW142844   3.779   1.837   5.824  1.0812  0.2900  0.3656
13801SOL    HW242845   3.796   1.804   5.971 -1.4063 -0.3219  0.5517
13802SOL     OW42846   6.506   3.557   2.098  0.2061  0.2600  0.6373
13802SOL    HW142847   6.573   3.622   2.119  0.0160  0.5622  0.3246
13802SOL    HW242848   6.476   3.525   2.183  2.5437 -1.7706  0.8095
13803SOL     OW42849   5.313   1.506   0.766 -0.0064  0.1856 -0.4060
13803SOL    HW142850   5.317   1.593   0.808  0.6967 -0.2005  0.3619
13803SOL    HW242851   5.220   1.485   0.764 -0.1372  0.6780  0.0165
13804SOL     OW42852   3.087   2.483   3.643  0.3720 -0.0059 -0.2425
13804SOL    HW142853   3.059   2.565   3.682 -1.0804 -0.3199 -0.5524
13804SOL    HW242854   3.163   2.506   3.589  0.2517  1.0457  0.0217
13805SOL     OW42855   3.312   3.253   4.215  0.3524 -0.6088  0.2336
13805SOL    HW142856   3.292   3.346   4.201  0.0670 -0.8217 -0.8899
13805SOL    HW242857   3.406   3.251   4.231  0.2324 -0.0496  1.0812
13806SOL     OW42858   4.141   3.266   1.425  0.0017 -0.1849  0.3677
13806SOL    HW142859   4.163   3.181   1.463  2.5011  0.1498 -0.1402
13806SOL    HW242860   4.111   3.245   1.336  0.4875 -0.5567  0.2868
13807SOL     OW42861   5.009   1.448   2.520  0.3557 -0.6051  0.2414
13807SOL    HW142862   5.057   1.370   2.549  1.6989  0.3839  0.7889
13807SOL    HW242863   5.065   1.521   2.545 -0.3033  0.4988 -1.3555
13808SOL     OW42864   6.593   2.839   2.150 -0.2887  0.0888 -0.4691
13808SOL    HW142865   6.629   2.755   2.120  0.5858  0.2104  0.1980
13808SOL    HW242866   6.654   2.905   2.118 -0.1135  0.3306  0.3310
13809SOL     OW42867   6.840   3.527   2.554  0.1668 -0.4138  0.4134
13809SOL    HW142868   6.806   3.529   2.643 -0.8207  1.7777  0.0634
13809SOL    HW242869   6.810   3.443   2.519 -3.5163  0.5707  0.7336
13810SOL     OW42870   6.356   3.130   3.802  0.3102 -0.0577 -0.0861
13810SOL    HW142871   6.414   3.054   3.806  0.9420  0.4138 -0.1153
13810SOL    HW242872   6.405   3.194   3.751 -0.9948 -0.2983 -1.7481
13811SOL     OW42873   4.468   3.512   2.651 -0.1554 -0.2406 -0.1180
13811SOL    HW142874   4.456   3.579   2.719 -0.3417 -2.1938  1.9175
13811SOL    HW242875   4.382   3.470   2.644  0.2983 -1.1434 -0.3412
13812SOL     OW42876   5.854   5.087  12.332  0.2913 -0.9299 -0.3604
13812SOL    HW142877   5.900   5.160  12.374 -1.7514  1.1648 -1.5017
13812SOL    HW242878   5.853   5.018  12.399  1.5333  0.4049  1.1296
13813SOL     OW42879   6.225   2.203   1.602  0.3212  0.1692  0.1674
13813SOL    HW142880   6.245   2.293   1.580 -0.3027  0.0906 -0.7608
13813SOL    HW242881   6.211   2.159   1.518  1.6313 -1.0516  0.5427
13814SOL     OW42882   2.426   0.548   2.424 -0.3208  0.0922 -0.3708
13814SOL    HW142883   2.436   0.473   2.481 -2.8537 -0.6783 -0.8166
13814SOL    HW242884   2.505   0.600   2.437  0.8396 -1.9316  0.9895
13815SOL     OW42885   5.561   2.500   2.378  0.0925  0.1302  0.7573
13815SOL    HW142886   5.532   2.591   2.385 -3.2232 -0.7824  1.0215
13815SOL    HW242887   5.589   2.491   2.287 -1.1496  1.0498  0.2448
13816SOL     OW42888   4.950   0.719   3.734  0.0718 -0.4828 -0.4444
13816SOL    HW142889   4.942   0.735   3.640 -0.7956 -0.0540 -0.3031
13816SOL    HW242890   4.874   0.762   3.772  1.3681  0.9671  0.6537
13817SOL     OW42891   5.191   3.256   3.545  0.8275  0.0285 -0.0398
13817SOL    HW142892   5.123   3.217   3.490 -0.2494  0.8174  0.7088
13817SOL    HW242893   5.146   3.323   3.596  1.9745 -0.0960  1.1944
13818SOL     OW42894   3.841   2.068   3.492 -0.0653 -0.1894  0.1648
13818SOL    HW142895   3.916   2.126   3.507  0.5501 -1.0586  0.4956
13818SOL    HW242896   3.765   2.127   3.493  0.6641  0.8176 -0.9427
13819SOL     OW42897   5.792   3.941   1.206 -0.5444 -0.2003 -0.1374
13819SOL    HW142898   5.873   3.916   1.163 -1.2380  1.4784 -2.6146
13819SOL    HW242899   5.808   4.030   1.239 -0.7559 -0.6234  1.1689
13820SOL     OW42900   4.766   1.767   2.292 -0.1677 -0.4078  0.0606
13820SOL    HW142901   4.701   1.777   2.362 -0.1452 -1.7045  0.2940
13820SOL    HW242902   4.850   1.771   2.337  0.0042  2.0862 -0.3392
13821SOL     OW42903   4.120   2.408   4.827  0.2137 -0.7961 -0.0316
13821SOL    HW142904   4.163   2.347   4.887  0.7000  0.4842  0.9815
13821SOL    HW242905   4.104   2.486   4.880  0.4170  0.2985 -1.5065
13822SOL     OW42906   4.916   1.423   1.604  0.1703 -0.4281 -0.6616
13822SOL    HW142907   4.895   1.400   1.694 -0.2191  2.2486  0.0052
13822SOL    HW242908   5.011   1.419   1.600  0.1648 -1.0791 -0.2988
13823SOL     OW42909   4.477   2.526   2.726 -0.1609 -0.1758  0.1190
13823SOL    HW142910   4.521   2.443   2.708 -1.8121 -0.6320 -2.1574
13823SOL    HW242911   4.461   2.564   2.640 -2.0396  1.1158  0.9669
13824SOL     OW42912   4.118   2.527   2.165 -0.2034  0.0643 -0.1055
13824SOL    HW142913   4.154   2.445   2.131 -0.7370 -0.3983  0.4261
13824SOL    HW242914   4.031   2.533   2.126 -0.1875  0.3491 -0.0982
13825SOL     OW42915   3.617   2.829   3.807 -0.6292  1.0174  0.1376
13825SOL    HW142916   3.670   2.903   3.778 -0.0171  0.2788 -0.7393
13825SOL    HW242917   3.663   2.795   3.884  1.1970 -0.6013 -1.5384
13826SOL     OW42918   3.773   3.194   1.008 -0.2891  0.5463 -0.3345
13826SOL    HW142919   3.689   3.237   0.999  0.2512  1.2606 -2.5952
13826SOL    HW242920   3.814   3.236   1.084 -2.0346 -0.0278  0.9806
13827SOL     OW42921   3.694   4.420   1.448 -0.2167  0.0837 -0.0422
13827SOL    HW142922   3.678   4.358   1.519 -2.1060  2.1403  1.4806
13827SOL    HW242923   3.774   4.466   1.473  0.2661 -0.5803 -0.3364
13828SOL     OW42924   5.377   3.133   1.566 -0.4579 -0.1237 -0.2157
13828SOL    HW142925   5.350   3.203   1.507 -0.8348  0.2825  0.4270
13828SOL    HW242926   5.349   3.053   1.523  2.1481 -0.1152 -2.1847
13829SOL     OW42927   5.509   3.284   1.236 -0.4432 -0.4348  0.2226
13829SOL    HW142928   5.432   3.284   1.293 -2.1432 -0.2956 -1.9373
13829SOL    HW242929   5.488   3.220   1.167  0.3854  1.2083 -1.6515
13830SOL     OW42930   5.727   3.860   2.937 -0.1413  0.0836 -0.1668
13830SOL    HW142931   5.648   3.830   2.891 -0.7017  1.5457 -0.2217
13830SOL    HW242932   5.694   3.900   3.018  0.4305  1.5757 -0.6337
13831SOL     OW42933   5.725   4.535   3.129  0.4849  0.3813 -0.0948
13831SOL    HW142934   5.659   4.582   3.179 -0.4098  0.0141 -0.8929
13831SOL    HW242935   5.693   4.445   3.126 -0.3420  0.6840 -2.6328
13832SOL     OW42936   4.660   1.083   2.811  0.3122  0.5318 -0.2351
13832SOL    HW142937   4.611   1.164   2.792  1.2472  1.1444 -0.0982
13832SOL    HW242938   4.596   1.013   2.796 -1.3487  1.3809  2.2423
13833SOL     OW42939   3.755   1.999   4.948  0.8542 -0.0086  0.8039
13833SOL    HW142940   3.812   2.011   5.024  0.5537  0.6706  0.9311
13833SOL    HW242941   3.719   2.086   4.932 -0.7144 -0.5554  1.1905
13834SOL     OW42942   4.195   2.648   0.932  0.1191 -0.1565  0.0279
13834SOL    HW142943   4.263   2.585   0.956 -0.0636  0.0696  1.2281
13834SOL    HW242944   4.234   2.701   0.862  1.1339 -0.1230  0.5925
13835SOL     OW42945   5.387   3.140   3.177  0.7102  0.1018 -0.5585
13835SOL    HW142946   5.314   3.185   3.135  1.1935 -0.6926 -2.3624
13835SOL    HW242947   5.389   3.054   3.135  1.3711 -0.6742  0.9818
13836SOL     OW42948   4.341   2.995   2.116  0.1886 -0.3357  0.5912
13836SOL    HW142949   4.315   3.019   2.206 -0.4876 -1.2232  0.6522
13836SOL    HW242950   4.269   2.939   2.085 -0.1999  0.9633 -0.9701
13837SOL     OW42951   4.124   0.738   3.861 -0.3129  0.3292 -0.0524
13837SOL    HW142952   4.091   0.823   3.889 -0.9045  0.4429 -1.0855
13837SOL    HW242953   4.208   0.729   3.907 -1.1555  0.5825  1.6286
13838SOL     OW42954   3.884   3.176   3.348  0.2578 -0.0484  0.2140
13838SOL    HW142955   3.883   3.180   3.444  0.9608 -0.7772  0.2544
13838SOL    HW242956   3.933   3.253   3.322 -2.5322  1.9359  0.2909
13839SOL     OW42957   3.407   1.334   4.272 -0.1315 -0.0605  0.1542
13839SOL    HW142958   3.345   1.364   4.339  0.5472 -0.8681  1.1819
13839SOL    HW242959   3.365   1.257   4.234 -0.0027 -0.2856  0.4661
13840SOL     OW42960   6.496   2.886   3.774  0.0752  0.2903  0.1168
13840SOL    HW142961   6.470   2.839   3.853  1.6883 -2.3757 -0.7767
13840SOL    HW242962   6.475   2.824   3.703  3.0161  0.5194 -1.0934
13841SOL     OW42963   3.451   2.471   2.651  0.3106  0.1089 -0.2718
13841SOL    HW142964   3.425   2.415   2.578 -0.1035 -0.3195  0.1966
13841SOL    HW242965   3.455   2.412   2.726 -3.4100  1.1593  0.9870
13842SOL     OW42966   6.815   3.622   3.077 -1.4238 -0.3487 -0.1319
13842SOL    HW142967   6.886   3.684   3.070 -0.2674 -1.5461  0.5545
13842SOL    HW242968   6.823   3.567   2.999  0.7459 -2.7747  1.6286
13843SOL     OW42969   4.901   3.273   0.989  0.6278  0.0910  0.0799
13843SOL    HW142970   4.834   3.209   0.965  0.2357  0.2152  0.7965
13843SOL    HW242971   4.885   3.290   1.082  1.2964  0.5540  0.1164
13844SOL     OW42972   3.438   3.171   3.051 -0.9090 -0.2769 -0.3656
13844SOL    HW142973   3.469   3.219   3.128 -0.0702 -0.7367 -0.4030
13844SOL    HW242974   3.427   3.238   2.984  1.4951 -0.2346 -0.8186
13845SOL     OW42975   6.658   5.068   2.079 -0.3280 -0.3814 -0.2331
13845SOL    HW142976   6.679   4.986   2.123 -0.4630 -0.6009 -0.5687
13845SOL    HW242977   6.582   5.047   2.024 -1.1382  0.2734  0.5949
13846SOL     OW42978   4.382   1.923   4.444 -0.0182 -0.3710 -0.0110
13846SOL    HW142979   4.451   1.946   4.381 -2.0024 -0.2314 -2.2825
13846SOL    HW242980   4.304   1.968   4.411 -1.7325 -2.3691  1.1220
13847SOL     OW42981   6.768   2.304   2.098 -0.1899  0.4312 -0.0386
13847SOL    HW142982   6.714   2.242   2.147  2.4730 -2.0777  0.0167
13847SOL    HW242983   6.791   2.256   2.018 -0.1699  2.4438 -1.3133
13848SOL     OW42984   5.101   1.552   2.890 -0.2667 -0.0239 -0.2507
13848SOL    HW142985   5.025   1.602   2.919 -1.3304 -0.9970 -1.2171
13848SOL    HW242986   5.142   1.521   2.970 -0.0958  1.6342  0.3258
13849SOL     OW42987   6.058   2.491   1.953 -0.1799 -0.1002  0.0378
13849SOL    HW142988   6.066   2.396   1.966 -1.0604 -0.4259 -1.5202
13849SOL    HW242989   5.987   2.517   2.010 -0.5575 -0.5607 -0.2112
13850SOL     OW42990   3.780   0.857   3.832  0.3191  0.1423  0.8099
13850SOL    HW142991   3.707   0.916   3.814 -0.4350 -1.2612 -1.0630
13850SOL    HW242992   3.853   0.915   3.854 -0.2044  1.8562 -1.5527
13851SOL     OW42993   3.385   3.349   2.645  0.9487 -0.0601  0.0043
13851SOL    HW142994   3.416   3.300   2.721  1.8228  2.9614  1.7842
13851SOL    HW242995   3.299   3.381   2.670  0.0761 -1.1900 -1.4147
13852SOL     OW42996   3.363   0.472   4.168  0.1394  0.1159 -0.1337
13852SOL    HW142997   3.422   0.533   4.123  0.4113 -1.2166 -1.6523
13852SOL    HW242998   3.287   0.465   4.111 -0.4500  0.0023  0.6545
13853SOL     OW42999   3.676   3.229   1.796 -0.0650 -0.3135 -0.6987
13853SOL    HW143000   3.662   3.313   1.752 -1.8152 -0.7621 -1.0779
13853SOL    HW243001   3.742   3.248   1.863  0.7183  0.9908 -1.7776
13854SOL     OW43002   4.333   2.854   2.940 -0.4229  0.4429 -0.5155
13854SOL    HW143003   4.355   2.863   2.847 -2.5253  0.0247 -1.0967
13854SOL    HW243004   4.415   2.874   2.985  0.7155  0.4679 -2.4495
13855SOL     OW43005   3.999   2.476   2.974 -0.7759  0.4589 -0.4511
13855SOL    HW143006   4.087   2.503   2.946  0.7108 -3.6892 -0.3451
13855SOL    HW243007   3.949   2.470   2.893  0.0417 -0.3163 -0.9098
13856SOL     OW43008   4.687   3.941   2.453  0.0258  0.3274 -0.0274
13856SOL    HW143009   4.641   4.023   2.471  0.9443  0.8219  0.1028
13856SOL    HW243010   4.701   3.902   2.540 -0.7285 -0.1589 -0.1110
13857SOL     OW43011   5.035   3.653   5.033 -0.3817  0.0129 -0.0825
13857SOL    HW143012   4.946   3.684   5.015  0.4452  1.3815 -2.1685
13857SOL    HW243013   5.086   3.734   5.044  0.7268 -0.7465  0.5296
13858SOL     OW43014   5.866   4.467   2.403  0.1160 -0.3655  0.2155
13858SOL    HW143015   5.945   4.519   2.388 -0.4136  1.2491  2.4390
13858SOL    HW243016   5.800   4.509   2.348 -0.5076  2.0432  2.5671
13859SOL     OW43017   5.737   0.584   2.735  0.5113 -0.2445  0.4806
13859SOL    HW143018   5.796   0.648   2.775  0.4011 -0.7637  1.5266
13859SOL    HW243019   5.734   0.608   2.642  0.2753  1.4103  0.8754
13860SOL     OW43020   3.266   3.004   2.655  0.1362  0.0213  0.0858
13860SOL    HW143021   3.322   2.982   2.581  0.9101 -0.9371  0.9241
13860SOL    HW243022   3.272   2.928   2.713 -1.5963  0.1268  0.4734
13861SOL     OW43023   2.065   3.539  12.182 -0.2451 -1.3103  0.2360
13861SOL    HW143024   2.127   3.466  12.183  1.3196 -0.0277 -0.5539
13861SOL    HW243025   2.054   3.561  12.090  2.1268  1.7119  0.5272
13862SOL     OW43026   4.100   2.670   2.691 -0.8489 -0.3144 -0.1831
13862SOL    HW143027   4.067   2.603   2.631  0.4500 -1.7969  0.6791
13862SOL    HW243028   4.185   2.696   2.656 -0.8637  0.1084  0.0756
13863SOL     OW43029   6.321   3.968   2.171  0.1005  0.3835  0.3358
13863SOL    HW143030   6.316   3.881   2.133  1.5272  0.1819  0.5396
13863SOL    HW243031   6.230   3.994   2.184 -0.5305  0.6131 -3.4509
13864SOL     OW43032   6.733   2.566   3.294 -0.2948  0.4974  0.5735
13864SOL    HW143033   6.749   2.528   3.381  1.6509  0.5839  0.3088
13864SOL    HW243034   6.750   2.659   3.305 -0.5286  0.5869  0.2035
13865SOL     OW43035   5.732   3.464   2.679 -0.4188  0.4968 -0.4390
13865SOL    HW143036   5.639   3.477   2.663 -0.8307 -0.4845  1.0007
13865SOL    HW243037   5.774   3.537   2.635 -1.7848  0.4590 -1.8945
13866SOL     OW43038   6.266   4.130   0.730 -0.0340  0.2865 -0.1009
13866SOL    HW143039   6.182   4.160   0.765  0.8028 -0.0425  2.3963
13866SOL    HW243040   6.331   4.181   0.777  1.2272 -0.3028 -1.1385
13867SOL     OW43041   5.512   2.315   2.761 -0.6429  0.0612  0.5044
13867SOL    HW143042   5.571   2.356   2.698  0.4319 -0.6044  1.0428
13867SOL    HW243043   5.432   2.367   2.756 -0.3693  0.3839 -0.9620
13868SOL     OW43044   6.183   4.587   1.595 -0.1274  0.8729 -0.2856
13868SOL    HW143045   6.183   4.680   1.573 -2.6002  1.5453  2.0163
13868SOL    HW243046   6.253   4.577   1.659  1.4901  0.6251 -1.9865
13869SOL     OW43047   4.320   1.459   1.645  0.0747  0.0177  0.3654
13869SOL    HW143048   4.331   1.481   1.738  0.0274 -1.2187  0.6959
13869SOL    HW243049   4.228   1.431   1.638 -0.3336  1.4772 -0.3783
13870SOL     OW43050   4.854   3.838   3.884  0.1751 -0.5911 -0.4858
13870SOL    HW143051   4.761   3.818   3.872  0.6026 -3.3480 -0.0045
13870SOL    HW243052   4.861   3.862   3.977 -0.1927  0.8737 -0.8106
13871SOL     OW43053   3.246   2.966   1.728  0.4772 -0.0017  0.0054
13871SOL    HW143054   3.341   2.962   1.736  0.5193 -1.6518 -0.7275
13871SOL    HW243055   3.228   3.054   1.698  1.6388  0.7898  1.4902
13872SOL     OW43056   5.850   3.521   3.989  0.6131  0.5065 -0.4282
13872SOL    HW143057   5.793   3.588   4.027  1.8836  0.9543  0.7922
13872SOL    HW243058   5.863   3.548   3.898 -0.2470  0.9741 -0.4149
13873SOL     OW43059   5.426   2.901   2.887 -0.0399  0.1902 -0.1511
13873SOL    HW143060   5.501   2.956   2.865 -0.2867  1.6037  2.2052
13873SOL    HW243061   5.351   2.943   2.846  0.2412 -0.5572 -1.4987
13874SOL     OW43062   2.498   2.384   3.906  0.0784 -0.0722  0.3678
13874SOL    HW143063   2.539   2.337   3.978 -0.4902 -0.7511  0.2673
13874SOL    HW243064   2.484   2.473   3.939 -1.2823 -0.6793  1.5583
13875SOL     OW43065   5.898   5.299   1.642  0.5399  0.3895 -0.2397
13875SOL    HW143066   5.909   5.312   1.547  1.8238 -0.2948 -0.2103
13875SOL    HW243067   5.945   5.218   1.660  1.3439  1.1339  1.1762
13876SOL     OW43068   4.275   1.734   2.040  0.4484  0.2911 -0.2754
13876SOL    HW143069   4.212   1.800   2.013  1.7036  1.2646 -0.9458
13876SOL    HW243070   4.341   1.734   1.970  1.0385 -0.9015  0.2492
13877SOL     OW43071   4.304   4.383   2.536 -0.1639 -0.0500  0.4635
13877SOL    HW143072   4.233   4.342   2.487 -1.3845  1.1175  1.1941
13877SOL    HW243073   4.268   4.396   2.624  1.3597 -0.4688  1.1895
13878SOL     OW43074   6.383   4.152   1.625 -0.1327  0.0548  0.0365
13878SOL    HW143075   6.452   4.198   1.672  1.2183 -1.1419 -0.6653
13878SOL    HW243076   6.368   4.073   1.676 -0.0674 -0.2906 -0.4631
13879SOL     OW43077   3.104   2.606   4.282  0.3742 -0.1170 -0.1473
13879SOL    HW143078   3.029   2.617   4.340  0.9564 -1.4484  0.9059
13879SOL    HW243079   3.136   2.695   4.266 -1.0928  0.4245 -0.1941
13880SOL     OW43080   4.856   2.229   1.609 -0.1282  0.1920  0.3857
13880SOL    HW143081   4.823   2.142   1.628  0.6949 -0.6193 -1.5967
13880SOL    HW243082   4.876   2.227   1.515  0.4725  2.3215  0.4153
13881SOL     OW43083   4.820   2.727   0.569  0.2501  0.0507 -0.1092
13881SOL    HW143084   4.833   2.636   0.596  0.2343  0.0056 -0.2532
13881SOL    HW243085   4.880   2.739   0.496  0.9450  0.4371  0.5120
13882SOL     OW43086   4.353   2.003   2.965  0.0852 -0.3214  0.7941
13882SOL    HW143087   4.283   2.039   2.911  0.1319 -0.9205  0.3201
13882SOL    HW243088   4.317   1.921   2.999  0.2485 -0.2090  1.2489
13883SOL     OW43089   4.989   1.928   3.344 -0.0644 -0.0362 -0.4827
13883SOL    HW143090   4.954   1.842   3.324  0.4506 -0.2784 -0.3631
13883SOL    HW243091   4.945   1.987   3.283 -1.3797 -0.1816  0.3056
13884SOL     OW43092   0.070   2.071   2.087  0.2333 -0.0644 -0.0890
13884SOL    HW143093   0.119   2.096   2.009 -0.0576 -1.9539 -0.9314
13884SOL    HW243094   0.123   2.104   2.160  2.7174 -1.8409 -0.9618
13885SOL     OW43095   5.147   3.679   1.826  0.0101 -0.0533  0.1013
13885SOL    HW143096   5.103   3.669   1.741  0.3430  1.1645 -0.2375
13885SOL    HW243097   5.238   3.655   1.809 -0.0744 -0.5244  0.2979
13886SOL     OW43098   2.445   3.298   4.021  0.5082  0.1918  0.2901
13886SOL    HW143099   2.475   3.265   3.936  0.3663  2.3789 -0.6629
13886SOL    HW243100   2.523   3.298   4.075  0.8264 -0.2327 -0.1535
13887SOL     OW43101   4.833   2.907   1.776 -0.4758  0.0556  0.1519
13887SOL    HW143102   4.856   2.917   1.869 -0.1901 -0.6413  0.1657
13887SOL    HW243103   4.741   2.934   1.771 -0.7713 -0.7666  0.8210
13888SOL     OW43104   3.655   3.657   2.645  0.5699  0.0899 -0.3163
13888SOL    HW143105   3.722   3.646   2.712 -1.3206  2.6111  2.2246
13888SOL    HW243106   3.696   3.711   2.577  1.4735  0.5424  0.5676
13889SOL     OW43107   4.187   3.359   2.202  0.4017  0.2320  0.6940
13889SOL    HW143108   4.226   3.358   2.115 -0.5258 -1.0659  0.2640
13889SOL    HW243109   4.247   3.412   2.254  0.7521  1.3939 -0.8171
13890SOL     OW43110   3.695   1.553   3.941 -0.5590 -0.5256 -0.5045
13890SOL    HW143111   3.710   1.469   3.898  2.3239 -0.1069 -0.5627
13890SOL    HW243112   3.649   1.606   3.877 -1.9287 -1.8523 -0.6628
13891SOL     OW43113   4.911   3.704   3.658 -1.0570  0.8749 -0.0104
13891SOL    HW143114   4.870   3.740   3.737 -0.5662  0.6347  0.3541
13891SOL    HW243115   4.896   3.772   3.592 -0.5170  1.5752  0.5602
13892SOL     OW43116   4.506   1.049   4.579 -1.0036  0.2413  0.3868
13892SOL    HW143117   4.477   1.098   4.656 -1.3563  1.1993 -0.3406
13892SOL    HW243118   4.600   1.038   4.592 -0.5826  2.6507 -0.2490
13893SOL     OW43119   3.789   3.675   1.912 -0.0451 -0.1311  0.0504
13893SOL    HW143120   3.792   3.732   1.836  3.2529  0.2500  0.3438
13893SOL    HW243121   3.868   3.622   1.906 -1.9741 -3.3997  0.8377
13894SOL     OW43122   5.582   2.384   2.118 -0.1600  0.5218  0.4208
13894SOL    HW143123   5.514   2.386   2.052  1.1760  1.1728 -1.0085
13894SOL    HW243124   5.607   2.291   2.125  1.3525  0.6767 -1.8628
13895SOL     OW43125   4.622   2.647   3.357  0.1436  0.5297 -0.4420
13895SOL    HW143126   4.614   2.617   3.447 -0.3550  1.5180 -0.1500
13895SOL    HW243127   4.532   2.661   3.327  0.3374  1.0681 -0.7928
13896SOL     OW43128   6.303   4.895   2.663  0.1053  0.3109 -0.3287
13896SOL    HW143129   6.312   4.923   2.572  0.3126  1.6435  0.0751
13896SOL    HW243130   6.329   4.972   2.714 -0.1477 -0.3684  0.8567
13897SOL     OW43131   5.406   4.648   1.977 -0.0446  0.0485  0.1448
13897SOL    HW143132   5.345   4.639   2.050 -1.3723 -0.7500 -1.0053
13897SOL    HW243133   5.350   4.660   1.900  1.3157  1.1383 -0.7223
13898SOL     OW43134   3.946   1.683   3.206 -0.0408 -0.1543  0.2850
13898SOL    HW143135   3.867   1.700   3.258  0.1201 -0.0246  0.4887
13898SOL    HW243136   4.017   1.683   3.270  0.0313 -1.0524  0.2149
13899SOL     OW43137   5.107   2.331   1.676 -0.2326  0.3806 -0.7274
13899SOL    HW143138   5.116   2.296   1.765 -0.4431  0.0799 -0.8204
13899SOL    HW243139   5.021   2.300   1.647 -0.0683  0.2816 -1.1186
13900SOL     OW43140   4.571   2.058   3.090  0.1764 -0.3017 -0.7056
13900SOL    HW143141   4.488   2.049   3.043  0.2963 -0.9960 -0.7910
13900SOL    HW243142   4.594   2.151   3.080 -1.5637  0.3925  0.9536
13901SOL     OW43143   5.527   3.815   0.160 -0.0341  0.4144 -0.0283
13901SOL    HW143144   5.462   3.872   0.200 -1.7796 -0.6050 -1.2524
13901SOL    HW243145   5.538   3.744   0.223 -0.3576  0.4334  0.0515
13902SOL     OW43146   4.182   2.559   3.547 -0.2706  0.5531 -0.0795
13902SOL    HW143147   4.269   2.537   3.514 -0.4251  0.5474 -0.5001
13902SOL    HW243148   4.131   2.479   3.536 -0.9309  1.1624 -1.9437
13903SOL     OW43149   4.454   3.118   2.372  0.3217 -0.3314  0.4143
13903SOL    HW143150   4.395   3.105   2.447  1.5435 -1.0409  1.2935
13903SOL    HW243151   4.440   3.208   2.345  0.4696  0.2143  2.0598
13904SOL     OW43152   5.200   4.573   3.733 -0.8400  0.0509 -0.0826
13904SOL    HW143153   5.183   4.487   3.772 -1.8052  0.0369 -0.5053
13904SOL    HW243154   5.116   4.601   3.698 -0.9553  1.9327  1.4953
13905SOL     OW43155   4.215   3.164   3.447  0.3349  0.2865  0.0685
13905SOL    HW143156   4.240   3.075   3.420 -1.5490  0.2445 -1.7139
13905SOL    HW243157   4.298   3.205   3.471  1.6075 -1.0893 -1.6916
13906SOL     OW43158   5.089   2.246   3.451  0.0679 -0.1543  0.1472
13906SOL    HW143159   5.165   2.298   3.428 -0.1171  0.6622  1.2792
13906SOL    HW243160   5.028   2.259   3.379  0.5354  0.1566 -0.1935
13907SOL     OW43161   4.534   2.356   1.429  0.7069  0.0252  0.0224
13907SOL    HW143162   4.623   2.391   1.427  0.7455 -0.0880 -0.9186
13907SOL    HW243163   4.500   2.373   1.341 -0.0144 -0.4046  0.2112
13908SOL     OW43164   5.438   3.610   2.632  0.0263  0.5269  0.0175
13908SOL    HW143165   5.406   3.700   2.621 -0.5121  0.2008 -1.2369
13908SOL    HW243166   5.368   3.565   2.680  0.7181  0.9834  1.5480
13909SOL     OW43167   4.660   0.971   1.329 -0.3433  0.1831  0.1849
13909SOL    HW143168   4.712   0.921   1.266  0.6397  2.6685 -1.1260
13909SOL    HW243169   4.725   1.013   1.386 -1.1398 -0.1482  1.3825
13910SOL     OW43170   5.723   2.993   1.673 -0.1000  0.7075 -0.4965
13910SOL    HW143171   5.717   3.028   1.762  1.2307 -0.8745  0.2894
13910SOL    HW243172   5.807   3.025   1.641  0.8190 -1.0819 -0.0123
13911SOL     OW43173   3.365   2.241   2.515  0.2113 -0.3797  0.1678
13911SOL    HW143174   3.275   2.208   2.512 -0.3094  0.9392  0.4636
13911SOL    HW243175   3.414   2.172   2.559 -0.6111 -1.1994 -0.1581
13912SOL     OW43176   3.272   2.624   1.957 -0.1850  0.0934 -0.8000
13912SOL    HW143177   3.315   2.634   1.873  0.9643  1.2217 -0.1106
13912SOL    HW243178   3.258   2.713   1.989  0.8965 -0.2884  0.9056
13913SOL     OW43179   4.768   2.471   1.620 -0.0746 -0.0637  0.2160
13913SOL    HW143180   4.721   2.483   1.703  0.2947 -0.9217  0.5648
13913SOL    HW243181   4.798   2.380   1.623 -0.3985 -0.2245 -1.0551
13914SOL     OW43182   3.226   0.055   3.043  0.5306  0.1590  0.1742
13914SOL    HW143183   3.278   0.118   3.094 -1.6532  1.2973  1.1480
13914SOL    HW243184   3.257  -0.031   3.072  1.7387  0.7678  0.7912
13915SOL     OW43185   5.522   2.050   2.586 -0.2537  0.3745 -0.1648
13915SOL    HW143186   5.544   2.124   2.643  1.7900  0.1871 -0.6532
13915SOL    HW243187   5.494   2.091   2.504 -1.2679  0.6043  0.2718
13916SOL     OW43188   6.050   1.213   1.504 -0.0963  0.5718 -0.1785
13916SOL    HW143189   6.072   1.122   1.522  2.0244  0.7099 -1.7108
13916SOL    HW243190   5.990   1.238   1.574  1.7976 -1.0610  2.1713
13917SOL     OW43191   5.118   4.119   0.395 -0.7876 -0.2298 -0.2742
13917SOL    HW143192   5.161   4.203   0.410  1.9725 -1.6562  0.6396
13917SOL    HW243193   5.028   4.141   0.373 -0.4181  2.8990  0.8533
13918SOL     OW43194   5.522   1.651   1.511  0.3639 -0.3247 -0.0654
13918SOL    HW143195   5.485   1.608   1.587 -0.6710 -0.7953 -0.8108
13918SOL    HW243196   5.467   1.729   1.498  1.4658  0.5897  0.5460
13919SOL     OW43197   2.969   2.311   3.912  0.4382 -0.4673 -0.0222
13919SOL    HW143198   2.977   2.406   3.917  1.1129 -0.5480  0.8047
13919SOL    HW243199   3.042   2.284   3.856  0.6787 -0.5481  0.3274
13920SOL     OW43200   2.647   0.804   5.470 -0.0370 -0.6539  0.3703
13920SOL    HW143201   2.721   0.751   5.440  1.3462  1.4905 -0.2623
13920SOL    HW243202   2.667   0.824   5.561 -0.6743 -1.3845  0.6784
13921SOL     OW43203   3.877   3.550   4.635 -0.2744 -0.3874  0.6700
13921SOL    HW143204   3.964   3.510   4.636 -0.5746 -1.0465  1.0062
13921SOL    HW243205   3.879   3.615   4.705  0.6180  1.1019 -0.6541
13922SOL     OW43206   4.052   2.541   4.598 -0.3694 -0.0364 -0.6730
13922SOL    HW143207   4.055   2.472   4.664  0.3791  0.5977 -0.0387
13922SOL    HW243208   3.964   2.577   4.605 -0.2564  0.1092  0.0641
13923SOL     OW43209   4.377   3.339   3.594 -0.0815  0.2396  0.0571
13923SOL    HW143210   4.377   3.420   3.543  0.9802  0.3310  0.1719
13923SOL    HW243211   4.366   3.367   3.684  0.0085  0.2295  0.0710
13924SOL     OW43212   5.766   1.607   6.340  0.2859  0.3856  0.7100
13924SOL    HW143213   5.803   1.637   6.423  0.8643  1.0164  0.2412
13924SOL    HW243214   5.680   1.573   6.362  0.6065  0.1358  1.6323
13925SOL     OW43215   0.880   2.644   3.451  0.1819 -0.3243  0.2031
13925SOL    HW143216   0.806   2.698   3.426 -0.6159 -2.2760 -1.9758
13925SOL    HW243217   0.956   2.686   3.410  0.0553  0.6762  0.9442
13926SOL     OW43218   5.368   2.197   5.528 -0.2457  0.3232  0.0786
13926SOL    HW143219   5.318   2.183   5.447 -0.5520  0.6902  0.1994
13926SOL    HW243220   5.397   2.288   5.523 -1.4748  0.7931  1.0265
13927SOL     OW43221   5.165   2.036   6.481  0.3362  0.2274  0.1254
13927SOL    HW143222   5.230   2.042   6.411  0.9518  2.2159  0.8075
13927SOL    HW243223   5.083   2.015   6.436  0.5936  2.0402 -1.2838
13928SOL     OW43224   5.273   2.583   5.385  0.4047  0.1403 -0.1066
13928SOL    HW143225   5.273   2.679   5.386  3.1288  0.2063 -0.5865
13928SOL    HW243226   5.191   2.560   5.341  0.1725  2.2516 -0.9071
13929SOL     OW43227   5.283   2.691   4.769  0.0502  0.1064 -0.0847
13929SOL    HW143228   5.316   2.770   4.725  0.4297 -0.2369 -0.4256
13929SOL    HW243229   5.223   2.724   4.836  0.3341  0.6928 -0.1138
13930SOL     OW43230   4.684   4.165   5.466  0.2560 -0.2836 -0.4405
13930SOL    HW143231   4.620   4.095   5.466  0.6434 -0.7361  2.1171
13930SOL    HW243232   4.637   4.241   5.500  1.2412 -0.9418  2.7186
13931SOL     OW43233   4.277   0.701   7.055 -0.3643 -0.1415 -0.1214
13931SOL    HW143234   4.209   0.696   6.987 -0.3932  3.3282 -0.4897
13931SOL    HW243235   4.228   0.708   7.137 -0.3539 -0.9043 -0.0364
13932SOL     OW43236   5.893   1.868   3.368 -0.2525 -0.5371  0.5251
13932SOL    HW143237   5.861   1.848   3.280 -0.3162  0.6626  0.2560
13932SOL    HW243238   5.879   1.788   3.418 -0.0237 -1.3082 -0.6063
13933SOL     OW43239   4.798   3.777   5.588  0.0465 -0.1515 -0.2538
13933SOL    HW143240   4.804   3.734   5.673 -0.6743 -0.2963 -0.2704
13933SOL    HW243241   4.842   3.861   5.600 -0.0933 -0.1506  0.2737
13934SOL     OW43242   3.937   2.027   5.191 -0.2896 -0.2094 -0.0286
13934SOL    HW143243   3.890   2.102   5.228  1.5240  0.7271  0.4668
13934SOL    HW243244   4.026   2.035   5.225 -0.3676 -3.4107  1.1788
13935SOL     OW43245   4.283   3.880   5.729 -0.0075 -0.0663  0.0807
13935SOL    HW143246   4.300   3.968   5.761 -0.7092 -0.0733  0.4925
13935SOL    HW243247   4.343   3.824   5.777 -0.0121  0.1086  0.2909
13936SOL     OW43248   3.919   2.265   2.341 -0.0681  0.3026  0.0936
13936SOL    HW143249   3.898   2.175   2.317  0.6865 -0.4050  1.9401
13936SOL    HW243250   3.839   2.314   2.322 -0.9607 -1.0010  0.3467
13937SOL     OW43251   4.537   1.054   5.108 -0.5522 -0.1453  0.4324
13937SOL    HW143252   4.616   1.029   5.060 -0.1730  2.7242 -0.6669
13937SOL    HW243253   4.568   1.113   5.177 -1.6734  1.0920 -0.0671
13938SOL     OW43254   3.406   2.786   3.493  0.1282 -0.0450  0.2301
13938SOL    HW143255   3.499   2.803   3.508  0.0690  0.1768  0.3501
13938SOL    HW243256   3.394   2.694   3.515  0.5428 -0.3620 -0.8145
13939SOL     OW43257   6.126   3.902   3.987  0.1929 -0.3037  0.0327
13939SOL    HW143258   6.166   3.966   4.045 -0.0109  0.3628 -0.5546
13939SOL    HW243259   6.181   3.824   3.995  1.2674  0.4007 -0.3108
13940SOL     OW43260   5.561   4.158   5.219  0.0099 -0.4921  0.3619
13940SOL    HW143261   5.476   4.117   5.205  0.2943 -1.0383  0.1915
13940SOL    HW243262   5.541   4.250   5.238 -0.6802 -0.8208  1.3173
13941SOL     OW43263   4.017   3.140   3.623  0.3762 -0.2253  0.1022
13941SOL    HW143264   4.000   3.219   3.674 -0.4072 -0.7504  0.6851
13941SOL    HW243265   4.085   3.165   3.561  0.7256  0.6728  0.8298
13942SOL     OW43266   4.715   3.058   6.246  0.0235 -0.1562  0.5313
13942SOL    HW143267   4.808   3.042   6.232 -0.2558 -0.5454 -1.0764
13942SOL    HW243268   4.710   3.093   6.335  1.6700 -0.3514  0.7329
13943SOL     OW43269   3.327   2.389   6.616  0.1774  0.0188  1.0196
13943SOL    HW143270   3.417   2.357   6.625  1.2568  1.6511 -2.3295
13943SOL    HW243271   3.275   2.329   6.669  3.1751 -1.0841  3.0136
13944SOL     OW43272   3.796   2.245   5.274 -0.4551  0.4416  0.1766
13944SOL    HW143273   3.824   2.336   5.262  1.5535  0.1634  2.0917
13944SOL    HW243274   3.761   2.242   5.363  0.5626 -0.8726  0.5631
13945SOL     OW43275   3.115   3.143   5.462  0.2544 -0.2664 -0.2447
13945SOL    HW143276   3.192   3.200   5.462  0.1058 -0.0460 -1.0750
13945SOL    HW243277   3.043   3.200   5.489  0.1997 -0.1998 -0.5307
13946SOL     OW43278   4.551   2.938   3.145  0.1088 -0.1066 -0.2734
13946SOL    HW143279   4.586   2.885   3.217  2.0024  2.3088  0.6907
13946SOL    HW243280   4.471   2.977   3.180 -1.8015 -2.7399 -1.2690
13947SOL     OW43281   4.436   4.365   5.432 -0.1687  0.5361 -0.0903
13947SOL    HW143282   4.413   4.457   5.445 -1.4354  0.3781 -1.0000
13947SOL    HW243283   4.516   4.368   5.379  0.0704  1.1057  0.2911
13948SOL     OW43284   3.772   1.779   3.558  0.3235  0.3361 -0.1931
13948SOL    HW143285   3.753   1.748   3.470 -0.8933  0.6090 -0.0334
13948SOL    HW243286   3.814   1.864   3.545  1.7713 -0.4045 -0.5563
13949SOL     OW43287   5.391   2.096   6.824 -0.5073  0.0134 -0.3774
13949SOL    HW143288   5.299   2.120   6.815 -1.5298 -3.1236  0.4563
13949SOL    HW243289   5.409   2.102   6.918  0.4307  1.3297 -0.6044
13950SOL     OW43290   4.799   4.297   4.163  0.1108  0.4095 -0.3580
13950SOL    HW143291   4.739   4.279   4.091 -0.3075  0.5868 -0.0525
13950SOL    HW243292   4.746   4.289   4.242  1.1955 -2.8567  0.1964
13951SOL     OW43293   4.707   3.215   1.598 -0.4593 -0.3696  0.5847
13951SOL    HW143294   4.802   3.220   1.603 -0.4517 -0.8564  0.9400
13951SOL    HW243295   4.682   3.290   1.544  0.1324 -0.3033  0.3974
13952SOL     OW43296   6.474   1.765   4.925  0.5211  0.3391 -0.0034
13952SOL    HW143297   6.471   1.799   5.014  0.5624  2.7045 -0.8467
13952SOL    HW243298   6.405   1.813   4.879 -2.1378 -3.4487 -0.4945
13953SOL     OW43299   5.731   3.246   3.737 -0.0978 -0.2378  0.7335
13953SOL    HW143300   5.658   3.291   3.780 -0.7848 -1.5406  0.9876
13953SOL    HW243301   5.693   3.163   3.707  0.8643 -0.2000 -0.6675
13954SOL     OW43302   2.739   2.910   3.553  0.2426 -0.1042 -0.5850
13954SOL    HW143303   2.704   2.864   3.629 -2.1823  0.0421 -1.5139
13954SOL    HW243304   2.743   3.001   3.580  0.6188 -0.2224 -0.2335
13955SOL     OW43305   6.058   3.046   6.566  0.3910 -0.7407 -0.1288
13955SOL    HW143306   5.969   3.044   6.603  0.4798  1.9600  0.4379
13955SOL    HW243307   6.094   2.960   6.587 -1.1095 -0.9024  2.2047
13956SOL     OW43308   6.168   2.733   5.784  0.2123  0.0295 -0.6940
13956SOL    HW143309   6.157   2.715   5.691 -0.0235 -1.2652 -0.4301
13956SOL    HW243310   6.213   2.656   5.819 -0.8099 -0.0702  0.4943
13957SOL     OW43311   5.987   3.269   5.226 -0.1167  0.4739  0.0022
13957SOL    HW143312   5.959   3.347   5.273  0.4324  1.1410 -0.7644
13957SOL    HW243313   5.938   3.271   5.144 -1.7658 -1.1671  0.8532
13958SOL     OW43314   4.607   2.322   3.934  0.0251  0.0536 -0.1552
13958SOL    HW143315   4.588   2.354   4.022 -0.2670  1.9152 -0.8439
13958SOL    HW243316   4.530   2.345   3.883  0.4197 -0.5035 -1.0177
13959SOL     OW43317   3.480   3.240   3.305  0.2620  0.4077 -0.7912
13959SOL    HW143318   3.431   3.170   3.349  2.0759 -0.1367  0.5028
13959SOL    HW243319   3.439   3.321   3.336 -1.5740 -0.0315 -1.9561
13960SOL     OW43320   3.939   3.761   5.323  0.0538  0.2450  0.0018
13960SOL    HW143321   4.000   3.789   5.392 -0.5136  0.8794  0.2652
13960SOL    HW243322   3.941   3.832   5.259 -1.2722  0.8489  0.5896
13961SOL     OW43323   5.831   7.374   2.930 -0.1411  0.9743 -0.7273
13961SOL    HW143324   5.893   7.301   2.922 -1.4704 -0.6392  2.2356
13961SOL    HW243325   5.864   7.425   3.003 -2.7255 -0.5864  1.7303
13962SOL     OW43326   6.018   3.157   6.138  0.4495  0.4565  0.0536
13962SOL    HW143327   5.950   3.153   6.206  0.0520  2.0539 -0.2009
13962SOL    HW243328   6.100   3.149   6.185  0.1381 -1.7879  0.3434
13963SOL     OW43329   5.809   3.507   2.065 -0.0352 -0.4660 -0.0597
13963SOL    HW143330   5.800   3.583   2.008 -0.0248  0.0099  0.5555
13963SOL    HW243331   5.889   3.464   2.036  0.1111 -0.0810 -0.2283
13964SOL     OW43332   5.360   0.139   3.819 -0.2947 -0.4097  0.0860
13964SOL    HW143333   5.447   0.142   3.859  0.8026 -0.7568 -2.1140
13964SOL    HW243334   5.339   0.231   3.801  1.3545 -0.4507 -2.6864
13965SOL     OW43335   4.343   2.721   5.025  0.2623  0.1465  0.1803
13965SOL    HW143336   4.311   2.811   5.036  2.7338  0.9468  1.4428
13965SOL    HW243337   4.276   2.679   4.972 -2.2270  2.0293  1.5834
13966SOL     OW43338   5.181   1.398   5.291  0.1341  0.6670 -0.4974
13966SOL    HW143339   5.213   1.481   5.324  0.5171 -0.0039  0.8882
13966SOL    HW243340   5.161   1.415   5.199  0.3211  2.2437 -0.2753
13967SOL     OW43341   5.802   3.959   4.628 -0.2475 -0.0330  0.9927
13967SOL    HW143342   5.707   3.972   4.622  0.0278  1.5641 -1.9884
13967SOL    HW243343   5.836   4.040   4.665  0.1481  1.0377 -1.4990
13968SOL     OW43344   2.758   1.730   4.933 -0.1831  0.4958  0.0105
13968SOL    HW143345   2.710   1.698   4.857 -0.1716 -0.3724  0.3553
13968SOL    HW243346   2.831   1.668   4.942 -0.3727  0.3967  0.9166
13969SOL     OW43347   3.891   0.834   6.220 -0.7034 -0.1284  0.2230
13969SOL    HW143348   3.841   0.789   6.152  1.3495  0.4385 -1.7950
13969SOL    HW243349   3.855   0.922   6.223  1.1110  0.8031 -2.4306
13970SOL     OW43350   3.567   1.557   5.434  0.3925 -0.0451  0.2098
13970SOL    HW143351   3.541   1.647   5.452  0.4538  0.0327 -0.0900
13970SOL    HW243352   3.605   1.560   5.346 -2.4059 -0.8850 -1.1506
13971SOL     OW43353   4.393   2.416   3.787  0.0506  0.3362  0.0020
13971SOL    HW143354   4.403   2.411   3.692 -0.0807  0.1271 -0.0024
13971SOL    HW243355   4.367   2.506   3.804  1.4127  0.7510 -0.0328
13972SOL     OW43356   4.010   7.866   4.641 -0.2175  0.2168 -0.3293
13972SOL    HW143357   4.005   7.777   4.608 -0.2684  0.0763  0.0531
13972SOL    HW243358   3.986   7.859   4.734  1.6197  0.3324  0.1976
13973SOL     OW43359   4.625   3.139   5.103  0.5319 -0.2520 -0.0360
13973SOL    HW143360   4.630   3.223   5.058  0.3122  0.0146  0.4281
13973SOL    HW243361   4.571   3.156   5.180  1.6513 -0.4849  0.8214
13974SOL     OW43362   7.136   2.491   4.338  0.3678 -0.2064  0.0674
13974SOL    HW143363   7.070   2.528   4.278 -0.2268 -1.0946  0.1555
13974SOL    HW243364   7.175   2.568   4.380  0.2833  0.4000 -0.9198
13975SOL     OW43365   4.305   2.809   5.996  0.0368  0.3408 -0.4321
13975SOL    HW143366   4.387   2.847   6.026 -0.2344  0.9472 -0.4435
13975SOL    HW243367   4.238   2.872   6.023 -0.5801 -0.7865  0.7715
13976SOL     OW43368   5.423   3.508   2.155 -0.2336  0.3398 -0.3235
13976SOL    HW143369   5.454   3.437   2.099 -1.0606 -0.1040 -0.2499
13976SOL    HW243370   5.338   3.477   2.187 -0.6525  1.4036 -0.3627
13977SOL     OW43371   4.448   1.295   4.747 -0.4093  0.0187  0.0868
13977SOL    HW143372   4.384   1.260   4.809 -1.0260  0.8506 -0.0667
13977SOL    HW243373   4.512   1.341   4.801 -0.3299 -0.2102  0.1880
13978SOL     OW43374   5.687   2.799   2.589 -0.2024 -0.0869 -0.4542
13978SOL    HW143375   5.765   2.818   2.537  0.1485  1.6253  0.6266
13978SOL    HW243376   5.648   2.885   2.607 -1.3195 -0.7689  0.5777
13979SOL     OW43377   3.192   2.109   5.443  0.0186 -0.7604 -0.3754
13979SOL    HW143378   3.189   2.204   5.435  0.2534 -0.7602 -0.4857
13979SOL    HW243379   3.159   2.077   5.359 -1.9714 -0.7984  0.3677
13980SOL     OW43380   4.216   3.156   4.741  0.4618 -0.0546 -0.0170
13980SOL    HW143381   4.163   3.235   4.744  0.7487  0.1689 -0.6454
13980SOL    HW243382   4.210   3.127   4.650  2.2279  0.5408 -0.3569
13981SOL     OW43383   4.939   2.077   4.306 -0.2606  0.1460  0.5440
13981SOL    HW143384   4.887   2.093   4.227  2.1972 -3.3366 -2.0888
13981SOL    HW243385   5.013   2.137   4.298  0.1827 -0.4691 -0.0459
13982SOL     OW43386   4.081   2.565   5.543 -0.3746  0.4186 -0.0561
13982SOL    HW143387   4.151   2.612   5.589 -0.7334  1.6655 -0.7432
13982SOL    HW243388   4.002   2.583   5.594 -0.5637  0.8064 -0.4818
13983SOL     OW43389   4.536   1.350   4.440  0.1091 -0.2780  0.0009
13983SOL    HW143390   4.504   1.440   4.446  1.0718  0.0079  1.7724
13983SOL    HW243391   4.522   1.314   4.528  0.9669 -1.4104 -0.3009
13984SOL     OW43392   4.772   1.297   4.845 -0.6582 -0.6564  0.0126
13984SOL    HW143393   4.813   1.283   4.931  1.1055  1.4674 -0.3947
13984SOL    HW243394   4.692   1.347   4.864 -0.2112 -0.0869  0.4235
13985SOL     OW43395   4.980   2.376   2.984 -0.0536 -0.9389 -0.3203
13985SOL    HW143396   4.943   2.463   2.973  0.4976 -0.5621  0.6712
13985SOL    HW243397   4.934   2.322   2.919 -0.3133  0.1005 -1.0342
13986SOL     OW43398   4.537   0.183   4.690 -0.6263 -0.4345  0.4147
13986SOL    HW143399   4.577   0.265   4.662  1.0530 -1.7062 -1.1614
13986SOL    HW243400   4.538   0.128   4.612 -0.2521 -2.4942  1.7860
13987SOL     OW43401   4.462   2.026   3.955  0.2417  0.0394  0.3340
13987SOL    HW143402   4.512   1.957   3.998  1.9021  0.4793 -0.7498
13987SOL    HW243403   4.510   2.106   3.976  1.2963  0.2585 -2.3982
13988SOL     OW43404   5.164   2.853   5.351  0.5053 -0.4149 -0.5486
13988SOL    HW143405   5.077   2.832   5.316 -0.2067  2.9822 -1.1462
13988SOL    HW243406   5.150   2.861   5.445  0.6408 -1.7205 -0.3988
13989SOL     OW43407   7.019   1.656   2.752  0.8430 -0.9947 -0.3057
13989SOL    HW143408   7.094   1.596   2.745  2.0520  0.5567 -1.3971
13989SOL    HW243409   7.022   1.689   2.841  2.3307  0.0623 -0.7059
13990SOL     OW43410   4.942   2.891   3.813  0.8958  0.6758  0.0288
13990SOL    HW143411   4.979   2.866   3.728 -0.1720  0.4630 -0.3905
13990SOL    HW243412   4.847   2.886   3.801  0.7140  1.0870  1.1069
13991SOL     OW43413   4.923   0.114   3.042  0.4087 -0.1825  0.0915
13991SOL    HW143414   4.962   0.126   3.129  3.3967  0.2759 -1.1877
13991SOL    HW243415   4.971   0.175   2.985 -1.5118 -0.4057 -1.8833
13992SOL     OW43416   3.259   3.050   4.496 -0.7275 -0.4245 -0.3161
13992SOL    HW143417   3.303   2.993   4.560  1.3027  0.6868 -0.6259
13992SOL    HW243418   3.318   3.126   4.488 -1.8978  0.3516 -2.0745
13993SOL     OW43419   4.690   1.512   5.229  0.2058 -0.3440 -0.2555
13993SOL    HW143420   4.633   1.586   5.248  1.6931  1.5047 -2.4062
13993SOL    HW243421   4.757   1.515   5.297  0.8301  1.0046 -0.8841
13994SOL     OW43422   5.294   2.047   3.554 -0.6286 -0.1300  0.6682
13994SOL    HW143423   5.274   1.953   3.546 -1.6429  0.1245 -0.0803
13994SOL    HW243424   5.215   2.090   3.523 -0.2127  0.9860  1.1231
13995SOL     OW43425   4.507   1.118   4.317 -0.2127  0.5246  0.0595
13995SOL    HW143426   4.526   1.210   4.331 -1.3993  0.8132 -0.1662
13995SOL    HW243427   4.511   1.079   4.404 -0.4961  0.9388  0.2591
13996SOL     OW43428   4.694   3.506   5.499 -0.0978  0.7966 -0.9967
13996SOL    HW143429   4.611   3.545   5.527 -0.7638 -0.5512 -1.0230
13996SOL    HW243430   4.758   3.576   5.510 -1.1386  1.6988 -0.4619
13997SOL     OW43431   5.166   2.848   2.290  0.5251  0.1896  0.8602
13997SOL    HW143432   5.128   2.762   2.273 -2.0414  1.3775  0.0538
13997SOL    HW243433   5.215   2.868   2.210 -0.9847  0.4921 -0.0213
13998SOL     OW43434   5.146   3.880   3.719  0.0902 -0.0360  0.2161
13998SOL    HW143435   5.161   3.974   3.714  1.8469 -0.3271 -2.1913
13998SOL    HW243436   5.052   3.871   3.735 -0.4776  2.1439 -1.4079
13999SOL     OW43437   4.822   2.860   4.829 -0.1799 -0.3764 -1.0754
13999SOL    HW143438   4.742   2.878   4.779  0.6192  2.9600 -1.3408
13999SOL    HW243439   4.791   2.847   4.919 -1.1200 -0.3114 -1.3777
14000SOL     OW43440   4.885   1.661   3.281  0.7374 -0.5936  0.2271
14000SOL    HW143441   4.945   1.592   3.309  0.8035 -0.5804  0.1157
14000SOL    HW243442   4.816   1.660   3.348 -0.3936 -2.1901 -0.8723
14001SOL     OW43443   5.620   2.751   4.956  0.3347  0.4738 -0.5298
14001SOL    HW143444   5.576   2.818   4.903  0.7646  1.8065  0.7225
14001SOL    HW243445   5.695   2.724   4.902  0.1370  0.9818 -1.0720
14002SOL     OW43446   5.505   3.019   5.739  0.1315  0.3107 -0.2679
14002SOL    HW143447   5.508   2.965   5.660 -0.0454  0.4450 -0.3668
14002SOL    HW243448   5.414   3.017   5.766  0.4932 -1.1307  0.9065
14003SOL     OW43449   5.598   3.137   5.458 -0.2709 -0.5034  0.5861
14003SOL    HW143450   5.690   3.120   5.480  0.2627  1.6498  0.2343
14003SOL    HW243451   5.583   3.087   5.378  0.1183 -2.0722  1.4552
14004SOL     OW43452   5.635   4.312   5.953  0.0813  0.1076  0.1922
14004SOL    HW143453   5.618   4.244   5.889  1.6286 -0.9350  0.8375
14004SOL    HW243454   5.610   4.393   5.908 -1.3875 -0.8044 -0.7356
14005SOL     OW43455   5.060   3.561   5.606  0.3890  0.4491 -0.3525
14005SOL    HW143456   5.022   3.521   5.685  0.0046 -0.2978 -0.9045
14005SOL    HW243457   5.063   3.655   5.626 -0.7121  0.3984  0.1400
14006SOL     OW43458   4.957   2.592   4.738  0.6287  0.4679 -0.3964
14006SOL    HW143459   4.893   2.661   4.756  0.3746  0.6529 -1.8746
14006SOL    HW243460   5.025   2.606   4.804 -0.2223  1.0797  0.3835
14007SOL     OW43461   4.033   2.447   4.303 -0.7347 -0.6199  0.0050
14007SOL    HW143462   3.999   2.530   4.271  4.1581  1.5292 -0.6271
14007SOL    HW243463   4.047   2.462   4.397  0.0824 -0.7360 -0.0932
14008SOL     OW43464   4.732   4.444   5.623  0.1743  0.3303  0.2874
14008SOL    HW143465   4.690   4.480   5.701  0.0229 -0.0910  0.4018
14008SOL    HW243466   4.715   4.509   5.554  0.8600  1.0101  0.7544
14009SOL     OW43467   4.329   2.187   4.204  0.0862  0.1190 -0.0502
14009SOL    HW143468   4.246   2.145   4.228  0.2815  0.0567  0.5480
14009SOL    HW243469   4.395   2.121   4.224  0.3535  0.5064  0.3665
14010SOL     OW43470   4.006   1.018   3.914  0.1228 -0.3231  0.4492
14010SOL    HW143471   4.093   1.023   3.875 -0.1580  0.5083 -0.1060
14010SOL    HW243472   3.979   1.109   3.924 -0.0750 -0.5312  2.0339
14011SOL     OW43473   4.726   0.453   5.047  0.1360  0.4435 -0.8612
14011SOL    HW143474   4.692   0.505   4.974 -0.1080  0.2744 -0.8670
14011SOL    HW243475   4.650   0.434   5.101  0.6398  2.6459  0.7760
14012SOL     OW43476   3.367   2.777   4.982 -0.4833 -0.3815  0.0751
14012SOL    HW143477   3.362   2.846   5.049 -0.4398  0.0324 -0.3455
14012SOL    HW243478   3.333   2.818   4.903 -1.6278 -1.2245  0.1053
14013SOL     OW43479   3.222   2.257   4.460 -0.1625 -0.1326 -0.4004
14013SOL    HW143480   3.174   2.283   4.382 -0.7090  1.4884  0.4329
14013SOL    HW243481   3.290   2.324   4.469 -0.5682  0.1291  0.9028
14014SOL     OW43482   6.155   3.005   3.276  0.2712  0.9465  0.0753
14014SOL    HW143483   6.248   2.997   3.297  0.2730 -0.2593 -0.2903
14014SOL    HW243484   6.152   2.999   3.181 -0.1528  1.3598  0.0618
14015SOL     OW43485   5.225   3.858   5.195  0.4984 -0.2757  0.0092
14015SOL    HW143486   5.212   3.911   5.274 -0.0619 -0.7006  0.2064
14015SOL    HW243487   5.152   3.883   5.138  0.2269 -0.8343  0.1059
14016SOL     OW43488   5.787   1.881   3.721  0.0519  0.6318  0.7443
14016SOL    HW143489   5.837   1.957   3.751 -1.0373  1.9998 -0.7843
14016SOL    HW243490   5.711   1.878   3.780  0.8141 -0.1643  1.7123
14017SOL     OW43491   3.913   3.504   5.227  0.3196 -0.0696 -0.2162
14017SOL    HW143492   3.917   3.593   5.263 -0.6719 -0.0079 -0.2426
14017SOL    HW243493   3.963   3.451   5.290  0.3039  0.3836  0.1839
14018SOL     OW43494   4.338   3.407   5.091 -0.0552  0.3986  0.1297
14018SOL    HW143495   4.327   3.333   5.031  0.2012 -0.4527  1.0938
14018SOL    HW243496   4.254   3.452   5.091 -1.6945 -2.2843  2.5791
14019SOL     OW43497   5.136   1.922   5.464 -0.1190 -0.4550  0.0302
14019SOL    HW143498   5.213   1.922   5.521  0.2292  0.6567 -0.4044
14019SOL    HW243499   5.073   1.864   5.507  0.8854 -1.2341  0.4905
14020SOL     OW43500   5.598   1.216   5.111  0.1431 -0.5299  0.5281
14020SOL    HW143501   5.533   1.237   5.045  0.0605 -0.3214  0.6738
14020SOL    HW243502   5.556   1.239   5.194  0.7384  0.4778  0.5672
14021SOL     OW43503   3.727   1.065   5.591  0.2379 -0.5696  0.0617
14021SOL    HW143504   3.660   1.099   5.651  0.9270 -0.7698  0.9531
14021SOL    HW243505   3.758   1.143   5.544 -1.9210 -0.6884 -1.7688
14022SOL     OW43506   4.291   2.078   3.751 -0.3209  0.3198  0.4694
14022SOL    HW143507   4.287   2.167   3.787  0.6872  0.7982 -0.5133
14022SOL    HW243508   4.368   2.040   3.792  0.2119  0.4978 -0.3323
14023SOL     OW43509   4.781   2.915   2.936 -0.1299  0.1975  0.2747
14023SOL    HW143510   4.697   2.909   2.982 -0.4900 -1.4887 -0.5407
14023SOL    HW243511   4.764   2.970   2.860 -0.7833 -0.9859 -0.4523
14024SOL     OW43512   6.947   2.608   4.193  0.0541 -0.3799 -0.0409
14024SOL    HW143513   6.946   2.703   4.196  0.8341 -0.3748  0.2206
14024SOL    HW243514   6.862   2.582   4.228  0.1333  0.2074  0.5994
14025SOL     OW43515   4.384   2.845   4.329  0.4066 -0.3977  0.5492
14025SOL    HW143516   4.350   2.907   4.393  0.0353  0.7111 -0.6785
14025SOL    HW243517   4.479   2.850   4.337  0.3553 -0.7477  1.4376
14026SOL     OW43518   3.413   2.846   4.099 -0.3092  0.5445  0.4908
14026SOL    HW143519   3.342   2.854   4.163 -0.0925  2.2182  0.5565
14026SOL    HW243520   3.475   2.915   4.123  1.0207 -0.4370  0.0084
14027SOL     OW43521   4.888   1.995   5.678 -0.1583 -0.1409  0.1393
14027SOL    HW143522   4.951   1.956   5.738 -0.2919 -0.1911  0.2453
14027SOL    HW243523   4.834   2.051   5.733 -0.7124 -0.7057  0.1757
14028SOL     OW43524   4.896   1.321   5.962 -0.2146  0.5116  0.3461
14028SOL    HW143525   4.832   1.351   6.025 -1.2252 -0.3176 -0.2461
14028SOL    HW243526   4.896   1.388   5.893  0.2582  0.9802  0.7915
14029SOL     OW43527   4.548   0.905   4.098 -0.0556 -0.1884 -0.1708
14029SOL    HW143528   4.515   0.847   4.167  2.5068 -0.5350  0.9010
14029SOL    HW243529   4.547   0.992   4.138  1.5640 -0.4096  0.4292
14030SOL     OW43530   6.732   2.467   2.690 -0.3220  0.4725 -0.1068
14030SOL    HW143531   6.757   2.508   2.607 -0.6222 -0.8016 -0.8636
14030SOL    HW243532   6.704   2.539   2.746 -0.2280  1.3474 -1.1608
14031SOL     OW43533   4.483   3.393   2.368 -0.3470 -0.0807  0.0271
14031SOL    HW143534   4.534   3.471   2.348 -0.5326  0.2117  0.6756
14031SOL    HW243535   4.443   3.411   2.453  1.6243 -1.8493  1.4546
14032SOL     OW43536   4.204   1.735   5.159  0.1206  0.0031 -0.2333
14032SOL    HW143537   4.157   1.817   5.142  0.0444  0.0090  0.0066
14032SOL    HW243538   4.151   1.668   5.116  0.0344  0.0437 -0.1903
14033SOL     OW43539   4.696   3.016   5.458  0.1733  0.6828  0.3037
14033SOL    HW143540   4.626   3.004   5.522  0.7455 -0.0361  0.8102
14033SOL    HW243541   4.663   3.084   5.399 -1.5552 -0.6370 -0.3280
14034SOL     OW43542   2.938   0.296   6.350  0.0526 -0.3701 -0.4261
14034SOL    HW143543   2.851   0.328   6.373  0.4320  1.4782 -1.3334
14034SOL    HW243544   2.934   0.202   6.364 -1.6677 -0.1527  0.8416
14035SOL     OW43545   4.733   1.028   4.772  0.0287 -0.4939  0.0150
14035SOL    HW143546   4.791   1.009   4.699 -1.2194 -0.5346 -0.9911
14035SOL    HW243547   4.751   1.119   4.795 -0.3331 -0.1540 -1.0403
14036SOL     OW43548   5.629   1.906   3.464 -0.4560 -0.2123  0.1627
14036SOL    HW143549   5.700   1.895   3.401 -1.0335 -0.3355 -0.4867
14036SOL    HW243550   5.673   1.919   3.548  0.3223 -0.9881 -0.1081
14037SOL     OW43551   5.981   2.193   5.563  0.1309 -0.1225 -0.4565
14037SOL    HW143552   5.915   2.175   5.496 -0.8069  0.5492  0.2577
14037SOL    HW243553   6.060   2.215   5.514  0.3520 -2.6454 -1.3433
14038SOL     OW43554   4.305   2.264   4.565  0.7430 -0.4604 -1.1621
14038SOL    HW143555   4.333   2.339   4.512  1.5761 -0.4166 -0.6813
14038SOL    HW243556   4.210   2.271   4.568  0.6664 -0.5361 -2.7398
14039SOL     OW43557   3.687   2.494   4.513 -0.0062  0.3027 -0.3237
14039SOL    HW143558   3.767   2.444   4.525  0.2009  0.3746 -1.3498
14039SOL    HW243559   3.716   2.585   4.508 -0.4347  0.6537  2.1870
14040SOL     OW43560   5.767   3.256   3.378  0.0665 -0.3780 -0.1985
14040SOL    HW143561   5.813   3.325   3.426 -0.8248 -1.4771  2.4266
14040SOL    HW243562   5.814   3.176   3.400 -0.6852 -1.0001 -0.7926
14041SOL     OW43563   4.503   3.182   3.339 -0.3931  0.4797 -0.3006
14041SOL    HW143564   4.432   3.199   3.277 -0.9823 -1.0824 -0.0981
14041SOL    HW243565   4.554   3.263   3.339 -1.8895  1.4752 -0.8117
14042SOL     OW43566   3.597   4.259   4.496  0.1755  0.3887 -0.1847
14042SOL    HW143567   3.512   4.248   4.538 -0.3572  0.9159 -1.0949
14042SOL    HW243568   3.600   4.352   4.473  1.4193  0.5990  0.6985
14043SOL     OW43569   3.840   3.041   4.571 -0.0363  0.2086 -0.4294
14043SOL    HW143570   3.931   3.059   4.547 -0.2852  0.6412 -1.0948
14043SOL    HW243571   3.800   3.128   4.582 -1.0951  0.1438 -3.0501
14044SOL     OW43572   4.403   2.412   4.361 -0.0182  0.2645  0.4149
14044SOL    HW143573   4.342   2.486   4.359 -2.2734 -1.4880 -0.3643
14044SOL    HW243574   4.391   2.368   4.277  3.3675  0.5269 -0.3460
14045SOL     OW43575   4.627   1.244   5.297 -0.3863 -0.0768 -0.1123
14045SOL    HW143576   4.685   1.313   5.266  1.1088 -1.1345  0.2432
14045SOL    HW243577   4.656   1.225   5.386 -1.5261 -0.3859  0.2197
14046SOL     OW43578   4.486   1.767   6.534  0.3211 -0.2046 -0.0054
14046SOL    HW143579   4.498   1.697   6.470  0.8533  0.2336 -0.3944
14046SOL    HW243580   4.571   1.777   6.577  0.5945  0.9610 -0.7545
14047SOL     OW43581   5.348   3.936   6.119 -1.0841  0.9197  0.3592
14047SOL    HW143582   5.291   4.009   6.095  1.0906  2.9224  0.9868
14047SOL    HW243583   5.375   3.955   6.209 -0.1339 -0.4489  0.4004
14048SOL     OW43584   5.781   2.762   2.974  0.2091  0.7729  0.1765
14048SOL    HW143585   5.752   2.848   3.006  2.3515  1.3712  0.6317
14048SOL    HW243586   5.847   2.782   2.908  1.2513 -0.5090  0.7895
14049SOL     OW43587   4.891   3.781   5.307  0.3709 -0.1103 -0.3713
14049SOL    HW143588   4.812   3.795   5.256  0.1395  1.2644  0.3269
14049SOL    HW243589   4.864   3.792   5.398  1.5263  1.3792 -0.1674
14050SOL     OW43590   3.748   1.703   4.908 -0.3341 -0.0337  0.3249
14050SOL    HW143591   3.697   1.761   4.965  0.0587  0.2916  0.3423
14050SOL    HW243592   3.831   1.748   4.896 -0.6141  0.1700 -0.9646
14051SOL     OW43593   4.357   1.383   7.014  0.3980 -0.5125 -0.0911
14051SOL    HW143594   4.321   1.311   6.963  0.0403 -0.8069  0.5677
14051SOL    HW243595   4.426   1.420   6.959 -0.0280 -0.7814 -0.8101
14052SOL     OW43596   3.673   1.104   3.794 -0.6218  0.3687 -0.4585
14052SOL    HW143597   3.588   1.104   3.750  0.7038 -0.1069 -3.2488
14052SOL    HW243598   3.732   1.148   3.733  1.1770  0.7000  1.3888
14053SOL     OW43599   4.581   2.629   5.151  0.1183 -0.1901 -0.2174
14053SOL    HW143600   4.608   2.721   5.153 -0.9317  0.1233  0.6937
14053SOL    HW243601   4.487   2.632   5.130  0.0826 -1.0433 -0.2156
14054SOL     OW43602   6.005   3.576   3.169 -0.0860  0.2223  0.5467
14054SOL    HW143603   5.932   3.574   3.106 -0.3254  1.7811  0.7507
14054SOL    HW243604   6.062   3.646   3.137 -1.1983  2.4389  3.0768
14055SOL     OW43605   3.873   1.831   5.569  0.4726 -0.3111 -0.1859
14055SOL    HW143606   3.780   1.852   5.575  0.3151 -0.1450 -2.5225
14055SOL    HW243607   3.917   1.915   5.585  0.0748  0.3630 -2.3866
14056SOL     OW43608   6.823   2.576   4.563  0.6620  0.5187 -0.6321
14056SOL    HW143609   6.755   2.635   4.533  1.0996  0.5860 -1.5322
14056SOL    HW243610   6.810   2.570   4.658 -0.7874  0.2635 -0.8242
14057SOL     OW43611   3.399   2.176   5.177  0.0585  0.0913 -0.0980
14057SOL    HW143612   3.425   2.233   5.249 -1.1392  0.8862 -0.2637
14057SOL    HW243613   3.432   2.090   5.201  1.1053  0.6649  0.5951
14058SOL     OW43614   4.595   3.020   4.826  0.0328  0.0331 -0.1203
14058SOL    HW143615   4.634   2.984   4.906  0.7628 -0.7582 -0.8117
14058SOL    HW243616   4.559   3.105   4.853  1.5185  0.4287  0.7578
14059SOL     OW43617   5.365   2.342   3.444 -0.4221  0.3147  0.6564
14059SOL    HW143618   5.429   2.413   3.450 -0.2142  0.0761  1.3889
14059SOL    HW243619   5.413   2.269   3.405 -0.2198  0.1104  1.2801
14060SOL     OW43620   6.415   4.330   3.068  0.0926  0.0117 -0.2814
14060SOL    HW143621   6.384   4.325   3.159 -1.0098  0.8596 -0.5904
14060SOL    HW243622   6.344   4.293   3.016  1.8602 -3.2106 -0.6527
14061SOL     OW43623   4.253   2.180   4.868 -0.3905  0.8501 -0.2780
14061SOL    HW143624   4.309   2.221   4.934  1.2935  1.4206 -1.9699
14061SOL    HW243625   4.290   2.208   4.785 -2.0476 -0.3815 -1.4966
14062SOL     OW43626   5.095   2.725   4.974 -0.5683  0.1503 -0.2531
14062SOL    HW143627   5.054   2.667   5.038  1.0890  0.1852  0.8955
14062SOL    HW243628   5.068   2.812   5.001 -2.3248  0.0206 -1.4441
14063SOL     OW43629   5.144   3.816   4.374 -0.1448  0.9121  0.0574
14063SOL    HW143630   5.202   3.741   4.387 -3.6942 -2.5383 -1.7343
14063SOL    HW243631   5.136   3.856   4.461  1.4653 -1.1401  1.2396
14064SOL     OW43632   7.207   1.611   4.883 -0.1520  0.2139  0.0487
14064SOL    HW143633   7.294   1.646   4.904  0.0926  0.5725 -1.4420
14064SOL    HW243634   7.194   1.540   4.945  2.0841 -1.1806 -0.9550
14065SOL     OW43635   5.137   3.678   3.260  0.0900  0.0413  0.6504
14065SOL    HW143636   5.140   3.768   3.230  2.2816 -0.1664  0.1064
14065SOL    HW243637   5.163   3.683   3.352 -0.4745  0.0181  0.8161
14066SOL     OW43638   7.769   2.912   4.448 -0.0817 -0.1256  0.4162
14066SOL    HW143639   7.746   2.933   4.358 -2.0434 -1.0331  0.6456
14066SOL    HW243640   7.686   2.919   4.497  0.9238  0.3492  2.1491
14067SOL     OW43641   2.422   2.247   5.248  0.2120 -0.2776 -0.3937
14067SOL    HW143642   2.504   2.255   5.297  0.0350 -0.8786  0.0085
14067SOL    HW243643   2.396   2.337   5.230  1.0241 -0.0748 -0.6374
14068SOL     OW43644   5.674   3.774   4.050 -0.1913  0.1111  0.2774
14068SOL    HW143645   5.668   3.849   3.991  0.0754  0.6596  0.9302
14068SOL    HW243646   5.696   3.812   4.135 -0.3578 -0.6816  0.6889
14069SOL     OW43647   3.060   2.968   3.876  0.4178 -0.4066  0.4594
14069SOL    HW143648   3.084   3.002   3.962  1.9719 -0.8712  0.2400
14069SOL    HW243649   3.111   2.887   3.868 -0.7076 -1.0599 -0.3682
14070SOL     OW43650   5.339   3.571   5.521 -0.0625 -0.3827  0.1311
14070SOL    HW143651   5.315   3.596   5.431  0.0188  0.2148  0.2717
14070SOL    HW243652   5.256   3.557   5.565 -0.1117 -0.3197  0.0593
14071SOL     OW43653   5.331   2.641   3.694 -0.4149 -0.3058  0.0433
14071SOL    HW143654   5.328   2.548   3.716 -2.6955 -0.7117 -1.6461
14071SOL    HW243655   5.356   2.643   3.602  0.9964  0.8719  0.4136
14072SOL     OW43656   6.009   1.209   5.928  0.6655  0.1575  0.1297
14072SOL    HW143657   6.082   1.204   5.867  1.5918 -0.8064  1.2704
14072SOL    HW243658   6.040   1.266   5.999 -0.5474  1.6233 -0.4371
14073SOL     OW43659   4.868   1.274   5.087  0.7063  0.1075  0.1155
14073SOL    HW143660   4.885   1.208   5.154  1.1177  0.1351  0.0352
14073SOL    HW243661   4.930   1.344   5.106  2.0288 -0.6233 -1.3474
14074SOL     OW43662   5.008   3.250   5.443 -0.2384 -0.8941  0.4568
14074SOL    HW143663   5.017   3.334   5.397  0.3850 -0.8143  0.7057
14074SOL    HW243664   4.937   3.265   5.506  0.8744 -0.0370  1.5643
14075SOL     OW43665   6.971   2.814   4.448 -0.0518  0.5771 -0.2414
14075SOL    HW143666   6.938   2.782   4.532 -0.3935  0.7871 -0.2952
14075SOL    HW243667   6.894   2.821   4.392  0.0284  1.3914 -0.2627
14076SOL     OW43668   4.263   1.617   4.096  0.2387  0.1316 -0.7151
14076SOL    HW143669   4.258   1.711   4.081  1.1602  0.3974  0.5090
14076SOL    HW243670   4.324   1.585   4.029 -0.7895  0.2322 -1.7330
14077SOL     OW43671   3.895   1.781   6.539  0.0577  0.6438 -0.4674
14077SOL    HW143672   3.933   1.848   6.596  0.7917  0.5097 -0.7842
14077SOL    HW243673   3.963   1.766   6.472 -0.7891  0.8367 -1.4029
14078SOL     OW43674   3.192   0.656   3.592  0.1464 -0.2906  0.1634
14078SOL    HW143675   3.140   0.624   3.665 -0.8660  1.1084  0.0938
14078SOL    HW243676   3.236   0.578   3.557  0.9121 -0.9349  2.4467
14079SOL     OW43677   4.741   3.469   3.838 -0.6320  0.7765  0.2362
14079SOL    HW143678   4.821   3.516   3.863 -0.2173 -0.9554  2.4624
14079SOL    HW243679   4.771   3.399   3.780 -0.6010  0.4812  0.6053
14080SOL     OW43680   4.673   2.226   4.894 -0.1126 -0.0232 -0.5272
14080SOL    HW143681   4.603   2.287   4.916 -0.3383  0.2834 -2.0144
14080SOL    HW243682   4.670   2.219   4.799  0.6047 -1.5431 -0.4621
14081SOL     OW43683   5.497   3.041   4.864  0.0217 -0.2356  0.1610
14081SOL    HW143684   5.421   3.045   4.921 -0.2787 -0.6953 -0.2077
14081SOL    HW243685   5.571   3.060   4.922 -0.3539  0.0762  0.5468
14082SOL     OW43686   4.112   1.841   3.706 -0.2875  0.6466 -0.7853
14082SOL    HW143687   4.150   1.929   3.713 -0.3931  0.5745  1.5227
14082SOL    HW243688   4.045   1.838   3.774  0.3901 -1.5238 -0.1121
14083SOL     OW43689   4.534   2.795   5.581  0.2220  0.2234 -0.6685
14083SOL    HW143690   4.465   2.769   5.520 -0.7162  2.5846 -0.7063
14083SOL    HW243691   4.510   2.883   5.608  1.4129 -0.1783  1.9910
14084SOL     OW43692   4.407   3.550   5.611 -0.0402  0.3078 -0.0045
14084SOL    HW143693   4.436   3.459   5.607  1.6610  0.7059  1.7648
14084SOL    HW243694   4.327   3.552   5.558 -0.5900 -2.3810  0.5755
14085SOL     OW43695   7.869   2.650   4.535 -0.0432  0.6702 -0.4735
14085SOL    HW143696   7.842   2.740   4.516 -1.4222  0.1017 -1.3995
14085SOL    HW243697   7.789   2.607   4.566  0.8300  0.0027  0.9887
14086SOL     OW43698   4.142   1.342   3.446  0.0372  0.8630  0.3854
14086SOL    HW143699   4.123   1.258   3.406 -0.6978  0.6003  1.2484
14086SOL    HW243700   4.236   1.353   3.437 -0.0470  0.6057 -0.9725
14087SOL     OW43701   3.552   2.158   3.866  0.0964  0.0382  0.1188
14087SOL    HW143702   3.625   2.117   3.912  0.7390 -0.0522 -0.9704
14087SOL    HW243703   3.559   2.127   3.776 -1.9610 -0.8984  0.2305
14088SOL     OW43704   4.689   2.557   3.625 -0.1433 -0.1055  0.0346
14088SOL    HW143705   4.775   2.514   3.628 -0.1924 -0.1779  0.4594
14088SOL    HW243706   4.627   2.485   3.634 -0.2219  0.0790  1.0236
14089SOL     OW43707   5.222   3.082   5.000  0.5258  0.5764 -0.0334
14089SOL    HW143708   5.188   3.126   5.077 -0.2308 -0.2873  0.1370
14089SOL    HW243709   5.151   3.087   4.936  1.0496  1.0543 -0.5916
14090SOL     OW43710   4.767   1.479   2.976 -0.0083 -0.1603 -0.1701
14090SOL    HW143711   4.695   1.519   2.926  0.5094 -0.5559 -1.2761
14090SOL    HW243712   4.725   1.409   3.026 -0.6367  0.6165  0.4142
14091SOL     OW43713   4.355   3.577   4.595  0.5588  0.7334 -0.3026
14091SOL    HW143714   4.341   3.647   4.658  1.3378  1.2257 -0.6531
14091SOL    HW243715   4.420   3.520   4.637  0.0429  0.3015 -0.0829
14092SOL     OW43716   4.145   1.876   4.612  0.2215  0.1335  0.1201
14092SOL    HW143717   4.173   1.896   4.522 -0.3176 -0.4099 -0.1757
14092SOL    HW243718   4.226   1.866   4.661  0.5719 -1.1911 -0.6717
14093SOL     OW43719   6.066   2.240   2.887  0.2928  0.4080  0.0018
14093SOL    HW143720   6.116   2.321   2.896  1.4357 -0.1885 -0.6652
14093SOL    HW243721   6.021   2.247   2.803  0.3756  0.3696 -0.0464
14094SOL     OW43722   5.077   3.482   4.228  0.0485  0.3802  0.1817
14094SOL    HW143723   5.117   3.502   4.313  0.1390  0.7187  0.0612
14094SOL    HW243724   5.013   3.414   4.247 -1.0418  1.5280  0.7890
14095SOL     OW43725   3.736   3.489   4.164  0.0354  0.3862  0.3383
14095SOL    HW143726   3.681   3.411   4.161  0.6885 -0.0786 -2.0522
14095SOL    HW243727   3.809   3.464   4.220  0.1662 -0.7109 -0.2767
14096SOL     OW43728   4.078   2.131   5.748 -0.1552  0.4229  0.3564
14096SOL    HW143729   4.073   2.161   5.658 -1.1043  1.6846  0.8012
14096SOL    HW243730   4.166   2.093   5.756  0.6871  2.0816 -0.5708
14097SOL     OW43731   5.050   0.729   3.461  0.5510  0.1582 -0.0160
14097SOL    HW143732   5.103   0.701   3.386  0.6983 -0.0781  0.1744
14097SOL    HW243733   5.108   0.788   3.510  0.0926  1.1490 -0.6498
14098SOL     OW43734   3.212   1.956   3.849  0.3303 -0.4574  0.0849
14098SOL    HW143735   3.277   1.887   3.865  0.6364 -0.1635  0.1255
14098SOL    HW243736   3.128   1.912   3.858  0.4954 -1.3905 -2.1828
14099SOL     OW43737   5.831   2.481   6.336  0.0190  0.6369  0.0945
14099SOL    HW143738   5.816   2.528   6.418 -0.5431 -0.4397  0.6293
14099SOL    HW243739   5.862   2.548   6.275 -0.7242  1.6866  0.8388
14100SOL     OW43740   5.400   3.482   4.127 -0.3810  0.5882  0.0822
14100SOL    HW143741   5.470   3.416   4.129 -1.9002 -1.1460 -0.9447
14100SOL    HW243742   5.439   3.559   4.169  1.6485 -0.7654  0.8573
14101SOL     OW43743   5.816   2.660   4.816  0.2982  0.2289  0.0669
14101SOL    HW143744   5.898   2.648   4.864 -0.7057  0.4644  1.9853
14101SOL    HW243745   5.840   2.656   4.724  2.4747  0.4511  0.5737
14102SOL     OW43746   3.181   2.740   6.401  0.1848 -0.0262  0.0813
14102SOL    HW143747   3.214   2.743   6.491  1.4408 -2.8069 -0.2003
14102SOL    HW243748   3.225   2.813   6.357  1.9428 -0.4749  1.0165
14103SOL     OW43749   4.239   2.913   3.209 -0.2102 -0.5036 -0.5919
14103SOL    HW143750   4.244   2.910   3.114 -0.8500  1.1345 -0.7109
14103SOL    HW243751   4.146   2.930   3.227  0.0338 -0.0592  0.2890
14104SOL     OW43752   4.486   3.990   5.488 -0.0000  0.5360  0.7526
14104SOL    HW143753   4.482   3.932   5.564  0.2800  0.4735  0.7218
14104SOL    HW243754   4.397   4.022   5.477  0.0397  0.8739  1.3650
14105SOL     OW43755   4.725   1.648   1.807  0.3020 -0.2114 -0.5251
14105SOL    HW143756   4.817   1.636   1.829  0.8879 -0.8975 -3.0806
14105SOL    HW243757   4.724   1.712   1.736 -1.5752  2.8486  2.0057
14106SOL     OW43758   5.613   2.749   2.084  0.3038 -0.2246  0.5449
14106SOL    HW143759   5.602   2.758   2.179 -0.5897  0.7770  0.3645
14106SOL    HW243760   5.525   2.732   2.051  0.7431 -1.5010 -0.0301
14107SOL     OW43761   4.801   3.259   5.621 -0.4585  0.4244 -0.0195
14107SOL    HW143762   4.716   3.216   5.627  0.0202 -0.4218  0.7663
14107SOL    HW243763   4.782   3.341   5.574 -1.2665 -0.9185 -2.1662
14108SOL     OW43764   2.947   0.090   4.720  0.3152 -0.1953  0.1126
14108SOL    HW143765   3.011   0.090   4.649  1.8809 -1.0076  1.4419
14108SOL    HW243766   2.985   0.148   4.786  1.3342 -3.0369  2.2308
14109SOL     OW43767   2.298   2.592   6.265  0.2685  0.1020 -0.4238
14109SOL    HW143768   2.361   2.634   6.207  0.3011  0.3457 -0.2148
14109SOL    HW243769   2.246   2.536   6.208 -0.3583  1.1010 -0.8630
14110SOL     OW43770   4.725   2.480   5.342  0.3521  0.1774  0.1095
14110SOL    HW143771   4.758   2.397   5.307 -0.5194 -0.5744  1.0018
14110SOL    HW243772   4.682   2.521   5.268 -1.3712 -1.3378  0.2023
14111SOL     OW43773   4.879   3.017   8.064  1.0128  0.7480  0.5511
14111SOL    HW143774   4.848   3.079   8.130  0.0577  0.7367  0.1382
14111SOL    HW243775   4.826   3.037   7.986  1.2765 -0.0332  0.1559
14112SOL     OW43776   6.582   4.224   6.973  0.2660 -0.4862  0.3077
14112SOL    HW143777   6.546   4.149   7.020  1.8911 -1.3096  0.2932
14112SOL    HW243778   6.587   4.294   7.038 -1.3695 -0.3107  0.2937
14113SOL     OW43779   6.263   4.032   6.563  0.6578 -0.7668 -0.0665
14113SOL    HW143780   6.241   4.078   6.645 -0.0463 -0.2417 -0.5336
14113SOL    HW243781   6.348   3.991   6.581 -0.2388 -2.0673  1.4959
14114SOL     OW43782   4.154   1.971   7.038  0.0742 -0.0036  0.4281
14114SOL    HW143783   4.082   2.029   7.061  0.2169  0.4571 -0.2542
14114SOL    HW243784   4.220   2.029   7.000  0.4478 -0.5426  0.2420
14115SOL     OW43785   4.943   2.268   6.301  0.2920  0.6431  0.1588
14115SOL    HW143786   4.855   2.232   6.289  0.0609  0.9985  0.7513
14115SOL    HW243787   4.955   2.273   6.396  2.3327 -2.7257  0.2448
14116SOL     OW43788   3.531   7.887   5.655 -0.2322  0.2237 -0.0906
14116SOL    HW143789   3.465   7.901   5.587 -0.4059  1.3761  0.3052
14116SOL    HW243790   3.525   7.963   5.712  0.1597 -0.5604  1.0355
14117SOL     OW43791   5.601   3.056   7.432  0.0067 -0.6078  0.1459
14117SOL    HW143792   5.517   3.014   7.452  0.5881 -1.8475  0.0784
14117SOL    HW243793   5.607   3.128   7.494 -1.3834 -0.1201 -0.2508
14118SOL     OW43794   2.299   1.444   9.185 -0.2013  0.3152  0.0468
14118SOL    HW143795   2.339   1.506   9.125 -0.1942  1.0283  0.7677
14118SOL    HW243796   2.371   1.390   9.216 -0.0488  0.5717  0.1423
14119SOL     OW43797   6.297   0.841   6.740 -0.6242 -0.6371  0.6349
14119SOL    HW143798   6.248   0.817   6.661  0.1502 -0.3295  0.0398
14119SOL    HW243799   6.375   0.886   6.706 -0.9391  0.6867  1.6317
14120SOL     OW43800   3.005   0.342   4.938 -0.5407  0.3579  0.1701
14120SOL    HW143801   3.025   0.272   5.000 -0.1205  1.1615  0.9647
14120SOL    HW243802   3.085   0.395   4.936 -1.2690  1.4992  0.5111
14121SOL     OW43803   3.899   2.890   6.536 -0.0183 -0.2950  0.3120
14121SOL    HW143804   3.964   2.957   6.514  1.1858 -1.2353  0.8350
14121SOL    HW243805   3.901   2.831   6.460 -0.7891  0.0435  0.0226
14122SOL     OW43806   5.042   1.631   7.731 -0.2706  0.1485 -0.0839
14122SOL    HW143807   4.949   1.647   7.720 -0.3504 -1.3069 -2.3762
14122SOL    HW243808   5.069   1.690   7.801 -2.9131  0.5105  0.7482
14123SOL     OW43809   5.238   1.447   8.882  0.2607 -0.1432 -0.9878
14123SOL    HW143810   5.174   1.393   8.837  0.6557 -0.8985 -0.6601
14123SOL    HW243811   5.212   1.442   8.974 -0.4493  1.2560 -1.0881
14124SOL     OW43812   1.996   0.325   6.073  0.3914 -0.1804  0.0111
14124SOL    HW143813   2.081   0.316   6.029  0.0221  0.7608 -0.9250
14124SOL    HW243814   1.964   0.235   6.082  0.8479 -0.4459 -0.9179
14125SOL     OW43815   6.676   3.432   5.101  0.1836  0.1020 -0.4940
14125SOL    HW143816   6.616   3.407   5.171 -0.3367 -0.2322 -1.0536
14125SOL    HW243817   6.736   3.494   5.142  0.0298 -0.2718  0.3076
14126SOL     OW43818   5.742   3.060   5.002 -0.0824 -0.7611  0.3464
14126SOL    HW143819   5.789   3.132   5.044 -0.9962 -0.3797  0.7342
14126SOL    HW243820   5.810   3.012   4.954  0.5778  0.2216  0.2700
14127SOL     OW43821   5.197   3.091   7.023  0.1029 -0.2237  0.5360
14127SOL    HW143822   5.268   3.115   7.082 -0.9624 -0.1416  1.8225
14127SOL    HW243823   5.169   3.174   6.984  1.1242 -0.3356 -0.5053
14128SOL     OW43824   6.609   0.942   5.831  0.2848 -0.3087  0.1965
14128SOL    HW143825   6.534   0.990   5.865 -0.5069 -2.5612  1.8946
14128SOL    HW243826   6.600   0.854   5.867  3.4847 -0.8281  0.0728
14129SOL     OW43827   5.909   3.411   9.359 -0.3086  0.1690  0.3588
14129SOL    HW143828   5.975   3.381   9.296 -0.0521 -1.9873  1.5512
14129SOL    HW243829   5.860   3.479   9.312  2.6311  1.7945 -0.6142
14130SOL     OW43830   3.137   2.151   4.183 -0.2739 -0.3169  0.3888
14130SOL    HW143831   3.225   2.180   4.204  0.6342 -2.0320 -0.8334
14130SOL    HW243832   3.148   2.089   4.110 -2.6773  1.0622 -1.3105
14131SOL     OW43833   3.277   2.924   8.025  0.5155 -0.0256 -0.0865
14131SOL    HW143834   3.327   2.992   8.072  0.0786  0.1645  0.1129
14131SOL    HW243835   3.343   2.861   7.997  0.8487  0.1319  0.3262
14132SOL     OW43836   5.608   3.164   8.100 -0.2179 -0.3164 -0.6312
14132SOL    HW143837   5.625   3.097   8.033 -1.8059  0.1253 -1.5116
14132SOL    HW243838   5.572   3.115   8.173  0.6386 -0.6792 -0.4323
14133SOL     OW43839   4.731   1.582   6.693  0.3201  0.4553  0.1655
14133SOL    HW143840   4.762   1.637   6.621  1.1923 -0.4393 -0.1800
14133SOL    HW243841   4.809   1.565   6.746  0.3158 -1.2195 -0.2924
14134SOL     OW43842   5.077   2.955   7.357  0.4092 -0.1502 -0.0058
14134SOL    HW143843   5.133   2.920   7.289  0.8475  2.6572 -1.2086
14134SOL    HW243844   5.021   2.881   7.382  1.5430 -1.7818 -1.9868
14135SOL     OW43845   5.265   3.754   5.956 -0.1188 -0.5522 -0.0197
14135SOL    HW143846   5.181   3.797   5.936  1.1160  1.0671 -2.0849
14135SOL    HW243847   5.306   3.811   6.020  1.4899  1.5946 -2.7109
14136SOL     OW43848   3.688   2.376   7.444 -0.1966  0.0077 -0.2400
14136SOL    HW143849   3.750   2.448   7.433 -0.1483  0.2930  1.6084
14136SOL    HW243850   3.738   2.308   7.489 -1.1551  0.2144  1.2173
14137SOL     OW43851   6.160   1.952   7.773  0.1668  0.5795 -0.6483
14137SOL    HW143852   6.105   1.959   7.695 -0.7602 -4.2405 -0.6932
14137SOL    HW243853   6.099   1.933   7.844  1.4117  0.1056  0.3225
14138SOL     OW43854   6.269   4.363   5.234 -0.1214 -0.6928 -0.0542
14138SOL    HW143855   6.223   4.447   5.225 -2.0875 -1.5510  1.2706
14138SOL    HW243856   6.317   4.371   5.316 -0.8342 -1.0925  0.4025
14139SOL     OW43857   6.001   0.313   8.256 -0.1104 -0.1750  0.4857
14139SOL    HW143858   5.924   0.369   8.266 -0.1421 -0.0436 -0.4117
14139SOL    HW243859   5.980   0.234   8.305 -0.2389  0.4277  1.4186
14140SOL     OW43860   6.228   4.368   5.830  0.1719 -0.2446  0.1027
14140SOL    HW143861   6.187   4.361   5.744 -0.1131 -0.7441  0.2744
14140SOL    HW243862   6.175   4.312   5.886  0.6758 -0.3480  0.4823
14141SOL     OW43863   4.681   2.664   6.587 -0.1327  0.3768 -0.3616
14141SOL    HW143864   4.776   2.670   6.591  0.1330 -2.6041  2.5557
14141SOL    HW243865   4.652   2.697   6.672 -1.5175 -0.5213 -0.4575
14142SOL     OW43866   3.483   2.303   7.601 -0.1943 -0.1462 -0.1868
14142SOL    HW143867   3.562   2.331   7.555  0.1184  0.7036  0.8222
14142SOL    HW243868   3.451   2.382   7.644 -1.1005 -0.6710  0.1267
14143SOL     OW43869   4.846   2.449   6.911 -0.2908  0.2020  0.4394
14143SOL    HW143870   4.829   2.406   6.827 -1.5920 -0.9361  1.2398
14143SOL    HW243871   4.931   2.414   6.938 -0.5030 -0.5102  0.2335
14144SOL     OW43872   3.261   2.226   6.199  0.0462  0.2103 -0.4047
14144SOL    HW143873   3.350   2.201   6.224 -0.7677 -1.3498  1.1112
14144SOL    HW243874   3.231   2.282   6.271 -0.8992 -0.9749  0.1531
14145SOL     OW43875   4.008   4.340   6.463  0.4733  0.1197 -0.1653
14145SOL    HW143876   3.923   4.299   6.446  0.5670  0.2963 -1.0923
14145SOL    HW243877   4.035   4.304   6.548 -1.0926  0.9925  0.7469
14146SOL     OW43878   4.959   2.931   6.179 -0.1366 -0.1047 -0.2280
14146SOL    HW143879   4.883   2.875   6.162 -0.4499 -0.1686  1.1900
14146SOL    HW243880   5.004   2.937   6.095 -1.0799 -1.0097 -0.8301
14147SOL     OW43881   4.963   1.831   9.067  0.6553 -0.1640 -0.5263
14147SOL    HW143882   4.921   1.755   9.026 -0.5500  0.6924 -0.9068
14147SOL    HW243883   4.965   1.810   9.161 -0.2416 -0.4082 -0.5536
14148SOL     OW43884   5.615   3.512   6.340 -0.1258 -0.3950 -0.1893
14148SOL    HW143885   5.561   3.495   6.418  0.1248  1.3408  0.4007
14148SOL    HW243886   5.557   3.491   6.267 -0.5337 -1.5884  0.4432
14149SOL     OW43887   4.640   2.192   6.264  0.1626  0.4810  0.3545
14149SOL    HW143888   4.549   2.198   6.293 -0.3669 -1.3733 -0.7517
14149SOL    HW243889   4.645   2.255   6.191  0.0769  1.3452  1.0753
14150SOL     OW43890   5.506   4.375   7.865  0.6119 -1.0045  0.2784
14150SOL    HW143891   5.451   4.302   7.835 -1.9683  1.5614 -1.8095
14150SOL    HW243892   5.454   4.417   7.934  0.4275  0.7932 -0.9128
14151SOL     OW43893   6.067   2.452   7.403 -0.2666  0.1743 -0.0632
14151SOL    HW143894   6.061   2.435   7.497 -1.4295 -1.2025 -0.3523
14151SOL    HW243895   6.015   2.532   7.389  0.0804  0.4981  0.4736
14152SOL     OW43896   3.865   2.680   6.323 -0.3671 -0.2068 -0.2103
14152SOL    HW143897   3.805   2.643   6.388 -2.3318  1.8670 -0.7180
14152SOL    HW243898   3.883   2.608   6.263 -0.9567 -1.3417  0.9263
14153SOL     OW43899   3.137   1.470   6.308 -0.5068  0.1355 -0.3143
14153SOL    HW143900   3.159   1.499   6.220 -1.1459  0.8742 -0.2353
14153SOL    HW243901   3.133   1.550   6.360  1.6352 -0.3921  0.8186
14154SOL     OW43902   3.950   2.445   8.330 -0.8885 -0.3384 -0.0957
14154SOL    HW143903   3.953   2.537   8.356  0.9884 -0.5868  0.7504
14154SOL    HW243904   3.857   2.425   8.320 -1.3367  1.5947 -0.1390
14155SOL     OW43905   5.982   2.409   7.682 -0.5805 -0.2095  0.3296
14155SOL    HW143906   6.065   2.381   7.722  0.5958 -0.4264 -2.0732
14155SOL    HW243907   5.931   2.329   7.674 -0.3711 -0.3515  0.3899
14156SOL     OW43908   3.895   1.902   4.270 -0.6122 -0.4672  0.6902
14156SOL    HW143909   3.834   1.973   4.287  0.3788  0.6843 -0.3602
14156SOL    HW243910   3.854   1.850   4.201  0.3331  1.3923 -1.4051
14157SOL     OW43911   4.156   1.930   6.438  0.0363  0.4126 -0.2682
14157SOL    HW143912   4.235   1.945   6.489  0.0880 -2.2269  0.5722
14157SOL    HW243913   4.103   2.009   6.451  0.5767  0.3770  2.8705
14158SOL     OW43914   6.244   7.835   7.766  1.0656  0.0877 -0.4435
14158SOL    HW143915   6.270   7.769   7.830  0.3780  0.9427  0.7463
14158SOL    HW243916   6.194   7.786   7.701  2.3299 -0.9062 -0.7311
14159SOL     OW43917   4.230   0.254   4.663 -0.3049 -0.8216  0.5916
14159SOL    HW143918   4.236   0.165   4.628  1.2784  0.1784 -1.9703
14159SOL    HW243919   4.216   0.309   4.586  1.2721  1.3848  1.7642
14160SOL     OW43920   4.539   0.091  10.240 -0.2169 -0.0468  0.0520
14160SOL    HW143921   4.598   0.166  10.230 -1.1370  0.7927  0.7316
14160SOL    HW243922   4.454   0.130  10.261 -0.5686 -1.2982  1.1117
14161SOL     OW43923   4.561   3.273   6.400  0.4464  0.3592 -0.4417
14161SOL    HW143924   4.539   3.366   6.411  1.6693  0.5620  0.5806
14161SOL    HW243925   4.599   3.267   6.312 -1.4552  0.4149 -1.3198
14162SOL     OW43926   7.387   1.641   7.940  0.6990 -0.1385  0.3223
14162SOL    HW143927   7.419   1.721   7.983  2.0098  0.7991 -2.2003
14162SOL    HW243928   7.431   1.570   7.986  2.7286  0.8641  0.0700
14163SOL     OW43929   3.991   3.168   6.334  0.3461  0.3485  0.2698
14163SOL    HW143930   4.023   3.141   6.420 -1.2464 -0.9053  0.5200
14163SOL    HW243931   4.041   3.247   6.313  0.8799  0.5978  2.2771
14164SOL     OW43932   4.089   0.984   7.327 -0.6669  0.1083 -0.1824
14164SOL    HW143933   4.016   0.994   7.388 -1.3042  1.2327 -1.0841
14164SOL    HW243934   4.069   1.044   7.255  1.3801  0.8103 -0.2469
14165SOL     OW43935   4.332   1.149   4.944  0.2839  0.5425 -0.2920
14165SOL    HW143936   4.312   1.211   5.013 -0.0052  0.3784 -0.2282
14165SOL    HW243937   4.413   1.107   4.973 -1.1396 -1.3547  1.2292
14166SOL     OW43938   5.197   3.498   5.970  0.1591  0.5622 -0.1612
14166SOL    HW143939   5.113   3.511   5.926  0.3926  0.0200 -0.7887
14166SOL    HW243940   5.239   3.584   5.965 -0.1002  0.6796 -0.4056
14167SOL     OW43941   5.051   3.347   6.913  0.6723  0.3464 -0.4704
14167SOL    HW143942   5.111   3.404   6.864  0.4455  0.6228 -0.4289
14167SOL    HW243943   4.972   3.343   6.860  0.9086 -0.4376 -0.7773
14168SOL     OW43944   6.409   2.962   5.984 -0.3079 -0.0058  0.1467
14168SOL    HW143945   6.317   2.954   5.960 -0.2473  1.0026 -0.4671
14168SOL    HW243946   6.454   2.898   5.929 -0.5180  0.2588 -0.3372
14169SOL     OW43947   4.749   2.502   7.981  0.1740 -0.3952  0.5552
14169SOL    HW143948   4.695   2.577   7.958  0.0836 -1.4529 -3.3636
14169SOL    HW243949   4.687   2.432   7.998  0.2984 -0.2510  1.6733
14170SOL     OW43950   5.195   2.591   6.483  0.2772 -0.0348 -0.1894
14170SOL    HW143951   5.131   2.660   6.465 -1.3897 -1.5653 -0.3565
14170SOL    HW243952   5.196   2.584   6.579  0.3118  0.0629 -0.1813
14171SOL     OW43953   2.834   2.281   5.529  0.0583  0.6657 -0.0678
14171SOL    HW143954   2.816   2.292   5.436  0.7074 -1.8248 -0.5819
14171SOL    HW243955   2.894   2.352   5.551 -0.1861  1.3485 -1.5265
14172SOL     OW43956   4.988   2.501   4.035 -0.3236  0.2157  0.1318
14172SOL    HW143957   5.020   2.588   4.011 -1.4796  0.0965 -2.1019
14172SOL    HW243958   4.944   2.514   4.119  0.3858  1.5607  0.3227
14173SOL     OW43959   4.578   2.750   8.661 -0.6120  0.1316 -0.4286
14173SOL    HW143960   4.602   2.836   8.628  0.4477  0.8313  1.9514
14173SOL    HW243961   4.620   2.688   8.601 -0.2628  1.2756 -1.3933
14174SOL     OW43962   5.759   3.661   7.656  0.1714  0.0221  0.0097
14174SOL    HW143963   5.738   3.610   7.734  1.2058 -0.0073  0.2818
14174SOL    HW243964   5.708   3.741   7.665  1.2628  0.6168  1.4094
14175SOL     OW43965   3.948   1.894   6.160  0.4923  0.1086  0.2107
14175SOL    HW143966   4.009   1.846   6.216  0.2525 -0.7702 -0.2700
14175SOL    HW243967   3.997   1.971   6.131  1.1956 -0.3238  0.2449
14176SOL     OW43968   4.543   2.793   7.232  0.0132  0.2919  0.1033
14176SOL    HW143969   4.496   2.859   7.283  0.6218  2.5347 -2.0304
14176SOL    HW243970   4.474   2.741   7.191 -0.5291  0.7760  0.3807
14177SOL     OW43971   6.470   3.092   6.593 -0.8014 -0.2020  0.4731
14177SOL    HW143972   6.396   3.083   6.653 -1.3707 -0.4463 -0.2618
14177SOL    HW243973   6.503   3.003   6.582 -0.1278 -0.0444  1.1234
14178SOL     OW43974   2.199   1.651   7.113  0.2559 -0.2248  0.1593
14178SOL    HW143975   2.129   1.646   7.178  0.8338  0.3519  0.8402
14178SOL    HW243976   2.279   1.644   7.164  0.7016 -0.6357 -0.5909
14179SOL     OW43977   7.108   1.488   7.460 -0.7064  0.5465  0.1146
14179SOL    HW143978   7.165   1.413   7.476 -0.8928  0.4845  0.4971
14179SOL    HW243979   7.050   1.459   7.389 -0.9766  0.2168  0.4654
14180SOL     OW43980   5.490   2.709   6.750 -0.3441  0.1654 -0.5661
14180SOL    HW143981   5.434   2.674   6.819  0.0464 -0.5358 -0.5869
14180SOL    HW243982   5.520   2.631   6.702 -0.1249  0.5976 -1.1446
14181SOL     OW43983   3.282   0.448   4.630 -0.8501 -0.1691  0.2556
14181SOL    HW143984   3.189   0.427   4.625 -0.6240 -1.2580  0.2199
14181SOL    HW243985   3.297   0.469   4.722 -1.0696 -0.3042  0.3227
14182SOL     OW43986   3.318   1.849   4.383  0.4726 -0.1317  0.0346
14182SOL    HW143987   3.335   1.908   4.456  0.0480 -0.4998  0.4363
14182SOL    HW243988   3.384   1.780   4.392  1.5619  0.7348 -0.9627
14183SOL     OW43989   6.680   0.771   5.526 -0.1249 -0.5893  0.2117
14183SOL    HW143990   6.614   0.744   5.462 -0.3769  0.8100 -0.1404
14183SOL    HW243991   6.690   0.865   5.513  1.6093 -0.6884  0.5867
14184SOL     OW43992   5.890   1.776   8.340  0.2524 -0.5702  0.6025
14184SOL    HW143993   5.905   1.686   8.309 -1.1097 -1.5757  2.6328
14184SOL    HW243994   5.800   1.795   8.315  0.9997  0.8970 -1.1891
14185SOL     OW43995   5.113   3.022   7.924  0.0011  0.1612 -0.4308
14185SOL    HW143996   5.034   3.004   7.975  0.1752 -0.5272 -0.4013
14185SOL    HW243997   5.082   3.061   7.843 -0.4991 -1.8011 -1.2149
14186SOL     OW43998   5.716   3.535   7.384  0.3248 -0.6971 -0.2802
14186SOL    HW143999   5.628   3.573   7.385  1.3781  2.0407 -1.3495
14186SOL    HW244000   5.759   3.573   7.461  0.8046 -1.4682 -0.1530
14187SOL     OW44001   4.620   2.373   5.783  0.2925 -0.2321 -0.8913
14187SOL    HW144002   4.563   2.389   5.708  1.0439 -0.6915 -1.5878
14187SOL    HW244003   4.657   2.459   5.804 -1.7517  0.3456  0.5155
14188SOL     OW44004   4.688   0.389   5.634 -0.5274  0.0208 -0.0083
14188SOL    HW144005   4.592   0.385   5.629 -0.5841  0.8392  0.3172
14188SOL    HW244006   4.713   0.307   5.677 -1.0074 -0.6253 -0.9135
14189SOL     OW44007   6.004   4.989   6.889 -0.5251 -0.6120  0.0355
14189SOL    HW144008   6.095   4.996   6.917 -0.2410 -1.2090 -0.6954
14189SOL    HW244009   5.953   5.004   6.969  0.0765  2.7501 -0.0583
14190SOL     OW44010   4.294   2.397   5.796 -0.3407  0.1410  0.3028
14190SOL    HW144011   4.282   2.489   5.772 -0.4908 -0.0937 -0.5440
14190SOL    HW244012   4.286   2.349   5.714  0.1759 -0.5960  0.6715
14191SOL     OW44013   4.108   2.317   7.605  0.4577 -0.0882  0.3958
14191SOL    HW144014   4.193   2.325   7.649  0.9840  1.5253 -0.7866
14191SOL    HW244015   4.069   2.404   7.614  0.7544  0.4349 -2.5329
14192SOL     OW44016   5.444   2.885   5.519 -0.0888 -0.0187  0.1889
14192SOL    HW144017   5.349   2.877   5.528 -0.1399  0.3686 -0.0009
14192SOL    HW244018   5.461   2.875   5.425  0.0875 -0.3458  0.2499
14193SOL     OW44019   4.154   3.796   7.494  0.2222 -0.1603 -0.2697
14193SOL    HW144020   4.094   3.807   7.568 -0.4599  0.7573 -0.9455
14193SOL    HW244021   4.101   3.756   7.426 -0.1155  2.1763 -1.4537
14194SOL     OW44022   3.955   2.214   6.714  0.2331 -0.1848 -0.3601
14194SOL    HW144023   3.982   2.204   6.622 -0.0488  1.4533 -0.6490
14194SOL    HW244024   3.879   2.273   6.710 -0.3940 -0.8827  0.8535
14195SOL     OW44025   2.976   7.951   6.985 -0.1555  0.0527 -0.5214
14195SOL    HW144026   2.957   8.033   7.030 -2.0320  0.1601 -1.4313
14195SOL    HW244027   3.071   7.949   6.979 -0.0587  2.8722 -1.7190
14196SOL     OW44028   5.209   2.251   5.309  0.1419  0.5117  0.2739
14196SOL    HW144029   5.138   2.315   5.303 -1.0219 -0.7843 -0.1814
14196SOL    HW244030   5.196   2.194   5.234  0.2458 -1.1630  1.4810
14197SOL     OW44031   5.098   3.129   7.627  0.4009  0.2191  0.3211
14197SOL    HW144032   5.035   3.201   7.633  0.8998  0.7073 -0.1984
14197SOL    HW244033   5.047   3.055   7.594 -0.0679  0.3893  0.6486
14198SOL     OW44034   5.028   3.220   7.318  0.1333 -0.4112 -0.5401
14198SOL    HW144035   4.970   3.239   7.391  0.0137  1.7339 -1.1196
14198SOL    HW244036   5.052   3.128   7.329 -0.3307 -0.3035  1.8520
14199SOL     OW44037   4.905   2.442   7.759 -0.0031 -0.1386  0.1704
14199SOL    HW144038   4.892   2.348   7.772 -1.1232 -0.2359 -1.3370
14199SOL    HW244039   4.844   2.483   7.820 -0.0855 -0.4058  0.2716
14200SOL     OW44040   5.689   4.025   6.570  0.0503  0.4733 -0.1028
14200SOL    HW144041   5.667   4.115   6.546 -2.5264 -0.2626 -0.7758
14200SOL    HW244042   5.605   3.981   6.578  1.1874 -1.5532  1.6678
14201SOL     OW44043   3.743   2.160   9.091  0.3216 -0.7438 -0.2211
14201SOL    HW144044   3.764   2.236   9.145 -0.0849 -0.7188 -0.0948
14201SOL    HW244045   3.795   2.089   9.128 -0.3916 -0.8683  0.5897
14202SOL     OW44046   4.047   2.650   7.064 -0.5312  0.2890  0.2198
14202SOL    HW144047   3.960   2.680   7.088 -0.1766  1.6584 -0.1673
14202SOL    HW244048   4.105   2.691   7.128 -0.0548  0.2311 -0.1671
14203SOL     OW44049   4.611   3.309   6.811  0.2997 -0.3217 -0.5875
14203SOL    HW144050   4.544   3.376   6.826  0.8447 -0.0064  0.4921
14203SOL    HW244051   4.694   3.357   6.810  0.9346 -1.1625  2.4316
14204SOL     OW44052   4.367   1.588   7.548  1.0260  0.6703 -0.0038
14204SOL    HW144053   4.406   1.574   7.461  0.0022  1.6554 -0.6546
14204SOL    HW244054   4.397   1.675   7.574  2.3921 -0.1309  1.2572
14205SOL     OW44055   5.627   3.268   6.846  0.0357  0.1908 -0.0672
14205SOL    HW144056   5.683   3.237   6.775 -0.9622 -0.5915 -0.5234
14205SOL    HW244057   5.611   3.360   6.826  1.3852  0.5117  0.2288
14206SOL     OW44058   4.949   1.855   4.943 -0.1383  0.1006  0.2424
14206SOL    HW144059   4.926   1.768   4.974 -1.3396 -0.7321 -2.7131
14206SOL    HW244060   4.866   1.902   4.938  0.2891  0.8849  0.2324
14207SOL     OW44061   4.138   2.400   6.422 -0.4772 -0.1859  0.2662
14207SOL    HW144062   4.058   2.449   6.403 -1.1862 -0.3426  2.5193
14207SOL    HW244063   4.196   2.464   6.463  0.4161 -0.1748 -0.9773
14208SOL     OW44064   5.701   5.572   6.907 -0.1426  0.0881 -0.6079
14208SOL    HW144065   5.616   5.587   6.866 -0.1811  0.8849 -0.2559
14208SOL    HW244066   5.747   5.513   6.847 -0.2605  1.0847 -1.7129
14209SOL     OW44067   4.268   1.863   6.094 -0.3766  0.4528  0.5606
14209SOL    HW144068   4.236   1.952   6.083 -0.6438  0.3032  0.0750
14209SOL    HW244069   4.348   1.871   6.146  0.7943  1.1923 -1.2528
14210SOL     OW44070   6.449   3.830   5.978 -0.5795 -0.0907  0.0455
14210SOL    HW144071   6.429   3.762   6.042 -1.4834  1.0612  1.0587
14210SOL    HW244072   6.363   3.859   5.946 -0.1487 -0.6729 -1.7681
14211SOL     OW44073   5.202   3.729   6.680 -0.1626 -0.2236 -0.3712
14211SOL    HW144074   5.109   3.749   6.684  0.0178  0.4672  1.6730
14211SOL    HW244075   5.207   3.633   6.688 -0.6888 -0.2487 -0.3390
14212SOL     OW44076   5.965   4.149   8.241 -0.1667  0.2683  0.9547
14212SOL    HW144077   5.870   4.149   8.226 -0.4092  0.3005  2.4189
14212SOL    HW244078   5.982   4.066   8.284  0.2601  0.8328  1.8976
14213SOL     OW44079   3.218   2.183   6.789 -0.5026  0.7237  0.3586
14213SOL    HW144080   3.142   2.198   6.846 -0.8994 -1.7395  0.5817
14213SOL    HW244081   3.183   2.132   6.716  0.5637  1.4453 -0.6878
14214SOL     OW44082   5.054   2.787   3.598 -0.1277 -0.0115  0.3940
14214SOL    HW144083   4.990   2.728   3.557 -0.1860 -1.1730  2.0277
14214SOL    HW244084   5.133   2.734   3.605 -0.0303  0.2580  1.4593
14215SOL     OW44085   4.001   2.434   5.863 -0.4870  0.5167  0.1458
14215SOL    HW144086   4.042   2.350   5.842  0.7467  1.4780 -1.5099
14215SOL    HW244087   3.939   2.449   5.792  0.6432  1.8306 -0.6122
14216SOL     OW44088   4.119   2.960   6.121 -1.0064 -0.2490 -0.0952
14216SOL    HW144089   4.092   2.952   6.212  0.2965 -0.8402  0.2552
14216SOL    HW244090   4.045   3.002   6.078 -1.3837  0.6269  1.3516
14217SOL     OW44091   3.924   1.735   5.298 -0.0814 -0.0383 -0.6724
14217SOL    HW144092   3.930   1.767   5.388 -0.3160 -0.8510 -0.3617
14217SOL    HW244093   3.914   1.815   5.245  1.8401  0.5826 -0.1703
14218SOL     OW44094   3.701   0.165   5.685  1.3167  0.4960  0.2094
14218SOL    HW144095   3.748   0.082   5.681  0.9557  0.3267 -0.9203
14218SOL    HW244096   3.639   0.154   5.757  1.5989 -0.0386  0.3736
14219SOL     OW44097   3.317   2.133   7.744  0.6496  0.2921 -0.6704
14219SOL    HW144098   3.386   2.189   7.709  0.6883  0.3153 -0.5563
14219SOL    HW244099   3.242   2.148   7.686  0.5442  0.7402 -0.4264
14220SOL     OW44100   4.498   2.915   6.217  0.0009  0.1775 -0.3178
14220SOL    HW144101   4.431   2.975   6.184 -0.5271 -0.0478  0.3242
14220SOL    HW244102   4.572   2.971   6.239 -0.9816  0.8095  1.6149
14221SOL     OW44103   5.625   1.955   7.766  0.2406  0.2525  0.1853
14221SOL    HW144104   5.607   1.972   7.859  1.5049  1.0485  0.2985
14221SOL    HW244105   5.690   1.886   7.767 -0.2594 -0.2307 -0.1431
14222SOL     OW44106   4.709   2.042   6.450 -0.2103  0.4134 -0.3998
14222SOL    HW144107   4.800   2.029   6.422 -0.5624 -0.5958 -1.1524
14222SOL    HW244108   4.673   2.103   6.385 -0.5665 -0.6327 -1.2121
14223SOL     OW44109   5.166   2.097   7.262 -0.4966  0.2567  0.2612
14223SOL    HW144110   5.149   2.130   7.174 -1.6374 -0.6921  0.1157
14223SOL    HW244111   5.182   2.176   7.314 -0.7932  0.8859 -0.5800
14224SOL     OW44112   6.390   1.570   5.339 -0.0963 -0.2727 -0.1877
14224SOL    HW144113   6.461   1.507   5.330 -0.5618 -0.6235 -1.6206
14224SOL    HW244114   6.310   1.520   5.319 -0.5384  0.5814 -0.6350
14225SOL     OW44115   4.006   2.284   5.474  0.4986 -0.0363 -0.4946
14225SOL    HW144116   4.000   2.273   5.379 -3.6448  1.5143 -0.6190
14225SOL    HW244117   4.047   2.370   5.485  1.9724 -0.6718 -0.7547
14226SOL     OW44118   4.506   2.416   7.227  0.2667  0.1223 -0.1201
14226SOL    HW144119   4.436   2.399   7.163  1.2740 -1.8822 -0.7959
14226SOL    HW244120   4.462   2.461   7.299 -0.9355  2.3780 -2.1285
14227SOL     OW44121   4.048   3.723   7.863  0.0058 -0.1706 -0.7691
14227SOL    HW144122   4.006   3.752   7.782 -0.1016  0.1658 -0.5957
14227SOL    HW244123   4.013   3.781   7.930  0.0003 -0.5276 -0.4601
14228SOL     OW44124   4.457   0.233   8.661 -0.6013  0.2147  0.2930
14228SOL    HW144125   4.459   0.308   8.601 -2.8596 -0.2636 -0.4417
14228SOL    HW244126   4.384   0.252   8.720 -0.1655 -0.6586  1.1277
14229SOL     OW44127   4.758   2.251   5.198  0.1339 -0.1090  0.8677
14229SOL    HW144128   4.766   2.273   5.105 -1.0712  1.0186  1.0125
14229SOL    HW244129   4.832   2.192   5.215  1.4254  1.0672 -0.3842
14230SOL     OW44130   4.837   2.344   8.623  0.0669  0.4036  0.7940
14230SOL    HW144131   4.846   2.250   8.605  0.9686  0.3376  1.5591
14230SOL    HW244132   4.925   2.373   8.648  0.1435  1.7883 -0.9127
14231SOL     OW44133   5.154   1.631   5.776  0.7220  0.2911 -0.0765
14231SOL    HW144134   5.186   1.667   5.859  0.9289 -0.3646  0.1358
14231SOL    HW244135   5.224   1.572   5.748 -1.0310 -2.7536  1.3967
14232SOL     OW44136   6.144   5.067   7.339 -0.0078 -0.4226  0.1765
14232SOL    HW144137   6.195   4.986   7.329  0.6172 -0.1338  0.9855
14232SOL    HW244138   6.097   5.075   7.256 -0.5180 -1.9105  0.2753
14233SOL     OW44139   5.375   3.261   6.783  0.0469 -0.2207 -0.0104
14233SOL    HW144140   5.447   3.240   6.842 -0.1479  0.2684  0.4110
14233SOL    HW244141   5.323   3.181   6.779 -0.4702  0.0259  1.2590
14234SOL     OW44142   6.801   1.856   5.652  0.1194  0.4331  0.2699
14234SOL    HW144143   6.861   1.931   5.650 -1.5608  1.9555  2.4337
14234SOL    HW244144   6.743   1.871   5.578  1.1756 -0.0020 -0.6732
14235SOL     OW44145   7.058   2.982   4.856 -0.6042 -0.6584  0.3401
14235SOL    HW144146   6.973   2.957   4.821  0.0246 -1.5593 -0.6098
14235SOL    HW244147   7.109   2.901   4.858 -0.1821 -0.4023  2.1825
14236SOL     OW44148   4.558   3.891   7.771 -0.1891 -0.1140 -0.1424
14236SOL    HW144149   4.468   3.889   7.802  0.2676 -0.0599  1.2634
14236SOL    HW244150   4.558   3.956   7.701 -1.1173  0.3439  0.2692
14237SOL     OW44151   4.802   2.091   4.068 -0.6472  0.3646  0.1292
14237SOL    HW144152   4.821   1.999   4.047  2.2205  0.2929  2.4375
14237SOL    HW244153   4.853   2.141   4.005 -1.8978  0.4158 -0.8744
14238SOL     OW44154   4.933   2.977   7.073 -0.2896 -0.5309 -0.7357
14238SOL    HW144155   5.018   3.022   7.069 -0.5341 -0.1361 -1.7545
14238SOL    HW244156   4.871   3.041   7.039 -1.3830  0.0225  2.0637
14239SOL     OW44157   6.358   1.820   4.472  0.1818 -0.6465 -0.1291
14239SOL    HW144158   6.302   1.799   4.397  0.2032  0.2857 -0.4075
14239SOL    HW244159   6.444   1.836   4.433  0.1282  0.1186  0.0651
14240SOL     OW44160   4.487   1.881   6.233 -0.7082 -0.1559 -0.0274
14240SOL    HW144161   4.532   1.910   6.153 -0.7651  0.7055  0.2445
14240SOL    HW244162   4.486   1.959   6.289 -1.3981 -0.5300  0.4834
14241SOL     OW44163   4.833   2.663   5.534 -0.1975 -0.6802  0.2301
14241SOL    HW144164   4.808   2.580   5.492 -1.3440  0.2924 -1.1129
14241SOL    HW244165   4.758   2.686   5.589 -1.0973  0.7336 -1.4621
14242SOL     OW44166   4.005   2.150   6.472  0.3570 -0.8073 -0.1510
14242SOL    HW144167   4.064   2.224   6.458  1.1838 -0.6696  3.0849
14242SOL    HW244168   3.933   2.164   6.410  1.2685  1.8358 -0.7566
14243SOL     OW44169   3.551   2.928   6.510  0.1949 -0.4573  0.3737
14243SOL    HW144170   3.641   2.920   6.541  0.3389  0.2403  0.1573
14243SOL    HW244171   3.539   2.854   6.450  0.7455 -0.3415  0.1139
14244SOL     OW44172   5.984   3.053   8.120  0.0562  0.2888  0.2119
14244SOL    HW144173   5.979   3.128   8.180 -0.9805  0.7958 -0.4841
14244SOL    HW244174   6.068   3.065   8.075  0.4772  0.3314  0.9857
14245SOL     OW44175   5.604   3.026   7.126  0.0625 -0.0417  0.6891
14245SOL    HW144176   5.614   3.107   7.076 -1.1849  0.0988  0.6476
14245SOL    HW244177   5.586   3.055   7.216  0.9118 -0.2915  0.9539
14246SOL     OW44178   4.510   1.438   6.814  0.2039  0.0605 -0.2669
14246SOL    HW144179   4.450   1.459   6.743 -1.9884 -0.4006  1.3411
14246SOL    HW244180   4.596   1.466   6.782 -0.8495  0.8426 -2.6379
14247SOL     OW44181   7.761   3.276   7.370  0.4317 -0.0402 -0.3010
14247SOL    HW144182   7.772   3.261   7.276  0.5143  0.6590 -0.4087
14247SOL    HW244183   7.757   3.188   7.408  1.0900 -0.3292 -0.8749
14248SOL     OW44184   6.541   0.875   6.572 -0.3815  0.3401 -0.2264
14248SOL    HW144185   6.580   0.862   6.486 -0.7782 -0.6119 -0.2766
14248SOL    HW244186   6.496   0.959   6.566 -1.5684 -0.3328 -1.4151
14249SOL     OW44187   3.612   2.491   6.907  0.2192  0.1295 -0.1762
14249SOL    HW144188   3.651   2.549   6.971  1.4358 -0.5007 -0.3184
14249SOL    HW244189   3.595   2.410   6.955 -0.7484  0.3164 -0.1709
14250SOL     OW44190   4.737   7.910   8.272 -0.4798 -0.6963  0.0472
14250SOL    HW144191   4.671   7.965   8.314  0.5815 -0.4565  1.4405
14250SOL    HW244192   4.701   7.893   8.184 -0.7526  2.3705 -0.5332
14251SOL     OW44193   4.469   0.838   5.928  0.2697 -0.6756 -0.0877
14251SOL    HW144194   4.488   0.831   6.022 -0.4918 -2.2984 -0.0169
14251SOL    HW244195   4.382   0.798   5.919 -0.7562  1.6255 -1.1518
14252SOL     OW44196   6.055   3.927   6.148 -0.2999 -0.2385 -0.5782
14252SOL    HW144197   6.126   3.918   6.211 -0.4179  0.8870 -0.2724
14252SOL    HW244198   6.004   4.001   6.179 -1.1704 -0.5474 -1.2246
14253SOL     OW44199   3.916   2.433   6.182  0.1720 -0.0650 -0.3256
14253SOL    HW144200   3.910   2.443   6.087  0.5785 -1.2005 -0.4974
14253SOL    HW244201   4.009   2.444   6.201  0.6319 -2.9016 -0.5159
14254SOL     OW44202   5.227   3.211   6.052  0.5082 -0.3686  0.1537
14254SOL    HW144203   5.220   3.300   6.019 -1.6926 -0.3721  0.4146
14254SOL    HW244204   5.164   3.208   6.125  0.7603 -2.0334  0.3425
14255SOL     OW44205   4.806   1.597   9.395 -0.3630 -0.3147  0.0430
14255SOL    HW144206   4.752   1.672   9.368 -1.0969 -0.9899 -0.4200
14255SOL    HW244207   4.881   1.598   9.337  0.4458  0.9669  1.0534
14256SOL     OW44208   5.999   3.519   7.923  0.0276 -0.1693 -0.1430
14256SOL    HW144209   5.922   3.494   7.974  1.0395  0.8650  2.0452
14256SOL    HW244210   5.998   3.461   7.847 -1.8585 -1.4491  0.7792
14257SOL     OW44211   5.076   2.570   6.215  0.0691  0.1581 -0.2050
14257SOL    HW144212   5.162   2.574   6.173 -0.3947  0.6372 -1.1423
14257SOL    HW244213   5.080   2.492   6.271  0.7594 -0.4217 -1.0282
14258SOL     OW44214   6.128   2.839   4.356 -0.5002  0.4084  0.5018
14258SOL    HW144215   6.098   2.826   4.446 -0.5462 -1.1124  0.2932
14258SOL    HW244216   6.050   2.827   4.303 -0.6742  2.2430  0.2815
14259SOL     OW44217   3.440   3.809   7.829  0.3288  0.2008  0.7540
14259SOL    HW144218   3.438   3.887   7.773  0.2293 -0.9405 -0.8883
14259SOL    HW244219   3.354   3.770   7.820  1.3469 -1.8330 -1.0653
14260SOL     OW44220   4.973   1.693   5.562  0.4987 -0.1179  0.3459
14260SOL    HW144221   5.035   1.673   5.632  0.9987 -1.4146 -0.4309
14260SOL    HW244222   4.888   1.699   5.605  0.8308 -0.6605  1.0835
14261SOL     OW44223   3.504   0.936   7.730 -0.3632  0.3000  0.2911
14261SOL    HW144224   3.442   1.007   7.745 -0.6135  1.0732 -3.4597
14261SOL    HW244225   3.533   0.948   7.640 -0.5162 -4.4798 -0.6532
14262SOL     OW44226   2.797   2.897   6.030  0.0079 -0.0143  0.9008
14262SOL    HW144227   2.705   2.888   6.006  0.1115  3.4326 -1.6806
14262SOL    HW244228   2.803   2.983   6.071  2.1183  0.0606  0.5764
14263SOL     OW44229   7.416   2.882   8.465  0.4058  0.4229 -0.3479
14263SOL    HW144230   7.454   2.880   8.378 -1.1461  0.0300 -1.0613
14263SOL    HW244231   7.375   2.969   8.472  1.9843  1.1319  0.6924
14264SOL     OW44232   5.143   2.179   6.706 -0.2478 -0.3369  0.3397
14264SOL    HW144233   5.145   2.125   6.627  0.2910 -1.6204  1.1862
14264SOL    HW244234   5.053   2.211   6.711 -0.3556 -0.4628 -0.6443
14265SOL     OW44235   5.542   3.454   6.063 -0.0414 -0.0174  0.1464
14265SOL    HW144236   5.552   3.529   6.005 -2.1440  0.5472  0.4472
14265SOL    HW244237   5.605   3.390   6.030  1.6967  1.7580 -0.2242
14266SOL     OW44238   7.173   3.235   4.918 -0.2073 -0.6539  0.1358
14266SOL    HW144239   7.104   3.291   4.952  0.3093  0.4832 -0.6022
14266SOL    HW244240   7.134   3.147   4.914 -1.7096  0.0133 -0.5735
14267SOL     OW44241   6.229   2.158   6.023  0.4086  0.4448 -0.0673
14267SOL    HW144242   6.154   2.215   6.043 -1.6590 -1.0886 -2.7514
14267SOL    HW244243   6.240   2.104   6.101 -2.7714 -0.7102 -0.2711
14268SOL     OW44244   5.299   3.119   6.348 -0.0731  0.1477  0.1629
14268SOL    HW144245   5.386   3.109   6.387  0.6364  1.1644 -1.0752
14268SOL    HW244246   5.297   3.057   6.276 -0.3893  0.1133  0.1997
14269SOL     OW44247   4.866   2.979   6.698  0.2370  0.1110 -0.3024
14269SOL    HW144248   4.837   3.031   6.623 -0.1100  0.4017  0.0275
14269SOL    HW244249   4.840   3.031   6.775  1.7056  0.4253  0.0099
14270SOL     OW44250   4.225   0.699   5.999  0.1038 -0.8844  0.3231
14270SOL    HW144251   4.171   0.711   6.077 -0.8533 -0.1926 -0.4180
14270SOL    HW244252   4.200   0.612   5.966  0.0870 -0.9384  0.4796
14271SOL     OW44253   2.750   2.722   7.795 -0.3102 -0.3064 -0.4097
14271SOL    HW144254   2.829   2.775   7.789 -0.8343  0.6534  0.7063
14271SOL    HW244255   2.689   2.761   7.732  0.1591 -1.2242 -1.4842
14272SOL     OW44256   5.879   4.255   4.580 -0.1456 -1.3581 -0.7873
14272SOL    HW144257   5.800   4.309   4.579 -0.2277 -1.4770 -0.6792
14272SOL    HW244258   5.878   4.209   4.497 -0.4693 -1.7665 -0.5604
14273SOL     OW44259   4.668   2.766   6.060  0.1594 -0.7676 -0.3441
14273SOL    HW144260   4.668   2.832   5.990  0.2978 -1.9167 -1.4763
14273SOL    HW244261   4.611   2.803   6.128 -0.4828  0.1319 -1.3302
14274SOL     OW44262   4.794   3.129   6.502 -0.4262 -0.7433  0.4698
14274SOL    HW144263   4.881   3.169   6.498  0.1044 -1.8548  0.2640
14274SOL    HW244264   4.734   3.202   6.512  0.3212  0.3084 -1.8703
14275SOL     OW44265   6.112   3.494   6.155 -0.2494  0.0290 -0.4000
14275SOL    HW144266   6.065   3.501   6.238 -0.4111  0.3594 -0.5206
14275SOL    HW244267   6.044   3.495   6.088 -0.1431 -0.5904 -0.5236
14276SOL     OW44268   4.235   1.872   4.006 -0.1083 -0.6165 -0.8972
14276SOL    HW144269   4.312   1.912   3.967 -0.2995 -1.8294 -2.6171
14276SOL    HW244270   4.171   1.943   4.012  0.8403  0.1987 -0.2317
14277SOL     OW44271   4.000   2.573   6.816 -0.2757 -0.5423 -0.2233
14277SOL    HW144272   4.069   2.509   6.797 -0.6948 -1.2440  0.5322
14277SOL    HW244273   4.029   2.615   6.897  0.2628  0.6276 -1.0013
14278SOL     OW44274   4.430   7.800   5.519  0.4970 -0.8572 -0.6565
14278SOL    HW144275   4.519   7.782   5.490  0.3657 -0.5698 -1.2472
14278SOL    HW244276   4.388   7.714   5.521  0.6660 -0.9428 -0.7888
14279SOL     OW44277   4.516   1.662   7.313 -0.3091 -0.3512 -0.0200
14279SOL    HW144278   4.516   1.719   7.237  0.4236 -0.0488  0.1960
14279SOL    HW244279   4.545   1.577   7.280  1.1259  0.0621  0.1014
14280SOL     OW44280   4.161   2.420   8.131 -0.7536  0.5277  0.1827
14280SOL    HW144281   4.113   2.442   8.210 -1.6580  1.3852 -0.5738
14280SOL    HW244282   4.187   2.505   8.094 -1.7645  0.2462 -1.2838
14281SOL     OW44283   2.603   2.545   7.538 -0.0967  0.0869  0.4101
14281SOL    HW144284   2.608   2.461   7.493  1.2313 -0.0260  0.7301
14281SOL    HW244285   2.656   2.604   7.485 -0.1683  0.4549  0.7397
14282SOL     OW44286   2.939   2.372   7.933  0.0971 -0.1312 -0.4990
14282SOL    HW144287   3.015   2.392   7.879 -0.1529  0.9133 -0.4672
14282SOL    HW244288   2.966   2.392   8.022 -0.4114  0.8504 -0.5535
14283SOL     OW44289   6.273   2.359   7.733 -0.3812 -0.3670  0.2635
14283SOL    HW144290   6.349   2.359   7.674 -0.1331 -0.6204  0.5764
14283SOL    HW244291   6.301   2.305   7.807  0.0165  1.4163  1.4877
14284SOL     OW44292   5.422   2.483   7.613 -0.2158  0.2464  0.3206
14284SOL    HW144293   5.484   2.555   7.617  0.5744 -0.3810 -0.3006
14284SOL    HW244294   5.336   2.525   7.608  0.2926  1.1926 -1.4142
14285SOL     OW44295   5.143   2.599   7.631  0.3532 -0.2897  0.1484
14285SOL    HW144296   5.112   2.525   7.683  1.4576 -0.2138  0.9351
14285SOL    HW244297   5.079   2.668   7.647 -1.7817 -1.5827 -2.0799
14286SOL     OW44298   5.702   2.177   8.513  0.1703 -0.0947 -0.3547
14286SOL    HW144299   5.797   2.191   8.516  0.5475 -2.4320  0.8547
14286SOL    HW244300   5.665   2.260   8.543  1.7477  1.2067 -1.7743
14287SOL     OW44301   5.255   2.866   7.177 -0.0335  0.0295  0.1717
14287SOL    HW144302   5.320   2.804   7.144  1.5363  1.2041  0.9282
14287SOL    HW244303   5.254   2.937   7.113  0.4346  0.6402  0.8167
14288SOL     OW44304   3.642   2.474   8.539  0.2201 -0.5899 -0.0517
14288SOL    HW144305   3.580   2.547   8.542 -0.7002 -1.3870  1.7266
14288SOL    HW244306   3.601   2.409   8.482 -0.0748 -0.6665  0.2450
14289SOL     OW44307   5.336   3.107   8.897 -0.3554 -0.6798  0.0783
14289SOL    HW144308   5.394   3.169   8.852  2.3743 -2.2108  1.2081
14289SOL    HW244309   5.253   3.114   8.851 -0.1389  3.5423 -0.0429
14290SOL     OW44310   3.932   2.216   9.449  0.1583  0.2273  0.3680
14290SOL    HW144311   4.021   2.182   9.458  0.4528  0.6818 -0.6753
14290SOL    HW244312   3.919   2.271   9.527  1.4587  1.5995 -0.3428
14291SOL     OW44313   5.104   3.613   7.938  0.1441 -0.1313  0.3290
14291SOL    HW144314   5.034   3.670   7.907  1.6924  0.9116 -1.4851
14291SOL    HW244315   5.062   3.528   7.953 -1.2742  0.0731 -2.0059
14292SOL     OW44316   4.222   3.956   8.337  0.2278  0.4334 -0.4561
14292SOL    HW144317   4.277   3.913   8.272  0.7622 -1.9355  1.4151
14292SOL    HW244318   4.142   3.902   8.340  0.1371  0.6053  0.6905
14293SOL     OW44319   3.993   3.927  10.696 -0.4239  0.0845 -0.5950
14293SOL    HW144320   4.071   3.966  10.736 -1.2019  0.3091  0.7381
14293SOL    HW244321   4.028   3.862  10.635  0.8181  0.5180 -0.3779
14294SOL     OW44322   3.602   2.727   7.461 -0.0676 -0.7004  0.1057
14294SOL    HW144323   3.511   2.742   7.436 -0.6856 -0.1665  2.4407
14294SOL    HW244324   3.640   2.815   7.467  0.3395 -0.8725  0.0763
14295SOL     OW44325   4.448   2.153   7.012  0.0524 -0.4851 -0.8256
14295SOL    HW144326   4.471   2.178   6.922 -0.0897 -0.9961 -1.0092
14295SOL    HW244327   4.392   2.225   7.043 -0.1348 -0.4419 -1.2501
14296SOL     OW44328   4.739   1.159   9.391 -0.1427  0.1418 -0.6283
14296SOL    HW144329   4.706   1.070   9.379  0.4153  0.1212 -2.2851
14296SOL    HW244330   4.743   1.195   9.303 -2.0625  2.4658  0.1345
14297SOL     OW44331   4.341   1.620   9.082  0.6470  0.4943  0.3425
14297SOL    HW144332   4.281   1.572   9.025  1.2908  0.0320  0.0349
14297SOL    HW244333   4.332   1.577   9.167 -0.2094  1.0925  0.5630
14298SOL     OW44334   4.936   2.760   7.700 -0.1210 -0.4814 -0.0016
14298SOL    HW144335   4.875   2.760   7.773  0.6338  0.4091  0.6611
14298SOL    HW244336   4.918   2.842   7.654  0.4171 -0.3101  0.0804
14299SOL     OW44337   3.661   3.730   7.978 -0.6886 -0.0172  0.4746
14299SOL    HW144338   3.646   3.804   8.037  0.9779  1.2357 -0.5821
14299SOL    HW244339   3.597   3.743   7.907 -0.4899  0.3508  0.3583
14300SOL     OW44340   5.492   1.426   7.648 -0.0483 -0.1676 -0.2401
14300SOL    HW144341   5.539   1.388   7.574 -1.0156 -1.4927 -0.2104
14300SOL    HW244342   5.442   1.498   7.609  0.7266  0.2179 -0.5548
14301SOL     OW44343   5.065   0.990   8.995  0.1502  0.2131  0.3853
14301SOL    HW144344   4.986   1.039   8.973 -2.3708 -3.7851 -0.4955
14301SOL    HW244345   5.070   0.996   9.091 -0.7807  1.1792  0.3962
14302SOL     OW44346   3.037   2.302   7.249  0.1571  0.5125 -0.1555
14302SOL    HW144347   3.126   2.267   7.249 -0.5598 -1.5978  2.0540
14302SOL    HW244348   3.044   2.383   7.300  0.6237 -0.3734  1.2529
14303SOL     OW44349   4.944   3.726   8.312  0.1691 -0.3192  0.0226
14303SOL    HW144350   4.864   3.746   8.361  0.3941  2.3954 -0.5428
14303SOL    HW244351   4.957   3.802   8.255  2.5687 -1.1698 -0.7095
14304SOL     OW44352   3.851   0.535   8.779 -0.3262 -0.4183  0.4202
14304SOL    HW144353   3.835   0.618   8.824  1.2944  0.0822  0.1163
14304SOL    HW244354   3.940   0.542   8.745 -1.3790 -0.7781 -2.8113
14305SOL     OW44355   6.602   1.748   8.625  0.0863  0.5098  0.4346
14305SOL    HW144356   6.679   1.791   8.588 -0.3678  0.8879 -0.0760
14305SOL    HW244357   6.572   1.689   8.556  0.5983 -0.5093  1.0660
14306SOL     OW44358   4.591   2.859   8.366 -0.1675 -0.3070  0.0433
14306SOL    HW144359   4.513   2.908   8.340  0.2768  0.1205 -0.5164
14306SOL    HW244360   4.626   2.907   8.441 -0.7166 -0.7919  0.6261
14307SOL     OW44361   5.654   3.924   5.947 -0.0473 -0.3751 -0.1612
14307SOL    HW144362   5.572   3.974   5.949 -0.3461 -0.7328 -2.1062
14307SOL    HW244363   5.718   3.984   5.907  0.6627 -0.1280  1.2601
14308SOL     OW44364   3.655   1.112   7.578 -0.0208 -0.0363  0.0831
14308SOL    HW144365   3.577   1.145   7.533 -0.9955 -0.0110  1.7127
14308SOL    HW244366   3.688   1.187   7.628 -0.4746 -0.6883  1.4073
14309SOL     OW44367   5.378   2.844   9.853  0.2133 -0.0045  0.5244
14309SOL    HW144368   5.346   2.842   9.943  1.0578 -0.8377  0.8253
14309SOL    HW244369   5.342   2.925   9.816 -1.0879 -0.2194  1.2476
14310SOL     OW44370   5.141   3.969   8.488  0.5848  0.3111  0.4285
14310SOL    HW144371   5.087   3.928   8.555  0.1675 -2.1652 -1.2862
14310SOL    HW244372   5.081   4.024   8.439  0.5687  0.9266  1.1268
14311SOL     OW44373   4.790   2.280   8.938  0.2009 -0.2479 -0.2591
14311SOL    HW144374   4.800   2.314   8.849  0.7069  0.1934 -0.0431
14311SOL    HW244375   4.727   2.208   8.930  2.4115 -2.2120 -1.5262
14312SOL     OW44376   6.075   2.951   8.470  0.2856  0.2212  0.3441
14312SOL    HW144377   6.054   2.991   8.555  0.6490  1.0920  0.0434
14312SOL    HW244378   6.020   2.873   8.465  1.5059 -0.8114  2.1224
14313SOL     OW44379   6.230   5.074   9.813 -0.3860 -0.4495  0.3460
14313SOL    HW144380   6.176   5.117   9.747 -1.0575 -1.3078  0.3186
14313SOL    HW244381   6.235   5.137   9.885  1.2649  0.9647 -0.9032
14314SOL     OW44382   6.349   1.390   8.989 -0.0703 -0.0812 -0.4820
14314SOL    HW144383   6.429   1.438   8.968  0.9387 -1.3681  0.2349
14314SOL    HW244384   6.346   1.319   8.926 -0.5468 -0.1590 -0.3780
14315SOL     OW44385   3.641   3.071   9.447  0.4349 -0.3851  0.0947
14315SOL    HW144386   3.673   3.107   9.529  0.2114  2.1950 -0.8438
14315SOL    HW244387   3.718   3.066   9.391 -0.1381  3.4446 -1.3380
14316SOL     OW44388   4.277   2.520   7.740 -0.0597 -0.3425 -0.3032
14316SOL    HW144389   4.220   2.585   7.698 -1.6010 -0.3267  1.6483
14316SOL    HW244390   4.361   2.564   7.751 -0.0186  0.0856 -2.1079
14317SOL     OW44391   4.138   2.649   9.639 -0.1895  0.0831  0.2181
14317SOL    HW144392   4.154   2.710   9.567 -1.5679  0.2969  0.0645
14317SOL    HW244393   4.171   2.694   9.717  1.0728 -0.0414 -0.2186
14318SOL     OW44394   4.251   2.491   6.750 -0.1069  0.3985  0.2276
14318SOL    HW144395   4.319   2.423   6.753 -1.6293 -1.1818  1.2899
14318SOL    HW244396   4.272   2.543   6.673  0.1638 -2.3597 -1.7132
14319SOL     OW44397   3.368   2.525   8.305 -0.5996  0.7156 -0.0910
14319SOL    HW144398   3.290   2.562   8.346  0.8550  2.4073  1.2981
14319SOL    HW244399   3.392   2.589   8.237 -1.4390 -0.7310 -1.8440
14320SOL     OW44400   5.867   3.962   7.183  0.2977  0.1229 -0.2773
14320SOL    HW144401   5.834   3.938   7.269 -0.5155 -0.2730 -0.6846
14320SOL    HW244402   5.883   3.879   7.139 -2.0355  0.2660 -1.5174
14321SOL     OW44403   5.353   1.697   8.919 -0.5534 -0.2373  0.3056
14321SOL    HW144404   5.297   1.630   8.880 -2.2733  1.9770 -1.3328
14321SOL    HW244405   5.437   1.654   8.933 -1.2653 -2.4397 -1.6134
14322SOL     OW44406   4.337   2.527   7.410  0.0430 -0.4831 -0.3847
14322SOL    HW144407   4.346   2.622   7.415  0.4739 -0.3949 -2.0549
14322SOL    HW244408   4.246   2.510   7.435  0.4834  0.1425  1.8613
14323SOL     OW44409   5.310   1.766   8.234 -0.6417 -0.2690 -0.4576
14323SOL    HW144410   5.330   1.818   8.312 -1.7352  1.3311 -1.1870
14323SOL    HW244411   5.255   1.823   8.181 -1.2585 -1.9219 -1.6744
14324SOL     OW44412   4.352   3.815   8.149  0.2809  0.1377  0.1881
14324SOL    HW144413   4.289   3.758   8.106  0.5863 -0.4485  0.5060
14324SOL    HW244414   4.360   3.890   8.090 -0.2351 -0.0742 -0.1626
14325SOL     OW44415   5.166   3.595   8.410  0.6466  0.5977 -0.1810
14325SOL    HW144416   5.077   3.625   8.392  0.8044  0.3520 -1.5144
14325SOL    HW244417   5.208   3.591   8.324  1.3583 -1.1219  0.1996
14326SOL     OW44418   3.216   1.302   9.102 -0.2090 -0.0255 -0.7416
14326SOL    HW144419   3.177   1.322   9.017 -0.0376  2.3280 -0.3373
14326SOL    HW244420   3.142   1.278   9.157 -0.8476  2.0557 -0.6218
14327SOL     OW44421   3.536   1.897   8.589  0.6303  0.3680  0.5111
14327SOL    HW144422   3.482   1.820   8.572  0.9287  0.5210 -1.3119
14327SOL    HW244423   3.574   1.881   8.676 -1.3443 -0.2925  1.3140
14328SOL     OW44424   2.636   1.155   7.673  0.2150  0.1349 -0.0538
14328SOL    HW144425   2.584   1.232   7.698 -0.9643 -1.0088  1.1744
14328SOL    HW244426   2.605   1.133   7.585  2.0283  2.2140 -1.3286
14329SOL     OW44427   4.371   2.132   8.998  0.1166  0.7411  0.4838
14329SOL    HW144428   4.317   2.080   8.939  0.6166 -0.4428  1.0355
14329SOL    HW244429   4.309   2.193   9.039 -0.9807 -0.9667  1.5266
14330SOL     OW44430   4.511   2.273  10.897  0.3487 -0.0050  0.0473
14330SOL    HW144431   4.443   2.263  10.830 -0.9908 -5.5349  1.6464
14330SOL    HW244432   4.463   2.291  10.978  1.1904  0.0266  0.5518
14331SOL     OW44433   6.373   1.313   7.700  0.1400 -0.2654  0.5500
14331SOL    HW144434   6.419   1.307   7.617 -0.9223 -0.9688 -0.0197
14331SOL    HW244435   6.362   1.406   7.715 -0.5696 -0.1328 -0.6429
14332SOL     OW44436   4.247   2.852   6.614  0.0212  0.6391  0.1456
14332SOL    HW144437   4.299   2.914   6.666 -0.3739  1.2734 -0.2138
14332SOL    HW244438   4.156   2.872   6.636 -0.2843  2.2285 -2.1909
14333SOL     OW44439   3.852   1.605   9.503 -0.1096  0.2691  0.0902
14333SOL    HW144440   3.870   1.693   9.535  0.5709  0.1239  0.1259
14333SOL    HW244441   3.772   1.614   9.451 -0.0220  0.9181  0.0616
14334SOL     OW44442   5.260   1.867   7.583 -0.2517  0.3708  0.1516
14334SOL    HW144443   5.258   1.928   7.657  1.7735  1.9107 -0.9685
14334SOL    HW244444   5.228   1.917   7.509  1.7608  0.2467 -0.8603
14335SOL     OW44445   5.303   1.847   7.907  0.2301  0.1401  0.2761
14335SOL    HW144446   5.366   1.900   7.956  0.0501  0.4562  0.1712
14335SOL    HW244447   5.345   1.761   7.899 -0.4057 -0.4459  2.4008
14336SOL     OW44448   4.309   0.553   8.095 -0.5549  0.6348 -0.1280
14336SOL    HW144449   4.268   0.470   8.072 -1.9961  1.3140 -0.1219
14336SOL    HW244450   4.316   0.601   8.013 -0.0547  0.6512 -0.0778
14337SOL     OW44451   4.201   2.220   6.854  0.3351 -0.2483 -0.4770
14337SOL    HW144452   4.257   2.237   6.778 -1.2479  2.2408 -1.2192
14337SOL    HW244453   4.113   2.211   6.818 -0.2500 -0.5195  0.9369
14338SOL     OW44454   5.824   3.821   9.807  0.0081  0.2634 -0.3309
14338SOL    HW144455   5.749   3.807   9.750  1.5813 -2.6514 -1.9647
14338SOL    HW244456   5.897   3.779   9.761  2.6367  2.7444  1.2496
14339SOL     OW44457   6.108   3.367   9.147 -0.3309  0.3403 -0.3120
14339SOL    HW144458   6.079   3.344   9.059 -0.1963  0.1055 -0.2975
14339SOL    HW244459   6.164   3.294   9.173 -0.4227  0.3776 -0.0082
14340SOL     OW44460   4.669   3.362   8.316  0.2647 -0.5372 -0.1573
14340SOL    HW144461   4.648   3.358   8.409 -1.2199 -0.3730 -0.4611
14340SOL    HW244462   4.594   3.408   8.276  1.7503  1.1600 -1.1745
14341SOL     OW44463   5.219   1.431   8.509  0.5249 -0.1374 -0.6204
14341SOL    HW144464   5.203   1.341   8.481  0.3477 -1.2650  2.5802
14341SOL    HW244465   5.299   1.457   8.464  0.9218 -2.1572 -1.1795
14342SOL     OW44466   5.717   1.532   7.780  0.3189  0.7501  0.0804
14342SOL    HW144467   5.629   1.517   7.748 -0.1757 -2.3444  2.4405
14342SOL    HW244468   5.705   1.568   7.867  1.4332  1.5322 -0.0732
14343SOL     OW44469   5.473   0.730   4.879 -0.0555 -0.2633  0.5175
14343SOL    HW144470   5.384   0.698   4.889  0.4031 -2.1009 -0.7291
14343SOL    HW244471   5.467   0.799   4.813 -0.2486 -2.3031 -1.7301
14344SOL     OW44472   4.277   3.182   7.668 -0.3943  0.0016 -0.7355
14344SOL    HW144473   4.268   3.166   7.574  0.0817  0.0504 -0.7941
14344SOL    HW244474   4.322   3.266   7.673  1.3765 -0.9053 -0.5047
14345SOL     OW44475   5.256   1.480   6.589  0.0042  0.0791 -0.0105
14345SOL    HW144476   5.164   1.492   6.568  0.6497  3.9137 -1.4238
14345SOL    HW244477   5.270   1.531   6.669  0.5786 -2.2568  1.4901
14346SOL     OW44478   4.346   2.626   8.769 -0.6923  0.7482 -0.8489
14346SOL    HW144479   4.282   2.617   8.699  0.3663  0.1860 -1.7706
14346SOL    HW244480   4.423   2.665   8.728 -0.1844  0.7625  0.0772
14347SOL     OW44481   4.549   4.249   8.754 -0.4304 -0.1436 -0.1341
14347SOL    HW144482   4.591   4.271   8.671  0.7001  0.2189  0.5061
14347SOL    HW244483   4.526   4.157   8.746  0.2079 -0.2661 -0.6353
14348SOL     OW44484   6.016   4.198   7.677  0.6259 -0.2931 -0.4761
14348SOL    HW144485   5.973   4.223   7.758 -0.0601 -2.1177 -0.2340
14348SOL    HW244486   6.108   4.185   7.702  0.3691 -1.1023  0.0763
14349SOL     OW44487   6.996   1.013   6.396 -0.4264  0.7338  0.6630
14349SOL    HW144488   6.904   1.027   6.421 -0.8316  0.3742 -0.5511
14349SOL    HW244489   7.011   1.074   6.325  0.2183  0.6383  0.7139
14350SOL     OW44490   4.820   1.043   8.253  0.1175  0.6840  0.0145
14350SOL    HW144491   4.818   0.978   8.324 -0.2068  1.0858  0.3769
14350SOL    HW244492   4.898   1.021   8.202 -1.4271 -1.7438 -1.5148
14351SOL     OW44493   4.368   2.692   6.955 -0.0476 -0.0878  0.0822
14351SOL    HW144494   4.314   2.623   6.915  0.5359  0.8615 -2.5496
14351SOL    HW244495   4.304   2.757   6.984 -0.4494 -0.1247 -0.6838
14352SOL     OW44496   3.496   3.352   7.104 -0.3434 -0.2576 -0.1730
14352SOL    HW144497   3.494   3.399   7.021  0.8538  0.1055 -0.0166
14352SOL    HW244498   3.576   3.300   7.101  0.1533  0.3762  1.0573
14353SOL     OW44499   4.856   2.505   9.356 -0.0811  0.0348 -0.1283
14353SOL    HW144500   4.893   2.514   9.268 -2.4590 -1.0282 -1.3294
14353SOL    HW244501   4.840   2.411   9.365  0.4118  0.0909  1.6035
14354SOL     OW44502   5.427   3.444   7.765  0.1334  0.0092  0.0759
14354SOL    HW144503   5.366   3.408   7.701  0.4806  0.1236 -0.3273
14354SOL    HW244504   5.386   3.429   7.850 -0.6437  0.4418 -0.2117
14355SOL     OW44505   3.790   2.132   9.867 -0.2237 -0.6409  0.6549
14355SOL    HW144506   3.712   2.087   9.900 -0.4953  0.0729  1.0086
14355SOL    HW244507   3.763   2.165   9.781 -1.8202  3.2543  2.4151
14356SOL     OW44508   5.908   1.506   7.507  0.1563  0.0338  0.1825
14356SOL    HW144509   5.845   1.568   7.545  1.4318  1.9277 -0.6063
14356SOL    HW244510   5.914   1.532   7.415 -0.6136 -2.5030 -0.6635
14357SOL     OW44511   4.947   3.401   7.923  0.2333  0.1856 -0.6237
14357SOL    HW144512   4.855   3.417   7.942  0.1184 -0.6027 -0.4606
14357SOL    HW244513   4.949   3.387   7.828  0.2791  0.7531 -0.7114
14358SOL     OW44514   5.345   2.324   6.389 -0.3913  0.3072 -0.0128
14358SOL    HW144515   5.348   2.322   6.485 -2.4063  0.7856  0.0936
14358SOL    HW244516   5.327   2.416   6.369  0.1747  0.2351 -0.8767
14359SOL     OW44517   2.937   2.528   8.204  0.1050  0.1188  0.4541
14359SOL    HW144518   2.905   2.611   8.169  0.6675 -0.1386 -0.7328
14359SOL    HW244519   3.027   2.522   8.172 -0.2038 -1.3428 -0.2416
14360SOL     OW44520   4.185   2.208   9.763  0.0356  0.0332 -0.2109
14360SOL    HW144521   4.107   2.259   9.786  0.4110 -0.2310  1.7969
14360SOL    HW244522   4.162   2.118   9.783  0.9916  0.0040  0.8474
14361SOL     OW44523   5.232   2.530   8.406 -0.2045  0.7380  0.0340
14361SOL    HW144524   5.152   2.582   8.405 -1.4749 -1.0752 -1.4533
14361SOL    HW244525   5.271   2.545   8.320 -0.3705 -0.3540 -0.2534
14362SOL     OW44526   5.083   2.131   8.659 -0.7660 -0.0524  0.4224
14362SOL    HW144527   5.102   2.125   8.565 -0.9425  2.7210  0.1111
14362SOL    HW244528   5.039   2.050   8.680  1.3598 -1.8029 -1.3496
14363SOL     OW44529   4.904   2.773   9.456 -0.2006  0.1377 -0.5875
14363SOL    HW144530   4.910   2.813   9.369  0.4919  2.4549  0.4485
14363SOL    HW244531   4.863   2.688   9.440  1.2237 -0.1636 -3.3565
14364SOL     OW44532   4.239   1.096   9.663 -0.3239  0.8486 -0.0319
14364SOL    HW144533   4.278   1.182   9.649  2.4443 -0.4475 -1.2015
14364SOL    HW244534   4.241   1.054   9.576 -0.7661 -0.7013  0.6633
14365SOL     OW44535   6.262   1.726   8.807  0.6245 -0.0171 -0.4728
14365SOL    HW144536   6.250   1.776   8.888 -0.2159 -0.1119 -0.5278
14365SOL    HW244537   6.341   1.673   8.823  0.9294  0.5591 -0.0262
14366SOL     OW44538   4.797   1.711   7.727  0.3493  0.0106 -0.0366
14366SOL    HW144539   4.774   1.746   7.640 -0.7586 -0.0702  0.2133
14366SOL    HW244540   4.775   1.782   7.788 -1.3831 -0.8781  0.4185
14367SOL     OW44541   4.698   3.053   7.847 -0.3617 -0.1411 -0.1142
14367SOL    HW144542   4.670   3.103   7.770 -1.3394  0.9549  0.9163
14367SOL    HW244543   4.643   3.086   7.919  1.9895  0.4323  1.5337
14368SOL     OW44544   4.206   2.845  10.180  0.8096 -0.1110 -0.3013
14368SOL    HW144545   4.288   2.883  10.150  0.3509  0.6581 -0.6315
14368SOL    HW244546   4.165   2.915  10.231 -0.6899  0.3851 -2.0598
14369SOL     OW44547   5.188   3.141   8.320  0.7243 -0.4922  0.6746
14369SOL    HW144548   5.165   3.211   8.381  0.6746 -0.5840  0.7637
14369SOL    HW244549   5.157   3.171   8.235  1.1417 -0.1910  0.6257
14370SOL     OW44550   5.066   2.930   8.494 -0.2636 -0.9988 -0.2423
14370SOL    HW144551   5.113   2.977   8.424  2.1992  0.1800  2.0169
14370SOL    HW244552   4.997   2.991   8.520  0.9218  0.0859  0.5256
14371SOL     OW44553   5.852   0.782   6.643 -0.4294  0.1546  0.0503
14371SOL    HW144554   5.781   0.762   6.581  0.6316  2.3226 -2.0439
14371SOL    HW244555   5.862   0.877   6.636  2.2184 -0.0148  0.7890
14372SOL     OW44556   6.114   3.424   7.490 -0.1625  0.0421  0.1365
14372SOL    HW144557   6.090   3.510   7.454  2.7275  0.8794 -0.0426
14372SOL    HW244558   6.076   3.423   7.578 -0.1298  1.5867  0.1961
14373SOL     OW44559   6.613   3.446   7.655 -0.1762  0.4207  0.0621
14373SOL    HW144560   6.663   3.527   7.643 -0.0720  0.5154  1.0528
14373SOL    HW244561   6.550   3.467   7.724 -1.4313  0.2225 -0.9929
14374SOL     OW44562   2.934   3.185   7.894  0.2765  0.2199 -0.1138
14374SOL    HW144563   3.017   3.169   7.940  0.3195 -0.3694 -0.3946
14374SOL    HW244564   2.951   3.264   7.842  0.4546  0.4750  0.3226
14375SOL     OW44565   4.816   2.840  10.101  0.2459  0.3001  0.0308
14375SOL    HW144566   4.905   2.854  10.068  0.9189  0.0191  1.6668
14375SOL    HW244567   4.760   2.886  10.038  1.5311  0.5287 -0.9949
14376SOL     OW44568   3.404   2.025   9.604  0.4672 -0.5387 -0.7712
14376SOL    HW144569   3.408   2.120   9.612 -0.8687 -0.4820 -0.6093
14376SOL    HW244570   3.491   2.000   9.571  0.2606  0.8938 -2.5089
14377SOL     OW44571   2.823   1.007   8.918 -0.3682  0.6421 -0.2359
14377SOL    HW144572   2.840   1.067   8.991 -0.5386  0.9332 -0.4379
14377SOL    HW244573   2.752   1.048   8.869 -0.1241  0.5363 -0.6746
14378SOL     OW44574   4.406   2.960   7.764 -0.6627  0.1378 -0.0115
14378SOL    HW144575   4.355   3.035   7.735 -1.5237  0.0200  1.1371
14378SOL    HW244576   4.406   2.966   7.859  0.2533 -0.6773  0.0554
14379SOL     OW44577   5.105   1.819   7.209  0.6778 -0.5186 -0.2386
14379SOL    HW144578   5.089   1.793   7.300 -0.6008 -1.8581 -0.8098
14379SOL    HW244579   5.130   1.911   7.215  0.3261 -0.5007  1.4478
14380SOL     OW44580   4.709   1.773   7.484 -0.4921  0.2157  0.1870
14380SOL    HW144581   4.698   1.866   7.463  0.6600  0.0683 -1.1571
14380SOL    HW244582   4.636   1.729   7.442  0.2513  0.2598 -1.1910
14381SOL     OW44583   3.493   1.371   9.645  0.5309  0.6086  0.5515
14381SOL    HW144584   3.446   1.437   9.594  3.0529  1.4925 -0.8330
14381SOL    HW244585   3.572   1.417   9.675  1.9346 -1.5139  0.2821
14382SOL     OW44586   4.794   2.623   8.795 -0.0962  0.0955  0.3953
14382SOL    HW144587   4.876   2.626   8.746  0.2402  3.0608  0.9270
14382SOL    HW244588   4.725   2.629   8.728  0.2173  0.2728  0.0856
14383SOL     OW44589   5.018   2.424  10.103 -0.4550  0.0350  0.0549
14383SOL    HW144590   5.025   2.492  10.036 -0.6444 -0.3937 -0.4050
14383SOL    HW244591   4.935   2.380  10.083  0.0858 -0.8915 -0.1832
14384SOL     OW44592   5.735   1.200   5.972 -0.1322 -0.3264 -0.7189
14384SOL    HW144593   5.728   1.110   6.002  1.5145  0.1083  1.1633
14384SOL    HW244594   5.817   1.203   5.923  0.0763  0.2243 -0.3563
14385SOL     OW44595   5.155   1.000   7.556 -0.0268 -0.0204 -0.0549
14385SOL    HW144596   5.203   1.015   7.638 -0.4794  0.5849  0.1066
14385SOL    HW244597   5.105   1.080   7.543 -0.7313 -0.5086 -0.4044
14386SOL     OW44598   4.247   2.767   7.217  0.4385 -0.2748 -0.4948
14386SOL    HW144599   4.240   2.753   7.312 -1.4399  1.2553 -0.3698
14386SOL    HW244600   4.266   2.860   7.208  1.2793 -0.5340 -1.6415
14387SOL     OW44601   5.981   3.364   8.589  0.1365  0.5689 -0.2062
14387SOL    HW144602   5.906   3.365   8.529  0.4814 -0.2438 -0.6729
14387SOL    HW244603   5.971   3.443   8.641 -0.2385  1.2375 -1.2532
14388SOL     OW44604   3.844   3.070  10.536 -0.2086  0.0265 -0.2483
14388SOL    HW144605   3.868   3.158  10.508 -0.2947  0.6184  1.4182
14388SOL    HW244606   3.754   3.058  10.505 -0.6086  0.9832  0.5139
14389SOL     OW44607   6.365   0.488   6.839  0.2477 -0.1925  0.3874
14389SOL    HW144608   6.299   0.524   6.780 -0.4960  0.1757  1.4136
14389SOL    HW244609   6.322   0.484   6.924  1.1576 -1.1055  0.8339
14390SOL     OW44610   4.880   0.675   6.925  0.4823  0.4246 -0.5044
14390SOL    HW144611   4.844   0.643   7.008  2.6282  0.8103  0.6395
14390SOL    HW244612   4.865   0.603   6.863  0.3327 -0.5447  0.6300
14391SOL     OW44613   4.549   2.825   8.934  0.4348 -0.0790 -0.2101
14391SOL    HW144614   4.545   2.800   8.842 -1.0309  2.3484 -0.8847
14391SOL    HW244615   4.492   2.762   8.978  1.6549 -1.6590 -0.7970
14392SOL     OW44616   3.934   3.857   7.679  0.7675 -0.1963  0.4802
14392SOL    HW144617   3.918   3.911   7.601  1.1620 -0.6510  0.0813
14392SOL    HW244618   3.860   3.877   7.737 -0.7963 -1.5447 -0.9350
14393SOL     OW44619   4.303   2.193   8.490  0.6007  0.6335  0.2686
14393SOL    HW144620   4.356   2.264   8.527  1.4997  0.0588  0.0995
14393SOL    HW244621   4.351   2.113   8.512 -0.1221  0.1120 -0.0181
14394SOL     OW44622   5.131   2.123   7.814 -0.2745  0.0281 -0.2918
14394SOL    HW144623   5.117   2.208   7.856  1.2076  0.6398 -0.9353
14394SOL    HW244624   5.073   2.124   7.738 -1.4323 -0.2219  0.5585
14395SOL     OW44625   3.709   0.370  10.841 -0.2968 -0.2700  0.4145
14395SOL    HW144626   3.713   0.275  10.854  0.5233 -0.2598  0.2525
14395SOL    HW244627   3.617   0.387  10.818 -0.4865 -0.9986  0.6024
14396SOL     OW44628   4.007   3.478   8.256 -0.6183  0.1745  0.4851
14396SOL    HW144629   4.052   3.501   8.175 -0.5379 -0.7806  0.2527
14396SOL    HW244630   3.930   3.429   8.227  0.0749 -1.2674  1.0318
14397SOL     OW44631   3.952   2.829   7.302 -0.4863 -0.1659  0.1474
14397SOL    HW144632   3.890   2.894   7.267  0.1262  0.3957  0.0979
14397SOL    HW244633   4.003   2.877   7.366  0.6083 -0.3470 -0.5683
14398SOL     OW44634   4.125   3.140   8.061 -0.1092 -0.3558  0.0510
14398SOL    HW144635   4.110   3.169   8.151 -0.4002  1.1497 -0.4543
14398SOL    HW244636   4.076   3.203   8.007  0.7847 -0.6933 -1.1997
14399SOL     OW44637   5.641   7.782   7.220 -0.2027  0.3611 -0.2924
14399SOL    HW144638   5.691   7.703   7.240  1.7898  1.0568 -2.1118
14399SOL    HW244639   5.602   7.764   7.134  0.1806  1.2768 -0.6711
14400SOL     OW44640   4.055   1.600   7.751 -0.2777 -0.2217  0.1960
14400SOL    HW144641   4.048   1.669   7.817 -2.0473 -0.8494  0.7362
14400SOL    HW244642   3.970   1.601   7.707 -0.6131 -2.4765  0.6825
14401SOL     OW44643   4.610   2.153   8.455  0.1380 -0.0731  0.0939
14401SOL    HW144644   4.667   2.124   8.526  0.9983  1.4908  0.0805
14401SOL    HW244645   4.581   2.241   8.482  2.2176  1.5130 -2.4138
14402SOL     OW44646   5.202   3.330   9.038  0.2181  0.4384 -0.1713
14402SOL    HW144647   5.172   3.394   8.974  1.3651  1.3851  0.2177
14402SOL    HW244648   5.254   3.268   8.987  0.2751  0.6063 -0.3173
14403SOL     OW44649   4.844   2.989   7.570 -0.1521 -0.0499  0.3527
14403SOL    HW144650   4.809   2.959   7.486  0.9556  1.1086 -0.5685
14403SOL    HW244651   4.779   3.053   7.600 -0.0331  0.3157 -0.1538
14404SOL     OW44652   3.689   1.290   8.405  0.2964  0.2391 -0.3832
14404SOL    HW144653   3.657   1.216   8.354  1.1620 -1.7244  1.7604
14404SOL    HW244654   3.770   1.315   8.361 -0.9562  1.2806 -2.2584
14405SOL     OW44655   4.084   2.855   7.984  0.0515 -0.6306  0.0102
14405SOL    HW144656   4.044   2.834   8.068  1.1922 -0.6154  0.5692
14405SOL    HW244657   4.079   2.950   7.978  2.1120 -0.3753  1.2098
14406SOL     OW44658   5.035   2.617   7.311  0.1796  0.1894 -0.4375
14406SOL    HW144659   5.015   2.588   7.400  0.5053 -0.5785 -0.6069
14406SOL    HW244660   4.949   2.640   7.274 -0.2253 -1.4146 -0.5768
14407SOL     OW44661   3.697   2.187   8.766 -0.1625 -0.2620 -0.1080
14407SOL    HW144662   3.623   2.246   8.778  0.4760  1.1563 -2.4729
14407SOL    HW244663   3.767   2.225   8.818 -0.1806  0.2522 -0.4531
14408SOL     OW44664   5.038   2.201   7.010  0.4082  0.0242  0.4522
14408SOL    HW144665   5.044   2.230   6.919 -0.0921 -2.3950 -0.4278
14408SOL    HW244666   4.949   2.165   7.018  1.2631 -2.1022  1.0968
14409SOL     OW44667   5.777   4.304   6.808  0.0567 -0.0537  0.2486
14409SOL    HW144668   5.714   4.290   6.878  0.1566 -0.5911  0.2384
14409SOL    HW244669   5.731   4.277   6.728  0.4531 -0.9334  0.3008
14410SOL     OW44670   4.200   2.076   9.497 -1.1824  0.4337  0.0900
14410SOL    HW144671   4.232   2.124   9.573  1.1454 -1.3869  0.3994
14410SOL    HW244672   4.224   2.130   9.422  4.2940 -1.3070  0.1870
14411SOL     OW44673   5.377   4.387   8.908 -0.3181 -0.1138  0.1886
14411SOL    HW144674   5.460   4.414   8.869  0.5446  1.0716  2.6373
14411SOL    HW244675   5.316   4.381   8.834  1.1767  2.0205 -1.3373
14412SOL     OW44676   5.012   4.469   9.109 -0.0454 -0.7711  0.0434
14412SOL    HW144677   4.943   4.535   9.107 -0.3729 -1.1022  0.2173
14412SOL    HW244678   5.022   4.441   9.018 -0.0411 -0.6226 -0.0019
14413SOL     OW44679   4.761   4.138   8.597  0.0412  0.2002 -0.0239
14413SOL    HW144680   4.751   4.043   8.593  4.1796 -0.3869 -2.7114
14413SOL    HW244681   4.753   4.167   8.507 -2.4321  2.7447  0.8782
14414SOL     OW44682   5.007   1.785   7.477  0.4193 -0.0129 -0.0864
14414SOL    HW144683   4.912   1.771   7.481  0.4464  0.0945  1.0149
14414SOL    HW244684   5.036   1.780   7.567  1.2599  1.4350 -0.2552
14415SOL     OW44685   3.839   3.433   7.547  0.1909  0.1842  0.0079
14415SOL    HW144686   3.802   3.498   7.488 -1.5845 -1.7474 -1.1266
14415SOL    HW244687   3.934   3.443   7.538 -0.0482  1.7515 -1.0851
14416SOL     OW44688   4.547   5.205   8.678  0.0593  0.4447  0.0661
14416SOL    HW144689   4.511   5.144   8.743  2.4685 -1.1790  0.0266
14416SOL    HW244690   4.571   5.149   8.604 -1.5609  2.1018 -1.8256
14417SOL     OW44691   6.653   1.877   8.280  0.0376  0.4944 -0.0405
14417SOL    HW144692   6.594   1.805   8.303 -0.0316 -0.1669 -2.1440
14417SOL    HW244693   6.618   1.912   8.198 -0.8278  3.9681  1.6158
14418SOL     OW44694   4.303   1.092   6.292 -0.0643 -0.3557  0.0985
14418SOL    HW144695   4.282   1.185   6.303 -1.2235 -0.7274  1.3493
14418SOL    HW244696   4.397   1.090   6.276  0.1130  0.9912  0.8287
14419SOL     OW44697   6.243   2.571   8.113  0.6378 -0.1309  0.0985
14419SOL    HW144698   6.250   2.592   8.020  1.1051 -0.7591 -0.0144
14419SOL    HW244699   6.229   2.656   8.156  1.8473  0.3365 -0.4042
14420SOL     OW44700   4.801   3.151   8.301 -0.0408  0.0942 -0.3284
14420SOL    HW144701   4.820   3.148   8.395 -1.6428  1.1804  0.0692
14420SOL    HW244702   4.750   3.231   8.289  0.0544 -0.0761 -2.1200
14421SOL     OW44703   5.354   3.603   7.043  0.2925 -0.0996  0.1761
14421SOL    HW144704   5.338   3.558   7.126  0.9786 -0.0934  0.3161
14421SOL    HW244705   5.397   3.538   6.988  0.2553  0.0406 -0.0216
14422SOL     OW44706   4.919   3.392   6.512 -0.5817 -0.1297 -0.3278
14422SOL    HW144707   4.900   3.436   6.430 -0.2862  0.5861 -0.0227
14422SOL    HW244708   5.010   3.362   6.504 -0.2210  0.8184  0.1114
14423SOL     OW44709   4.199   3.621   8.053 -0.3606 -0.0561  0.2035
14423SOL    HW144710   4.135   3.651   7.989 -3.0407 -4.5242  0.3865
14423SOL    HW244711   4.250   3.555   8.007  1.1387  0.2625  1.3394
14424SOL     OW44712   4.775   3.110   6.915  0.1822  0.4876 -0.3959
14424SOL    HW144713   4.711   3.039   6.926 -0.8335  1.3498 -0.5935
14424SOL    HW244714   4.722   3.187   6.896  1.1526  1.6113  1.1763
14425SOL     OW44715   3.413   3.748   6.945  0.0522  0.2700  0.3410
14425SOL    HW144716   3.371   3.663   6.932  1.3449 -0.1986 -1.0106
14425SOL    HW244717   3.488   3.748   6.886  0.2698  2.2398  0.5297
14426SOL     OW44718   4.075   1.971   7.601 -0.7271  0.2567  0.6812
14426SOL    HW144719   4.058   2.063   7.623  0.0646  0.5337  0.1792
14426SOL    HW244720   3.993   1.941   7.561 -0.3850  1.3192 -0.9285
14427SOL     OW44721   3.112   3.908   7.492 -0.1531  0.1972 -0.3379
14427SOL    HW144722   3.142   3.998   7.506  0.3712 -0.0845  0.4413
14427SOL    HW244723   3.184   3.867   7.444  0.7860 -0.4847  1.5457
14428SOL     OW44724   4.072   2.678   9.182  0.1900 -0.1616  0.3585
14428SOL    HW144725   4.148   2.646   9.134  1.3309 -0.2505  2.1512
14428SOL    HW244726   4.063   2.617   9.255 -1.0752  0.3734  0.6714
14429SOL     OW44727   5.645   2.650   8.205 -0.0642 -0.0906  0.1921
14429SOL    HW144728   5.625   2.632   8.113 -0.9343 -1.1052  0.5602
14429SOL    HW244729   5.700   2.729   8.202 -0.8230  0.4337 -1.1358
14430SOL     OW44730   4.347   3.087   9.695  0.7917  1.0046  0.6167
14430SOL    HW144731   4.287   3.115   9.625  1.0554 -0.6134 -0.3074
14430SOL    HW244732   4.427   3.062   9.649  0.9986 -0.0222  1.5000
14431SOL     OW44733   4.776   1.099   7.070  0.9378  0.0872 -0.6035
14431SOL    HW144734   4.801   1.077   7.160  0.7796  3.5936  0.4450
14431SOL    HW244735   4.701   1.044   7.052 -0.4862  0.8449  2.3445
14432SOL     OW44736   4.944   2.669   6.640  0.4245 -0.0440  0.1285
14432SOL    HW144737   4.969   2.735   6.575 -1.4838  1.2411  0.6250
14432SOL    HW244738   4.942   2.716   6.723  1.1804 -1.2753  0.8873
14433SOL     OW44739   3.489   2.893   6.997  0.2673 -0.3358  0.2555
14433SOL    HW144740   3.541   2.956   6.947  1.3448 -1.3939 -0.0217
14433SOL    HW244741   3.546   2.868   7.070  0.0557 -1.3333  0.0920
14434SOL     OW44742   3.799   1.964   8.291  0.0477 -0.5430 -0.7596
14434SOL    HW144743   3.859   2.004   8.228 -1.9820  1.7478 -1.3911
14434SOL    HW244744   3.833   1.990   8.377 -0.5880  1.8125 -1.1320
14435SOL     OW44745   5.421   2.858   9.052  0.1511  0.2614 -0.0058
14435SOL    HW144746   5.423   2.936   8.997 -0.6923 -0.4223 -1.0667
14435SOL    HW244747   5.333   2.856   9.088  0.8767  1.0199  1.9121
14436SOL     OW44748   4.348   2.514   9.498 -0.4111  0.0837 -0.0439
14436SOL    HW144749   4.380   2.576   9.432 -0.7568  0.1064 -0.1965
14436SOL    HW244750   4.284   2.564   9.548 -0.5480 -0.0910 -0.0418
14437SOL     OW44751   5.104   3.163   8.790  0.1536  0.3453  0.0717
14437SOL    HW144752   5.047   3.132   8.719 -0.0433  0.6940  0.0737
14437SOL    HW244753   5.100   3.259   8.783 -0.9992  0.4227  1.4410
14438SOL     OW44754   3.589   1.090   9.224 -0.4659  0.4733  0.6537
14438SOL    HW144755   3.612   1.136   9.304 -1.1836  1.0448  0.5338
14438SOL    HW244756   3.558   1.158   9.165 -2.3176 -0.2448  0.7506
14439SOL     OW44757   4.466   4.090   9.567 -0.0484  0.2140 -0.0269
14439SOL    HW144758   4.373   4.104   9.551  0.0970  0.3763 -0.7951
14439SOL    HW244759   4.492   4.022   9.504  0.6054  1.0517 -0.6933
14440SOL     OW44760   4.957   1.854   6.740 -0.0923 -0.3425 -0.0143
14440SOL    HW144761   5.041   1.832   6.779 -0.3989  1.0723  1.5323
14440SOL    HW244762   4.895   1.853   6.813 -1.5158 -1.6929 -1.1778
14441SOL     OW44763   5.188   1.573  10.025  0.4632 -0.2306  0.1907
14441SOL    HW144764   5.223   1.485  10.035 -1.9304 -1.1343  1.6681
14441SOL    HW244765   5.120   1.564   9.958 -0.4759  0.2285  1.0534
14442SOL     OW44766   5.845   1.506   8.352 -0.0739 -0.0154 -0.0922
14442SOL    HW144767   5.924   1.458   8.374  0.8498  1.5010  0.0419
14442SOL    HW244768   5.785   1.440   8.318  0.4834 -1.5263  1.7330
14443SOL     OW44769   5.687   3.389   8.417  0.1760  0.2418 -0.1450
14443SOL    HW144770   5.761   3.386   8.357 -0.1376  0.1685 -0.5277
14443SOL    HW244771   5.623   3.444   8.374 -0.0071  0.2762  0.1715
14444SOL     OW44772   5.751   3.571   8.886 -0.0321  0.1607  0.3533
14444SOL    HW144773   5.800   3.652   8.879  0.3282 -0.1558 -1.1335
14444SOL    HW244774   5.668   3.589   8.841  0.2052 -0.3943 -0.3231
14445SOL     OW44775   4.280   2.367   7.068  0.0012 -0.3371  0.1649
14445SOL    HW144776   4.223   2.385   7.143  0.3720  0.5977  0.2359
14445SOL    HW244777   4.221   2.329   7.002 -1.0961  1.9601 -0.3224
14446SOL     OW44778   5.591   2.400   8.299 -0.1283  0.4029  0.0744
14446SOL    HW144779   5.588   2.493   8.279  0.9752  0.3379 -0.5053
14446SOL    HW244780   5.596   2.396   8.394  1.0847  1.0057  0.0562
14447SOL     OW44781   3.482   2.350   8.795  0.2287  0.6350 -0.0750
14447SOL    HW144782   3.520   2.432   8.763 -0.6400  0.6779 -1.0625
14447SOL    HW244783   3.397   2.344   8.751  0.3226 -0.8541 -0.1129
14448SOL     OW44784   3.381   1.158   8.932  0.1248 -0.3276 -0.4303
14448SOL    HW144785   3.444   1.227   8.911 -0.2021  0.2015  0.3163
14448SOL    HW244786   3.322   1.197   8.996 -1.7593 -0.3936 -2.0357
14449SOL     OW44787   3.511   1.425   8.154 -0.0682 -0.0160  0.1371
14449SOL    HW144788   3.503   1.345   8.206 -0.7605  0.7140  1.1951
14449SOL    HW244789   3.448   1.486   8.194 -1.2871  0.3075 -2.0975
14450SOL     OW44790   6.709   2.635   9.170  0.7147  0.6798  0.1689
14450SOL    HW144791   6.752   2.720   9.158  0.0458  1.3823  2.2671
14450SOL    HW244792   6.781   2.572   9.175  1.2720  1.2554 -0.3808
14451SOL     OW44793   2.096   4.327   8.623 -0.0851  0.0486 -0.0848
14451SOL    HW144794   2.005   4.355   8.629  0.1584  1.0084 -0.6094
14451SOL    HW244795   2.144   4.394   8.673  0.4717  0.3499 -1.0091
14452SOL     OW44796   4.109   3.396   7.404 -0.6894  0.0543 -0.7312
14452SOL    HW144797   4.163   3.318   7.395 -0.6970  0.2078 -2.3290
14452SOL    HW244798   4.052   3.396   7.327 -2.0349  0.6265  0.2065
14453SOL     OW44799   3.654   2.854   8.687 -0.0044 -0.1407  0.3457
14453SOL    HW144800   3.565   2.886   8.683 -0.3714 -0.9903  1.2165
14453SOL    HW244801   3.686   2.881   8.773  0.4301 -0.2089  0.2094
14454SOL     OW44802   5.168   1.130   7.108 -0.0285  0.0873  0.1082
14454SOL    HW144803   5.108   1.198   7.139 -1.3340 -1.4264  1.0868
14454SOL    HW244804   5.111   1.066   7.065  0.7283 -1.8029  1.7789
14455SOL     OW44805   2.772   2.400   7.337 -0.0535 -0.3233 -0.4489
14455SOL    HW144806   2.790   2.306   7.335 -0.4956 -0.4610  0.9180
14455SOL    HW244807   2.744   2.421   7.248 -0.0062 -1.4995 -0.7579
14456SOL     OW44808   3.776   2.421   6.725  0.0423 -0.5100  0.4942
14456SOL    HW144809   3.697   2.457   6.765 -1.6516 -2.6591 -0.7232
14456SOL    HW244810   3.847   2.476   6.760 -2.0883  2.7062  0.2388
14457SOL     OW44811   5.319   1.598   7.546 -0.6675 -0.2840  0.1853
14457SOL    HW144812   5.280   1.684   7.564 -1.8704 -0.6674 -0.4507
14457SOL    HW244813   5.281   1.571   7.463  0.6845 -0.8850 -0.2630
14458SOL     OW44814   5.893   1.225   8.402  0.4876 -0.8086 -0.0515
14458SOL    HW144815   5.825   1.207   8.337 -1.6354  0.6663  1.5944
14458SOL    HW244816   5.957   1.154   8.391 -2.1549 -3.2827 -0.5912
14459SOL     OW44817   4.811   0.812   7.304 -0.2727 -0.1996  0.0742
14459SOL    HW144818   4.841   0.881   7.364  0.0859  0.0306 -0.3668
14459SOL    HW244819   4.722   0.839   7.282 -1.1672 -1.3135  2.0229
14460SOL     OW44820   3.250   1.966   9.368 -0.4281 -0.0411 -0.3312
14460SOL    HW144821   3.336   1.998   9.394 -0.6821  1.4412 -1.2180
14460SOL    HW244822   3.264   1.927   9.281 -0.0013 -3.0343  0.9651
14461SOL     OW44823   2.902   2.135  10.947 -0.0131 -0.0951  0.4536
14461SOL    HW144824   2.890   2.048  10.909 -1.0703  1.3073 -2.8737
14461SOL    HW244825   2.840   2.139  11.019 -2.7196 -0.9687 -1.6648
14462SOL     OW44826   3.979   2.720  10.803 -0.4772  0.1269 -0.5275
14462SOL    HW144827   3.896   2.688  10.768 -0.9611  1.1039 -0.3368
14462SOL    HW244828   4.043   2.653  10.780 -1.3929 -0.8450 -0.3100
14463SOL     OW44829   5.273   2.327  10.044  0.1309 -0.3641  0.0568
14463SOL    HW144830   5.186   2.347  10.078  0.1335 -1.2171  0.6140
14463SOL    HW244831   5.260   2.315   9.950 -0.0815  0.9294 -0.0935
14464SOL     OW44832   4.740   3.263  11.395  0.0050  0.2513  0.5840
14464SOL    HW144833   4.695   3.297  11.317 -0.9654  0.4899  1.2340
14464SOL    HW244834   4.833   3.269  11.373 -0.2600 -0.5557 -0.9220
14465SOL     OW44835   5.969   2.469   9.339  0.1172  0.2231  0.4784
14465SOL    HW144836   5.887   2.518   9.346 -0.6497 -1.1810  1.6271
14465SOL    HW244837   5.953   2.387   9.386  2.0383 -0.2745  0.3419
14466SOL     OW44838   4.719   4.595   9.182  0.2905 -0.0059  0.2074
14466SOL    HW144839   4.644   4.546   9.149 -1.9142  1.7960  2.1328
14466SOL    HW244840   4.745   4.548   9.262  0.5564 -0.0676  0.0856
14467SOL     OW44841   4.854   3.665  11.407 -0.3110  0.3540 -0.2860
14467SOL    HW144842   4.916   3.603  11.445  1.7185  1.0540 -2.1744
14467SOL    HW244843   4.807   3.614  11.341  0.6275  0.5193 -1.1177
14468SOL     OW44844   3.233   2.828  11.254 -0.1977  0.2371 -0.2918
14468SOL    HW144845   3.301   2.851  11.190 -0.5724  1.4791 -0.2689
14468SOL    HW244846   3.278   2.831  11.338  0.2127 -1.0529 -0.4482
14469SOL     OW44847   4.005   4.430  11.294  0.2337  0.2617 -0.0408
14469SOL    HW144848   4.094   4.462  11.310  0.2494  0.4874 -0.5456
14469SOL    HW244849   3.954   4.462  11.369  0.5676  0.1774  0.2222
14470SOL     OW44850   1.961   3.829  11.111  0.0478  0.5899 -0.1378
14470SOL    HW144851   2.021   3.756  11.126 -1.4336 -0.4633  0.9229
14470SOL    HW244852   1.983   3.892  11.180  0.2368  0.4199 -0.0392
14471SOL     OW44853   6.566   4.137   9.682  0.2230 -0.2595 -0.9419
14471SOL    HW144854   6.478   4.135   9.718  0.8648 -1.1951  0.6802
14471SOL    HW244855   6.617   4.081   9.740  1.8663  0.1605 -1.9131
14472SOL     OW44856   5.715   2.799   9.378 -0.5811 -0.4104  0.3331
14472SOL    HW144857   5.704   2.829   9.288  0.0131  0.9874  0.6955
14472SOL    HW244858   5.636   2.829   9.423  0.3398  1.3663  0.8617
14473SOL     OW44859   4.856   2.350  11.534  0.0010 -0.2189 -0.3570
14473SOL    HW144860   4.892   2.395  11.610 -1.1810  0.2591 -0.0559
14473SOL    HW244861   4.784   2.298  11.569  0.9848 -1.9421 -0.7870
14474SOL     OW44862   4.525   3.571  10.352  0.1692 -0.4255 -0.4890
14474SOL    HW144863   4.598   3.633  10.350 -0.1474 -0.0631 -1.3014
14474SOL    HW244864   4.550   3.504  10.288 -0.1152 -0.4165 -0.6070
14475SOL     OW44865   5.227   2.115   1.090 -0.1994 -0.4169 -0.0148
14475SOL    HW144866   5.148   2.168   1.080  0.1502  0.5228  1.6839
14475SOL    HW244867   5.195   2.026   1.106 -0.8065 -0.6930 -2.3455
14476SOL     OW44868   4.890   1.842  12.458 -0.7290 -0.3420  0.4046
14476SOL    HW144869   4.810   1.891  12.474 -0.4400 -0.2506  1.6789
14476SOL    HW244870   4.860   1.760  12.419 -1.4690 -0.3852  1.0338
14477SOL     OW44871   4.709   5.569   9.635  0.0457 -0.1552  0.6908
14477SOL    HW144872   4.797   5.546   9.666  2.3022  3.1008 -2.5120
14477SOL    HW244873   4.689   5.501   9.570  1.5041  0.4922 -0.5005
14478SOL     OW44874   6.384   2.544   9.700  0.1652 -0.5172  0.4732
14478SOL    HW144875   6.323   2.481   9.661  0.2459 -0.5163  0.3447
14478SOL    HW244876   6.372   2.533   9.795 -0.1786 -0.3774  0.4501
14479SOL     OW44877   5.065   2.143   9.504 -0.1035  0.0965 -0.0248
14479SOL    HW144878   5.006   2.139   9.429 -0.2111  0.5564  0.0306
14479SOL    HW244879   5.008   2.162   9.579 -0.3962 -2.9758  0.6652
14480SOL     OW44880   4.628   2.009  10.950 -0.2957 -0.0074  0.4857
14480SOL    HW144881   4.542   1.987  10.985 -0.4434  2.4057  1.9239
14480SOL    HW244882   4.617   2.096  10.912  0.9334 -0.7586 -1.7938
14481SOL     OW44883   6.315   3.145  11.212 -0.1146 -0.3702  0.8866
14481SOL    HW144884   6.337   3.231  11.175  0.6496 -0.4269  1.1857
14481SOL    HW244885   6.229   3.125  11.176 -1.1701  1.3574  2.2877
14482SOL     OW44886   4.498   3.908  10.029  0.3365 -0.1272 -0.3569
14482SOL    HW144887   4.572   3.860   9.992  0.6051  0.4003 -0.5044
14482SOL    HW244888   4.490   3.987   9.976 -0.6240 -0.3949 -0.6363
14483SOL     OW44889   3.482   5.691  10.259 -0.1315  0.4565 -0.0353
14483SOL    HW144890   3.552   5.721  10.318 -0.5596  2.3166 -0.4142
14483SOL    HW244891   3.506   5.727  10.174 -1.1249  0.3961 -0.3437
14484SOL     OW44892   4.195   4.619  10.085 -0.0853 -0.1864 -0.4078
14484SOL    HW144893   4.229   4.548  10.140 -1.7475  0.2827  1.3640
14484SOL    HW244894   4.253   4.693  10.102 -1.5741  0.5053  2.2981
14485SOL     OW44895   5.470   4.210  10.561  0.1592  0.0701 -0.6250
14485SOL    HW144896   5.518   4.204  10.644 -1.1919  2.5504  0.4491
14485SOL    HW244897   5.392   4.157  10.574 -0.1174  0.5621 -0.2175
14486SOL     OW44898   6.856   2.683  11.125 -0.0455 -0.2085 -0.1858
14486SOL    HW144899   6.928   2.636  11.167  0.0831 -0.7996 -1.0229
14486SOL    HW244900   6.895   2.721  11.046 -0.2273  1.0557  0.3248
14487SOL     OW44901   3.920   2.319  10.254 -0.1671  0.0940  0.0428
14487SOL    HW144902   3.972   2.389  10.293  0.4889 -0.7986  0.8038
14487SOL    HW244903   3.943   2.320  10.161  0.5607  0.2649  0.2249
14488SOL     OW44904   4.121   3.405  11.611  0.0276  0.3674  0.0033
14488SOL    HW144905   4.135   3.333  11.550 -1.6003 -0.6771  0.7762
14488SOL    HW244906   4.072   3.471  11.561  3.0325  1.8176 -1.2312
14489SOL     OW44907   5.771   1.444   9.430  0.0878  0.4386 -0.0777
14489SOL    HW144908   5.738   1.409   9.347  1.3263  0.4941 -0.6278
14489SOL    HW244909   5.740   1.383   9.496  0.7887 -0.7879 -0.8333
14490SOL     OW44910   5.061   2.774   0.108  0.4714  0.3253  0.0433
14490SOL    HW144911   4.999   2.836   0.071  0.9957  0.2313 -1.0275
14490SOL    HW244912   5.121   2.754   0.036  1.5264  0.1366  0.9513
14491SOL     OW44913   4.612   4.654  11.998  0.2469  0.0894  0.1713
14491SOL    HW144914   4.592   4.580  11.940  0.8571 -0.9224  1.1982
14491SOL    HW244915   4.692   4.627  12.043  1.4439  2.1285 -0.6470
14492SOL     OW44916   4.248   5.591  11.907  0.1214  0.3233  0.2757
14492SOL    HW144917   4.271   5.498  11.899 -0.5059  0.1920 -0.1060
14492SOL    HW244918   4.251   5.609  12.001  1.1847  0.1703  0.2843
14493SOL     OW44919   5.936   4.386  10.820 -0.4067 -0.1019 -0.2875
14493SOL    HW144920   6.006   4.336  10.864  0.6663  1.2656 -0.3785
14493SOL    HW244921   5.882   4.319  10.778  0.3187 -1.2551  0.5484
14494SOL     OW44922   5.164   2.869   9.283 -0.0481 -0.2211 -0.0226
14494SOL    HW144923   5.152   2.786   9.236 -1.4065  0.1218 -0.3209
14494SOL    HW244924   5.093   2.925   9.251  0.7476  1.0064  0.2963
14495SOL     OW44925   5.137   5.126  11.542 -0.0071  0.4916 -0.0317
14495SOL    HW144926   5.053   5.122  11.495  0.1379 -2.9836 -0.2428
14495SOL    HW244927   5.123   5.073  11.620  2.2962 -1.2424 -0.7077
14496SOL     OW44928   5.192   2.754  11.548  0.6058  0.2345  0.2579
14496SOL    HW144929   5.248   2.684  11.514  0.2252  0.8951 -1.8094
14496SOL    HW244930   5.253   2.822  11.575  0.8689  0.7038 -1.4253
14497SOL     OW44931   2.982   2.183  10.284 -0.7198  0.5543  0.2863
14497SOL    HW144932   2.968   2.263  10.334 -1.4411  1.0676 -0.6957
14497SOL    HW244933   3.058   2.202  10.229 -0.6496  0.4165  0.3333
14498SOL     OW44934   5.375   1.158  10.591  0.3887  0.4718  0.2651
14498SOL    HW144935   5.427   1.237  10.604  1.7505 -0.3147 -0.1836
14498SOL    HW244936   5.412   1.117  10.512 -1.0161 -0.0493 -0.1565
14499SOL     OW44937   5.228   2.254  11.922  0.7908  0.3602  0.3772
14499SOL    HW144938   5.177   2.310  11.981  0.2601  1.1196 -0.7788
14499SOL    HW244939   5.175   2.175  11.912  0.2525  0.7783 -0.1155
14500SOL     OW44940   5.190   2.253  10.417  0.7313  0.0349  0.4113
14500SOL    HW144941   5.108   2.234  10.370  0.0904 -0.2103  1.5797
14500SOL    HW244942   5.245   2.177  10.400  0.9365  0.4452 -0.8306
14501SOL     OW44943   7.175   2.315  11.365 -0.3111  0.5322 -0.0116
14501SOL    HW144944   7.117   2.277  11.300 -1.9040  2.3636  0.2337
14501SOL    HW244945   7.199   2.242  11.422 -2.1097 -0.3707 -0.3387
14502SOL     OW44946   1.646   2.100  11.087  0.7882  0.0860 -0.2037
14502SOL    HW144947   1.607   2.131  11.169  1.4758  0.6724 -0.0904
14502SOL    HW244948   1.591   2.026  11.062  0.7342 -0.2877  0.9354
14503SOL     OW44949   3.612   5.541  12.288 -0.1882 -0.0653 -1.0508
14503SOL    HW144950   3.673   5.506  12.352  1.0305  1.2767 -1.4168
14503SOL    HW244951   3.589   5.466  12.233 -0.3866 -0.9906  0.2568
14504SOL     OW44952   4.665   2.619  10.032  0.4164 -0.4445 -0.7935
14504SOL    HW144953   4.717   2.686  10.076  0.7828 -1.3593  0.2108
14504SOL    HW244954   4.580   2.661  10.015 -0.4883 -0.6066  2.6251
14505SOL     OW44955   5.360   2.922  11.675 -0.4960 -0.5396 -0.2887
14505SOL    HW144956   5.448   2.901  11.706 -0.7673 -1.0402  0.1548
14505SOL    HW244957   5.335   2.999  11.726 -0.5537 -0.7682  0.0342
14506SOL     OW44958   6.241   2.901  10.874 -0.3165  0.5049 -0.2188
14506SOL    HW144959   6.331   2.918  10.845 -0.2897  0.2371 -0.3017
14506SOL    HW244960   6.190   2.970  10.833 -0.3938 -0.3168 -1.5786
14507SOL     OW44961   3.995   3.555  10.037 -0.0487 -0.1386 -0.3340
14507SOL    HW144962   3.988   3.650  10.050 -0.5525 -0.3958  1.5954
14507SOL    HW244963   3.905   3.523  10.044  0.3733 -1.0214  1.7837
14508SOL     OW44964   3.741   3.942  10.601  0.1136  0.0127  0.5316
14508SOL    HW144965   3.726   4.024  10.553  0.5276 -0.5918 -0.6652
14508SOL    HW244966   3.816   3.960  10.657  0.2038  0.4551  0.2705
14509SOL     OW44967   3.611   5.267   9.785 -0.2175 -0.1454 -0.0561
14509SOL    HW144968   3.677   5.224   9.730  0.0889  1.0367 -0.6600
14509SOL    HW244969   3.569   5.196   9.832  1.6869 -0.9188  0.5744
14510SOL     OW44970   3.833   3.672  10.249  0.0330 -0.0822  0.4171
14510SOL    HW144971   3.759   3.664  10.309  0.4499  1.5921  1.2310
14510SOL    HW244972   3.907   3.638  10.299  0.0868 -0.3273  0.1728
14511SOL     OW44973   4.311   6.168   9.943  0.4925 -0.1993 -0.5098
14511SOL    HW144974   4.274   6.249   9.909 -0.7759 -0.0546  1.0731
14511SOL    HW244975   4.284   6.100   9.880 -0.0815  0.3201 -0.8268
14512SOL     OW44976   4.875   3.093   8.604  0.3042 -0.7341 -0.0234
14512SOL    HW144977   4.867   3.175   8.652  1.5606 -1.8201  2.1905
14512SOL    HW244978   4.791   3.050   8.616  0.6338 -1.0326  1.3462
14513SOL     OW44979   5.413   3.122   7.824  0.7345  0.6060 -0.2342
14513SOL    HW144980   5.355   3.053   7.855  1.4200  0.3341  0.4843
14513SOL    HW244981   5.388   3.199   7.875  0.8779  0.5377 -0.0603
14514SOL     OW44982   5.142   3.984  11.132 -0.6715 -0.0365 -0.6698
14514SOL    HW144983   5.125   3.967  11.225 -1.6666 -1.2773 -1.0475
14514SOL    HW244984   5.122   3.901  11.089 -1.0177  0.7489 -2.0876
14515SOL     OW44985   3.068   2.199  12.427  0.2228 -0.1542  0.3023
14515SOL    HW144986   3.116   2.197  12.510  0.6420  0.1143  0.0668
14515SOL    HW244987   3.126   2.245  12.366  0.4236 -1.3692 -0.4540
14516SOL     OW44988   5.915   1.781   9.289  0.1114 -0.0458 -0.1197
14516SOL    HW144989   5.967   1.837   9.231  3.0799 -1.3952  1.0817
14516SOL    HW244990   5.827   1.785   9.251  1.5767  0.1295 -4.0209
14517SOL     OW44991   4.377   1.857  10.913 -0.4209  0.5156  0.0095
14517SOL    HW144992   4.287   1.823  10.918  0.2695 -1.6042 -0.8851
14517SOL    HW244993   4.416   1.832  10.997  0.2192 -1.4170 -0.8221
14518SOL     OW44994   4.454   2.003  11.872 -0.2174 -0.4962  0.0675
14518SOL    HW144995   4.376   1.952  11.892  0.4207 -1.6259 -0.2676
14518SOL    HW244996   4.469   1.989  11.778  1.4640 -1.8562  0.4983
14519SOL     OW44997   4.076   3.381  11.129  0.5699  0.0522 -0.4412
14519SOL    HW144998   4.120   3.436  11.194 -2.0490 -0.5226  2.0108
14519SOL    HW244999   4.025   3.442  11.076  0.0595  0.2775  0.2946
14520SOL     OW45000   3.346   2.808   9.633 -0.5534  0.1383  0.1971
14520SOL    HW145001   3.258   2.769   9.636 -1.1550  1.2939 -1.0900
14520SOL    HW245002   3.331   2.901   9.648  0.5657  0.2423  0.7523
14521SOL     OW45003   6.656   3.950   9.907  0.5621  0.1434  0.0344
14521SOL    HW145004   6.680   3.918   9.994  1.5177  2.0157  0.4960
14521SOL    HW245005   6.666   4.045   9.913 -2.2059  0.6001 -1.2515
14522SOL     OW45006   4.062   2.564   8.871 -0.3951  0.2957  0.2108
14522SOL    HW145007   4.114   2.596   8.944 -2.8867  0.4859  2.0618
14522SOL    HW245008   4.017   2.642   8.838 -1.5098 -0.2275  0.4430
14523SOL     OW45009   5.413   4.988  11.163  0.0617  0.1012 -0.1670
14523SOL    HW145010   5.491   5.037  11.189 -2.1871  2.4673  2.8381
14523SOL    HW245011   5.341   5.030  11.210 -2.9996 -2.3782 -2.1949
14524SOL     OW45012   6.053   4.242  11.012 -0.5483 -0.1239  0.3927
14524SOL    HW145013   6.061   4.235  11.108  1.8395 -2.0634  0.1556
14524SOL    HW245014   6.142   4.259  10.982 -1.5628  2.5918 -1.4502
14525SOL     OW45015   4.588   2.976   9.949  0.1746 -0.0012 -0.0740
14525SOL    HW145016   4.573   2.929   9.867 -0.0216  0.7327 -0.4761
14525SOL    HW245017   4.609   3.066   9.921  2.1120 -0.1972  0.5956
14526SOL     OW45018   4.738   4.720  11.333 -0.5373 -0.2892  0.1661
14526SOL    HW145019   4.667   4.763  11.286 -1.2561 -0.0072  1.4744
14526SOL    HW245020   4.754   4.640  11.283 -0.3765  0.6116 -1.2874
14527SOL     OW45021   4.896   2.188   9.752 -0.1946  0.5904 -0.2638
14527SOL    HW145022   4.854   2.273   9.769 -1.6477 -0.1807  0.0950
14527SOL    HW245023   4.873   2.134   9.828  0.2734 -0.2979 -0.7389
14528SOL     OW45024   4.134   0.774  11.536 -0.3034 -0.2281 -0.0517
14528SOL    HW145025   4.094   0.726  11.464  1.0854  0.0213 -1.0428
14528SOL    HW245026   4.093   0.861  11.533 -0.3103 -0.2449 -0.5098
14529SOL     OW45027   5.871   3.214   9.806 -0.3253  0.7514 -0.3337
14529SOL    HW145028   5.791   3.164   9.826  0.7184 -1.1337 -0.6280
14529SOL    HW245029   5.840   3.290   9.758 -1.8161 -1.1789 -2.6743
14530SOL     OW45030   3.840   1.358  11.918  0.3878 -0.0749 -0.3674
14530SOL    HW145031   3.869   1.449  11.921  3.0859 -0.7383 -2.2686
14530SOL    HW245032   3.835   1.332  12.010 -0.6008  1.9930  0.2211
14531SOL     OW45033   4.245   0.984  10.399  0.6153 -0.4850 -0.3104
14531SOL    HW145034   4.331   0.945  10.383  0.7818 -0.7708  1.1818
14531SOL    HW245035   4.264   1.071  10.433  0.3069 -0.3905 -0.3796
14532SOL     OW45036   5.556   1.758  11.520  0.2450 -0.9268  0.1317
14532SOL    HW145037   5.593   1.788  11.603 -0.7776  0.2554  0.1907
14532SOL    HW245038   5.488   1.822  11.499 -0.8880 -2.3094 -0.6247
14533SOL     OW45039   4.123   4.920   9.667  0.3879  0.0036 -0.2630
14533SOL    HW145040   4.165   4.901   9.583  0.3877  0.9111 -0.4695
14533SOL    HW245041   4.152   4.848   9.724  2.7674  0.8907 -0.2023
14534SOL     OW45042   4.808   2.477  10.437  0.0197 -0.0387  0.0093
14534SOL    HW145043   4.824   2.391  10.476  0.7951  0.3775  0.6221
14534SOL    HW245044   4.876   2.533  10.474 -2.0225  1.4852  1.6815
14535SOL     OW45045   7.147   3.606   7.966  0.2163  0.4086 -0.0558
14535SOL    HW145046   7.096   3.559   7.899 -1.4541  4.0850 -1.6834
14535SOL    HW245047   7.090   3.605   8.043 -0.4656  0.9311 -0.5340
14536SOL     OW45048   5.220   1.949   9.718 -0.4167  0.4407 -0.2289
14536SOL    HW145049   5.233   1.983   9.630 -1.7494  0.9784 -0.2430
14536SOL    HW245050   5.232   2.024   9.776 -1.4298  0.5335 -0.1148
14537SOL     OW45051   4.378   1.586  11.676 -0.2910 -0.0584 -0.2722
14537SOL    HW145052   4.464   1.625  11.657 -0.6500  0.1139 -1.6120
14537SOL    HW245053   4.387   1.495  11.648  0.1022 -0.6378  1.5729
14538SOL     OW45054   4.227   0.960  10.804 -0.0488  0.0474 -0.0483
14538SOL    HW145055   4.220   1.017  10.728 -0.0116  0.5340  0.3041
14538SOL    HW245056   4.167   0.888  10.787 -0.3743  0.3854 -0.3389
14539SOL     OW45057   3.822   3.312  11.285  0.1817  0.8354 -0.6377
14539SOL    HW145058   3.761   3.247  11.251  0.3192  0.5874 -0.4137
14539SOL    HW245059   3.799   3.393  11.239  0.3061  0.5293 -1.2459
14540SOL     OW45060   4.961   3.196   9.975 -1.0995 -0.3045 -0.1748
14540SOL    HW145061   5.048   3.182   9.938 -0.7275  0.3469  0.4403
14540SOL    HW245062   4.969   3.168  10.067 -1.0224  1.4932  0.3939
14541SOL     OW45063   4.610   3.729  11.555 -0.6498 -0.3093  0.2100
14541SOL    HW145064   4.634   3.711  11.646  0.7037  1.3608  0.2373
14541SOL    HW245065   4.693   3.725  11.507 -1.2140 -0.2554 -0.7960
14542SOL     OW45066   5.074   0.750   0.017  0.0088  0.0859  0.3822
14542SOL    HW145067   5.125   0.670   0.005 -0.7424 -0.1509 -1.8308
14542SOL    HW245068   5.019   0.732   0.093  2.2981 -0.0883  2.1056
14543SOL     OW45069   6.912   2.922   9.451  1.0727  0.0762  0.2361
14543SOL    HW145070   6.947   2.879   9.373  1.8885  0.0969  0.5906
14543SOL    HW245071   6.819   2.898   9.451  1.5222 -1.8554  0.5156
14544SOL     OW45072   6.700   4.450  11.434  0.2492 -0.3215  0.1767
14544SOL    HW145073   6.627   4.414  11.383  1.0155 -0.2661 -1.0083
14544SOL    HW245074   6.687   4.545  11.430  0.1561 -0.3292  0.3119
14545SOL     OW45075   5.654   1.371  10.353  0.9843 -0.7150  0.1997
14545SOL    HW145076   5.645   1.276  10.343 -0.6697 -0.4629 -1.1211
14545SOL    HW245077   5.684   1.401  10.267 -2.2943  0.3137 -0.7231
14546SOL     OW45078   2.288   3.253   7.916 -0.2042 -0.1794 -0.4154
14546SOL    HW145079   2.298   3.267   7.822 -0.3374 -0.6111 -0.4961
14546SOL    HW245080   2.372   3.217   7.944  0.6148  1.9002  0.0285
14547SOL     OW45081   5.181   4.087   9.940  0.2370  0.7422 -0.0503
14547SOL    HW145082   5.271   4.102   9.912 -0.2977  1.1166 -1.7265
14547SOL    HW245083   5.132   4.160   9.901 -0.7116  0.8875  1.3326
14548SOL     OW45084   5.420   2.110  12.070 -0.1038 -0.4243 -0.3083
14548SOL    HW145085   5.359   2.128  12.000 -0.7322  0.4444  0.4380
14548SOL    HW245086   5.368   2.116  12.150  1.0860  1.1418  0.4067
14549SOL     OW45087   5.673   3.041   8.914 -0.4692  0.4991  0.1523
14549SOL    HW145088   5.766   3.061   8.924 -0.3686  0.3494 -0.4071
14549SOL    HW245089   5.654   3.062   8.822 -1.0961  0.9560  0.3798
14550SOL     OW45090   5.626   3.716  10.434  0.2951  0.1682 -0.4225
14550SOL    HW145091   5.553   3.771  10.406  0.8447  0.2613 -1.7376
14550SOL    HW245092   5.700   3.746  10.381  0.5741 -1.9419 -1.2954
14551SOL     OW45093   4.441   5.336  10.987 -0.1238  0.5503 -0.3491
14551SOL    HW145094   4.437   5.287  11.069 -1.1607  0.3554 -0.4929
14551SOL    HW245095   4.530   5.323  10.955  0.4376  0.9925  0.9560
14552SOL     OW45096   5.142   3.009  11.377  0.0379 -0.1407 -0.3966
14552SOL    HW145097   5.151   2.938  11.440 -0.3975 -0.3167 -0.5263
14552SOL    HW245098   5.208   2.991  11.310 -0.8900 -1.1190 -1.0786
14553SOL     OW45099   4.082   3.936  11.334 -0.0671 -0.1351  0.1310
14553SOL    HW145100   3.996   3.945  11.374 -0.1055 -0.0106  0.0212
14553SOL    HW245101   4.077   3.855  11.285 -0.0910 -0.1761  0.2009
14554SOL     OW45102   4.228   2.813   9.454 -0.3831 -0.1434 -0.0299
14554SOL    HW145103   4.231   2.908   9.440  1.0589  0.0190  1.1013
14554SOL    HW245104   4.301   2.779   9.402 -1.7995 -0.8723 -1.6611
14555SOL     OW45105   4.524   4.316  11.145  0.1672  0.2088 -0.3241
14555SOL    HW145106   4.525   4.221  11.149  0.7083  0.1954 -0.6616
14555SOL    HW245107   4.474   4.344  11.222  0.5374 -0.3235  0.1077
14556SOL     OW45108   4.883   2.880  10.612  0.5288 -0.0199  0.0519
14556SOL    HW145109   4.848   2.799  10.648  1.5441 -0.7253 -0.4921
14556SOL    HW245110   4.964   2.854  10.568 -0.4705  0.8131 -2.5035
14557SOL     OW45111   3.757   2.423  10.971 -0.2347  0.5372  0.0488
14557SOL    HW145112   3.771   2.397  10.880 -1.0368 -1.6820  0.4820
14557SOL    HW245113   3.663   2.410  10.986  0.1049 -0.5112  1.5437
14558SOL     OW45114   4.701   3.528  11.233  0.1026 -0.2790  0.3442
14558SOL    HW145115   4.706   3.589  11.160  3.1462 -1.8123 -0.9119
14558SOL    HW245116   4.611   3.497  11.233 -0.2561  0.5623 -2.0971
14559SOL     OW45117   6.450   3.444   8.894 -0.3371 -0.0903 -0.0801
14559SOL    HW145118   6.413   3.484   8.973  0.6236  0.4578  0.1015
14559SOL    HW245119   6.454   3.516   8.831  0.0582 -0.2434 -0.2271
14560SOL     OW45120   4.087   4.415  11.036 -0.3178  0.7021  0.0422
14560SOL    HW145121   4.145   4.349  11.075  0.0894  1.2361  0.3532
14560SOL    HW245122   4.030   4.442  11.108 -1.1235  0.0026 -0.3233
14561SOL     OW45123   3.723   0.509   7.933 -0.3597  0.1802 -0.0317
14561SOL    HW145124   3.795   0.448   7.919 -0.6687 -0.3046  0.4526
14561SOL    HW245125   3.647   0.454   7.951 -0.9759  0.6716 -1.0560
14562SOL     OW45126   4.104   3.531  10.324  0.2478  0.2638 -0.2542
14562SOL    HW145127   4.123   3.590  10.251  1.0248  0.4587  0.0923
14562SOL    HW245128   4.185   3.482  10.337  0.8478  1.6683  1.7690
14563SOL     OW45129   3.099   3.010  11.586 -0.5884 -0.2957 -0.0547
14563SOL    HW145130   3.061   2.970  11.508 -0.7702 -1.0058  0.3828
14563SOL    HW245131   3.032   3.071  11.616 -1.0461 -0.9122  0.2202
14564SOL     OW45132   6.594   3.182  11.547 -0.6010  0.3081 -0.0226
14564SOL    HW145133   6.668   3.190  11.486  0.1747 -1.6842  0.5755
14564SOL    HW245134   6.550   3.102  11.520 -1.6443  0.6652  0.5901
14565SOL     OW45135   5.514   1.862   0.299 -0.1272  0.2128  0.5453
14565SOL    HW145136   5.489   1.829   0.212 -0.5067 -1.5394  1.2833
14565SOL    HW245137   5.486   1.954   0.298  2.4869  1.1520 -2.1940
14566SOL     OW45138   4.468   0.473   9.980  0.1074  0.2987 -0.3448
14566SOL    HW145139   4.458   0.441  10.070 -1.5722  0.2816 -0.5227
14566SOL    HW245140   4.479   0.567   9.989  0.9806  0.1910 -0.0866
14567SOL     OW45141   2.683   4.380  11.001 -0.6302 -0.3408  0.1441
14567SOL    HW145142   2.770   4.345  11.018 -0.2418  0.8390  0.7081
14567SOL    HW245143   2.698   4.469  10.968 -1.6234  0.3097  1.3404
14568SOL     OW45144   5.683   2.685  10.257  0.5409  0.2184  0.7563
14568SOL    HW145145   5.625   2.634  10.200  0.6882  0.7688  0.0936
14568SOL    HW245146   5.755   2.711  10.200  0.8601  0.5003  1.2849
14569SOL     OW45147   5.093   1.692   8.509  0.0264  0.1248  0.4190
14569SOL    HW145148   5.116   1.600   8.492 -0.8769  0.3450 -2.2798
14569SOL    HW245149   5.175   1.740   8.495  0.3571 -0.1657  1.2581
14570SOL     OW45150   4.338   1.744   0.180 -0.0935 -0.1935  0.6627
14570SOL    HW145151   4.292   1.662   0.160  1.2981 -1.5239  2.6264
14570SOL    HW245152   4.410   1.747   0.117  0.1287 -0.7277  0.8888
14571SOL     OW45153   2.465   3.783   0.296  0.5348 -0.0061  0.0312
14571SOL    HW145154   2.383   3.735   0.310  0.1018  0.4370 -0.8708
14571SOL    HW245155   2.509   3.781   0.381 -0.8302  0.5160  0.7743
14572SOL     OW45156   4.726   3.590   9.712 -0.2195  0.6690 -0.3108
14572SOL    HW145157   4.802   3.545   9.748 -1.1202  1.2788  2.6157
14572SOL    HW245158   4.712   3.549   9.627  1.4061 -1.7199  0.4612
14573SOL     OW45159   5.338   1.458  10.832 -0.1183  0.2252  0.4458
14573SOL    HW145160   5.385   1.376  10.845  2.1068  1.3740  0.1683
14573SOL    HW245161   5.323   1.462  10.737 -2.0405 -0.7656  0.6841
14574SOL     OW45162   4.669   3.591  10.915  0.2305  0.3463  0.3843
14574SOL    HW145163   4.586   3.584  10.869  0.8040 -0.0800 -0.6064
14574SOL    HW245164   4.725   3.526  10.874  1.2746  1.0996  0.5816
14575SOL     OW45165   5.843   0.121   9.866  0.0657 -0.2805  0.0917
14575SOL    HW145166   5.770   0.154   9.917  0.8504  2.3326 -0.3322
14575SOL    HW245167   5.832   0.160   9.779  0.4304 -2.1844 -0.8798
14576SOL     OW45168   4.934   3.560  10.475 -0.2482  0.2315 -0.6278
14576SOL    HW145169   4.881   3.628  10.515  0.4359 -0.2201  1.1736
14576SOL    HW245170   5.012   3.554  10.531  0.2488 -1.2220 -1.4093
14577SOL     OW45171   5.328   3.615  10.423  0.4978 -0.3405  0.0272
14577SOL    HW145172   5.298   3.706  10.432  1.7644  0.1978 -0.9405
14577SOL    HW245173   5.266   3.564  10.475  0.4903  1.2106  1.6274
14578SOL     OW45174   6.490   2.038  11.478 -0.0336 -0.4602 -0.1909
14578SOL    HW145175   6.493   2.114  11.420  1.6258  0.0868  0.5424
14578SOL    HW245176   6.432   1.976  11.434  2.7856 -0.9948 -3.5548
14579SOL     OW45177   3.394   4.411  10.982  0.6582 -0.3241  0.1492
14579SOL    HW145178   3.414   4.341  10.920  1.0563 -0.1063  0.0268
14579SOL    HW245179   3.347   4.368  11.053  1.9176 -0.9371  0.6400
14580SOL     OW45180   5.225   2.245   9.803 -0.1254 -0.6246  0.3521
14580SOL    HW145181   5.286   2.266   9.732 -1.0359  2.2014  0.2918
14580SOL    HW245182   5.140   2.278   9.773 -0.8514 -0.7747  2.0955
14581SOL     OW45183   4.042   2.540  10.382 -0.2671  0.1326 -0.0238
14581SOL    HW145184   4.006   2.625  10.409  0.7017 -0.0091  1.8924
14581SOL    HW245185   4.132   2.559  10.355 -0.1288 -0.2244  0.1657
14582SOL     OW45186   4.439   3.685  10.797  0.2342 -0.2192  0.4958
14582SOL    HW145187   4.450   3.779  10.789  3.5550 -0.6214 -1.3583
14582SOL    HW245188   4.394   3.659  10.717  0.3809 -0.3448  0.4546
14583SOL     OW45189   3.198   3.590   9.872  0.9463 -0.1007 -0.7428
14583SOL    HW145190   3.171   3.657   9.808  1.1189 -0.5155 -1.2552
14583SOL    HW245191   3.283   3.560   9.840  0.7470 -0.7566 -0.6644
14584SOL     OW45192   4.396   2.991  10.489 -0.6288  0.1664 -0.6359
14584SOL    HW145193   4.460   2.927  10.520 -2.0619 -1.1128 -0.1916
14584SOL    HW245194   4.421   3.007  10.397  0.9749  0.5860 -0.1644
14585SOL     OW45195   2.795   0.370  12.059 -0.0750 -0.1205 -0.8442
14585SOL    HW145196   2.829   0.430  11.993  0.7475  1.9771  1.3269
14585SOL    HW245197   2.872   0.339  12.106 -0.7175 -0.2138  0.1940
14586SOL     OW45198   3.651   3.841  11.390  0.7786 -0.2094  0.1897
14586SOL    HW145199   3.669   3.791  11.311 -0.3145 -4.5411  2.3707
14586SOL    HW245200   3.556   3.852  11.390  0.8303  0.2809  0.6555
14587SOL     OW45201   2.475   3.895  10.828 -0.0412  0.2121  0.4659
14587SOL    HW145202   2.565   3.862  10.829  0.1795  0.6768 -1.4421
14587SOL    HW245203   2.472   3.957  10.901  0.4248 -1.6223  2.1320
14588SOL     OW45204   4.053   3.047  11.629 -0.0488 -0.3532  0.3825
14588SOL    HW145205   3.988   3.086  11.688 -2.2848 -0.6526 -1.7025
14588SOL    HW245206   4.076   3.118  11.569 -0.4640 -0.9301 -0.4817
14589SOL     OW45207   5.585   2.455   9.557 -0.3563 -0.0030  0.4123
14589SOL    HW145208   5.558   2.369   9.590 -3.4726  0.7078  0.0080
14589SOL    HW245209   5.535   2.518   9.609  0.5456  1.5069 -0.4738
14590SOL     OW45210   4.428   2.943  11.480 -0.0542  0.6129  0.5902
14590SOL    HW145211   4.520   2.970  11.482  0.0417  0.4588 -0.8826
14590SOL    HW245212   4.402   2.943  11.572  2.1764 -1.9763  1.3587
14591SOL     OW45213   2.706   2.950   0.259 -0.1411 -0.0293  0.2982
14591SOL    HW145214   2.795   2.974   0.233 -0.0296 -0.2706  0.4523
14591SOL    HW245215   2.654   3.029   0.243  0.4067  0.6804  1.7774
14592SOL     OW45216   4.949   2.683  11.447 -0.1935  0.7450 -0.5366
14592SOL    HW145217   5.030   2.637  11.471  1.7098  2.3674 -3.2087
14592SOL    HW245218   4.923   2.729  11.526  1.4409  0.0626  0.4485
14593SOL     OW45219   4.615   2.024   9.788  0.0880 -0.2633 -0.0312
14593SOL    HW145220   4.684   2.042   9.853 -1.4627 -2.4090  2.3942
14593SOL    HW245221   4.552   2.095   9.800 -2.3384 -2.7041  4.2062
14594SOL     OW45222   5.707   2.135  11.979 -0.4856  0.3837 -0.0840
14594SOL    HW145223   5.621   2.097  11.996 -0.4032  0.3558  0.2703
14594SOL    HW245224   5.766   2.089  12.038 -0.7720  2.7714  2.2695
14595SOL     OW45225   5.439   3.809   9.873  0.1073 -0.0468 -0.2266
14595SOL    HW145226   5.441   3.722   9.913  0.7748 -0.0803 -0.3141
14595SOL    HW245227   5.517   3.811   9.817 -0.0975  0.4796 -0.5005
14596SOL     OW45228   5.474   2.578  10.669 -0.0673 -0.1406 -0.1244
14596SOL    HW145229   5.388   2.543  10.648  0.1300 -0.0304 -1.1765
14596SOL    HW245230   5.458   2.671  10.687  0.0320  0.2544 -1.9267
14597SOL     OW45231   4.814   4.917  11.009  0.3074  0.2608  0.4226
14597SOL    HW145232   4.755   4.977  11.054  1.4241  1.7008  0.0608
14597SOL    HW245233   4.806   4.835  11.057 -1.8134  0.4527  0.4844
14598SOL     OW45234   5.058   2.666   8.737  0.3593  0.6561 -0.7907
14598SOL    HW145235   5.114   2.609   8.791 -1.1702 -1.6645 -1.4981
14598SOL    HW245236   5.082   2.645   8.647 -1.8419 -0.7769 -1.1380
14599SOL     OW45237   3.279   4.207  11.570 -0.6770 -0.1061 -0.6424
14599SOL    HW145238   3.345   4.188  11.638  0.4811  0.0426 -1.6880
14599SOL    HW245239   3.200   4.231  11.619  0.4706  1.2082  0.6661
14600SOL     OW45240   4.231   2.395  11.337  0.5135  0.2864  0.0932
14600SOL    HW145241   4.156   2.454  11.333  1.5696  1.5830 -2.3900
14600SOL    HW245242   4.283   2.428  11.410 -0.9633 -0.2667  1.4647
14601SOL     OW45243   5.230   1.811   9.415  0.6646 -0.7472  0.0084
14601SOL    HW145244   5.138   1.816   9.440  0.7701 -0.3242  0.3279
14601SOL    HW245245   5.233   1.844   9.325  0.7561  1.0664  0.6384
14602SOL     OW45246   5.152   3.525   9.599 -0.3999  0.2094  0.5445
14602SOL    HW145247   5.202   3.526   9.518  0.0415  1.7696  0.8061
14602SOL    HW245248   5.134   3.617   9.618 -0.1306 -0.0841  2.4342
14603SOL     OW45249   4.487   5.069  11.454 -0.4143  0.5333 -0.0480
14603SOL    HW145250   4.547   5.095  11.524  0.5782  0.1246 -0.7315
14603SOL    HW245251   4.535   5.003  11.404 -1.8438 -0.5880  0.0145
14604SOL     OW45252   4.814   4.256  11.063  0.4621 -0.5892 -0.7864
14604SOL    HW145253   4.835   4.253  10.969  1.3174  0.7896 -0.6810
14604SOL    HW245254   4.739   4.315  11.069  2.2257  1.7536 -0.3997
14605SOL     OW45255   3.967   4.503  10.310 -0.0863  0.6454  0.7883
14605SOL    HW145256   3.883   4.501  10.262  0.3921  1.7065 -0.1413
14605SOL    HW245257   4.020   4.435  10.267  0.0176  0.9507  0.4311
14606SOL     OW45258   5.444   2.380  10.339 -0.7670 -0.0739 -0.3971
14606SOL    HW145259   5.361   2.337  10.360 -0.3390 -0.1944  1.1488
14606SOL    HW245260   5.499   2.365  10.416  0.3649  0.8308 -1.0011
14607SOL     OW45261   5.054   5.162  10.933  0.6525  0.6460  0.4247
14607SOL    HW145262   4.963   5.137  10.919  0.9089 -0.5148  0.7446
14607SOL    HW245263   5.100   5.132  10.854  0.7952  1.0795  0.3382
14608SOL     OW45264   4.495   5.263  12.018 -0.0817 -0.1293 -0.6343
14608SOL    HW145265   4.500   5.196  12.087  0.2453  0.5631  0.0300
14608SOL    HW245266   4.418   5.239  11.968 -0.0807 -0.8991 -0.2909
14609SOL     OW45267   4.385   2.529  11.869  0.1395  0.0113  0.7654
14609SOL    HW145268   4.479   2.512  11.862  0.2503  0.3366  1.3776
14609SOL    HW245269   4.375   2.621  11.847 -0.1811 -0.2758 -0.3467
14610SOL     OW45270   5.753   2.763  11.004 -0.2723 -0.1096 -0.1530
14610SOL    HW145271   5.742   2.770  10.910 -0.8625 -0.2980 -0.1043
14610SOL    HW245272   5.806   2.684  11.017  0.3908  0.2951 -0.3552
14611SOL     OW45273   6.758   3.653  10.806  0.4111  0.1555  0.0679
14611SOL    HW145274   6.774   3.706  10.727 -1.8584  0.6576 -0.1464
14611SOL    HW245275   6.715   3.714  10.866 -1.1809 -1.1113  0.2709
14612SOL     OW45276   5.225   7.511  10.323 -0.0226  0.0093 -0.3945
14612SOL    HW145277   5.303   7.471  10.363 -0.6950 -1.3898 -0.4029
14612SOL    HW245278   5.197   7.577  10.386  0.3606 -0.4596  0.2820
14613SOL     OW45279   5.241   2.464  10.576  0.2081 -0.2079 -0.1715
14613SOL    HW145280   5.244   2.394  10.510 -1.4627  0.7256 -1.3211
14613SOL    HW245281   5.183   2.430  10.644  1.6074 -1.0049  0.6842
14614SOL     OW45282   4.161   4.587  11.633 -0.1366 -0.2803 -0.3879
14614SOL    HW145283   4.160   4.493  11.652 -1.2916 -0.2521 -0.1960
14614SOL    HW245284   4.094   4.623  11.692  0.9192  0.8041  0.1927
14615SOL     OW45285   3.146   3.305  10.115 -0.8136  0.0544 -0.6175
14615SOL    HW145286   3.218   3.300  10.053 -0.8705  0.3583 -0.7109
14615SOL    HW245287   3.129   3.399  10.124  0.7468  0.2034  1.6661
14616SOL     OW45288   5.507   2.572  10.070 -0.5434  0.2874  0.3660
14616SOL    HW145289   5.556   2.546   9.992 -0.6549 -0.1065  0.4278
14616SOL    HW245290   5.434   2.511  10.074 -1.3392  1.1827 -0.0161
14617SOL     OW45291   3.957   3.541  11.440  0.8641 -0.1448  0.2393
14617SOL    HW145292   3.975   3.604  11.370  1.1208  0.8660  1.1681
14617SOL    HW245293   3.880   3.493  11.411 -1.0932  2.5044  0.6562
14618SOL     OW45294   6.572   4.558  10.277 -0.3060  0.3549  0.1194
14618SOL    HW145295   6.501   4.622  10.275 -0.4582  0.1837 -1.9548
14618SOL    HW245296   6.553   4.498  10.204  1.2768 -0.4648  0.3256
14619SOL     OW45297   4.864   2.168  10.970  0.1211 -0.0628  0.0131
14619SOL    HW145298   4.903   2.090  10.930  1.3467  0.5939 -0.1058
14619SOL    HW245299   4.782   2.136  11.008  0.3885 -1.3183 -0.4069
14620SOL     OW45300   6.122   1.859  11.104  0.0799 -0.2673  0.7147
14620SOL    HW145301   6.028   1.869  11.117 -0.3195 -0.1856 -1.6740
14620SOL    HW245302   6.157   1.948  11.113 -0.5593  0.2393 -1.2063
14621SOL     OW45303   4.665   4.711   8.776  0.7028 -0.2571 -0.2456
14621SOL    HW145304   4.573   4.701   8.803  0.8398 -2.7661 -0.4969
14621SOL    HW245305   4.662   4.711   8.680  0.8683  1.2974 -0.2798
14622SOL     OW45306   5.496   1.236  11.201  0.3644  0.5342  0.2455
14622SOL    HW145307   5.405   1.244  11.230 -0.1014 -1.6649 -0.4566
14622SOL    HW245308   5.490   1.230  11.106  0.8856 -2.7774  0.3120
14623SOL     OW45309   3.183   2.221   0.180  0.2966 -0.2182  0.2400
14623SOL    HW145310   3.247   2.288   0.203 -0.1276  0.1627  0.3204
14623SOL    HW245311   3.099   2.256   0.210 -0.1547 -0.0866 -1.1256
14624SOL     OW45312   4.179   0.675  11.767  0.3460 -0.3365 -0.8273
14624SOL    HW145313   4.188   0.711  11.679  0.5854  1.7374  0.0025
14624SOL    HW245314   4.253   0.615  11.776  1.4357  0.8964 -1.3644
14625SOL     OW45315   3.642   1.977   9.499  0.7289 -0.5189 -0.0701
14625SOL    HW145316   3.700   1.915   9.546 -0.9043 -1.1862  1.1613
14625SOL    HW245317   3.678   1.980   9.410  1.5149 -2.4132  0.1284
14626SOL     OW45318   4.460   2.998  10.972 -0.3469  0.1624 -0.4352
14626SOL    HW145319   4.381   2.949  10.995 -0.3031 -0.4687 -1.5783
14626SOL    HW245320   4.526   2.970  11.035  0.0881 -2.3767 -1.9014
14627SOL     OW45321   2.733   3.402   9.855 -0.4032  0.1637  0.0330
14627SOL    HW145322   2.656   3.440   9.813  0.2754  1.8158  0.1983
14627SOL    HW245323   2.774   3.350   9.787 -0.7431  0.6718 -0.5784
14628SOL     OW45324   5.576   4.267  10.269  0.1973 -0.0887  0.3350
14628SOL    HW145325   5.644   4.331  10.249 -0.4959  0.3203 -0.8069
14628SOL    HW245326   5.548   4.288  10.358  1.3126 -0.0544  0.6921
14629SOL     OW45327   2.281   1.570  11.730  0.4157 -0.2826 -0.1629
14629SOL    HW145328   2.363   1.533  11.698 -0.3782 -1.5963 -0.7601
14629SOL    HW245329   2.301   1.662  11.748  1.4990 -0.0249 -2.3045
14630SOL     OW45330   3.557   4.178   9.477 -0.2527  0.2576 -0.2729
14630SOL    HW145331   3.638   4.129   9.465 -0.7482 -0.3046 -1.4011
14630SOL    HW245332   3.564   4.251   9.415  0.3215  1.4653  1.1421
14631SOL     OW45333   3.231   2.131  10.957  0.6361  0.2411  0.2102
14631SOL    HW145334   3.218   2.062  10.891  0.0927 -0.3510  0.9277
14631SOL    HW245335   3.237   2.084  11.040 -1.5175  1.1452  0.9525
14632SOL     OW45336   4.873   4.905  10.726 -0.2998 -0.3154  0.2812
14632SOL    HW145337   4.859   4.924  10.818 -0.3457 -1.2722  0.4819
14632SOL    HW245338   4.808   4.838  10.705  0.6046 -1.1064 -0.0855
14633SOL     OW45339   4.614   2.034  11.235 -0.3086 -0.1673  0.4171
14633SOL    HW145340   4.561   1.972  11.184 -0.2014  0.6847 -0.7780
14633SOL    HW245341   4.563   2.051  11.313 -1.2168 -0.3438 -0.1244
14634SOL     OW45342   4.862   2.143  12.003  0.1100 -0.2251  0.1476
14634SOL    HW145343   4.909   2.070  12.042  0.3139 -1.5715 -2.4000
14634SOL    HW245344   4.901   2.221  12.043  1.0449 -1.4444  1.7121
14635SOL     OW45345   5.100   1.792  10.144  0.4698 -0.0215  0.1492
14635SOL    HW145346   5.010   1.774  10.171  0.3218 -0.6515 -0.7158
14635SOL    HW245347   5.132   1.708  10.110  0.8452  0.5950 -1.0555
14636SOL     OW45348   3.765   2.995  11.096 -0.2285 -0.3648  0.3420
14636SOL    HW145349   3.847   3.045  11.094 -0.6379  0.3666  1.3496
14636SOL    HW245350   3.738   2.997  11.187 -1.4749 -0.4247 -0.0152
14637SOL     OW45351   4.192   0.959   8.959 -0.2628 -0.3917  1.0048
14637SOL    HW145352   4.201   0.925   9.047  1.0420 -1.1944  0.5796
14637SOL    HW245353   4.280   0.956   8.922 -0.8884 -0.7668 -0.5662
14638SOL     OW45354   5.641   1.467   0.132 -0.2011 -0.1662 -0.2136
14638SOL    HW145355   5.570   1.416   0.093 -0.3355 -0.1643  0.0315
14638SOL    HW245356   5.674   1.520   0.059  1.0283 -1.7886 -0.8995
14639SOL     OW45357   3.377   5.670  10.691 -0.6513  0.2211  0.2404
14639SOL    HW145358   3.369   5.673  10.786 -1.7081  1.0602  0.1440
14639SOL    HW245359   3.352   5.581  10.668 -0.8878  0.1594  0.7145
14640SOL     OW45360   4.444   1.895  11.591 -0.4744 -0.0296  0.2655
14640SOL    HW145361   4.355   1.913  11.564 -0.0401  0.6314 -0.7754
14640SOL    HW245362   4.498   1.958  11.542  0.6744 -1.2129 -0.0564
14641SOL     OW45363   6.760   2.110  10.817  0.6314 -0.0961  0.4439
14641SOL    HW145364   6.726   2.175  10.755  1.0434  1.5008  1.8115
14641SOL    HW245365   6.692   2.043  10.820  0.2407  0.1722 -1.1133
14642SOL     OW45366   6.029   3.041  10.743  0.1800 -0.1152  0.1066
14642SOL    HW145367   6.019   2.969  10.682 -1.8846 -0.2632  0.5566
14642SOL    HW245368   5.997   3.118  10.696 -0.7312 -0.0974  0.7329
14643SOL     OW45369   3.937   5.307   0.274  0.5045 -0.1171 -0.2236
14643SOL    HW145370   3.964   5.344   0.190 -0.5814  0.0410 -0.5198
14643SOL    HW245371   4.009   5.250   0.299  1.5389  1.0161 -0.5019
14644SOL     OW45372   5.394   4.512  11.431  0.2033 -0.5904 -0.2092
14644SOL    HW145373   5.298   4.520  11.435  0.3394  0.9803  1.4849
14644SOL    HW245374   5.415   4.449  11.500  0.5446  1.5984  1.7918
14645SOL     OW45375   5.514   3.498  10.613 -0.0956  0.3203 -0.1574
14645SOL    HW145376   5.571   3.432  10.572  0.1352  1.0975 -1.1330
14645SOL    HW245377   5.526   3.577  10.559  1.1246  1.7644  2.0720
14646SOL     OW45378   4.114   1.036  10.075 -0.2124  0.4056 -0.0149
14646SOL    HW145379   4.191   1.030  10.019  0.4797  0.3357  0.9192
14646SOL    HW245380   4.097   0.945  10.102 -0.0102  0.5341  0.5693
14647SOL     OW45381   4.779   4.095  11.297  0.1379 -0.0243  0.4222
14647SOL    HW145382   4.782   4.142  11.214 -1.2796  0.1437  0.4411
14647SOL    HW245383   4.687   4.071  11.308  0.0298  1.0820  2.5595
14648SOL     OW45384   4.800   3.388  10.799 -0.8943 -0.0073 -0.4684
14648SOL    HW145385   4.892   3.402  10.818 -1.2013  0.4783  0.7707
14648SOL    HW245386   4.779   3.304  10.841 -1.6872  1.2884  1.8661
14649SOL     OW45387   4.670   1.840   9.349 -0.6953  0.2742  0.5800
14649SOL    HW145388   4.633   1.810   9.266 -0.4399  0.2610  0.4713
14649SOL    HW245389   4.620   1.919   9.371 -0.8327  0.2190  0.4674
14650SOL     OW45390   3.064   0.119   9.765 -0.6572 -0.0942 -0.1390
14650SOL    HW145391   3.074   0.036   9.811 -3.1531 -1.1991 -1.3472
14650SOL    HW245392   3.148   0.134   9.721  0.1884 -1.3963  0.9739
14651SOL     OW45393   5.458   1.727   9.778 -0.0798 -0.1701  0.0561
14651SOL    HW145394   5.546   1.696   9.754 -0.2964  0.8558 -2.2705
14651SOL    HW245395   5.421   1.759   9.697 -2.6444 -0.5306  1.0018
14652SOL     OW45396   5.475   3.403   9.147  0.2381  0.3353  0.3009
14652SOL    HW145397   5.544   3.467   9.132 -0.9695  1.6296  0.0557
14652SOL    HW245398   5.395   3.447   9.119 -0.7633 -0.9135  1.0816
14653SOL     OW45399   4.673   4.572  11.102 -0.0966  0.2182  0.0687
14653SOL    HW145400   4.622   4.497  11.132  0.0674 -0.0255 -0.2598
14653SOL    HW245401   4.740   4.534  11.045 -0.2541  0.6565 -0.4088
14654SOL     OW45402   4.899   2.264  10.635 -0.7033 -0.1695  0.5951
14654SOL    HW145403   4.956   2.204  10.683 -0.7868 -0.0034  0.9048
14654SOL    HW245404   4.929   2.351  10.661 -2.0164 -0.0692  1.8712
14655SOL     OW45405   3.571   3.250  10.155 -0.7312 -0.4211 -0.5184
14655SOL    HW145406   3.525   3.237  10.239  1.1489  1.5760  0.9500
14655SOL    HW245407   3.501   3.265  10.092 -2.1966  0.2925  1.1691
14656SOL     OW45408   3.331   3.413  10.913  0.5714  0.4378 -0.0099
14656SOL    HW145409   3.286   3.342  10.868 -0.4536  1.1557 -0.1414
14656SOL    HW245410   3.410   3.429  10.861  0.3428  0.0121 -0.4913
14657SOL     OW45411   3.635   3.536   0.036 -0.1170 -0.5103  0.3320
14657SOL    HW145412   3.689   3.460   0.014  0.1498 -0.4890  0.9010
14657SOL    HW245413   3.671   3.568   0.119 -0.5763 -0.0892  0.3738
14658SOL     OW45414   3.176   1.035  11.372 -0.1843 -0.2014  0.1821
14658SOL    HW145415   3.264   1.001  11.388  0.2274 -0.4908 -2.2264
14658SOL    HW245416   3.168   1.109  11.431  0.6638 -1.6950  2.2988
14659SOL     OW45417   5.303   1.275   2.265  0.1813 -0.0001 -0.3157
14659SOL    HW145418   5.235   1.313   2.209 -0.9047 -0.1727  0.8493
14659SOL    HW245419   5.319   1.188   2.228 -1.1505 -0.4532  0.1457
14660SOL     OW45420   4.676   2.203  12.224 -0.8293  0.1432  0.2496
14660SOL    HW145421   4.703   2.190  12.133 -2.0101  0.3013 -0.1298
14660SOL    HW245422   4.596   2.153  12.234 -0.7296  0.1471  1.2043
14661SOL     OW45423   4.894   3.641  11.736 -0.1641  0.3142 -0.1912
14661SOL    HW145424   4.837   3.713  11.763 -1.6903 -1.0032  0.2983
14661SOL    HW245425   4.952   3.679  11.671 -1.0224  1.9467 -0.0467
14662SOL     OW45426   5.518   3.371  12.421 -0.3824  0.6908  0.5878
14662SOL    HW145427   5.542   3.382  12.513  0.2074  0.1397  0.5081
14662SOL    HW245428   5.430   3.334  12.423  0.2157 -0.8223  0.9895
14663SOL     OW45429   6.382   3.810   9.094  0.2492  0.4115  0.5471
14663SOL    HW145430   6.460   3.755   9.095  0.3221  0.4590 -0.5498
14663SOL    HW245431   6.335   3.788   9.174  0.7166 -0.6033  0.5587
14664SOL     OW45432   2.555   2.072  12.103  0.1937  0.0516  0.0933
14664SOL    HW145433   2.485   2.135  12.121 -1.1167 -1.3826  0.3404
14664SOL    HW245434   2.580   2.040  12.189  2.3000  1.6371  0.1408
14665SOL     OW45435   3.955   2.334  11.727  0.1685  0.1798 -0.5779
14665SOL    HW145436   3.946   2.382  11.809  0.2705 -0.3946 -0.2223
14665SOL    HW245437   3.947   2.400  11.658  1.9130  0.9526 -0.0819
14666SOL     OW45438   4.463   3.640   0.579  0.0141  0.5436  0.1684
14666SOL    HW145439   4.406   3.641   0.503 -0.5084 -3.6911  0.2575
14666SOL    HW245440   4.545   3.680   0.548 -0.4095 -0.3922 -2.4222
14667SOL     OW45441   5.185   2.925  12.267 -0.2048  1.0311 -0.0803
14667SOL    HW145442   5.235   2.886  12.339 -1.4366  1.0098  0.7998
14667SOL    HW245443   5.234   3.004  12.244 -0.1088  1.3838  1.2336
14668SOL     OW45444   4.925   1.341   0.466  0.5396 -0.5403  0.6014
14668SOL    HW145445   4.843   1.388   0.475  0.1961 -0.8407 -0.7909
14668SOL    HW245446   4.950   1.351   0.375  1.3088 -1.6598  0.6574
14669SOL     OW45447   4.113   3.988  12.126 -0.3106  0.3940 -0.1878
14669SOL    HW145448   4.081   4.076  12.106 -1.2073  0.0862 -0.1850
14669SOL    HW245449   4.181   4.001  12.191 -0.6114  1.0740  0.0038
14670SOL     OW45450   3.767   0.667   1.292 -0.5577 -0.0265  0.0720
14670SOL    HW145451   3.707   0.717   1.348 -0.2001 -0.3606  0.7698
14670SOL    HW245452   3.800   0.598   1.349 -1.0811 -1.0935 -0.8915
14671SOL     OW45453   3.623   3.685  10.406  0.4356  0.1855  0.0262
14671SOL    HW145454   3.595   3.711  10.494  1.0617 -1.8401  0.8880
14671SOL    HW245455   3.542   3.683  10.355  0.0332  1.2026  0.6002
14672SOL     OW45456   3.565   3.569  11.549  0.1836  0.3855 -0.6954
14672SOL    HW145457   3.634   3.636  11.547 -0.2668  0.8661 -0.4902
14672SOL    HW245458   3.612   3.487  11.565  0.5500  1.0045  2.0362
14673SOL     OW45459   5.960   4.864  11.690  0.3119  0.5132  0.1900
14673SOL    HW145460   5.981   4.802  11.620  0.8117  0.0914  0.7131
14673SOL    HW245461   5.899   4.926  11.649  1.2911  0.8007 -0.8857
14674SOL     OW45462   3.946   4.731  11.761  0.1228  0.3901 -0.1613
14674SOL    HW145463   3.970   4.818  11.728 -1.5003 -0.1673 -3.1345
14674SOL    HW245464   3.940   4.743  11.856  2.1833  2.9004 -0.2153
14675SOL     OW45465   6.883   2.711  10.803 -0.4494 -0.2794 -0.6760
14675SOL    HW145466   6.919   2.782  10.856 -0.2778 -2.8579  3.0203
14675SOL    HW245467   6.792   2.702  10.831  0.0609 -2.6803  0.5595
14676SOL     OW45468   6.785   2.797  11.926 -0.1606  0.4012 -0.3000
14676SOL    HW145469   6.699   2.836  11.911 -0.1158  0.4447 -0.4470
14676SOL    HW245470   6.768   2.720  11.980 -0.2381  0.6848  0.0849
14677SOL     OW45471   4.615   3.072   0.992 -0.1375  0.1698  0.9912
14677SOL    HW145472   4.561   3.025   1.055 -1.2347 -0.7174 -0.5483
14677SOL    HW245473   4.558   3.141   0.958 -1.1244 -1.9152 -2.0284
14678SOL     OW45474   5.293   3.604   0.416 -0.1237 -0.0137 -0.4167
14678SOL    HW145475   5.290   3.521   0.462 -0.3873  0.3273  0.1915
14678SOL    HW245476   5.235   3.592   0.341  1.2599 -0.9874 -1.3889
14679SOL     OW45477   5.011   2.283  11.324 -0.5668  0.4927 -0.2028
14679SOL    HW145478   4.974   2.195  11.319 -0.9634  0.6353  0.0955
14679SOL    HW245479   4.969   2.322  11.401 -0.1187  0.8146 -0.1144
14680SOL     OW45480   3.543   4.280   0.097 -0.7507 -0.3557  0.3496
14680SOL    HW145481   3.502   4.257   0.013 -1.3745  0.0087  0.5441
14680SOL    HW245482   3.565   4.372   0.088 -0.0962 -0.5183  0.3000
14681SOL     OW45483   4.477   3.261  10.923  0.1687 -0.1763 -0.1818
14681SOL    HW145484   4.484   3.167  10.940 -0.4547 -0.6236 -2.1808
14681SOL    HW245485   4.467   3.268  10.828 -0.6102  1.8713 -0.0025
14682SOL     OW45486   3.987   2.769   0.606  0.0574  0.5157 -0.1567
14682SOL    HW145487   3.966   2.700   0.542 -0.7393 -0.8181  1.4490
14682SOL    HW245488   4.075   2.797   0.583 -1.2557  2.2779 -3.6872
14683SOL     OW45489   5.053   4.081  12.314  0.0546 -0.0314 -0.2757
14683SOL    HW145490   5.090   4.026  12.383 -0.5437  0.4399  0.4283
14683SOL    HW245491   4.961   4.090  12.337 -0.2073 -0.0774 -1.2786
14684SOL     OW45492   5.603   3.148   9.806 -0.0074  0.1360 -0.0316
14684SOL    HW145493   5.576   3.072   9.754  0.1112 -0.2259  0.4284
14684SOL    HW245494   5.555   3.221   9.768 -1.8410 -0.5159  0.8969
14685SOL     OW45495   3.394   2.621   1.137 -0.5212  0.0732  0.3466
14685SOL    HW145496   3.482   2.657   1.121 -0.3390 -1.0102 -1.2403
14685SOL    HW245497   3.338   2.698   1.143 -0.0811  0.7162 -2.6228
14686SOL     OW45498   5.237   4.030  11.431 -0.3301 -0.1561  0.0570
14686SOL    HW145499   5.156   3.981  11.428 -0.0641 -0.5590 -1.2834
14686SOL    HW245500   5.302   3.971  11.392  0.0891  1.0425 -1.1477
14687SOL     OW45501   5.981   2.174   0.774 -0.0704 -0.3665 -0.2101
14687SOL    HW145502   5.977   2.079   0.766  0.7257 -0.4281  0.1048
14687SOL    HW245503   5.942   2.193   0.860 -0.8469 -0.3461 -0.5547
14688SOL     OW45504   4.586   2.986   1.496  0.0858  0.5013  0.1863
14688SOL    HW145505   4.623   3.064   1.538  0.2654 -0.1038  1.1976
14688SOL    HW245506   4.642   2.914   1.526 -1.5858 -0.3742  1.3563
14689SOL     OW45507   3.590   1.613   0.026 -0.1708  0.5236  0.2050
14689SOL    HW145508   3.606   1.636   0.118 -0.1214  1.2067  0.0320
14689SOL    HW245509   3.496   1.626   0.015  0.0729  2.1784 -0.2854
14690SOL     OW45510   4.809   2.692  11.697 -0.6548  0.1935 -0.1038
14690SOL    HW145511   4.859   2.661  11.772 -0.2811 -1.1139 -0.8612
14690SOL    HW245512   4.763   2.770  11.729 -2.7194 -1.8278  2.3215
14691SOL     OW45513   3.942   2.662   1.016  0.9784 -0.2446  0.0983
14691SOL    HW145514   3.937   2.757   1.009  1.8760 -0.0913  1.2270
14691SOL    HW245515   4.022   2.638   0.970  0.1140 -0.6062 -1.2605
14692SOL     OW45516   5.805   1.560   1.232 -0.1762 -0.2743 -0.0306
14692SOL    HW145517   5.750   1.483   1.242 -0.7884  0.2373  0.6997
14692SOL    HW245518   5.755   1.631   1.272  0.0537  0.6611 -1.3348
14693SOL     OW45519   3.638   3.002   0.106 -0.0142  0.0961 -0.3458
14693SOL    HW145520   3.685   3.073   0.151 -0.1861 -0.9857  1.6386
14693SOL    HW245521   3.670   2.922   0.148 -0.8304 -0.9222 -1.6011
14694SOL     OW45522   4.920   3.211   0.056 -0.6451  0.0231 -0.2065
14694SOL    HW145523   4.893   3.120   0.065 -0.5624 -0.1433 -1.3967
14694SOL    HW245524   4.841   3.258   0.030 -0.0138 -0.3956 -3.2883
14695SOL     OW45525   6.791   3.501  11.865 -0.3933 -0.1778 -0.1502
14695SOL    HW145526   6.873   3.550  11.868 -0.0811 -0.7082  3.0470
14695SOL    HW245527   6.723   3.568  11.860  0.1422  0.5425  1.4649
14696SOL     OW45528   5.350   2.525  11.804 -0.6793  0.0396  0.0763
14696SOL    HW145529   5.438   2.562  11.810 -0.2729 -0.4482 -2.1055
14696SOL    HW245530   5.294   2.591  11.846  0.6951  0.3204  1.5685
14697SOL     OW45531   6.888   1.886   9.234 -0.1834 -0.7490 -0.5483
14697SOL    HW145532   6.805   1.933   9.217  0.4509  0.7337  0.2383
14697SOL    HW245533   6.933   1.886   9.149 -0.7001 -0.9680 -0.8273
14698SOL     OW45534   5.534   3.538  10.245 -0.0238 -0.3969 -0.1948
14698SOL    HW145535   5.570   3.580  10.323 -0.5733 -0.1995 -0.0426
14698SOL    HW245536   5.440   3.532  10.262 -0.1092 -0.6132 -0.7199
14699SOL     OW45537   3.472   3.881  10.173 -0.4889 -0.1055 -0.2517
14699SOL    HW145538   3.532   3.898  10.100  0.6200  0.6203  0.7787
14699SOL    HW245539   3.449   3.789  10.165 -0.4934 -0.0044 -1.5858
14700SOL     OW45540   4.792   3.289  10.534 -0.3772  0.4140 -0.2589
14700SOL    HW145541   4.847   3.351  10.486  0.3127  0.8369  1.0231
14700SOL    HW245542   4.795   3.319  10.624 -1.1594 -0.6910  0.1581
14701SOL     OW45543   5.144   2.221  11.631 -0.4794 -0.1223 -0.5012
14701SOL    HW145544   5.080   2.189  11.694 -0.0612 -0.8081 -0.4164
14701SOL    HW245545   5.130   2.167  11.553  1.4014 -1.8081  0.2273
14702SOL     OW45546   4.489   2.179   2.094 -0.1386  0.5746  0.2767
14702SOL    HW145547   4.560   2.230   2.132 -0.9848  0.8491  1.5424
14702SOL    HW245548   4.526   2.093   2.078  0.7252  0.9762  0.0723
14703SOL     OW45549   4.520   4.056  11.455  0.2996  0.0562 -0.1895
14703SOL    HW145550   4.466   4.116  11.404  0.7948  0.8849  0.2335
14703SOL    HW245551   4.458   3.996  11.495 -0.0117 -1.6243 -2.9784
14704SOL     OW45552   4.041   1.858  11.857  0.4517  0.2023  1.0251
14704SOL    HW145553   4.086   1.886  11.777 -0.8245 -1.9173 -0.5312
14704SOL    HW245554   3.971   1.922  11.870  1.3178  1.1641  1.1144
14705SOL     OW45555   4.833   3.101  10.761 -0.3939  0.5094 -0.7346
14705SOL    HW145556   4.812   3.031  10.700  1.5020 -1.2772  0.5178
14705SOL    HW245557   4.812   3.064  10.847  0.3738  1.5629 -0.0688
14706SOL     OW45558   5.361   2.678   0.997  0.3836  0.1647 -0.4635
14706SOL    HW145559   5.452   2.707   1.005  0.0830  0.6491  2.4012
14706SOL    HW245560   5.313   2.758   0.974  0.4064  0.4909  0.5613
14707SOL     OW45561   6.264   0.369   1.031  0.1097 -0.5425 -0.2043
14707SOL    HW145562   6.303   0.441   0.982 -1.1621 -0.4891 -1.1824
14707SOL    HW245563   6.279   0.291   0.978 -2.4008 -0.2905 -1.4040
14708SOL     OW45564   4.024   0.236  11.306  0.1915 -0.0797  0.1949
14708SOL    HW145565   4.007   0.173  11.376  0.1240 -0.7839 -0.4538
14708SOL    HW245566   3.954   0.301  11.314 -0.2753 -0.5899  0.2791
14709SOL     OW45567   3.681   2.719  11.717 -0.3053  0.0291 -0.0035
14709SOL    HW145568   3.767   2.730  11.757  0.7160 -0.6156 -1.8962
14709SOL    HW245569   3.644   2.642  11.761  0.8378 -0.7443 -0.3362
14710SOL     OW45570   5.396   2.092  10.653  0.0158  0.4428  0.0651
14710SOL    HW145571   5.467   2.150  10.626 -0.2214  0.9546  0.5065
14710SOL    HW245572   5.392   2.025  10.585  3.0674 -1.5583  1.6158
14711SOL     OW45573   3.822   0.663   0.261  0.5979 -0.2778 -0.3128
14711SOL    HW145574   3.856   0.574   0.273 -0.2758 -0.4972  0.6435
14711SOL    HW245575   3.898   0.720   0.274  0.4725 -0.6884  3.0120
14712SOL     OW45576   6.191   3.832   0.330  0.4030  0.2239  0.1701
14712SOL    HW145577   6.127   3.761   0.334  0.2250  0.4155  1.5382
14712SOL    HW245578   6.199   3.861   0.421  0.0570  2.3278 -0.4178
14713SOL     OW45579   4.242   3.139   0.226  0.1596  0.3282 -0.8134
14713SOL    HW145580   4.323   3.140   0.277  0.3133  0.9662 -1.0653
14713SOL    HW245581   4.188   3.207   0.268  0.2285  0.7506 -1.3980
14714SOL     OW45582   5.157   2.715  12.053 -0.3314  0.3006  0.0714
14714SOL    HW145583   5.157   2.753  11.965  0.2543  0.6824  0.2343
14714SOL    HW245584   5.175   2.789  12.111  0.3687 -0.1430  0.4321
14715SOL     OW45585   5.761   1.950  10.839 -0.1264  0.0187 -0.2660
14715SOL    HW145586   5.829   1.887  10.819  0.3491  0.0552  1.1434
14715SOL    HW245587   5.679   1.900  10.836  0.0290 -0.2015 -1.1407
14716SOL     OW45588   3.841   1.605   1.222 -0.2982  0.1221  0.1691
14716SOL    HW145589   3.896   1.588   1.145  0.1249 -1.3513  0.7630
14716SOL    HW245590   3.881   1.681   1.264  1.0087 -0.6092  0.3072
14717SOL     OW45591   3.857   1.687  11.116 -0.5519  0.0819  0.1775
14717SOL    HW145592   3.911   1.652  11.186 -2.5215  0.6114  2.0649
14717SOL    HW245593   3.892   1.774  11.099 -2.0813  1.3630  2.9997
14718SOL     OW45594   5.127   1.566  11.697  0.1392  0.1609  0.0631
14718SOL    HW145595   5.066   1.520  11.640  0.4984 -0.4245  0.1347
14718SOL    HW245596   5.204   1.508  11.701  1.4364  1.6950 -1.4823
14719SOL     OW45597   5.727   3.188  11.203 -0.2491 -0.3812 -0.1821
14719SOL    HW145598   5.634   3.171  11.190 -0.2150  0.0174 -1.0077
14719SOL    HW245599   5.768   3.101  11.202 -0.6782 -0.6131  0.8776
14720SOL     OW45600   5.752   4.510  12.043  0.2898 -0.1727  0.6270
14720SOL    HW145601   5.839   4.543  12.065  0.1471 -0.7777  2.2429
14720SOL    HW245602   5.728   4.453  12.117 -1.2753 -0.3948 -0.0029
14721SOL     OW45603   6.755   2.090  12.355  0.3367 -0.4742 -0.4479
14721SOL    HW145604   6.816   2.149  12.400 -0.0730 -0.7047  0.4321
14721SOL    HW245605   6.715   2.038  12.426 -1.0434 -0.1682 -0.9650
14722SOL     OW45606   5.779   2.519  11.724  0.7334  0.3224  0.2285
14722SOL    HW145607   5.764   2.608  11.691 -1.6389 -0.6887 -1.7626
14722SOL    HW245608   5.829   2.476  11.654  0.1424 -0.4374  0.2616
14723SOL     OW45609   4.349   3.484  11.742 -0.6729  0.2534 -0.2335
14723SOL    HW145610   4.276   3.443  11.697 -1.0206  0.7987 -0.1766
14723SOL    HW245611   4.422   3.476  11.681 -1.1085  0.8754 -0.8524
14724SOL     OW45612   5.955   2.309  11.869 -0.5367  1.1841  0.0636
14724SOL    HW145613   5.994   2.385  11.826 -0.1517  1.6613  1.2102
14724SOL    HW245614   6.024   2.242  11.867 -0.9079  0.8061 -1.0288
14725SOL     OW45615   3.131   7.841  11.589  0.2414  0.2709 -0.1812
14725SOL    HW145616   3.213   7.892  11.595  0.3999 -0.0335  0.2554
14725SOL    HW245617   3.065   7.897  11.630  0.1935  0.5946 -0.6964
14726SOL     OW45618   4.758   2.159   0.290  0.2170 -0.6230  0.4993
14726SOL    HW145619   4.694   2.201   0.348 -1.2638  0.3186 -1.6910
14726SOL    HW245620   4.827   2.225   0.279 -0.0082 -0.4087  0.3749
14727SOL     OW45621   5.986   3.239   0.249 -0.2313 -0.1340 -0.0585
14727SOL    HW145622   5.985   3.242   0.345 -0.5646 -1.0089 -0.0276
14727SOL    HW245623   5.913   3.295   0.223 -0.4557 -0.2943  0.2129
14728SOL     OW45624   4.523   2.812  10.763  0.0999  0.5201  0.2629
14728SOL    HW145625   4.457   2.756  10.804  0.9320  0.8274  2.1638
14728SOL    HW245626   4.526   2.890  10.819  2.3429  0.3186  0.5148
14729SOL     OW45627   2.445   4.089   0.608 -0.7000  0.2103  0.4858
14729SOL    HW145628   2.467   4.172   0.565  0.5129  0.5361  1.6681
14729SOL    HW245629   2.352   4.077   0.589 -0.5591  1.0641 -0.9737
14730SOL     OW45630   4.930   2.494   0.656  0.7091  0.9864 -0.4576
14730SOL    HW145631   5.004   2.477   0.715  2.0743  0.3883 -2.2580
14730SOL    HW245632   4.883   2.410   0.652  0.9776  0.8416 -0.6720
14731SOL     OW45633   5.489   4.287  11.582 -0.4362 -0.0046  0.2908
14731SOL    HW145634   5.581   4.305  11.564 -0.7629  0.0728 -1.4930
14731SOL    HW245635   5.466   4.348  11.652  0.7465  0.2877  0.4469
14732SOL     OW45636   4.086   1.982   0.601 -0.5764 -1.0376  0.1285
14732SOL    HW145637   4.055   1.891   0.594 -1.2945 -0.7411 -0.8640
14732SOL    HW245638   4.005   2.034   0.606 -0.1746 -0.4972  1.6794
14733SOL     OW45639   4.887   2.590  11.971  0.0846  0.1720  0.3848
14733SOL    HW145640   4.852   2.577  12.059  0.6148 -0.5320  0.5028
14733SOL    HW245641   4.981   2.603  11.984  0.4083 -1.3596 -0.1534
14734SOL     OW45642   6.510   3.474  12.493  0.4177 -0.2639  0.4582
14734SOL    HW145643   6.455   3.479  12.415  1.4434  0.9017 -0.2150
14734SOL    HW245644   6.464   3.527  12.558  0.7413  0.7171 -0.1037
14735SOL     OW45645   5.253   1.746  12.271  0.0305  0.5609  0.2582
14735SOL    HW145646   5.327   1.770  12.215 -0.0237  2.8973  1.1126
14735SOL    HW245647   5.258   1.805  12.346 -0.9610 -1.2722  1.8646
14736SOL     OW45648   4.211   4.136  11.156 -0.2714 -0.1911  0.3635
14736SOL    HW145649   4.285   4.085  11.124 -0.4125 -0.6734  0.8019
14736SOL    HW245650   4.174   4.084  11.227  0.2295  1.0159  1.5456
14737SOL     OW45651   5.183   0.997  12.370 -0.0108  0.5191 -0.1867
14737SOL    HW145652   5.278   1.008  12.378 -0.0187  0.4281  0.0564
14737SOL    HW245653   5.164   0.920  12.424  0.0284 -0.6247 -1.7115
14738SOL     OW45654   4.761   1.893   0.382  0.1564  0.1835  0.3374
14738SOL    HW145655   4.670   1.862   0.377  0.0803  0.3282  0.7524
14738SOL    HW245656   4.752   1.989   0.385  0.2899  0.1811  0.9776
14739SOL     OW45657   4.122   2.188  11.016  0.1541  0.1415 -0.1877
14739SOL    HW145658   4.197   2.204  11.074  0.2562  1.5058 -0.6690
14739SOL    HW245659   4.154   2.211  10.929 -0.4063 -0.6343 -0.6060
14740SOL     OW45660   3.737   3.153  12.275  0.0186 -0.2992 -0.0720
14740SOL    HW145661   3.742   3.178  12.183  0.1442  0.9253  0.2538
14740SOL    HW245662   3.750   3.058  12.275 -0.8166 -0.4356 -1.3836
14741SOL     OW45663   4.279   4.094  12.317  0.1939 -0.2850 -0.2034
14741SOL    HW145664   4.372   4.074  12.315  0.3909  0.1355  2.0339
14741SOL    HW245665   4.273   4.185  12.287  0.2130 -0.9266 -2.3400
14742SOL     OW45666   4.737   7.393   1.898 -0.1409  0.6631 -0.0005
14742SOL    HW145667   4.821   7.433   1.877 -0.2588  0.4105 -0.9920
14742SOL    HW245668   4.751   7.352   1.984  0.6291  0.9450  0.0170
14743SOL     OW45669   5.198   3.344   0.533  0.0354  0.2204  0.0692
14743SOL    HW145670   5.186   3.350   0.628 -1.1583 -0.0909 -0.0519
14743SOL    HW245671   5.120   3.300   0.502 -0.3468  1.7309 -1.2426
14744SOL     OW45672   6.454   1.578  11.500 -0.2462 -0.5377 -0.7168
14744SOL    HW145673   6.398   1.571  11.578  0.0439 -3.2367 -0.6471
14744SOL    HW245674   6.393   1.575  11.426 -0.5215  2.0209 -0.6774
14745SOL     OW45675   3.956   1.926   1.632  0.1110  0.4852  0.1983
14745SOL    HW145676   3.962   1.911   1.726 -0.4258  2.5828  0.6117
14745SOL    HW245677   3.874   1.884   1.606  0.1202  0.1457  0.7078
14746SOL     OW45678   4.990   3.224  11.295 -0.1898 -1.2010  0.2397
14746SOL    HW145679   5.022   3.154  11.352  1.4240 -0.1218  0.7181
14746SOL    HW245680   5.069   3.261  11.255 -0.8464  1.1944  0.9973
14747SOL     OW45681   4.151   2.169  12.148 -0.1606  0.3794  0.3581
14747SOL    HW145682   4.128   2.079  12.124  0.1193 -0.1064  1.8102
14747SOL    HW245683   4.243   2.177  12.122  0.4529 -0.4912  2.1132
14748SOL     OW45684   3.620   2.284  12.010  0.2594 -0.0892 -0.0324
14748SOL    HW145685   3.534   2.244  11.999  1.1197 -2.1382  0.2843
14748SOL    HW245686   3.653   2.247  12.092  1.1941  1.1729  0.1956
14749SOL     OW45687   2.837   3.037   0.948 -0.4330 -0.2188 -0.4334
14749SOL    HW145688   2.866   3.121   0.914 -1.0919 -0.2074 -0.9747
14749SOL    HW245689   2.901   2.974   0.916 -0.8353 -0.1534 -1.3996
14750SOL     OW45690   6.818   2.025   0.462 -0.5294 -0.2993 -0.4747
14750SOL    HW145691   6.756   1.977   0.517  0.8771 -3.3182 -1.2979
14750SOL    HW245692   6.894   2.039   0.518 -1.1631  1.6791 -0.0441
14751SOL     OW45693   3.378   5.088   0.051  0.1191 -0.2156  0.1959
14751SOL    HW145694   3.361   5.028   0.123 -0.2318 -0.8367 -0.3894
14751SOL    HW245695   3.434   5.156   0.089 -1.3638  0.3430  1.4504
14752SOL     OW45696   4.234   2.647  12.101  0.3181 -0.6686 -0.2579
14752SOL    HW145697   4.263   2.625  12.013  0.1589  1.6943 -0.9725
14752SOL    HW245698   4.202   2.737  12.094 -1.5615 -1.0827  1.7919
14753SOL     OW45699   4.686   2.943  10.392  0.0399 -0.5004  0.0906
14753SOL    HW145700   4.697   2.935  10.487  1.8646  0.4577  0.0029
14753SOL    HW245701   4.658   2.856  10.363  1.2160 -1.3083  1.2836
14754SOL     OW45702   5.176   2.414   2.155 -0.3430 -0.6373  0.2852
14754SOL    HW145703   5.095   2.455   2.123 -0.2718 -0.0256  0.8605
14754SOL    HW245704   5.181   2.331   2.108 -1.2233 -0.6066  0.1166
14755SOL     OW45705   2.504   1.348  11.888  0.1124 -0.4391  0.3405
14755SOL    HW145706   2.416   1.312  11.872  0.3225 -0.8655  0.1538
14755SOL    HW245707   2.538   1.367  11.801  0.9965 -2.1424  0.2970
14756SOL     OW45708   4.476   0.891  10.629 -0.3182  0.1190 -0.9519
14756SOL    HW145709   4.505   0.818  10.683 -0.7695 -0.6127 -1.6608
14756SOL    HW245710   4.398   0.925  10.673 -0.1491  0.1277 -0.6595
14757SOL     OW45711   5.929   3.414   0.983  0.0334 -0.5551 -0.0130
14757SOL    HW145712   5.901   3.483   0.923  0.3075 -0.1156  0.3504
14757SOL    HW245713   5.853   3.356   0.990  0.0742 -0.7377 -0.9434
14758SOL     OW45714   5.733   3.069  10.581 -0.8069  0.0716 -0.3507
14758SOL    HW145715   5.811   3.108  10.540 -1.3285  1.1750 -0.3245
14758SOL    HW245716   5.768   2.997  10.634  0.3723  1.3993  0.7666
14759SOL     OW45717   6.247   1.176   0.090  0.6249  0.1188  0.0122
14759SOL    HW145718   6.165   1.131   0.109  0.6699 -0.2352 -0.6064
14759SOL    HW245719   6.235   1.264   0.126 -1.0556  0.9537 -2.3402
14760SOL     OW45720   4.023   2.783  11.629  0.2305 -0.0020 -0.0494
14760SOL    HW145721   4.019   2.879  11.633 -0.8033  0.0764 -1.8710
14760SOL    HW245722   4.091   2.765  11.564  1.3124 -0.5727  1.1853
14761SOL     OW45723   6.301   2.873  12.135 -0.6884  0.2254  0.2835
14761SOL    HW145724   6.390   2.840  12.120 -0.7906 -0.1934  0.5996
14761SOL    HW245725   6.283   2.928  12.059 -0.4489 -0.2950 -0.1499
14762SOL     OW45726   4.929   1.783  11.743 -0.5605 -0.4972 -0.3609
14762SOL    HW145727   4.840   1.751  11.756  0.0882 -2.2507 -0.0340
14762SOL    HW245728   4.978   1.707  11.710  1.1798 -0.0097  0.9694
14763SOL     OW45729   6.926   4.703   0.928 -0.5405 -0.5214 -0.3243
14763SOL    HW145730   6.946   4.795   0.946 -1.0048 -0.6152  0.7989
14763SOL    HW245731   6.942   4.658   1.011  2.0244 -1.9096 -1.4755
14764SOL     OW45732   4.755   5.814   0.213 -0.5688  0.4474 -0.3268
14764SOL    HW145733   4.714   5.899   0.197 -0.4131  0.6983  0.5623
14764SOL    HW245734   4.719   5.785   0.297  1.3749  0.8888  0.7192
14765SOL     OW45735   4.831   3.123   0.632  0.0744 -0.0600  0.5088
14765SOL    HW145736   4.893   3.179   0.585  1.6723  0.1204  2.7013
14765SOL    HW245737   4.883   3.082   0.701 -1.7353 -1.8748  0.9041
14766SOL     OW45738   4.943   3.727  12.106 -0.0725  0.5492 -0.2748
14766SOL    HW145739   4.896   3.808  12.085 -0.3555  0.2716 -0.7105
14766SOL    HW245740   5.027   3.736  12.060  0.2760  0.9936  0.4150
14767SOL     OW45741   5.379   3.128  10.266  0.1866 -0.0171 -1.0248
14767SOL    HW145742   5.443   3.198  10.252 -0.3164  0.9290  0.9949
14767SOL    HW245743   5.352   3.103  10.178  0.9820  1.7657 -1.8436
14768SOL     OW45744   5.406   3.689  10.777  0.2185  0.2597  0.2659
14768SOL    HW145745   5.457   3.672  10.856 -1.5378 -0.0324  1.3866
14768SOL    HW245746   5.417   3.610  10.724  1.7724  0.6429 -0.0360
14769SOL     OW45747   4.906   2.979  12.227  0.3220  0.4966 -0.1368
14769SOL    HW145748   4.904   3.069  12.193  1.4950 -0.0391 -1.7147
14769SOL    HW245749   4.998   2.955  12.225 -0.1950 -1.7328 -2.5855
14770SOL     OW45750   5.247   3.198   0.067  0.6014 -0.1588  0.0424
14770SOL    HW145751   5.180   3.222   0.003  0.2482 -1.6095 -0.1659
14770SOL    HW245752   5.198   3.190   0.149  1.1596  2.3650  0.7049
14771SOL     OW45753   4.201   1.510  12.111  0.0001 -0.0031 -0.0086
14771SOL    HW145754   4.277   1.494  12.055 -1.0473 -0.0457 -1.4603
14771SOL    HW245755   4.151   1.429  12.105 -0.4657  0.2522  0.4510
14772SOL     OW45756   3.145   2.456   0.652  0.1875 -0.4640  0.6109
14772SOL    HW145757   3.101   2.383   0.609 -1.1662 -0.9602  2.7117
14772SOL    HW245758   3.176   2.420   0.735  2.7302  0.4553  0.1523
14773SOL     OW45759   5.519   4.003  11.535 -0.1488  0.5829 -0.5501
14773SOL    HW145760   5.521   4.096  11.559 -0.6690  0.4481  0.0203
14773SOL    HW245761   5.570   3.999  11.453  1.4313  1.0714  0.3651
14774SOL     OW45762   4.208   3.041   1.204  0.7071  0.1999  0.2290
14774SOL    HW145763   4.216   2.960   1.254  1.2236 -1.0250 -1.7386
14774SOL    HW245764   4.290   3.087   1.219  0.8892 -0.1883  0.4241
14775SOL     OW45765   3.268   1.551   0.159 -0.4363 -0.6917  0.2353
14775SOL    HW145766   3.178   1.542   0.188 -0.1584 -1.0956  1.0162
14775SOL    HW245767   3.316   1.486   0.211  0.0007 -1.9135 -1.5965
14776SOL     OW45768   5.325   4.177  11.152 -0.0435 -0.4634  0.3255
14776SOL    HW145769   5.412   4.140  11.169  0.2815 -0.2487 -0.7912
14776SOL    HW245770   5.272   4.101  11.129  0.5665 -0.3490 -1.7291
14777SOL     OW45771   5.830   2.564   0.525  0.1871  0.1741  0.6533
14777SOL    HW145772   5.835   2.656   0.497 -0.5496  0.0365  0.0284
14777SOL    HW245773   5.751   2.531   0.482  1.9924 -1.5686 -1.5769
14778SOL     OW45774   6.600   1.398   0.253 -0.1353 -0.1258 -0.7864
14778SOL    HW145775   6.613   1.305   0.235 -1.3924 -0.5158  0.1523
14778SOL    HW245776   6.598   1.404   0.349  2.2328  1.2412 -0.7495
14779SOL     OW45777   5.377   2.156   0.860  0.2867  0.0735 -0.4034
14779SOL    HW145778   5.461   2.123   0.893 -0.4804 -0.8638  0.6973
14779SOL    HW245779   5.315   2.137   0.930 -0.9560  0.2631 -1.4222
14780SOL     OW45780   5.964   3.273   0.532 -0.0563  0.0511 -0.0023
14780SOL    HW145781   5.956   3.197   0.589 -0.3055  0.5432  0.6270
14780SOL    HW245782   5.902   3.337   0.567  0.4940  0.7290 -0.2220
14781SOL     OW45783   3.426   3.396  12.203 -0.2417 -0.3916 -0.1050
14781SOL    HW145784   3.469   3.311  12.202 -0.7352 -0.6444 -1.1851
14781SOL    HW245785   3.400   3.411  12.112 -0.3416  0.8218  0.1060
14782SOL     OW45786   5.278   1.523   9.166  0.0253  0.4818  0.1093
14782SOL    HW145787   5.325   1.448   9.200 -1.1800  0.4310  1.7843
14782SOL    HW245788   5.322   1.545   9.084  1.6351 -0.7920  0.6047
14783SOL     OW45789   2.989   0.390  10.843  0.2868  0.1161 -0.5789
14783SOL    HW145790   2.988   0.302  10.807 -0.8186 -0.1090 -0.0191
14783SOL    HW245791   3.080   0.419  10.832  1.1403 -1.7978  0.9456
14784SOL     OW45792   4.414   4.378  11.415  0.1648  0.6098 -0.1671
14784SOL    HW145793   4.483   4.403  11.477  0.3855 -1.0099  0.2899
14784SOL    HW245794   4.361   4.457  11.405  0.1047  0.9341  2.1128
14785SOL     OW45795   6.799   6.496  12.034  0.3653  0.0757  0.0623
14785SOL    HW145796   6.765   6.530  12.117 -0.3696 -0.7307  0.1090
14785SOL    HW245797   6.883   6.457  12.056 -0.0734 -0.6244  0.5586
14786SOL     OW45798   7.120   3.043  11.091 -0.1386 -0.2843  0.0892
14786SOL    HW145799   7.205   3.012  11.124  1.5176  1.4334 -2.1879
14786SOL    HW245800   7.118   3.136  11.115 -1.4988 -0.3544  0.2923
14787SOL     OW45801   5.386   1.720   0.483  0.5401  0.1633 -0.2938
14787SOL    HW145802   5.368   1.787   0.548 -0.0112 -0.8750  0.6595
14787SOL    HW245803   5.440   1.764   0.417  0.8108  1.3287  0.6762
14788SOL     OW45804   5.720   4.051  10.338  0.0458  0.6479 -0.3335
14788SOL    HW145805   5.684   4.137  10.314 -0.3125  0.6616  0.2286
14788SOL    HW245806   5.649   3.989  10.320  0.1428  0.5273 -0.3051
14789SOL     OW45807   7.423   3.763  11.756  0.3270  0.6544 -0.6386
14789SOL    HW145808   7.428   3.753  11.661  1.4296  0.8724 -0.6250
14789SOL    HW245809   7.441   3.675  11.791  0.5688  0.7069 -0.6285
14790SOL     OW45810   4.335   2.922  11.718  0.1352  0.1185  0.2619
14790SOL    HW145811   4.240   2.927  11.707  0.1848 -0.4032 -0.4685
14790SOL    HW245812   4.350   2.950  11.808 -0.8039 -0.8314  0.7329
14791SOL     OW45813   3.167   2.814   0.169  0.5965 -0.3484 -0.0337
14791SOL    HW145814   3.202   2.826   0.257  0.7009 -0.6034 -0.0391
14791SOL    HW245815   3.224   2.867   0.113  0.5621 -0.2283  0.0468
14792SOL     OW45816   2.474   1.932  11.228  0.2410 -0.0802 -0.1550
14792SOL    HW145817   2.408   1.862  11.225  0.0161  0.0665  0.9162
14792SOL    HW245818   2.462   1.980  11.145  0.3476 -1.2500 -0.8651
14793SOL     OW45819   5.378   5.064  11.995  0.0928 -0.1418 -0.1060
14793SOL    HW145820   5.363   5.129  11.926  2.8343  1.0466  0.2881
14793SOL    HW245821   5.318   5.090  12.065 -0.1206  0.8774 -0.6447
14794SOL     OW45822   4.208   2.797   0.402  0.1015  0.2632 -0.2270
14794SOL    HW145823   4.172   2.819   0.316 -0.5490 -1.1257 -0.3370
14794SOL    HW245824   4.286   2.745   0.382  0.1125  0.1823  0.0217
14795SOL     OW45825   5.252   1.132   0.935 -0.0331 -0.1425  0.2487
14795SOL    HW145826   5.281   1.073   1.005 -1.3890 -0.8533  0.2380
14795SOL    HW245827   5.298   1.101   0.857  0.4728 -0.1838  0.5587
14796SOL     OW45828   5.299   1.809  11.174 -0.0653 -0.7146  0.3886
14796SOL    HW145829   5.309   1.803  11.079 -0.3375 -0.2209  0.3222
14796SOL    HW245830   5.351   1.737  11.209  0.7353 -0.3727 -0.0923
14797SOL     OW45831   5.547   2.359  11.624 -0.2332  0.2048  0.5077
14797SOL    HW145832   5.570   2.379  11.534 -0.5826 -1.8899 -0.0923
14797SOL    HW245833   5.614   2.403  11.676  1.4554 -0.5838 -0.8918
14798SOL     OW45834   5.621   3.296  10.487 -0.2661  0.5651 -0.1696
14798SOL    HW145835   5.627   3.276  10.394 -0.9455 -0.2761 -0.0566
14798SOL    HW245836   5.680   3.233  10.529  0.0620  0.9606 -0.0334
14799SOL     OW45837   4.004   2.400   0.583  0.0374 -0.2805  0.6026
14799SOL    HW145838   4.012   2.483   0.535 -1.3573 -0.7118 -0.4198
14799SOL    HW245839   4.090   2.360   0.575  0.3539  0.4771 -0.0051
14800SOL     OW45840   3.463   0.713   0.263  0.3190 -0.1164 -0.0765
14800SOL    HW145841   3.453   0.778   0.193 -0.2477 -0.4359 -0.2990
14800SOL    HW245842   3.383   0.661   0.259  0.0932  0.1159  1.0871
14801SOL     OW45843   4.221   3.683  10.983  0.3856 -0.6638  0.0938
14801SOL    HW145844   4.317   3.681  10.986  0.5514  1.4020 -1.6757
14801SOL    HW245845   4.198   3.622  10.913  0.4195 -0.9307  0.3137
14802SOL     OW45846   5.106   2.001  11.867  0.0768  0.1940 -0.3414
14802SOL    HW145847   5.179   1.960  11.821 -0.1734  0.2148 -0.7619
14802SOL    HW245848   5.031   1.944  11.848 -0.1714  0.5786 -0.5223
14803SOL     OW45849   5.409   2.888  11.981 -0.2808  0.3655 -0.4467
14803SOL    HW145850   5.493   2.921  12.014 -1.0583  2.2111 -0.2004
14803SOL    HW245851   5.428   2.798  11.955  1.7781  0.7331 -0.4133
14804SOL     OW45852   5.996   1.240   0.462 -0.3123 -0.0138  0.2019
14804SOL    HW145853   6.064   1.300   0.494 -0.4959 -0.0372  0.6513
14804SOL    HW245854   5.952   1.289   0.393 -0.7930  0.5792  0.9089
14805SOL     OW45855   3.352   2.175  11.696 -0.4000  0.3382  0.2046
14805SOL    HW145856   3.295   2.101  11.676  0.2319  0.1229 -0.8634
14805SOL    HW245857   3.430   2.160  11.643  1.4388 -0.2909  2.8858
14806SOL     OW45858   3.053   2.612   0.423 -0.5161 -0.2184  0.5382
14806SOL    HW145859   3.077   2.704   0.440 -2.5481 -0.1458  4.0343
14806SOL    HW245860   3.073   2.567   0.505 -1.8507 -2.3972 -0.2642
14807SOL     OW45861   4.096   5.657  11.457 -0.3719  0.2755  0.0120
14807SOL    HW145862   4.179   5.704  11.459  0.0109 -0.1992 -2.1040
14807SOL    HW245863   4.073   5.644  11.549 -0.1477  3.9374  0.7284
14808SOL     OW45864   3.176   2.007   1.347 -0.2245 -0.4658 -0.0219
14808SOL    HW145865   3.239   1.969   1.285 -0.1989 -0.1333 -0.2023
14808SOL    HW245866   3.225   2.075   1.393 -1.1278  1.7654 -2.1032
14809SOL     OW45867   4.022   3.611   0.432 -0.1104 -1.4033  0.4297
14809SOL    HW145868   4.010   3.706   0.431 -0.8155 -1.4841 -0.5447
14809SOL    HW245869   4.006   3.586   0.523 -1.8221 -0.8000  0.3365
14810SOL     OW45870   4.122   5.035   0.976  0.5341  0.1711 -0.3971
14810SOL    HW145871   4.101   5.071   1.062  0.3722 -2.8482  0.9414
14810SOL    HW245872   4.037   5.021   0.934  0.5695  0.7572 -0.6714
14811SOL     OW45873   6.796   3.801   1.111  0.6566 -0.3623 -0.1247
14811SOL    HW145874   6.823   3.714   1.142 -0.7915 -1.3308 -1.4173
14811SOL    HW245875   6.702   3.803   1.125  1.0421  2.5666  3.4346
14812SOL     OW45876   6.527   3.461   1.213  0.2301 -0.3439 -0.1166
14812SOL    HW145877   6.471   3.505   1.149 -0.1908 -3.4315 -2.0779
14812SOL    HW245878   6.467   3.432   1.282  0.1095 -0.0409 -0.0920
14813SOL     OW45879   6.164   3.291   0.856  0.6200 -0.4196  0.0779
14813SOL    HW145880   6.080   3.305   0.899 -0.2090 -1.2971 -1.1848
14813SOL    HW245881   6.208   3.225   0.911  1.4491  1.5739  1.9368
14814SOL     OW45882   4.595   5.805   1.303  0.1785 -0.0809  0.4103
14814SOL    HW145883   4.556   5.826   1.388 -0.2774  1.3371 -0.1215
14814SOL    HW245884   4.681   5.847   1.305  0.1410  0.0118  0.1583
14815SOL     OW45885   3.522   4.984   1.804 -0.3399 -0.1676 -0.0919
14815SOL    HW145886   3.463   5.059   1.807 -0.5295 -0.3417  0.7274
14815SOL    HW245887   3.487   4.923   1.869  0.1227 -0.7370 -0.3653
14816SOL     OW45888   3.887   5.264   0.802  0.1895 -0.2680  0.0719
14816SOL    HW145889   3.975   5.253   0.768 -0.1529  0.4143 -1.0872
14816SOL    HW245890   3.873   5.187   0.858  2.3604  0.8080  2.2430
14817SOL     OW45891   3.896   4.445   2.620  0.3306  0.0051 -0.3560
14817SOL    HW145892   3.941   4.361   2.627  2.0333  0.8153 -0.9969
14817SOL    HW245893   3.854   4.443   2.534  2.3724  0.6709 -1.4430
14818SOL     OW45894   3.914   5.153   1.927  0.0582  0.0438  0.4173
14818SOL    HW145895   3.864   5.122   1.852  1.4637  1.3803 -1.1434
14818SOL    HW245896   3.988   5.093   1.933  0.8245  0.8902 -0.3253
14819SOL     OW45897   5.771   4.643   3.547 -0.0076 -0.1208  0.4969
14819SOL    HW145898   5.857   4.640   3.589 -0.0256  0.5586  0.6051
14819SOL    HW245899   5.708   4.632   3.619 -0.0163 -0.3401  0.4559
14820SOL     OW45900   4.713   2.281   2.339  0.3930 -0.1409  0.3382
14820SOL    HW145901   4.720   2.198   2.388 -0.2591 -0.7348 -0.5391
14820SOL    HW245902   4.789   2.332   2.368  1.3537 -1.4241  0.2157
14821SOL     OW45903   4.808   3.961   1.372  0.1598 -0.0373 -0.8042
14821SOL    HW145904   4.833   4.038   1.423 -1.2598 -0.8024  1.2095
14821SOL    HW245905   4.726   3.932   1.413  0.5420 -2.4888 -1.6343
14822SOL     OW45906   4.476   5.446   0.945 -0.3199 -0.0377 -0.2426
14822SOL    HW145907   4.431   5.389   1.008  0.9028 -1.5991 -0.7027
14822SOL    HW245908   4.560   5.402   0.930  0.0821  1.1733 -1.7307
14823SOL     OW45909   3.592   4.759   2.144 -0.3813 -0.0743  0.1204
14823SOL    HW145910   3.627   4.795   2.225 -1.0068  3.8113 -1.1265
14823SOL    HW245911   3.670   4.741   2.091 -0.0216  0.8450  0.3057
14824SOL     OW45912   2.554   5.664  12.351 -0.5281 -0.6571 -0.1568
14824SOL    HW145913   2.549   5.699  12.262 -1.3226 -3.4805 -1.3243
14824SOL    HW245914   2.644   5.630  12.358  0.1370  1.1637  0.8526
14825SOL     OW45915   3.207   3.265   0.309 -0.2029  0.6248 -0.7206
14825SOL    HW145916   3.288   3.241   0.265  0.5693  1.3037  0.2908
14825SOL    HW245917   3.228   3.345   0.357 -1.2056  0.2955  0.3117
14826SOL     OW45918   4.206   4.632   1.440 -0.2415 -0.1935 -0.5407
14826SOL    HW145919   4.140   4.588   1.387  1.0964 -1.2040 -1.4554
14826SOL    HW245920   4.261   4.678   1.377  1.9379 -2.1698 -0.2401
14827SOL     OW45921   5.517   5.175   0.523 -0.2633 -0.1916  0.3950
14827SOL    HW145922   5.560   5.253   0.559 -0.3892 -0.8801  2.1127
14827SOL    HW245923   5.528   5.184   0.428 -1.2054  2.4495  0.4493
14828SOL     OW45924   5.592   3.320   2.020  0.2818 -0.5566  0.6270
14828SOL    HW145925   5.656   3.377   2.064  0.0073 -0.0862  0.4196
14828SOL    HW245926   5.611   3.330   1.927  0.4613 -1.0815  0.6009
14829SOL     OW45927   4.217   3.515   1.156  0.5150 -0.2812 -0.2649
14829SOL    HW145928   4.158   3.501   1.082 -1.4639 -0.2841  1.2441
14829SOL    HW245929   4.161   3.516   1.233  2.4319  0.2588  1.2326
14830SOL     OW45930   5.509   5.290  12.124  0.1176  0.1007 -0.4434
14830SOL    HW145931   5.546   5.296  12.212  1.0679 -0.0946 -0.8193
14830SOL    HW245932   5.471   5.202  12.119  0.7703 -0.1875 -0.4848
14831SOL     OW45933   2.528   7.162   0.916  0.2387 -0.0496 -0.7488
14831SOL    HW145934   2.508   7.074   0.883 -0.9416  0.3514 -1.1525
14831SOL    HW245935   2.478   7.221   0.860 -2.5701  0.6412  2.1775
14832SOL     OW45936   3.427   3.742   1.787 -0.0090  0.2664  0.6225
14832SOL    HW145937   3.407   3.772   1.876 -1.0191  0.4642  0.3449
14832SOL    HW245938   3.446   3.649   1.796 -1.3065  0.0177  0.8876
14833SOL     OW45939   6.506   5.741   1.854 -0.0263 -0.7269 -0.2148
14833SOL    HW145940   6.456   5.731   1.772 -0.1599  0.1876 -0.2526
14833SOL    HW245941   6.550   5.657   1.865 -0.0314 -0.8798 -1.2164
14834SOL     OW45942   4.167   4.753   0.995 -0.1432 -0.3557  0.1356
14834SOL    HW145943   4.137   4.817   1.059 -1.7443  1.7847 -2.5392
14834SOL    HW245944   4.163   4.799   0.911  0.6446 -3.3451 -1.7040
14835SOL     OW45945   5.260   2.144  12.269  0.1179 -0.0937  0.1722
14835SOL    HW145946   5.169   2.120  12.253  0.1864  0.8041 -1.8142
14835SOL    HW245947   5.257   2.236  12.292  0.5352 -0.0338 -0.0104
14836SOL     OW45948   3.357   4.620   2.208 -0.6439 -0.0477 -0.3107
14836SOL    HW145949   3.347   4.654   2.297 -2.9648  0.6720 -0.7837
14836SOL    HW245950   3.425   4.675   2.169 -0.3859  0.3491  0.6650
14837SOL     OW45951   4.962   5.202   0.908  0.3665  0.1549 -0.0513
14837SOL    HW145952   5.013   5.214   0.988 -0.6328 -1.6774  0.9217
14837SOL    HW245953   5.020   5.231   0.838  1.3214  1.6645  1.2934
14838SOL     OW45954   4.796   6.066   1.911  0.0754 -0.2772 -0.2825
14838SOL    HW145955   4.849   6.049   1.989 -0.5099  2.5206  0.8357
14838SOL    HW245956   4.854   6.117   1.853 -0.6708  0.9443  0.0183
14839SOL     OW45957   6.560   7.758  12.452  0.3233 -0.0361  0.0740
14839SOL    HW145958   6.621   7.754  12.378  0.5137 -3.8623  0.2083
14839SOL    HW245959   6.561   7.669  12.488 -4.2455  0.0663  1.0084
14840SOL     OW45960   6.544   5.064   0.475  0.2335 -0.4670  0.1385
14840SOL    HW145961   6.564   5.152   0.506  0.0414 -0.2523 -0.3469
14840SOL    HW245962   6.513   5.017   0.553 -3.8052  1.0806 -0.2986
14841SOL     OW45963   3.286   4.055   2.489 -0.0152 -0.1116  0.5781
14841SOL    HW145964   3.374   4.068   2.453  0.1934 -2.4038  0.0857
14841SOL    HW245965   3.302   4.017   2.576 -0.4999 -0.4020  0.5430
14842SOL     OW45966   5.005   3.617   0.954  0.3101  0.0676 -0.3405
14842SOL    HW145967   4.949   3.546   0.986 -1.1542  2.6106  3.5273
14842SOL    HW245968   5.093   3.581   0.955 -0.2483 -1.5106  2.4185
14843SOL     OW45969   6.147   6.391  12.044 -0.1851  0.0978 -0.1851
14843SOL    HW145970   6.088   6.448  12.094  1.8045  2.3994 -0.2938
14843SOL    HW245971   6.107   6.305  12.049 -3.0402  1.3557  0.5319
14844SOL     OW45972   4.956   5.993   0.571  0.0661 -0.8717 -0.4394
14844SOL    HW145973   4.937   5.899   0.569  0.0359 -0.8968 -2.8279
14844SOL    HW245974   4.870   6.035   0.582  0.0518 -1.0990  0.3760
14845SOL     OW45975   5.080   4.644   0.943  0.0414  0.1511  0.4362
14845SOL    HW145976   5.131   4.573   0.904  2.0391  1.8982 -0.3329
14845SOL    HW245977   5.016   4.667   0.876  0.6479  0.2994 -0.1094
14846SOL     OW45978   5.717   5.814  11.484  0.3057  0.1292  0.2234
14846SOL    HW145979   5.793   5.768  11.520 -0.1628 -1.0471 -0.2685
14846SOL    HW245980   5.670   5.845  11.562  1.2405  0.8235  0.5343
14847SOL     OW45981   4.478   4.383   0.675  0.9659  1.1840  0.3220
14847SOL    HW145982   4.452   4.441   0.747  1.2958  0.6343  0.8848
14847SOL    HW245983   4.443   4.426   0.597  0.6052  1.7873  0.8046
14848SOL     OW45984   5.403   4.331   1.812 -0.0992  0.1232  0.4908
14848SOL    HW145985   5.489   4.345   1.853 -0.1590  1.3559  0.2543
14848SOL    HW245986   5.355   4.276   1.874  1.5467 -2.4022 -0.3244
14849SOL     OW45987   4.836   4.083   2.846  0.3689 -0.0434  0.5961
14849SOL    HW145988   4.847   4.076   2.941 -0.0934  0.9169  0.7332
14849SOL    HW245989   4.846   4.176   2.828 -0.4550 -0.0984 -0.1808
14850SOL     OW45990   5.851   3.910   1.530  0.3496  0.1736  0.1346
14850SOL    HW145991   5.830   4.004   1.530  0.9780  0.3213  0.5129
14850SOL    HW245992   5.846   3.884   1.438 -1.3958  0.2128  0.1894
14851SOL     OW45993   5.409   4.844   0.330 -0.4289  0.1026 -0.1748
14851SOL    HW145994   5.399   4.770   0.269 -0.1066 -0.3571  0.3237
14851SOL    HW245995   5.494   4.882   0.307 -0.8642  0.7001 -0.8342
14852SOL     OW45996   3.183   3.687  12.178 -0.1121 -0.3404 -0.1158
14852SOL    HW145997   3.114   3.733  12.226 -1.4056 -0.2194 -1.9472
14852SOL    HW245998   3.260   3.691  12.234 -1.3410  0.3877  1.5792
14853SOL     OW45999   3.393   5.160   3.430 -0.2810  0.0643 -0.1014
14853SOL    HW146000   3.338   5.230   3.395 -1.2104 -0.2556  0.6738
14853SOL    HW246001   3.343   5.125   3.504  1.0553 -0.1056  0.7544
14854SOL     OW46002   5.130   5.574  12.009  0.3116  0.3808 -0.2127
14854SOL    HW146003   5.087   5.538  11.932 -0.1768  1.1187 -0.2941
14854SOL    HW246004   5.083   5.656  12.027  1.6582  1.2093 -0.2906
14855SOL     OW46005   6.536   4.476   2.020 -0.0552 -0.2897  0.3885
14855SOL    HW146006   6.461   4.531   2.043 -0.1500  0.2292 -1.0627
14855SOL    HW246007   6.525   4.397   2.073 -1.8330 -0.3834 -0.0700
14856SOL     OW46008   5.490   4.218   1.219 -0.2740  0.0130  0.5081
14856SOL    HW146009   5.505   4.125   1.206 -0.2698  0.0256  0.4216
14856SOL    HW246010   5.536   4.238   1.301  0.2027  0.0555  0.2328
14857SOL     OW46011   4.693   2.987  11.433  0.7728 -0.1485 -0.1984
14857SOL    HW146012   4.737   3.066  11.403  1.9854 -0.2754  1.1672
14857SOL    HW246013   4.763   2.928  11.458 -0.0985 -1.7868 -1.4179
14858SOL     OW46014   3.920   5.683   1.294  0.0730 -0.3565  0.3364
14858SOL    HW146015   3.889   5.710   1.207  0.6949 -1.4978 -0.2578
14858SOL    HW246016   4.015   5.673   1.284 -0.1327 -3.0644  0.3872
14859SOL     OW46017   4.727   4.332   1.531 -0.7517  0.3157 -0.4372
14859SOL    HW146018   4.676   4.282   1.595  1.2860  2.0100  2.8473
14859SOL    HW246019   4.807   4.282   1.519 -0.1578  1.0682  0.2112
14860SOL     OW46020   6.166   4.944   1.219  0.1934  0.0278  0.2554
14860SOL    HW146021   6.082   4.989   1.221 -0.1744 -0.6216  2.5603
14860SOL    HW246022   6.143   4.851   1.206  0.6151 -0.0633  0.1368
14861SOL     OW46023   4.672   6.278   1.560 -0.2011  0.5345 -0.8835
14861SOL    HW146024   4.641   6.265   1.649 -1.1684 -0.8399 -1.3648
14861SOL    HW246025   4.622   6.353   1.528  1.4138  2.1292  0.2494
14862SOL     OW46026   7.829   4.693  12.353  0.2285  0.0393  0.2943
14862SOL    HW146027   7.761   4.671  12.416 -1.5259  0.1156 -1.4523
14862SOL    HW246028   7.823   4.624  12.286  1.6955  0.2062 -0.0586
14863SOL     OW46029   5.169   4.441   0.030  0.3937 -0.4366  0.1406
14863SOL    HW146030   5.233   4.370   0.034  0.5343 -0.4391 -1.4459
14863SOL    HW246031   5.124   4.428  -0.053 -0.2570  0.7627  0.2803
14864SOL     OW46032   4.528   4.713   3.041  0.2063  0.5563 -0.0389
14864SOL    HW146033   4.472   4.723   2.964  1.3597  0.7225 -0.8920
14864SOL    HW246034   4.487   4.643   3.092 -0.5389  0.3968 -0.8334
14865SOL     OW46035   4.970   5.946  11.798 -0.5171  0.1518  0.7775
14865SOL    HW146036   5.001   5.991  11.876  0.1108 -1.2123  1.3487
14865SOL    HW246037   5.045   5.894  11.768 -1.3156 -0.8259  0.3906
14866SOL     OW46038   3.246   2.884   2.009 -0.3969  0.4064  0.4784
14866SOL    HW146039   3.182   2.944   2.047 -1.0897 -0.8474  1.3460
14866SOL    HW246040   3.248   2.907   1.916 -0.7172  1.6882  0.7652
14867SOL     OW46041   5.770   4.735   0.128 -0.9247  0.3450 -0.6394
14867SOL    HW146042   5.816   4.814   0.100  0.2859  0.0713  0.4762
14867SOL    HW246043   5.831   4.664   0.108 -1.8486 -0.2854 -1.2950
14868SOL     OW46044   6.128   5.469  11.656 -0.2828  0.0256  0.2379
14868SOL    HW146045   6.106   5.562  11.652 -0.7247 -0.0664  0.4004
14868SOL    HW246046   6.213   5.462  11.614  0.1318  0.6253  0.9487
14869SOL     OW46047   5.602   3.517   1.280 -1.1750  0.2734  0.1328
14869SOL    HW146048   5.642   3.518   1.367  0.7387  1.9347 -0.6806
14869SOL    HW246049   5.597   3.424   1.256  1.5588 -0.0779  0.6266
14870SOL     OW46050   2.876   5.733   1.653 -0.3610 -0.3841 -0.8478
14870SOL    HW146051   2.910   5.808   1.701 -2.1696 -0.2318  0.2973
14870SOL    HW246052   2.799   5.705   1.703 -0.9951 -1.6529 -2.4298
14871SOL     OW46053   2.899   5.246   2.636 -0.4690  0.7096  0.2296
14871SOL    HW146054   2.969   5.267   2.575 -0.2090  1.2599  0.7078
14871SOL    HW246055   2.935   5.178   2.693 -0.5778  0.4761  0.0232
14872SOL     OW46056   4.894   4.784   0.576  0.2024 -0.1128 -0.4949
14872SOL    HW146057   4.851   4.821   0.499  0.2547  0.3699 -0.3001
14872SOL    HW246058   4.946   4.711   0.543  2.5376  1.8170 -1.3933
14873SOL     OW46059   6.495   3.932   2.376  0.6836 -0.7080 -0.5666
14873SOL    HW146060   6.456   3.963   2.295  0.1546  2.1820  0.6534
14873SOL    HW246061   6.420   3.905   2.430  0.9192 -1.3063 -0.5299
14874SOL     OW46062   5.746   4.303  12.238  0.0216 -0.4421  0.2360
14874SOL    HW146063   5.689   4.230  12.261 -0.7386  0.8038  2.6491
14874SOL    HW246064   5.818   4.298  12.302  0.2831  0.5533  0.0324
14875SOL     OW46065   2.609   2.787   2.552  0.2864  0.1033 -0.5789
14875SOL    HW146066   2.656   2.809   2.472  1.7324 -0.5790  0.0466
14875SOL    HW246067   2.653   2.708   2.585 -0.1974  0.4343  0.9355
14876SOL     OW46068   4.197   5.461   2.047 -0.2030  0.0903 -0.2605
14876SOL    HW146069   4.104   5.478   2.064 -0.1816 -1.2017  1.3405
14876SOL    HW246070   4.224   5.400   2.116  1.6604 -0.1418 -1.1255
14877SOL     OW46071   4.304   3.531   0.779  0.3363 -0.3103  0.1027
14877SOL    HW146072   4.327   3.602   0.839  0.4031 -0.0002 -0.2855
14877SOL    HW246073   4.346   3.554   0.697 -0.0263 -0.5642 -0.1579
14878SOL     OW46074   4.646   5.513   1.577  0.1240 -0.4213  0.0983
14878SOL    HW146075   4.651   5.608   1.582 -0.6431 -0.2746 -1.2756
14878SOL    HW246076   4.552   5.494   1.585  0.0010 -0.8594 -1.9803
14879SOL     OW46077   5.873   3.682  11.879 -0.7611  0.3136  0.0690
14879SOL    HW146078   5.835   3.727  11.955 -0.6970 -1.6449  1.3316
14879SOL    HW246079   5.856   3.741  11.805 -1.7849  1.7861  1.4081
14880SOL     OW46080   5.532   4.212   0.628  0.5040 -0.0676 -0.1961
14880SOL    HW146081   5.624   4.228   0.608  0.2414 -0.4967 -1.9196
14880SOL    HW246082   5.488   4.293   0.604  0.5052  0.4926  1.5285
14881SOL     OW46083   4.772   5.775  11.881 -0.1923  0.0493 -0.1055
14881SOL    HW146084   4.818   5.852  11.849 -0.5426  0.5319  0.5495
14881SOL    HW246085   4.682   5.785  11.849  0.1313 -0.9133 -1.4190
14882SOL     OW46086   2.662   2.222   2.787  0.7963  0.0552  0.0684
14882SOL    HW146087   2.689   2.155   2.724  0.3182 -0.5459  0.4925
14882SOL    HW246088   2.726   2.217   2.857  2.2413  1.7837 -1.0579
14883SOL     OW46089   5.203   4.035   2.218  0.6757  0.2134  0.1017
14883SOL    HW146090   5.178   4.001   2.304 -1.4011  1.5828  0.1061
14883SOL    HW246091   5.150   3.985   2.156  1.5670 -0.2064 -0.3376
14884SOL     OW46092   4.522   6.343   1.796 -0.2244 -0.0296  0.5777
14884SOL    HW146093   4.446   6.396   1.820  0.0459  0.6122  0.0606
14884SOL    HW246094   4.597   6.390   1.833  0.1317  0.5995 -0.8715
14885SOL     OW46095   5.890   3.893  12.471  0.0700 -0.4887 -0.0925
14885SOL    HW146096   5.824   3.942  12.521  0.6769 -0.4789  0.7319
14885SOL    HW246097   5.854   3.805  12.463  0.3283 -0.7309  1.1454
14886SOL     OW46098   3.900   4.329   0.318 -0.2472 -0.0192  0.1192
14886SOL    HW146099   3.905   4.308   0.224 -0.2884  0.0796  0.0941
14886SOL    HW246100   3.813   4.299   0.344  0.3515 -1.5182  0.4977
14887SOL     OW46101   7.031   4.187  11.423 -0.0416  0.7602  0.7459
14887SOL    HW146102   6.982   4.250  11.371  0.7287  0.3118 -0.5675
14887SOL    HW246103   7.106   4.236  11.457  1.9115  0.1202 -2.2510
14888SOL     OW46104   5.056   4.572   0.508  0.2157 -0.0094  0.1031
14888SOL    HW146105   5.086   4.571   0.418  3.0923 -0.9128  0.9603
14888SOL    HW246106   5.026   4.483   0.525 -1.4048  0.4495 -0.2509
14889SOL     OW46107   5.108   5.093   1.164 -0.1566 -0.0080 -0.3111
14889SOL    HW146108   5.051   5.110   1.238  0.4267  1.1420 -0.0889
14889SOL    HW246109   5.107   4.998   1.153  0.7442 -0.3579  1.9928
14890SOL     OW46110   3.623   3.123   2.208  0.1686  0.0576 -0.0264
14890SOL    HW146111   3.693   3.180   2.238  0.0930 -0.0176  0.2910
14890SOL    HW246112   3.667   3.056   2.155  0.6679 -1.4791  2.2055
14891SOL     OW46113   4.480   3.325   1.122  0.2606  0.5110 -0.5852
14891SOL    HW146114   4.493   3.326   1.027  1.5729  0.7457 -0.4144
14891SOL    HW246115   4.396   3.369   1.135  0.1286  0.5897 -1.6243
14892SOL     OW46116   5.098   1.881   1.150 -0.4601  0.0594 -0.4681
14892SOL    HW146117   5.083   1.857   1.059 -0.5702  1.0246 -0.7181
14892SOL    HW246118   5.010   1.882   1.190 -0.4209 -0.2745 -0.3644
14893SOL     OW46119   4.756   6.490   1.869  0.0763 -0.0002 -0.1169
14893SOL    HW146120   4.801   6.464   1.949 -0.7518 -1.7965 -0.1969
14893SOL    HW246121   4.827   6.519   1.811  1.0998 -2.0447  0.0215
14894SOL     OW46122   6.506   5.137   0.055  0.4526 -0.4779  0.5730
14894SOL    HW146123   6.526   5.076  -0.016  0.8586 -0.5999  0.7906
14894SOL    HW246124   6.463   5.082   0.121 -1.2051 -0.1124 -0.1384
14895SOL     OW46125   5.747   4.554  12.391 -0.0854 -0.4259  0.3250
14895SOL    HW146126   5.835   4.571  12.424  0.2929  3.2930 -1.9459
14895SOL    HW246127   5.761   4.496  12.316  0.3761 -0.1981  0.2278
14896SOL     OW46128   5.379   5.287   0.832  0.2141 -0.0353 -0.3008
14896SOL    HW146129   5.294   5.327   0.812  0.5987  1.0827  0.1854
14896SOL    HW246130   5.372   5.198   0.799 -1.0409  0.1306 -0.5431
14897SOL     OW46131   5.924   5.699  12.124  0.4580 -0.9835  0.2953
14897SOL    HW146132   5.904   5.645  12.047 -0.1595  0.0422 -0.2782
14897SOL    HW246133   5.898   5.787  12.099  0.5696 -0.5741  1.5683
14898SOL     OW46134   7.620   3.326  11.352  0.4016  0.0047 -0.0661
14898SOL    HW146135   7.559   3.301  11.422 -0.2872 -0.2361 -0.7414
14898SOL    HW246136   7.684   3.255  11.349 -0.1658 -0.4978 -0.3708
14899SOL     OW46137   3.926   2.059   1.084  0.1687  0.2614  0.5446
14899SOL    HW146138   3.947   2.035   0.993 -1.3054  0.8359  0.0274
14899SOL    HW246139   3.931   2.155   1.085 -1.9311  0.4056  0.4856
14900SOL     OW46140   6.822   3.725   0.392 -0.2096 -0.3349  0.4795
14900SOL    HW146141   6.833   3.775   0.473  1.3596  1.2079 -0.6039
14900SOL    HW246142   6.895   3.663   0.393  0.0706 -0.0182  0.0731
14901SOL     OW46143   5.322   5.611   1.374  0.0303  0.1159  0.8209
14901SOL    HW146144   5.375   5.539   1.407  1.0054  1.1627  1.6153
14901SOL    HW246145   5.308   5.668   1.450  0.7011  1.6040 -0.1323
14902SOL     OW46146   5.992   5.776   1.820 -0.2458  0.4984 -0.7247
14902SOL    HW146147   5.922   5.840   1.831 -1.2096 -0.8132  1.6889
14902SOL    HW246148   5.949   5.700   1.782 -0.2097 -0.3227  0.7821
14903SOL     OW46149   3.272   5.817   0.596  0.2053  0.0275  0.5316
14903SOL    HW146150   3.299   5.817   0.688 -1.5103 -0.4535  1.0593
14903SOL    HW246151   3.183   5.852   0.596  0.2832  0.3113 -0.9869
14904SOL     OW46152   5.236   4.760   1.784 -0.3482  0.6274 -0.4378
14904SOL    HW146153   5.279   4.695   1.729 -0.7923 -0.1067  0.0493
14904SOL    HW246154   5.240   4.841   1.735  1.3611  0.5262 -0.5061
14905SOL     OW46155   5.767   3.420  11.358 -0.4610  0.4311 -0.7335
14905SOL    HW146156   5.679   3.444  11.387 -0.3502  0.8039 -0.6911
14905SOL    HW246157   5.757   3.337  11.313 -0.9087  0.7094 -1.1496
14906SOL     OW46158   4.079   4.455   0.725 -0.2040 -0.3646  0.0836
14906SOL    HW146159   4.118   4.541   0.710 -0.5727 -0.2164 -0.0451
14906SOL    HW246160   4.060   4.453   0.819 -1.1287  0.1067 -0.0735
14907SOL     OW46161   3.662   5.612   1.869 -0.0320 -0.5044 -0.6547
14907SOL    HW146162   3.734   5.675   1.875 -0.8050  0.2984  0.6634
14907SOL    HW246163   3.698   5.539   1.818  1.3186  0.3944 -1.0439
14908SOL     OW46164   6.033   5.312  12.120 -0.4657 -0.2336  0.4488
14908SOL    HW146165   5.937   5.311  12.116 -0.4467  1.0860 -1.3289
14908SOL    HW246166   6.057   5.219  12.121 -1.7675 -0.5840  1.7554
14909SOL     OW46167   3.458   4.793  12.494  0.2265 -0.7220 -0.1426
14909SOL    HW146168   3.376   4.839  12.481  0.5937 -0.6111 -2.6299
14909SOL    HW246169   3.522   4.862  12.512  0.0133 -0.6955  0.5395
14910SOL     OW46170   4.814   4.070   2.134  0.1398 -0.3734  0.1799
14910SOL    HW146171   4.721   4.071   2.156  0.0357 -4.2678  0.6488
14910SOL    HW246172   4.859   4.076   2.219  0.2180 -0.9905  0.1854
14911SOL     OW46173   2.028   5.957  12.060  0.2005 -0.2270 -0.1422
14911SOL    HW146174   2.090   6.030  12.067 -1.0490  1.0306 -1.4004
14911SOL    HW246175   1.961   5.977  12.125 -0.1005 -0.2962 -0.4276
14912SOL     OW46176   5.664   4.467  11.339 -0.6049  0.1040 -0.1331
14912SOL    HW146177   5.690   4.556  11.315 -1.2179  0.5966  0.9692
14912SOL    HW246178   5.568   4.468  11.334 -0.5842 -1.0168 -1.8334
14913SOL     OW46179   2.769   3.884   1.498 -0.6500 -0.1674 -0.7734
14913SOL    HW146180   2.755   3.808   1.440 -0.7866 -0.1639 -0.7469
14913SOL    HW246181   2.682   3.923   1.506 -0.8689 -0.8322  0.3562
14914SOL     OW46182   4.664   5.794   2.302  0.1954 -0.3705  0.7268
14914SOL    HW146183   4.601   5.724   2.291  0.0875 -0.4213  1.6091
14914SOL    HW246184   4.620   5.872   2.267 -0.7841 -0.1920  2.2910
14915SOL     OW46185   5.429   3.334  11.865 -0.5644 -0.2408 -0.0097
14915SOL    HW146186   5.507   3.365  11.819 -2.1032 -0.5310 -3.0937
14915SOL    HW246187   5.367   3.407  11.858 -1.0888 -0.5578  1.0960
14916SOL     OW46188   3.217   3.680   2.362  0.6995  0.0710 -0.2087
14916SOL    HW146189   3.267   3.694   2.443  0.1341 -0.4019  0.2252
14916SOL    HW246190   3.264   3.609   2.318  0.3177 -0.4884  0.2799
14917SOL     OW46191   3.216   3.798   0.790  0.4489  0.2722  0.0553
14917SOL    HW146192   3.210   3.887   0.824 -0.2690  1.2504 -2.4317
14917SOL    HW246193   3.127   3.763   0.797  0.5746  0.0115  0.3685
14918SOL     OW46194   5.237   3.734   0.848 -0.1964 -0.7735 -0.1755
14918SOL    HW146195   5.182   3.797   0.895  0.8839 -0.3093  0.4920
14918SOL    HW246196   5.247   3.772   0.761 -3.2008 -2.2093 -1.3173
14919SOL     OW46197   3.006   3.893   2.078  0.6201 -0.3957  0.2882
14919SOL    HW146198   3.017   3.904   2.172  1.5537  1.3825  0.0005
14919SOL    HW246199   3.080   3.939   2.039 -0.6089  0.3050 -1.3476
14920SOL     OW46200   3.055   4.471   1.704 -0.1235 -0.1380 -0.1520
14920SOL    HW146201   3.030   4.549   1.655  0.7675  0.4824  0.3341
14920SOL    HW246202   2.974   4.421   1.715 -0.3386 -0.4000 -2.3813
14921SOL     OW46203   5.227   4.320  12.006  0.6653 -0.0419 -1.0135
14921SOL    HW146204   5.185   4.375  11.940 -0.8407 -1.4055 -1.2275
14921SOL    HW246205   5.294   4.272  11.958 -0.2310 -0.8155 -1.5095
14922SOL     OW46206   7.547   4.444   0.689  0.2249 -0.0255 -0.3365
14922SOL    HW146207   7.636   4.417   0.665  0.4486  0.1093  0.3108
14922SOL    HW246208   7.535   4.410   0.777  0.4262  1.7277  0.4126
14923SOL     OW46209   6.358   3.716  11.001  0.1665  0.0489 -0.4753
14923SOL    HW146210   6.284   3.656  11.015  0.2346 -0.1915 -1.1009
14923SOL    HW246211   6.417   3.698  11.074 -0.4164  0.2779  0.0577
14924SOL     OW46212   2.366   3.318   0.131 -0.3054  0.0167 -0.4492
14924SOL    HW146213   2.418   3.293   0.054 -0.3420 -0.5077 -0.3055
14924SOL    HW246214   2.275   3.314   0.100 -0.2574  1.4048 -0.8392
14925SOL     OW46215   4.115   5.859   2.705 -0.6428 -0.6944 -0.2786
14925SOL    HW146216   4.131   5.836   2.613  1.2771 -1.8209  0.2761
14925SOL    HW246217   4.119   5.775   2.751  1.8805  0.1519  1.2439
14926SOL     OW46218   5.710   3.189   1.021  1.2106  0.2990  0.1294
14926SOL    HW146219   5.633   3.135   1.040  1.8955 -1.2617 -1.3228
14926SOL    HW246220   5.772   3.168   1.090  1.0218  0.1767  0.2628
14927SOL     OW46221   4.761   4.725   1.876 -0.4526  0.3893  0.5607
14927SOL    HW146222   4.686   4.679   1.838 -0.9014  0.2638  1.5699
14927SOL    HW246223   4.723   4.783   1.943  0.2081  1.4475  0.0538
14928SOL     OW46224   4.657   3.400   1.936  0.2474 -0.2642 -0.1111
14928SOL    HW146225   4.736   3.345   1.938 -0.1435 -0.9746 -1.9501
14928SOL    HW246226   4.597   3.357   1.997  0.5415 -0.9502 -0.2907
14929SOL     OW46227   5.706   2.881  12.046 -0.0238 -0.2618  0.4124
14929SOL    HW146228   5.700   2.798  12.093  0.8049  0.2610  1.5002
14929SOL    HW246229   5.785   2.923  12.081  0.2674  0.4485 -1.0012
14930SOL     OW46230   3.649   3.303   0.674  0.0020 -0.2869  0.7172
14930SOL    HW146231   3.738   3.322   0.703  0.5580 -0.4232 -0.8377
14930SOL    HW246232   3.620   3.383   0.632  0.1406 -0.8924 -0.5588
14931SOL     OW46233   5.558   4.844   2.207  0.2736  0.2921  0.0484
14931SOL    HW146234   5.549   4.907   2.279  1.6378  0.1872  0.3255
14931SOL    HW246235   5.536   4.895   2.129  2.1167  1.3828  0.1781
14932SOL     OW46236   5.245   4.356   2.794 -0.3467 -0.4991  0.0623
14932SOL    HW146237   5.159   4.321   2.769 -0.4976  1.4603 -2.6953
14932SOL    HW246238   5.260   4.427   2.731  2.8241 -0.0569  1.1755
14933SOL     OW46239   3.605   4.551   0.110  0.4843 -0.0466 -0.0987
14933SOL    HW146240   3.649   4.619   0.162  2.3131 -1.2940  0.0769
14933SOL    HW246241   3.576   4.596   0.031 -0.9994  1.5619  1.2765
14934SOL     OW46242   4.643   6.343  12.427  0.4277  0.0175 -0.0783
14934SOL    HW146243   4.592   6.391  12.363  0.4226  1.7007  1.1242
14934SOL    HW246244   4.609   6.371  12.512  1.9877 -0.3372  0.7212
14935SOL     OW46245   6.105   5.133   0.211 -0.1270  0.4797  0.9538
14935SOL    HW146246   6.116   5.217   0.256 -2.0860  0.6372  1.2286
14935SOL    HW246247   6.170   5.075   0.252  0.2443  1.4647  1.8056
14936SOL     OW46248   7.312   5.827   1.425 -0.3379  0.7980 -0.0985
14936SOL    HW146249   7.366   5.794   1.497 -0.6160 -0.3298 -0.4028
14936SOL    HW246250   7.280   5.749   1.381 -0.5933  1.4779 -1.1410
14937SOL     OW46251   3.371   4.072  12.393 -0.2751  0.8006  0.8976
14937SOL    HW146252   3.294   4.075  12.336  0.4130  1.1044 -0.0627
14937SOL    HW246253   3.380   3.980  12.417  0.1377  0.4317 -0.5507
14938SOL     OW46254   5.507   3.056   1.082  0.1757  0.5579 -0.6128
14938SOL    HW146255   5.415   3.033   1.068  0.8397 -1.5865 -1.9001
14938SOL    HW246256   5.543   2.981   1.130  1.2546  1.4151 -0.0484
14939SOL     OW46257   5.643   2.764  12.498 -0.3995 -0.4306 -0.2707
14939SOL    HW146258   5.605   2.717  12.573 -2.4800  2.1020  0.4003
14939SOL    HW246259   5.725   2.800  12.531 -0.8306 -0.1391  0.5073
14940SOL     OW46260   2.692   5.391   2.168  0.1918 -0.4525 -0.2128
14940SOL    HW146261   2.661   5.403   2.258 -1.3242 -2.2780 -0.4334
14940SOL    HW246262   2.779   5.431   2.168 -0.0117  0.1557  1.8889
14941SOL     OW46263   4.065   5.112   1.213  0.2872  0.3536 -0.0393
14941SOL    HW146264   4.078   5.206   1.224 -2.7815  1.3252 -2.8992
14941SOL    HW246265   3.985   5.093   1.264  1.8571 -1.2306  2.0278
14942SOL     OW46266   4.519   4.659   1.731 -0.4941 -0.4568 -0.0993
14942SOL    HW146267   4.436   4.612   1.729  0.4913 -2.5660  2.2310
14942SOL    HW246268   4.574   4.614   1.668 -0.8766  0.5684 -1.2097
14943SOL     OW46269   2.909   3.820   0.436  0.0716 -0.0868  0.0445
14943SOL    HW146270   2.900   3.827   0.531  0.6513 -0.9772  0.1716
14943SOL    HW246271   2.928   3.910   0.407  1.2753 -0.0256  0.9387
14944SOL     OW46272   1.858   4.894   1.341 -0.1373 -0.2371 -0.5929
14944SOL    HW146273   1.819   4.957   1.402 -0.4236  0.7127 -1.7341
14944SOL    HW246274   1.814   4.911   1.258  2.0007  0.2125 -1.7042
14945SOL     OW46275   3.912   4.895   2.725 -0.3966  0.0166  0.1909
14945SOL    HW146276   3.932   4.813   2.678  0.2579  0.9014 -1.1315
14945SOL    HW246277   3.856   4.867   2.798  0.1048 -1.6548 -0.0132
14946SOL     OW46278   3.903   2.625   1.281 -0.2421  0.5869 -0.2129
14946SOL    HW146279   3.908   2.719   1.300  1.3098  0.6102 -0.6777
14946SOL    HW246280   3.921   2.618   1.187 -0.3598 -0.1840 -0.1859
14947SOL     OW46281   3.765   4.537   1.808 -0.1146  0.2675  0.3021
14947SOL    HW146282   3.686   4.483   1.814  0.5667 -0.7762  0.2426
14947SOL    HW246283   3.754   4.605   1.874 -0.9988  0.0442  0.3889
14948SOL     OW46284   4.397   6.600  12.309  0.1409 -0.4197  0.3167
14948SOL    HW146285   4.337   6.674  12.318  0.7680  0.0954  0.3141
14948SOL    HW246286   4.355   6.529  12.358  0.8629  0.7583  2.8266
14949SOL     OW46287   4.714   4.257   0.670  0.4274  0.0314  0.2076
14949SOL    HW146288   4.627   4.296   0.662  0.1746 -0.3157  1.0705
14949SOL    HW246289   4.698   4.169   0.704  1.0847 -0.2570 -0.1984
14950SOL     OW46290   5.262   4.890   2.308  0.4757 -0.3538  0.5773
14950SOL    HW146291   5.325   4.938   2.362 -0.4036  0.0548  1.2708
14950SOL    HW246292   5.194   4.955   2.288 -0.4878 -1.1676  1.1176
14951SOL     OW46293   3.338   2.911  12.408  0.1587  0.1427  0.5284
14951SOL    HW146294   3.251   2.946  12.387  0.9680  1.7428 -0.2888
14951SOL    HW246295   3.399   2.976  12.375  1.7207 -1.3425  0.3671
14952SOL     OW46296   4.851   5.524   2.430  0.0053 -0.2741  0.4199
14952SOL    HW146297   4.768   5.527   2.477 -0.0681  0.7091  0.2666
14952SOL    HW246298   4.915   5.494   2.495 -0.4283 -0.8231  0.5973
14953SOL     OW46299   3.131   3.342   1.415 -0.1759 -0.3383  0.2143
14953SOL    HW146300   3.200   3.281   1.442  1.3458  0.9411 -0.6925
14953SOL    HW246301   3.056   3.285   1.394  0.6656 -1.7667  0.9478
14954SOL     OW46302   5.604   4.280   0.179  0.2885  0.4946 -0.2087
14954SOL    HW146303   5.580   4.326   0.099 -1.5405 -1.9671 -1.1725
14954SOL    HW246304   5.525   4.283   0.233 -0.1364 -2.0011 -0.5988
14955SOL     OW46305   3.169   4.398   1.158 -0.3459 -0.2519 -0.6345
14955SOL    HW146306   3.102   4.421   1.223  0.6163 -0.1717  0.3655
14955SOL    HW246307   3.145   4.310   1.129 -0.2044 -0.7161  0.6196
14956SOL     OW46308   4.018   6.455   0.458 -0.3489 -0.1933  0.0193
14956SOL    HW146309   4.079   6.418   0.522  0.2677 -0.5714 -0.7626
14956SOL    HW246310   4.068   6.523   0.413  0.5399 -2.3881 -2.5909
14957SOL     OW46311   4.154   4.745   0.690 -0.2216  0.1525 -0.0959
14957SOL    HW146312   4.073   4.768   0.644 -1.4205  1.3635  2.4385
14957SOL    HW246313   4.222   4.797   0.646 -0.9617 -0.0604 -1.5688
14958SOL     OW46314   3.864   5.388   1.789 -0.0408 -0.1698  0.1859
14958SOL    HW146315   3.908   5.306   1.811 -1.0366 -0.3590  1.6486
14958SOL    HW246316   3.927   5.436   1.737  1.3528 -1.0072  1.0365
14959SOL     OW46317   4.795   5.022  12.145 -0.2214  0.2242  0.1268
14959SOL    HW146318   4.716   5.003  12.195  0.8462  0.3028  1.9206
14959SOL    HW246319   4.866   4.985  12.197  1.0961  1.7051 -0.5387
14960SOL     OW46320   4.576   3.585   1.739 -0.0454 -0.1374 -0.1671
14960SOL    HW146321   4.670   3.606   1.735  0.1055 -0.8717 -0.6361
14960SOL    HW246322   4.568   3.524   1.812 -0.3245  0.7262  0.5337
14961SOL     OW46323   5.486   0.216  11.719 -0.1772 -0.2508  0.0094
14961SOL    HW146324   5.455   0.135  11.761  1.0437 -0.2395  0.9783
14961SOL    HW246325   5.448   0.286  11.771 -0.1796 -0.2119 -0.0451
14962SOL     OW46326   2.432   6.021   2.361  0.3165 -0.0666  0.1285
14962SOL    HW146327   2.397   5.957   2.299  0.3107 -0.3583  0.4328
14962SOL    HW246328   2.445   5.972   2.442 -0.4360  0.4972  0.6008
14963SOL     OW46329   5.362   6.381   1.411  0.2066  0.2170  0.5208
14963SOL    HW146330   5.390   6.375   1.502 -0.7290  0.1249  0.8189
14963SOL    HW246331   5.338   6.473   1.400  0.7939  0.3333  0.2222
14964SOL     OW46332   5.381   3.733   2.286  0.1798 -0.3119  0.0184
14964SOL    HW146333   5.367   3.657   2.229  0.8070  0.1335 -0.7608
14964SOL    HW246334   5.327   3.803   2.247 -0.5169 -0.3874  0.8206
14965SOL     OW46335   5.318   4.675  12.401 -0.0062 -0.2746 -0.3384
14965SOL    HW146336   5.333   4.657  12.308 -2.2181  2.9339 -1.5241
14965SOL    HW246337   5.258   4.606  12.430 -1.1469 -0.0722 -2.0493
14966SOL     OW46338   3.804   6.312   3.335  0.7612 -0.3245  0.0708
14966SOL    HW146339   3.870   6.266   3.387  0.7090 -1.0999 -0.5358
14966SOL    HW246340   3.850   6.390   3.303  0.9564 -0.1248  0.8065
14967SOL     OW46341   3.755   4.298   1.176  0.1959  0.5417  0.0817
14967SOL    HW146342   3.691   4.362   1.148  0.9314  0.9461 -0.7367
14967SOL    HW246343   3.790   4.332   1.259  1.8397  2.1581 -1.2000
14968SOL     OW46344   2.973   4.952   1.134  0.1237 -0.4364 -0.1543
14968SOL    HW146345   2.884   4.921   1.150 -0.0606  0.2589  0.2239
14968SOL    HW246346   3.007   4.894   1.066 -0.8689 -0.2673 -0.8207
14969SOL     OW46347   3.710   6.671   0.467 -0.2219  0.0944 -0.1236
14969SOL    HW146348   3.778   6.696   0.530  0.9466  0.9741 -1.6368
14969SOL    HW246349   3.735   6.717   0.386 -3.7523  2.1583 -0.2419
14970SOL     OW46350   3.876   5.006   1.707  0.2011 -0.1868 -0.4111
14970SOL    HW146351   3.836   5.010   1.621 -0.1288 -1.5961 -0.3427
14970SOL    HW246352   3.930   4.927   1.705  1.0432  0.3499  0.3204
14971SOL     OW46353   4.171   5.820  12.475 -0.0193  0.1933  0.5585
14971SOL    HW146354   4.239   5.888  12.474 -0.0541  0.2339 -0.3585
14971SOL    HW246355   4.195   5.763  12.548 -0.1259  1.3211  1.4883
14972SOL     OW46356   5.081   6.597   0.078  0.3627 -0.3860  0.0449
14972SOL    HW146357   5.022   6.524   0.059 -1.3920  1.3139 -1.4885
14972SOL    HW246358   5.086   6.599   0.174  1.5155 -3.2283  0.1511
14973SOL     OW46359   4.623   4.020   0.777  0.2607  0.0303  0.0024
14973SOL    HW146360   4.651   3.951   0.717  0.1675  0.8973 -1.0798
14973SOL    HW246361   4.527   4.016   0.775  0.2553 -0.5259  0.8208
14974SOL     OW46362   4.839   5.968   2.425 -0.2010 -0.5619  0.3320
14974SOL    HW146363   4.801   5.894   2.378  0.2796 -1.6284  1.5301
14974SOL    HW246364   4.896   5.927   2.491  0.5545  0.9010  0.6284
14975SOL     OW46365   4.583   3.835   1.496  0.1883 -0.0072  0.0364
14975SOL    HW146366   4.545   3.761   1.543 -4.5610  2.2273  0.3446
14975SOL    HW246367   4.622   3.890   1.564 -1.3262  0.3470  0.6693
14976SOL     OW46368   4.741   2.977   0.404  0.2316 -0.1427  0.1232
14976SOL    HW146369   4.798   2.905   0.431 -1.9550 -1.6156  1.0726
14976SOL    HW246370   4.765   3.049   0.461  1.5329 -0.5233  0.0931
14977SOL     OW46371   2.796   5.178   0.339  0.2468  0.0895  0.2353
14977SOL    HW146372   2.724   5.241   0.346 -0.3309 -0.2874 -1.6079
14977SOL    HW246373   2.784   5.118   0.412 -1.9323 -0.5268 -0.5374
14978SOL     OW46374   5.082   6.099   2.440 -0.1687 -0.3390  0.3201
14978SOL    HW146375   5.128   6.079   2.521 -0.8367  0.7563  0.9859
14978SOL    HW246376   4.990   6.106   2.465 -0.4695 -0.5846 -0.6517
14979SOL     OW46377   3.601   6.283   0.205  0.4357 -0.1969 -0.1557
14979SOL    HW146378   3.650   6.363   0.185 -0.8301  0.8318  0.6465
14979SOL    HW246379   3.667   6.223   0.240  1.5353  0.2319 -1.4104
14980SOL     OW46380   4.065   3.922   1.153 -0.1814  0.6574  0.4773
14980SOL    HW146381   4.101   4.005   1.122 -0.6549  0.6971  0.0129
14980SOL    HW246382   4.101   3.911   1.241 -0.2789  1.4624  0.6240
14981SOL     OW46383   3.431   4.501   1.570 -0.7394  0.4001 -0.2311
14981SOL    HW146384   3.389   4.582   1.543  0.3036  1.2456  0.5926
14981SOL    HW246385   3.504   4.490   1.509 -0.4051  0.5082  0.1470
14982SOL     OW46386   4.800   7.598   1.652 -0.0269 -0.0720 -0.1586
14982SOL    HW146387   4.766   7.528   1.707  0.3869  0.1008  0.3311
14982SOL    HW246388   4.774   7.679   1.698  3.2840  0.1057  1.7631
14983SOL     OW46389   2.437   5.537   0.845  0.0526  0.0775  0.5752
14983SOL    HW146390   2.377   5.608   0.824 -0.9128 -1.1159 -1.0209
14983SOL    HW246391   2.524   5.577   0.844 -0.3219  0.9980 -1.8227
14984SOL     OW46392   4.820   6.407   2.144  0.0288  0.2702  0.0322
14984SOL    HW146393   4.802   6.316   2.166 -1.8324  0.9010  1.4539
14984SOL    HW246394   4.839   6.448   2.229  0.8784  1.2081 -0.5891
14985SOL     OW46395   3.360   5.735   1.180 -0.3810 -0.4217  0.6819
14985SOL    HW146396   3.292   5.705   1.121  0.1749  0.4476 -0.4324
14985SOL    HW246397   3.361   5.670   1.251 -1.3333 -1.2519 -0.0439
14986SOL     OW46398   6.187   4.763   0.435  0.2101 -0.0994  0.6326
14986SOL    HW146399   6.275   4.751   0.398  0.3076  0.9727  0.4826
14986SOL    HW246400   6.189   4.851   0.473 -0.7142 -0.1745  0.8777
14987SOL     OW46401   5.725   5.822   1.504  0.0920  0.2406  0.2310
14987SOL    HW146402   5.733   5.752   1.439  1.6950  0.7334 -0.1316
14987SOL    HW246403   5.744   5.902   1.456  1.0136  0.6444  1.2319
14988SOL     OW46404   3.583   4.186   1.566  0.4413  0.4202 -0.8056
14988SOL    HW146405   3.510   4.128   1.543  0.4294 -0.0586  0.3673
14988SOL    HW246406   3.602   4.165   1.658  1.0163  1.6551 -0.6230
14989SOL     OW46407   2.519   6.498   1.491  0.1018  0.0336  0.1708
14989SOL    HW146408   2.604   6.540   1.484 -0.0476  0.2129 -0.6561
14989SOL    HW246409   2.463   6.545   1.429 -0.8090  0.4194  1.2446
14990SOL     OW46410   6.051   5.867   1.249 -0.3447  0.8875  0.1850
14990SOL    HW146411   6.116   5.922   1.207  1.2268 -1.1254 -0.1603
14990SOL    HW246412   5.967   5.902   1.218  0.5050  3.5420  0.6494
14991SOL     OW46413   4.606   4.972   0.778  0.0140  0.4107  0.1712
14991SOL    HW146414   4.524   5.018   0.763  0.5277  1.3811  0.2418
14991SOL    HW246415   4.614   4.969   0.874 -0.8918 -1.4553  0.2251
14992SOL     OW46416   5.928   3.230   1.716  0.5258  0.2868  0.1808
14992SOL    HW146417   5.925   3.313   1.763 -1.1308  0.4650 -0.1933
14992SOL    HW246418   6.004   3.184   1.752 -0.4466  0.5650  2.7536
14993SOL     OW46419   3.397   3.997   1.486  0.2626 -0.4333 -0.4253
14993SOL    HW146420   3.305   4.016   1.500  0.2638  1.4439 -2.4531
14993SOL    HW246421   3.397   3.930   1.417  0.4274 -2.0440  1.0792
14994SOL     OW46422   4.891   5.524   0.768 -0.6591 -0.3472 -0.1015
14994SOL    HW146423   4.879   5.519   0.862  0.5529  0.2421  0.1022
14994SOL    HW246424   4.829   5.460   0.732 -1.1501 -0.5508  1.0794
14995SOL     OW46425   3.679   6.792   0.925  0.2220  0.3461 -0.2761
14995SOL    HW146426   3.619   6.802   0.999 -1.4814  0.7730 -1.6377
14995SOL    HW246427   3.628   6.745   0.859 -0.0049  3.8999 -2.9110
14996SOL     OW46428   3.718   7.299   1.001  0.4975 -0.1455 -0.3458
14996SOL    HW146429   3.808   7.292   0.968  1.4646 -0.3599  2.0933
14996SOL    HW246430   3.692   7.209   1.020  0.7879  0.0697  1.2842
14997SOL     OW46431   4.188   4.970   1.944  0.5039 -0.0458 -0.8710
14997SOL    HW146432   4.196   4.966   2.040 -1.5393  1.7363 -0.5443
14997SOL    HW246433   4.278   4.974   1.913  1.2846 -2.0766  0.8473
14998SOL     OW46434   4.522   6.071   1.518 -0.7272 -0.1067  0.1552
14998SOL    HW146435   4.584   6.139   1.492 -0.5932 -0.3544 -0.1816
14998SOL    HW246436   4.532   6.064   1.613 -0.5019  0.1071  0.1471
14999SOL     OW46437   6.464   4.712   0.411  0.6135  0.7510  0.5625
14999SOL    HW146438   6.518   4.788   0.432  1.7577  0.2180 -0.3147
14999SOL    HW246439   6.496   4.642   0.467  1.8683  0.0442 -0.9599
15000SOL     OW46440   3.189   5.502   2.627 -0.2675 -0.1945  0.0275
15000SOL    HW146441   3.258   5.510   2.562  1.0077  2.1024  1.5588
15000SOL    HW246442   3.140   5.423   2.600  1.8163 -0.8688 -2.1016
15001SOL     OW46443   4.860   5.346   1.795 -0.4978  0.4461 -0.0267
15001SOL    HW146444   4.764   5.352   1.791 -0.5562 -0.0454  0.6019
15001SOL    HW246445   4.887   5.341   1.703 -1.1898 -1.0421 -0.1806
15002SOL     OW46446   2.794   6.738   3.125  0.5116 -0.0458  0.2075
15002SOL    HW146447   2.721   6.677   3.122 -0.0297  0.5782  0.3695
15002SOL    HW246448   2.834   6.724   3.211  1.1290 -0.9939 -0.2188
15003SOL     OW46449   4.989   3.600   2.239 -0.2753  0.1378  0.0793
15003SOL    HW146450   4.914   3.544   2.218 -1.0041  1.1058  0.0130
15003SOL    HW246451   4.968   3.636   2.325 -0.0129  0.6119 -0.0506
15004SOL     OW46452   5.855   3.446  12.128 -0.5026 -0.1745 -0.1256
15004SOL    HW146453   5.842   3.411  12.039  0.3534 -0.3757 -0.1781
15004SOL    HW246454   5.766   3.461  12.160 -0.8312 -0.1901 -0.9805
15005SOL     OW46455   3.532   6.074   1.819  0.3176  0.1146 -0.1334
15005SOL    HW146456   3.614   6.033   1.847  0.5618  0.1128 -0.8327
15005SOL    HW246457   3.465   6.006   1.834  0.6541 -0.3926 -0.8740
15006SOL     OW46458   2.570   4.338   1.767  0.1215 -0.7269 -0.4491
15006SOL    HW146459   2.535   4.295   1.845 -0.3964 -0.7013 -0.6618
15006SOL    HW246460   2.559   4.431   1.784  0.3262 -0.7111 -0.4058
15007SOL     OW46461   3.961   4.823   1.313 -0.0031 -0.1389  0.0035
15007SOL    HW146462   4.041   4.874   1.320 -0.1100  0.4975 -2.4022
15007SOL    HW246463   3.933   4.808   1.404  1.1302  2.3164  0.8378
15008SOL     OW46464   4.362   2.530   0.316  0.0268 -0.3109  0.3018
15008SOL    HW146465   4.338   2.482   0.237  0.0699  1.2751 -0.7239
15008SOL    HW246466   4.455   2.549   0.305  0.0831 -0.2605  0.8451
15009SOL     OW46467   4.912   2.258   1.337 -0.1126 -0.5292 -0.4118
15009SOL    HW146468   4.901   2.207   1.257  1.7710 -1.2866 -0.2356
15009SOL    HW246469   4.921   2.348   1.308 -2.4269 -0.3771 -0.8077
15010SOL     OW46470   6.488   4.145   0.571 -0.3631 -0.2545 -0.4148
15010SOL    HW146471   6.567   4.133   0.623 -0.3978  2.4960  0.4130
15010SOL    HW246472   6.416   4.125   0.631 -0.3478  0.7124 -0.0576
15011SOL     OW46473   5.107   5.526   2.134 -0.0578 -0.3907  0.1865
15011SOL    HW146474   5.053   5.605   2.139  0.8397  0.2882 -0.4795
15011SOL    HW246475   5.193   5.557   2.104  0.3873 -1.5850  0.1566
15012SOL     OW46476   6.835   5.023   0.801  0.2942 -0.2840 -1.2541
15012SOL    HW146477   6.908   4.993   0.855  0.7096  1.8167 -0.5502
15012SOL    HW246478   6.874   5.043   0.716 -0.1841 -2.6553 -2.0957
15013SOL     OW46479   3.293   1.723  12.371  0.5437 -0.0279 -0.0901
15013SOL    HW146480   3.242   1.646  12.348  0.1260 -0.1725  1.2331
15013SOL    HW246481   3.274   1.738  12.464  0.5924  1.6845 -0.3223
15014SOL     OW46482   4.531   4.154   2.470 -0.0261  0.0019 -0.6224
15014SOL    HW146483   4.522   4.238   2.515 -0.2567  0.6911 -1.9073
15014SOL    HW246484   4.443   4.116   2.473 -0.6699  1.1731 -2.5556
15015SOL     OW46485   4.542   6.480   2.101 -0.0696  0.3389  0.0017
15015SOL    HW146486   4.623   6.440   2.067 -0.3644  0.6826 -1.1455
15015SOL    HW246487   4.563   6.573   2.111  0.0065  0.2470  0.7806
15016SOL     OW46488   6.845   4.523   0.489  0.2054 -0.4407 -0.0198
15016SOL    HW146489   6.874   4.606   0.452 -1.3188  0.3108  0.4134
15016SOL    HW246490   6.756   4.539   0.518  1.0791 -1.1198  3.4783
15017SOL     OW46491   2.554   4.800   2.430  0.3497  0.0290  0.1144
15017SOL    HW146492   2.483   4.773   2.371 -0.0820 -1.2172  1.1649
15017SOL    HW246493   2.632   4.800   2.375 -0.0986 -0.7567 -0.5438
15018SOL     OW46494   3.602   3.913   3.621  0.3095 -0.7506  0.3737
15018SOL    HW146495   3.602   3.826   3.661  1.1430 -1.3973 -0.9539
15018SOL    HW246496   3.542   3.905   3.546  2.5620 -1.0765 -1.4886
15019SOL     OW46497   4.320   4.600   2.339 -0.2056  0.5884  0.0689
15019SOL    HW146498   4.319   4.513   2.378 -1.3148 -0.0539 -1.3519
15019SOL    HW246499   4.240   4.642   2.370 -0.2377  0.7045 -0.1707
15020SOL     OW46500   4.402   5.925   3.516  0.5256 -0.0856 -0.1970
15020SOL    HW146501   4.381   5.839   3.478  0.4135  0.8150 -2.3505
15020SOL    HW246502   4.406   5.909   3.610 -1.4117 -2.0549 -0.3541
15021SOL     OW46503   5.956   4.629   2.149 -0.0807 -0.0237 -0.2482
15021SOL    HW146504   5.872   4.604   2.186 -0.7284  0.3532 -1.4131
15021SOL    HW246505   5.950   4.724   2.137  0.2806 -0.0727 -0.8777
15022SOL     OW46506   2.484   4.321   0.486 -0.0657 -0.0926  0.4145
15022SOL    HW146507   2.541   4.390   0.451  2.4549 -1.5456  1.3765
15022SOL    HW246508   2.410   4.318   0.425  1.0603  1.6415 -1.1506
15023SOL     OW46509   5.692   4.543   1.514  0.3973  0.2212 -0.0810
15023SOL    HW146510   5.785   4.527   1.528  0.2037 -0.3943  0.5847
15023SOL    HW246511   5.686   4.638   1.501  1.0110  0.4040  0.8345
15024SOL     OW46512   5.168   4.074   2.968 -0.7697  0.0926 -0.0301
15024SOL    HW146513   5.083   4.064   3.011 -0.6090 -2.2928 -0.1005
15024SOL    HW246514   5.149   4.067   2.875 -0.5688 -0.0416 -0.0634
15025SOL     OW46515   3.110   4.036   1.868 -0.1522 -0.6660  0.2535
15025SOL    HW146516   3.070   4.026   1.782  0.0152 -0.1616  0.1131
15025SOL    HW246517   3.051   4.095   1.916  0.2996 -0.0826  0.1132
15026SOL     OW46518   4.672   5.055   1.569  0.1378 -0.2712 -0.0923
15026SOL    HW146519   4.655   5.101   1.651  0.3430 -0.8322  0.2705
15026SOL    HW246520   4.695   4.967   1.596  1.6169 -0.0800 -0.6796
15027SOL     OW46521   5.525   5.157   3.563 -0.5211 -0.1535  0.3869
15027SOL    HW146522   5.471   5.107   3.625  0.8159  0.1130  1.8475
15027SOL    HW246523   5.614   5.147   3.596  0.0468  1.3787 -0.5668
15028SOL     OW46524   4.580   3.656   2.357 -0.0970  1.0984 -0.1810
15028SOL    HW146525   4.530   3.706   2.422 -0.3432  2.5904 -1.4828
15028SOL    HW246526   4.635   3.720   2.314  2.3178 -0.3676  0.5476
15029SOL     OW46527   4.336   5.679   3.405 -0.1030  0.0774 -0.2100
15029SOL    HW146528   4.252   5.643   3.376 -0.2015 -0.4238  0.6574
15029SOL    HW246529   4.384   5.603   3.438 -0.3256  0.7012  1.6812
15030SOL     OW46530   5.509   3.685   1.964  0.1898 -0.0731 -0.3897
15030SOL    HW146531   5.504   3.630   2.043  0.6990  1.5489  0.8211
15030SOL    HW246532   5.457   3.638   1.899  0.3607 -1.8290  0.6768
15031SOL     OW46533   5.339   5.057   3.740 -0.4520  0.0866  0.1329
15031SOL    HW146534   5.290   4.991   3.693  1.0074 -2.0128  1.4006
15031SOL    HW246535   5.322   5.039   3.833  2.5819 -0.7975  0.6472
15032SOL     OW46536   4.746   5.026   2.772 -0.9382  0.1060 -0.3072
15032SOL    HW146537   4.686   4.953   2.760 -0.1342 -0.4879 -0.7940
15032SOL    HW246538   4.830   4.993   2.741 -0.8382  1.6685 -1.8475
15033SOL     OW46539   3.975   6.694   3.702 -0.2691  0.3384  0.7622
15033SOL    HW146540   3.994   6.620   3.645 -1.0078  0.4383  0.3753
15033SOL    HW246541   3.879   6.698   3.706 -0.2388  0.3354  2.0158
15034SOL     OW46542   3.408   2.695   1.718  0.0360  0.2736  0.2912
15034SOL    HW146543   3.433   2.619   1.665  1.0432 -0.5965  1.9303
15034SOL    HW246544   3.464   2.766   1.685  1.8794 -0.6679  1.2224
15035SOL     OW46545   6.696   3.526   4.515 -0.0079  0.0866  0.3320
15035SOL    HW146546   6.775   3.517   4.462  0.2775 -0.1614  0.7876
15035SOL    HW246547   6.624   3.512   4.454  0.3351 -1.2649  0.2031
15036SOL     OW46548   3.951   4.922   3.527 -0.0644 -0.7007 -0.3157
15036SOL    HW146549   3.912   4.992   3.581 -0.3791 -0.3978 -0.9204
15036SOL    HW246550   4.036   4.905   3.568  0.9679  1.5257 -1.3484
15037SOL     OW46551   5.707   5.292   2.675  0.1086 -0.0367  0.4227
15037SOL    HW146552   5.790   5.338   2.664  1.2548 -1.8568  0.9922
15037SOL    HW246553   5.661   5.306   2.592  0.0670  2.6527  0.8174
15038SOL     OW46554   1.094   6.071   3.077  0.0218  0.0927  0.1266
15038SOL    HW146555   1.162   6.091   3.013  0.8149 -1.6294  0.3815
15038SOL    HW246556   1.075   6.155   3.119  2.9320  0.4395  0.9467
15039SOL     OW46557   4.138   5.114   2.996  0.0418  0.7791  0.1760
15039SOL    HW146558   4.177   5.026   2.994  1.2469  1.3020 -0.7608
15039SOL    HW246559   4.102   5.123   3.084 -0.0015 -0.6103  0.3191
15040SOL     OW46560   6.647   4.038   1.451 -0.1822  0.0830 -0.2711
15040SOL    HW146561   6.702   3.969   1.488 -0.2500  0.5590  0.7362
15040SOL    HW246562   6.670   4.116   1.500 -1.3151  0.4184 -0.2545
15041SOL     OW46563   5.119   6.947   3.561  0.2451 -0.0192 -0.4135
15041SOL    HW146564   5.120   6.854   3.586 -0.3535  0.3470  1.1300
15041SOL    HW246565   5.179   6.953   3.487  0.1533 -1.6682 -0.6689
15042SOL     OW46566   4.103   5.280   1.593  0.3109  0.1104  0.4608
15042SOL    HW146567   4.132   5.212   1.653  2.1088 -0.1529 -0.6474
15042SOL    HW246568   4.087   5.235   1.510 -0.2527  0.7668  0.1961
15043SOL     OW46569   2.289   4.513   2.898 -0.0261 -0.0865 -0.3093
15043SOL    HW146570   2.375   4.513   2.856 -0.3985  1.2308 -1.1446
15043SOL    HW246571   2.253   4.426   2.880  1.3217 -0.8498  0.5152
15044SOL     OW46572   5.229   0.859   2.640 -0.1279 -0.4674  0.4049
15044SOL    HW146573   5.286   0.819   2.706 -1.0495 -1.8885  0.3786
15044SOL    HW246574   5.142   0.859   2.680 -0.1082  2.1878  0.6741
15045SOL     OW46575   3.800   4.352   3.380 -0.1416 -0.3638 -0.1186
15045SOL    HW146576   3.875   4.302   3.412 -0.8086 -1.5450 -0.3199
15045SOL    HW246577   3.730   4.287   3.374 -0.5780  0.2106 -2.0800
15046SOL     OW46578   3.421   5.543   1.375  0.1577  0.0526  0.5140
15046SOL    HW146579   3.512   5.571   1.385  0.0022  0.7158  0.1453
15046SOL    HW246580   3.420   5.453   1.408  1.1474 -0.2959 -0.3185
15047SOL     OW46581   4.933   5.497   2.887 -0.4116 -0.2569 -0.3108
15047SOL    HW146582   4.995   5.425   2.896 -2.3375 -2.1134 -1.0140
15047SOL    HW246583   4.864   5.478   2.950 -1.6815  0.1263 -1.5143
15048SOL     OW46584   5.043   5.331   2.319  0.3360 -0.1691  0.2443
15048SOL    HW146585   4.976   5.377   2.369 -2.2847  0.3112 -3.3478
15048SOL    HW246586   5.068   5.393   2.250  1.0737 -1.9961 -1.2005
15049SOL     OW46587   3.935   3.768   2.166 -0.1246 -0.2621 -0.1794
15049SOL    HW146588   3.916   3.775   2.072  2.3439 -0.2121 -0.7493
15049SOL    HW246589   3.935   3.674   2.182 -0.7104 -0.2668 -0.1688
15050SOL     OW46590   4.547   4.268   2.983  0.4360 -0.0894 -0.2917
15050SOL    HW146591   4.593   4.347   2.955  0.9737  0.2079  1.3164
15050SOL    HW246592   4.605   4.229   3.048 -0.3409 -1.2061 -0.2474
15051SOL     OW46593   5.463   3.364   3.477  0.0155 -0.1943  0.0078
15051SOL    HW146594   5.477   3.429   3.545 -1.2046  1.2755 -1.0626
15051SOL    HW246595   5.377   3.327   3.496 -0.6937  0.7858 -1.0923
15052SOL     OW46596   6.284   4.343   3.327  0.0071 -0.0029  0.1974
15052SOL    HW146597   6.203   4.365   3.280 -0.4160 -1.6579  0.0872
15052SOL    HW246598   6.263   4.263   3.374  0.7556  1.0353  2.4357
15053SOL     OW46599   5.055   5.515   1.843 -0.1594  0.0151 -0.0905
15053SOL    HW146600   5.097   5.492   1.926  1.9412  0.3444 -0.9850
15053SOL    HW246601   4.984   5.452   1.833  0.1575 -0.6337  1.4844
15054SOL     OW46602   7.735   2.945   3.885  0.2062 -0.0661  0.4687
15054SOL    HW146603   7.675   3.019   3.885  1.4741  1.0254  1.7902
15054SOL    HW246604   7.687   2.875   3.929 -0.7304  0.1993 -0.1092
15055SOL     OW46605   4.162   3.684   2.759  0.4499 -0.1808  0.5418
15055SOL    HW146606   4.118   3.751   2.812  1.0778 -0.1661  1.0626
15055SOL    HW246607   4.250   3.719   2.745  0.1559  0.0191 -0.9177
15056SOL     OW46608   3.322   4.654   3.767 -0.1889 -0.3243  0.2883
15056SOL    HW146609   3.286   4.632   3.853  0.2922 -3.4683 -0.1927
15056SOL    HW246610   3.414   4.630   3.772  0.0378  0.2409 -0.8476
15057SOL     OW46611   3.683   5.049   3.111  0.0720 -0.4574  0.1944
15057SOL    HW146612   3.763   5.008   3.077  0.1600 -1.1746  1.2291
15057SOL    HW246613   3.680   5.023   3.203 -1.3355 -0.4109  0.1786
15058SOL     OW46614   3.233   3.227   1.688  0.5420  0.1971 -0.5200
15058SOL    HW146615   3.193   3.273   1.763 -0.7454 -0.4638 -0.7778
15058SOL    HW246616   3.281   3.295   1.642  0.1504  0.9210  0.1081
15059SOL     OW46617   7.682   3.201   3.413  0.1717  0.0558  0.1367
15059SOL    HW146618   7.677   3.295   3.426 -1.5507 -0.1136  0.9159
15059SOL    HW246619   7.623   3.183   3.340 -0.5521 -0.5616  0.8605
15060SOL     OW46620   3.196   4.899   1.756 -0.6133  0.1730 -0.1150
15060SOL    HW146621   3.246   4.957   1.813 -1.9575 -1.2687  2.7079
15060SOL    HW246622   3.105   4.927   1.767 -1.0457 -1.0559 -0.3926
15061SOL     OW46623   4.256   4.050   3.105  0.5450 -0.4979  0.0638
15061SOL    HW146624   4.348   4.024   3.112  1.4347  2.0664 -1.0760
15061SOL    HW246625   4.236   4.089   3.190  0.8626 -0.0895 -0.0434
15062SOL     OW46626   4.256   3.647   2.297  0.8708  0.1356 -0.1853
15062SOL    HW146627   4.161   3.634   2.308  0.0692  2.9416 -2.3121
15062SOL    HW246628   4.283   3.694   2.376  0.3149 -0.0685  0.1328
15063SOL     OW46629   3.725   5.742   2.130 -0.1579  0.6650  0.5856
15063SOL    HW146630   3.814   5.736   2.166  0.9343 -0.6956 -2.0292
15063SOL    HW246631   3.699   5.652   2.114 -1.3945  1.1121 -0.1106
15064SOL     OW46632   6.029   2.809   1.600  0.3360  0.1874  0.1901
15064SOL    HW146633   6.052   2.838   1.689  3.5742  0.2648 -0.5449
15064SOL    HW246634   6.022   2.713   1.608  2.8059 -0.0729  0.2520
15065SOL     OW46635   6.562   6.408   1.794  0.1462  0.3105  0.6324
15065SOL    HW146636   6.634   6.420   1.732 -0.6740  0.5488 -0.2868
15065SOL    HW246637   6.565   6.486   1.849 -0.4893  1.1828 -0.5308
15066SOL     OW46638   4.557   4.570   0.297 -0.3910 -0.0763 -0.2963
15066SOL    HW146639   4.544   4.656   0.258  1.7162  0.3334 -0.2616
15066SOL    HW246640   4.624   4.529   0.242  0.9360 -0.4055  1.4740
15067SOL     OW46641   6.740   3.274   3.503 -0.0901  0.3087 -0.4046
15067SOL    HW146642   6.787   3.191   3.505 -0.2102  0.2473  0.8701
15067SOL    HW246643   6.808   3.340   3.499  0.1038  0.2014  0.8083
15068SOL     OW46644   4.213   4.902   2.668 -0.3128  0.0631  0.2865
15068SOL    HW146645   4.135   4.938   2.710  0.8465  1.3771  1.4527
15068SOL    HW246646   4.249   4.840   2.733 -0.1906 -0.2509 -0.0786
15069SOL     OW46647   4.003   4.615   2.786  0.3150 -0.3757  0.0941
15069SOL    HW146648   4.008   4.569   2.870 -1.4507 -0.0219  0.4496
15069SOL    HW246649   3.951   4.557   2.730 -2.5047  1.2805  0.7420
15070SOL     OW46650   5.084   3.915   2.434  0.0762 -0.3192  0.4256
15070SOL    HW146651   5.012   3.852   2.447 -1.0064  1.0730  1.5197
15070SOL    HW246652   5.148   3.892   2.500 -0.2659 -0.3466  0.7510
15071SOL     OW46653   4.910   5.695   2.224  1.0041 -0.0652 -0.0769
15071SOL    HW146654   4.919   5.616   2.277  1.0674  0.2648  0.4025
15071SOL    HW246655   4.820   5.725   2.239  1.1538  0.2606  0.1673
15072SOL     OW46656   6.388   3.462   1.474  0.5541 -0.1286 -0.0219
15072SOL    HW146657   6.345   3.524   1.414 -2.0329 -1.4108  0.3535
15072SOL    HW246658   6.455   3.514   1.518 -1.2403  2.3800  0.0002
15073SOL     OW46659   3.658   4.187   3.667 -0.0923 -0.1399 -0.0406
15073SOL    HW146660   3.637   4.095   3.652 -0.3362 -0.0661 -0.1492
15073SOL    HW246661   3.752   4.188   3.680 -0.1275 -0.4445  0.2434
15074SOL     OW46662   5.373   4.679   3.916  0.3588 -0.1709  0.2801
15074SOL    HW146663   5.329   4.632   3.845 -0.5789 -0.1750  0.8408
15074SOL    HW246664   5.364   4.621   3.992  0.3613  0.3315  0.6642
15075SOL     OW46665   4.020   5.393   3.173  0.0575  0.0287  0.0028
15075SOL    HW146666   4.068   5.321   3.214  1.5415  0.9969  0.0026
15075SOL    HW246667   3.929   5.378   3.199  0.4250 -1.4528  0.5677
15076SOL     OW46668   5.127   4.343   3.089  0.6804 -0.2276 -0.3241
15076SOL    HW146669   5.175   4.342   3.006 -0.2435  0.2731 -0.8710
15076SOL    HW246670   5.072   4.264   3.085  0.4491 -0.0663 -0.2956
15077SOL     OW46671   6.332   3.048   2.674  0.3166  0.5039 -0.5865
15077SOL    HW146672   6.364   3.099   2.599 -4.0179  0.9778 -2.3946
15077SOL    HW246673   6.318   2.960   2.639 -0.3800  0.3404  0.0924
15078SOL     OW46674   4.233   5.641   3.882 -0.4191  0.0617 -0.2303
15078SOL    HW146675   4.216   5.548   3.867  0.2756 -0.1555  0.2821
15078SOL    HW246676   4.217   5.653   3.975  0.8209  0.1469 -0.0105
15079SOL     OW46677   5.074   3.215   2.360 -0.8897  0.1254 -0.0542
15079SOL    HW146678   5.110   3.137   2.402 -0.3537  1.0405  1.2470
15079SOL    HW246679   4.993   3.233   2.409 -0.7956  0.6142 -0.0770
15080SOL     OW46680   4.746   3.505   2.584  0.0830 -0.2112 -0.0615
15080SOL    HW146681   4.770   3.495   2.676 -1.3549 -1.4535  0.2235
15080SOL    HW246682   4.653   3.528   2.586  0.2720  0.7409 -1.1968
15081SOL     OW46683   5.722   4.317   2.873 -0.3319  0.5569  0.2172
15081SOL    HW146684   5.716   4.287   2.964  0.4930 -1.1059 -0.2452
15081SOL    HW246685   5.644   4.279   2.831  0.5991 -0.8340 -0.3183
15082SOL     OW46686   4.283   4.437   2.881  0.5611 -0.2370  0.0699
15082SOL    HW146687   4.328   4.380   2.942  0.5490  2.3143  2.6863
15082SOL    HW246688   4.191   4.432   2.906  0.0254 -1.5027 -1.8875
15083SOL     OW46689   3.262   4.972   2.487  0.4434 -0.3121  0.2757
15083SOL    HW146690   3.257   4.877   2.485  1.7220 -0.4068  0.6234
15083SOL    HW246691   3.201   5.001   2.419  0.8769 -1.4246 -0.6272
15084SOL     OW46692   3.962   3.182   1.213 -0.0831  0.0119  0.1362
15084SOL    HW146693   3.916   3.105   1.247  1.1296 -1.5258 -1.4629
15084SOL    HW246694   4.043   3.146   1.177  0.7618  2.1493 -0.2246
15085SOL     OW46695   4.858   3.272   3.680  0.0672 -0.5273  0.1613
15085SOL    HW146696   4.895   3.256   3.593  0.0283  0.3772 -0.0315
15085SOL    HW246697   4.801   3.197   3.696 -1.0344 -0.0243 -1.2098
15086SOL     OW46698   3.809   4.613   3.110 -0.0195  0.4449 -0.4984
15086SOL    HW146699   3.820   4.616   3.205 -1.7585 -1.1940 -0.1726
15086SOL    HW246700   3.751   4.538   3.096 -1.0317  1.5612 -2.7349
15087SOL     OW46701   4.571   5.592   2.536  0.1950  0.2842  0.4752
15087SOL    HW146702   4.495   5.619   2.587  1.1643 -0.9982  2.7933
15087SOL    HW246703   4.630   5.667   2.539 -0.5395  0.9227 -0.4851
15088SOL     OW46704   5.951   4.032   2.769  0.2378  0.2901 -0.2176
15088SOL    HW146705   5.966   4.124   2.789 -1.1406  0.1839  1.5093
15088SOL    HW246706   5.899   3.999   2.843  0.5807 -1.8402 -0.8485
15089SOL     OW46707   4.798   4.587  12.368 -0.3406  1.1623  0.0506
15089SOL    HW146708   4.830   4.567  12.281  0.4281 -1.6377  0.8667
15089SOL    HW246709   4.873   4.626  12.413  0.5867 -0.9741  0.5195
15090SOL     OW46710   4.982   5.767   2.881 -0.0395 -0.1756 -0.4499
15090SOL    HW146711   4.988   5.791   2.973  0.0804 -0.3143 -0.4194
15090SOL    HW246712   4.966   5.672   2.882  0.0681 -0.1964 -0.5722
15091SOL     OW46713   4.812   3.860   1.966  0.1434  0.0742 -0.9106
15091SOL    HW146714   4.782   3.783   2.015  0.1052  0.9020  0.4201
15091SOL    HW246715   4.796   3.933   2.026 -0.4358  1.2037 -2.4031
15092SOL     OW46716   6.062   3.606   1.173 -0.0929  0.1169 -0.0613
15092SOL    HW146717   6.027   3.547   1.107 -1.0059  0.4686  0.0833
15092SOL    HW246718   6.079   3.549   1.249 -1.3443  0.0768  0.2160
15093SOL     OW46719   5.172   3.934   3.247  0.5198 -0.1100 -0.6732
15093SOL    HW146720   5.144   4.008   3.194 -1.8661 -0.1381  0.4250
15093SOL    HW246721   5.165   3.965   3.338 -0.0137 -1.5041 -0.2153
15094SOL     OW46722   6.940   3.492   2.193  0.2251 -0.2830  0.0504
15094SOL    HW146723   7.017   3.523   2.144 -0.3846  1.3066  0.0254
15094SOL    HW246724   6.911   3.569   2.242 -0.8079 -1.1162  0.7776
15095SOL     OW46725   3.837   4.730   1.543 -0.5818 -0.1172  0.0647
15095SOL    HW146726   3.744   4.717   1.563 -0.5039 -0.5537  0.1444
15095SOL    HW246727   3.881   4.718   1.627 -0.3303 -1.1780 -0.2081
15096SOL     OW46728   6.527   5.399   2.765  0.3326 -0.1310 -0.5451
15096SOL    HW146729   6.510   5.417   2.857  0.4718  0.1675 -0.5732
15096SOL    HW246730   6.444   5.418   2.721 -0.2406 -1.9090 -0.2830
15097SOL     OW46731   5.131   5.137   0.054  0.0064  0.5742 -0.2169
15097SOL    HW146732   5.192   5.193   0.102  0.6343  0.7591 -1.1966
15097SOL    HW246733   5.186   5.068   0.017 -0.4563  0.4297 -0.6517
15098SOL     OW46734   4.859   4.141   2.397  0.0888  0.0599  0.2973
15098SOL    HW146735   4.789   4.079   2.414  0.6285 -1.2099 -1.7306
15098SOL    HW246736   4.939   4.096   2.426  0.3282  0.4192  0.2082
15099SOL     OW46737   4.301   3.632   1.765 -0.3041 -0.2985 -0.5092
15099SOL    HW146738   4.393   3.612   1.746 -0.4172 -2.0775  0.5914
15099SOL    HW246739   4.305   3.708   1.823  0.4548 -0.1276 -0.7735
15100SOL     OW46740   5.809   6.047   5.045  0.1881 -0.3562 -0.4884
15100SOL    HW146741   5.766   6.069   4.962 -0.8061 -1.8354 -0.4062
15100SOL    HW246742   5.890   6.003   5.018  0.5599  0.4111 -0.6534
15101SOL     OW46743   4.652   5.645   3.755 -0.5774 -0.2957 -0.2635
15101SOL    HW146744   4.728   5.618   3.807  1.1680  1.2377 -1.8483
15101SOL    HW246745   4.626   5.566   3.708  0.9670 -0.5499 -0.7545
15102SOL     OW46746   5.088   5.123   4.036 -0.5161  0.0552  0.0171
15102SOL    HW146747   5.154   5.062   4.002 -0.1239 -0.5651  1.7907
15102SOL    HW246748   5.014   5.113   3.977  0.4425 -0.2999 -1.1810
15103SOL     OW46749   5.948   4.002   3.055 -0.2543 -0.3007  0.2392
15103SOL    HW146750   5.958   3.969   3.145  1.4099  0.9366  0.5562
15103SOL    HW246751   5.878   4.066   3.060 -0.5282 -0.6229  0.5498
15104SOL     OW46752   6.351   6.221   2.102 -0.3473 -0.3481  0.1907
15104SOL    HW146753   6.446   6.214   2.095 -0.0964  0.9667  1.6560
15104SOL    HW246754   6.336   6.310   2.135 -1.9735 -1.1224  1.7031
15105SOL     OW46755   5.324   5.777   2.337 -0.4050 -0.0299  0.1664
15105SOL    HW146756   5.281   5.727   2.406 -0.2927  1.2216  1.1740
15105SOL    HW246757   5.253   5.805   2.279 -0.8559  1.1616  1.2577
15106SOL     OW46758   4.147   4.839   2.973  0.1299 -0.3152  0.1533
15106SOL    HW146759   4.194   4.770   2.926 -1.8167 -2.2673  0.9158
15106SOL    HW246760   4.157   4.817   3.065  0.0770  0.8490  0.4497
15107SOL     OW46761   3.235   5.158   4.326 -0.2224 -0.4834 -0.6442
15107SOL    HW146762   3.246   5.186   4.235 -0.1564  0.7253 -0.2767
15107SOL    HW246763   3.216   5.064   4.320  3.1723 -1.2369 -1.7415
15108SOL     OW46764   4.742   3.868   2.692  0.8215 -0.2224  0.2279
15108SOL    HW146765   4.773   3.942   2.742 -0.8487  1.5578 -1.2091
15108SOL    HW246766   4.703   3.809   2.757  2.4209 -0.0450  1.4078
15109SOL     OW46767   4.241   3.192  12.471 -0.1184 -0.0519  0.1785
15109SOL    HW146768   4.238   3.182  12.566 -0.9252  1.1499  0.2864
15109SOL    HW246769   4.210   3.280  12.454  0.3479 -0.1210 -1.1916
15110SOL     OW46770   5.254   6.813   3.828 -0.1783  0.2850 -0.1193
15110SOL    HW146771   5.217   6.783   3.911 -0.7318  0.5444 -0.2608
15110SOL    HW246772   5.198   6.772   3.761  0.8640 -0.7308 -0.4116
15111SOL     OW46773   5.909   5.117   3.195 -0.2178  0.5141  0.2809
15111SOL    HW146774   5.874   5.205   3.180  0.3765  0.5430 -1.0945
15111SOL    HW246775   5.853   5.061   3.141  0.9762  0.3965 -0.8787
15112SOL     OW46776   4.427   3.242   0.858  0.1000  0.0686  0.1159
15112SOL    HW146777   4.404   3.326   0.819 -0.0584  0.9922  2.0751
15112SOL    HW246778   4.365   3.180   0.820 -0.2477  0.9657 -0.8220
15113SOL     OW46779   5.774   4.199   3.159 -0.2304 -0.1569  0.0824
15113SOL    HW146780   5.737   4.115   3.187  0.9447 -0.6470  0.2279
15113SOL    HW246781   5.813   4.236   3.237  3.4951 -1.7586 -0.8058
15114SOL     OW46782   4.042   4.208   3.393  0.7472  0.0415  0.0709
15114SOL    HW146783   4.060   4.243   3.480 -0.0333 -0.2521  0.3644
15114SOL    HW246784   4.077   4.119   3.395  3.0063  0.8634 -0.7771
15115SOL     OW46785   4.465   2.647   4.608  0.5645 -0.2359 -0.2433
15115SOL    HW146786   4.439   2.739   4.620 -2.0238 -1.0138  0.7564
15115SOL    HW246787   4.395   2.610   4.554  0.4237 -2.0993  1.1528
15116SOL     OW46788   4.952   5.876   3.786  0.3179  0.0027 -0.6626
15116SOL    HW146789   4.943   5.971   3.789  1.9920  0.1693  0.2115
15116SOL    HW246790   4.917   5.845   3.870 -1.0792 -0.2761 -1.3132
15117SOL     OW46791   4.914   4.352   2.236 -0.3044 -0.6589  0.2256
15117SOL    HW146792   4.885   4.287   2.299  0.3868 -0.4651  0.7595
15117SOL    HW246793   4.838   4.367   2.180 -0.5256 -1.7692  0.2210
15118SOL     OW46794   4.460   4.254   1.115 -0.2974  0.2027  0.4637
15118SOL    HW146795   4.444   4.194   1.189 -1.4477  0.0583  0.1259
15118SOL    HW246796   4.392   4.231   1.052  1.0009 -0.0386 -0.8873
15119SOL     OW46797   3.942   5.101   3.755 -0.8215  0.1237  0.0702
15119SOL    HW146798   3.896   5.096   3.839 -4.4173 -1.2317 -1.7512
15119SOL    HW246799   4.002   5.027   3.756 -2.4700 -1.2655  0.6501
15120SOL     OW46800   3.913   4.152   2.905 -0.2489  0.0915  0.1933
15120SOL    HW146801   3.895   4.125   2.995 -0.2844  0.9767  0.4614
15120SOL    HW246802   3.859   4.229   2.891 -2.2102 -1.4511 -1.4544
15121SOL     OW46803   6.207   5.015   3.936 -0.0101 -0.3572 -0.4866
15121SOL    HW146804   6.300   4.992   3.933 -0.4156 -2.1735 -3.1544
15121SOL    HW246805   6.165   4.936   3.971 -0.5547  0.6577  1.2445
15122SOL     OW46806   3.819   3.050   1.606 -0.4198  0.0254  0.3968
15122SOL    HW146807   3.785   3.096   1.683  0.2095 -1.0485  1.3585
15122SOL    HW246808   3.883   2.988   1.642 -0.5450 -0.9243 -0.9451
15123SOL     OW46809   2.526   2.956   2.745  0.3495  0.2444  0.8846
15123SOL    HW146810   2.533   2.890   2.676 -1.4144 -0.9198  1.7265
15123SOL    HW246811   2.607   3.005   2.740  0.4080  0.0248 -1.8221
15124SOL     OW46812   5.271   3.928   1.356  0.2847 -0.4063 -0.1758
15124SOL    HW146813   5.362   3.953   1.365  0.3553 -0.5054 -0.6106
15124SOL    HW246814   5.222   4.010   1.364  0.3027 -0.5153  1.4951
15125SOL     OW46815   5.208   3.496   2.686 -0.4323  0.2325 -0.0843
15125SOL    HW146816   5.180   3.587   2.691  0.4052  0.4417  1.6459
15125SOL    HW246817   5.127   3.446   2.681 -0.9777  1.0106  0.6261
15126SOL     OW46818   7.442   5.707   5.077  0.4383 -0.2994  0.0112
15126SOL    HW146819   7.505   5.777   5.093 -1.2948  0.9068  2.3685
15126SOL    HW246820   7.423   5.673   5.165 -2.4859 -0.2287 -0.4968
15127SOL     OW46821   3.801   4.552   3.584  0.3404 -0.1779  0.0154
15127SOL    HW146822   3.809   4.480   3.522  3.3132 -0.6646  0.7726
15127SOL    HW246823   3.790   4.510   3.669 -0.3358  0.3628  0.2025
15128SOL     OW46824   3.622   3.513   2.048  0.1619 -0.1526 -0.0657
15128SOL    HW146825   3.672   3.432   2.043  1.1655  0.1096  3.4236
15128SOL    HW246826   3.669   3.573   1.989  0.9755 -1.3172 -0.6524
15129SOL     OW46827   3.372   3.504   2.230  0.0058  0.4136  0.1678
15129SOL    HW146828   3.443   3.531   2.172 -0.9143  1.4278 -0.5159
15129SOL    HW246829   3.324   3.439   2.179  0.5546 -0.4479  0.7198
15130SOL     OW46830   6.209   5.131   3.367  0.2056 -0.5865 -0.2258
15130SOL    HW146831   6.157   5.178   3.432  1.5275  0.1585  0.3471
15130SOL    HW246832   6.166   5.045   3.359  0.1053 -0.7829  1.7874
15131SOL     OW46833   3.160   6.554   3.214  0.1309 -0.2580 -0.1562
15131SOL    HW146834   3.089   6.493   3.193 -0.3208  0.3761 -0.4640
15131SOL    HW246835   3.216   6.554   3.137 -0.6369  0.7982 -0.7330
15132SOL     OW46836   4.352   4.680   2.799  0.2625 -0.0484 -0.3464
15132SOL    HW146837   4.391   4.655   2.715  0.4448  1.1408 -0.6284
15132SOL    HW246838   4.310   4.600   2.831  1.1776 -0.8049 -1.0201
15133SOL     OW46839   3.456   6.495   2.110  0.2478 -0.7795 -0.4479
15133SOL    HW146840   3.450   6.585   2.080 -1.3527 -0.9188 -0.6221
15133SOL    HW246841   3.497   6.448   2.037  0.7278 -0.2762 -0.5069
15134SOL     OW46842   6.033   4.447   3.911 -0.2245 -0.4247 -0.2226
15134SOL    HW146843   5.945   4.448   3.949  0.2835 -2.0562  1.0994
15134SOL    HW246844   6.054   4.354   3.902  0.6935 -0.0729 -2.2086
15135SOL     OW46845   4.712   4.029   1.687 -0.5201  0.1517  0.5076
15135SOL    HW146846   4.641   4.018   1.750 -1.0500  0.7467  0.0275
15135SOL    HW246847   4.784   4.066   1.738 -0.6015 -0.3116  0.9665
15136SOL     OW46848   5.892   4.774   3.072 -0.4308  0.0622 -0.3163
15136SOL    HW146849   5.837   4.810   3.142  0.6568  0.2893  0.4460
15136SOL    HW246850   5.951   4.845   3.049 -0.2282 -0.2853 -0.8932
15137SOL     OW46851   4.000   4.078   2.494 -0.2096  0.0314  0.3883
15137SOL    HW146852   3.999   4.108   2.585  1.2046  0.0831  0.4181
15137SOL    HW246853   4.050   4.145   2.447  0.0997 -0.5924 -0.1886
15138SOL     OW46854   3.275   5.249   4.035 -0.0426 -0.1269 -0.1902
15138SOL    HW146855   3.265   5.164   3.991  0.1996 -1.2899  1.8387
15138SOL    HW246856   3.365   5.276   4.015  0.2483 -0.9051  0.0309
15139SOL     OW46857   5.315   3.625   5.260 -0.0914  0.3645  0.1408
15139SOL    HW146858   5.270   3.703   5.227  0.8117 -0.0256 -2.1482
15139SOL    HW246859   5.266   3.551   5.226  1.5647 -0.0594 -1.5091
15140SOL     OW46860   4.946   4.157   1.138 -0.1244 -0.0275 -0.3078
15140SOL    HW146861   4.877   4.202   1.090  0.2412  2.5021  1.3629
15140SOL    HW246862   4.933   4.064   1.117 -2.1568  0.6215 -2.3559
15141SOL     OW46863   3.882   5.398   3.557 -0.2823  0.0793 -0.0826
15141SOL    HW146864   3.880   5.410   3.652  0.1285  1.6722 -0.2472
15141SOL    HW246865   3.883   5.303   3.545  0.6626 -0.1549  1.5288
15142SOL     OW46866   2.922   4.612   5.264  0.6882  0.1172 -0.1447
15142SOL    HW146867   3.011   4.607   5.229  0.1293  0.6472 -1.7318
15142SOL    HW246868   2.873   4.661   5.198 -1.3556 -2.2454 -0.5448
15143SOL     OW46869   3.863   4.124   3.188 -0.6916 -0.6006  0.1851
15143SOL    HW146870   3.922   4.175   3.244 -1.4071 -1.2051  1.5588
15143SOL    HW246871   3.817   4.067   3.249 -1.3871 -1.4273 -1.0757
15144SOL     OW46872   4.892   6.830   1.245  0.3101  0.0318  0.4700
15144SOL    HW146873   4.817   6.775   1.224  1.0520 -1.0184  0.4740
15144SOL    HW246874   4.886   6.904   1.185  0.2201 -0.9225 -0.7175
15145SOL     OW46875   5.229   5.199   1.986 -0.2191 -0.3508  0.4194
15145SOL    HW146876   5.285   5.121   1.990  1.6042  0.9505  3.1343
15145SOL    HW246877   5.244   5.234   1.898  2.4215 -0.7115  0.6331
15146SOL     OW46878   3.854   5.762   3.802 -0.1104 -0.4213  0.1580
15146SOL    HW146879   3.784   5.721   3.750 -1.2141  3.2262 -1.6187
15146SOL    HW246880   3.933   5.749   3.750 -0.3284 -0.8024 -0.0808
15147SOL     OW46881   4.380   4.540   3.216  0.1586 -0.2743 -0.6565
15147SOL    HW146882   4.423   4.567   3.297 -0.3845 -1.6131  0.1097
15147SOL    HW246883   4.288   4.564   3.229  0.2933  0.6844 -1.4215
15148SOL     OW46884   3.950   3.772   2.565 -0.1722  0.2487  0.3236
15148SOL    HW146885   3.983   3.814   2.645  0.6880 -0.5869  0.4307
15148SOL    HW246886   3.992   3.686   2.564 -1.7187 -0.5302 -0.0109
15149SOL     OW46887   5.989   5.710   2.699 -0.4587  0.7602 -0.4059
15149SOL    HW146888   5.970   5.796   2.660  1.6612  1.9977  1.1131
15149SOL    HW246889   6.066   5.724   2.753 -0.0548 -2.1402 -0.0635
15150SOL     OW46890   4.640   3.846   1.040 -0.7008 -0.1607 -0.6977
15150SOL    HW146891   4.729   3.840   1.075 -0.6541  0.4466 -0.7089
15150SOL    HW246892   4.649   3.893   0.958 -1.4195  3.1348  0.9338
15151SOL     OW46893   4.256   5.528   2.402 -0.2032  0.8117  0.1780
15151SOL    HW146894   4.175   5.491   2.365 -0.0969  2.0962 -1.4166
15151SOL    HW246895   4.274   5.473   2.478 -2.1034 -0.0485  0.0660
15152SOL     OW46896   4.974   4.301   2.716 -0.0597  0.3125  0.1245
15152SOL    HW146897   5.004   4.349   2.639  0.0850  0.7497  0.4469
15152SOL    HW246898   4.919   4.363   2.763 -0.0315  0.0958  0.4477
15153SOL     OW46899   4.979   4.047   1.826 -0.8722  0.6805 -0.2783
15153SOL    HW146900   4.979   4.127   1.878  0.3430  0.9122 -0.5930
15153SOL    HW246901   4.925   3.986   1.876 -1.8135  1.6777 -0.0256
15154SOL     OW46902   4.978   3.839   0.791  0.1809 -0.2704 -0.1605
15154SOL    HW146903   4.886   3.822   0.775  0.2054 -0.2225 -0.3536
15154SOL    HW246904   5.005   3.772   0.854  0.0649 -0.4048 -0.2548
15155SOL     OW46905   3.714   6.737   3.678 -0.1354  0.4340 -0.3041
15155SOL    HW146906   3.741   6.756   3.588  0.3794  0.2234 -0.1973
15155SOL    HW246907   3.620   6.718   3.671  0.3380 -1.9574 -1.1784
15156SOL     OW46908   4.353   4.448   3.525  0.6004  0.2720  0.0279
15156SOL    HW146909   4.420   4.501   3.483  1.1663 -0.4512  0.0050
15156SOL    HW246910   4.381   4.358   3.511  0.1306 -0.0142  0.8534
15157SOL     OW46911   4.064   5.349   2.858  0.1603  0.1421  0.0823
15157SOL    HW146912   4.045   5.328   2.949  0.0321 -1.6304 -0.3256
15157SOL    HW246913   4.071   5.264   2.814 -0.6958  0.9698 -1.7540
15158SOL     OW46914   5.478   5.700   1.653 -0.2820 -0.3018  0.3334
15158SOL    HW146915   5.562   5.696   1.699 -0.7943  1.4368  1.5242
15158SOL    HW246916   5.492   5.762   1.582 -0.0010 -1.6418 -0.8376
15159SOL     OW46917   6.465   4.648   4.065  0.0645 -0.0404  0.8577
15159SOL    HW146918   6.547   4.599   4.065  1.5801  2.3582  0.6389
15159SOL    HW246919   6.404   4.593   4.015  2.7081 -0.1457 -2.6067
15160SOL     OW46920   4.577   2.864   2.552  0.2518  0.3338  0.6995
15160SOL    HW146921   4.634   2.793   2.583  0.4905 -0.1288 -0.7511
15160SOL    HW246922   4.605   2.880   2.462  1.8944  4.0244  1.6948
15161SOL     OW46923   4.413   3.827   2.778  0.0901 -0.7245  0.4189
15161SOL    HW146924   4.501   3.812   2.814  0.9055  0.2186 -1.0826
15161SOL    HW246925   4.390   3.915   2.810 -0.1911 -0.8526  0.5716
15162SOL     OW46926   4.164   5.247   3.570 -0.2367  0.1784 -0.0634
15162SOL    HW146927   4.076   5.211   3.558 -0.1663  0.0463 -0.1892
15162SOL    HW246928   4.217   5.172   3.596 -0.5253  0.5778  1.8305
15163SOL     OW46929   3.683   4.804   2.905  0.1546  0.2451 -0.4493
15163SOL    HW146930   3.697   4.884   2.955  0.3026  0.3766 -0.6960
15163SOL    HW246931   3.712   4.733   2.962 -2.0927  0.1488  0.6836
15164SOL     OW46932   4.599   4.145   0.213 -0.0018  0.2626 -0.2199
15164SOL    HW146933   4.523   4.149   0.270  0.2093 -0.2111  0.0986
15164SOL    HW246934   4.629   4.055   0.218  0.4110  0.3736 -0.5702
15165SOL     OW46935   5.076   5.871   0.867 -0.0694 -0.2196  0.1145
15165SOL    HW146936   5.125   5.912   0.938  0.5709  0.4126 -0.6688
15165SOL    HW246937   5.007   5.821   0.911  0.0561  0.4890  1.1572
15166SOL     OW46938   4.814   5.591   3.963  0.3428 -0.4910  0.4109
15166SOL    HW146939   4.869   5.625   4.034  0.7692 -2.9957  1.4083
15166SOL    HW246940   4.753   5.531   4.006 -2.2176  1.0334 -0.8801
15167SOL     OW46941   6.847   4.076   3.559 -0.2322  1.0383  0.4656
15167SOL    HW146942   6.923   4.102   3.610  0.4280 -2.1363  1.3013
15167SOL    HW246943   6.774   4.077   3.621 -0.5329  2.2758  0.1177
15168SOL     OW46944   4.370   5.028   2.480  0.0299 -0.5017  0.6496
15168SOL    HW146945   4.360   5.123   2.486  2.8794 -0.1683  1.9602
15168SOL    HW246946   4.311   4.993   2.547 -1.2142  0.2923 -0.0045
15169SOL     OW46947   6.185   3.560   2.519  0.0560  0.3042 -0.1007
15169SOL    HW146948   6.173   3.556   2.614  0.7893  0.2589 -0.0036
15169SOL    HW246949   6.131   3.633   2.491 -1.1559 -0.4508  0.1791
15170SOL     OW46950   4.976   5.024   1.686  0.1038  0.2653 -0.4873
15170SOL    HW146951   4.908   4.960   1.665  0.2797 -0.8852  2.1216
15170SOL    HW246952   4.973   5.033   1.781  2.6806  1.2456 -0.4049
15171SOL     OW46953   6.813   4.135   2.582 -0.5890  0.3419  0.1699
15171SOL    HW146954   6.726   4.160   2.549 -0.8880  0.7690  1.2549
15171SOL    HW246955   6.870   4.208   2.556 -1.1983  1.5961  2.1792
15172SOL     OW46956   3.185   5.807   2.469 -0.7956 -0.0920  0.1090
15172SOL    HW146957   3.127   5.877   2.498 -0.8663 -0.2856  0.4289
15172SOL    HW246958   3.270   5.828   2.507 -0.2941  0.9485 -1.4765
15173SOL     OW46959   3.689   4.572   4.188  0.1697  0.6810  0.0455
15173SOL    HW146960   3.612   4.547   4.239  0.4480 -0.5614 -0.1208
15173SOL    HW246961   3.757   4.510   4.215  0.1281 -0.5186 -2.3303
15174SOL     OW46962   4.390   3.788   2.501  0.2771  0.0254  0.1726
15174SOL    HW146963   4.383   3.770   2.594  0.6010 -0.3131  0.1372
15174SOL    HW246964   4.388   3.883   2.494  1.2343  0.0886  0.6130
15175SOL     OW46965   4.533   4.652   2.575 -0.2132 -0.0820  0.0205
15175SOL    HW146966   4.610   4.604   2.546  0.8913  1.8177 -0.3752
15175SOL    HW246967   4.495   4.688   2.495 -0.4178  0.5392  0.3878
15176SOL     OW46968   4.015   3.782   0.913 -0.2342 -0.1371 -0.3265
15176SOL    HW146969   4.027   3.836   0.991 -1.8157  1.1349 -0.9182
15176SOL    HW246970   4.089   3.804   0.857 -0.3147  0.6504 -0.1318
15177SOL     OW46971   5.271   5.873   0.583 -0.6107  0.2510 -0.2385
15177SOL    HW146972   5.362   5.885   0.612 -0.1457 -0.6412 -1.2853
15177SOL    HW246973   5.227   5.833   0.658 -0.2984  1.2006  0.4801
15178SOL     OW46974   4.456   4.295   3.313 -0.9203 -0.4360 -0.6657
15178SOL    HW146975   4.418   4.373   3.272  1.0160  0.8734 -0.1252
15178SOL    HW246976   4.518   4.263   3.248 -1.8224 -1.6770 -0.9489
15179SOL     OW46977   5.312   4.623   3.167  0.4356  0.2902  0.2769
15179SOL    HW146978   5.355   4.628   3.253 -0.2431  0.2340  0.6219
15179SOL    HW246979   5.219   4.630   3.186  0.2420 -0.3457 -0.3986
15180SOL     OW46980   5.070   4.630   4.796  0.0860 -0.0471 -0.0263
15180SOL    HW146981   5.026   4.578   4.863 -0.3019  0.3219  0.0103
15180SOL    HW246982   5.099   4.709   4.841  0.7873 -0.2806 -0.0544
15181SOL     OW46983   5.618   5.174   4.307 -0.1770  0.5843 -0.1770
15181SOL    HW146984   5.689   5.206   4.252 -0.9949 -0.4281 -1.9057
15181SOL    HW246985   5.654   5.097   4.351  0.0659  0.5858 -0.3723
15182SOL     OW46986   5.720   3.046   3.074 -0.1590  0.7012 -0.0765
15182SOL    HW146987   5.688   3.119   3.020 -0.3510  1.2794  0.8092
15182SOL    HW246988   5.809   3.072   3.099  0.1518  0.1606 -0.5979
15183SOL     OW46989   3.766   4.593   1.037  0.1307 -0.1650 -0.1629
15183SOL    HW146990   3.839   4.566   0.982  0.2639  0.8942 -0.5296
15183SOL    HW246991   3.781   4.686   1.054 -1.4332  0.2296 -0.7503
15184SOL     OW46992   4.519   4.033   1.899  0.5232  0.0673  0.1853
15184SOL    HW146993   4.521   4.070   1.987  1.4233 -0.7283  0.5077
15184SOL    HW246994   4.484   3.944   1.911 -2.5367  1.0156 -0.6941
15185SOL     OW46995   5.957   4.638   3.736 -0.4041  0.1772 -0.1084
15185SOL    HW146996   5.989   4.555   3.772 -0.0865  0.4446  0.2285
15185SOL    HW246997   5.931   4.689   3.812 -1.7545 -0.0772 -0.3822
15186SOL     OW46998   4.946   5.832   4.114  0.3216 -0.3124 -0.1702
15186SOL    HW146999   5.012   5.893   4.081 -0.3506  0.0837 -0.8114
15186SOL    HW247000   4.978   5.805   4.200  1.1397  0.1459 -0.3260
15187SOL     OW47001   3.392   5.640   1.970 -0.5511  0.1472  0.3457
15187SOL    HW147002   3.485   5.658   1.959 -0.2211 -2.1244 -1.2984
15187SOL    HW247003   3.383   5.618   2.063  0.2596  1.6498  0.8207
15188SOL     OW47004   2.283   4.104   1.366  0.1003  0.4652 -0.4425
15188SOL    HW147005   2.229   4.091   1.288  0.7662 -1.6182 -0.5929
15188SOL    HW247006   2.325   4.189   1.351 -0.3962  0.4809 -1.9539
15189SOL     OW47007   5.820   3.728   2.589 -0.4304 -0.4877  0.2235
15189SOL    HW147008   5.746   3.778   2.624  0.8002  1.0208  0.7998
15189SOL    HW247009   5.816   3.743   2.494 -0.4285  0.2603  0.3303
15190SOL     OW47010   2.584   5.282   3.285 -0.1493 -0.1285  0.3583
15190SOL    HW147011   2.572   5.344   3.214 -0.9216 -0.2769  0.3480
15190SOL    HW247012   2.518   5.306   3.349 -0.9397 -1.3671  0.0392
15191SOL     OW47013   4.987   4.708   3.689  0.0825 -0.2577 -0.0051
15191SOL    HW147014   4.899   4.745   3.683  0.1882 -0.2405 -2.7249
15191SOL    HW247015   5.045   4.782   3.670  0.6121 -0.5865  0.3203
15192SOL     OW47016   3.267   4.984   3.909  0.1627 -0.0571 -0.0257
15192SOL    HW147017   3.203   4.923   3.871 -0.1115  0.2989 -0.1458
15192SOL    HW247018   3.318   4.931   3.970  1.5369 -0.9920 -1.8837
15193SOL     OW47019   2.773   4.033   2.228  0.0176  0.0809 -0.1292
15193SOL    HW147020   2.752   3.999   2.141 -1.0667  1.4002 -0.4173
15193SOL    HW247021   2.705   4.099   2.245 -0.2750 -0.7228  2.0661
15194SOL     OW47022   4.091   5.566   3.426  0.2096 -0.1382  0.5704
15194SOL    HW147023   4.003   5.593   3.399  0.5419  1.4234  0.9776
15194SOL    HW247024   4.076   5.500   3.493 -0.6787  0.8626  1.3889
15195SOL     OW47025   6.578   3.705   2.583 -0.3199 -0.0769 -0.0132
15195SOL    HW147026   6.498   3.732   2.628 -0.3163 -0.5259  0.2670
15195SOL    HW247027   6.572   3.748   2.498 -0.1669  1.0501  0.5238
15196SOL     OW47028   4.017   3.591   0.713 -0.2732 -0.7002  0.0871
15196SOL    HW147029   3.991   3.661   0.773 -0.2982  0.3705 -1.1219
15196SOL    HW247030   4.112   3.585   0.722 -0.0578  0.6306 -0.9398
15197SOL     OW47031   5.879   2.846   2.036 -0.1249  0.1036  0.3369
15197SOL    HW147032   5.852   2.760   2.005 -1.5661  0.0786  1.5542
15197SOL    HW247033   5.852   2.849   2.127  1.7320  1.1007  0.9319
15198SOL     OW47034   4.123   4.288   3.655 -0.4581 -0.0529  0.3692
15198SOL    HW147035   4.187   4.222   3.681  0.5543  0.9348  0.5038
15198SOL    HW247036   4.170   4.371   3.665 -1.0548  0.5811 -1.5441
15199SOL     OW47037   3.962   6.056   2.604  0.4592 -0.1423  0.0428
15199SOL    HW147038   4.009   6.138   2.620  0.2442  0.4123 -1.9578
15199SOL    HW247039   4.010   5.991   2.655  0.8699  1.1409  1.3575
15200SOL     OW47040   4.754   4.416   2.888 -0.1925 -0.0446 -0.6945
15200SOL    HW147041   4.715   4.502   2.870 -0.1810 -0.0748 -0.8660
15200SOL    HW247042   4.780   4.421   2.980  1.1122  0.6475 -1.0685
15201SOL     OW47043   4.940   6.148   2.187  0.2475 -0.2856 -0.3051
15201SOL    HW147044   4.973   6.151   2.276 -0.9244 -0.3849  0.1465
15201SOL    HW247045   5.011   6.186   2.134  1.0205 -0.3873  0.6287
15202SOL     OW47046   5.818   4.902   2.419 -0.2162  0.5997 -0.4851
15202SOL    HW147047   5.766   4.863   2.489  2.2102 -2.3891 -0.0931
15202SOL    HW247048   5.782   4.864   2.338 -0.6573  1.0794 -0.5143
15203SOL     OW47049   3.200   3.746   1.655  0.8726 -0.0586  0.0564
15203SOL    HW147050   3.290   3.763   1.683  0.9477 -0.0257 -0.1969
15203SOL    HW247051   3.146   3.772   1.729  1.1296 -1.0476  0.6007
15204SOL     OW47052   3.690   4.859   2.386  0.2041 -0.1265  0.2137
15204SOL    HW147053   3.656   4.802   2.455  1.0645  0.0160  0.7689
15204SOL    HW247054   3.776   4.823   2.366 -0.8980 -1.5388 -2.4050
15205SOL     OW47055   5.845   3.735   2.321  0.7373  0.1321 -0.4399
15205SOL    HW147056   5.819   3.805   2.262 -0.3957  0.5232  0.4918
15205SOL    HW247057   5.820   3.655   2.276  0.1239  0.4142 -0.6034
15206SOL     OW47058   3.053   5.055   2.343  0.5583 -0.0225  0.3105
15206SOL    HW147059   2.983   5.005   2.385  1.2256  0.5054  2.1334
15206SOL    HW247060   3.077   5.003   2.266 -2.4536  0.2638 -0.9620
15207SOL     OW47061   2.469   4.776   1.913  0.2650  0.1079 -0.1436
15207SOL    HW147062   2.417   4.799   1.836 -0.3574  0.6924  0.4280
15207SOL    HW247063   2.411   4.796   1.987  0.9744 -0.1122  0.4824
15208SOL     OW47064   3.745   4.015   4.867  0.0316  0.4446  0.3511
15208SOL    HW147065   3.786   4.015   4.953  0.9497  1.0939 -0.0760
15208SOL    HW247066   3.723   4.106   4.850 -1.1371  0.1825  0.3425
15209SOL     OW47067   3.395   3.656   4.781  0.2293  0.4948  0.5344
15209SOL    HW147068   3.473   3.711   4.782  0.6022  0.0214 -0.7658
15209SOL    HW247069   3.327   3.710   4.821  0.9539  1.3119  0.6915
15210SOL     OW47070   4.170   4.083   5.038 -0.3965 -0.8125 -0.3349
15210SOL    HW147071   4.258   4.101   5.069 -0.2290 -0.4085 -1.0157
15210SOL    HW247072   4.175   3.998   4.996 -0.2168 -0.5809 -0.7889
15211SOL     OW47073   3.001   6.082   3.865 -0.2409  0.4100 -0.2288
15211SOL    HW147074   3.088   6.046   3.850 -0.1475 -1.3496  3.4845
15211SOL    HW247075   3.015   6.176   3.876  1.4921  0.0033  1.5529
15212SOL     OW47076   5.816   5.026   3.991  0.1585  0.6835  0.0093
15212SOL    HW147077   5.830   5.044   3.898 -1.3567 -0.6726 -0.5242
15212SOL    HW247078   5.822   4.931   3.998 -1.1607  0.6572  1.0410
15213SOL     OW47079   6.027   5.295   3.526 -0.3971  0.4327  0.0092
15213SOL    HW147080   5.958   5.350   3.563  0.1491  0.8453  0.4342
15213SOL    HW247081   6.063   5.248   3.600 -0.0190  0.4524 -0.1580
15214SOL     OW47082   7.213   3.937   2.644  0.1144  0.2279 -0.3971
15214SOL    HW147083   7.132   3.897   2.675  1.2507  0.0928  2.8713
15214SOL    HW247084   7.274   3.864   2.634  1.1850  0.6564  2.1592
15215SOL     OW47085   4.532   4.265   5.791  0.0001 -0.1323 -0.0028
15215SOL    HW147086   4.616   4.237   5.756 -0.3939 -0.1282 -0.9914
15215SOL    HW247087   4.539   4.360   5.798 -0.9558  0.2969 -3.1368
15216SOL     OW47088   3.941   5.992   4.215  1.2056 -0.2208  0.2162
15216SOL    HW147089   3.899   6.050   4.152  1.1224 -1.2974 -0.7457
15216SOL    HW247090   3.903   5.906   4.198  2.1136 -0.7744  0.8866
15217SOL     OW47091   5.243   4.311   5.929  0.3765 -0.3157  0.0943
15217SOL    HW147092   5.206   4.244   5.986 -2.0626  2.5750  2.2322
15217SOL    HW247093   5.205   4.293   5.843 -1.2024 -1.0264  0.8970
15218SOL     OW47094   4.387   3.734   5.171 -0.0510 -0.4165 -0.4806
15218SOL    HW147095   4.343   3.724   5.086 -1.3592  0.6899  0.0355
15218SOL    HW247096   4.342   3.807   5.213  2.1544  0.6052  0.2001
15219SOL     OW47097   5.155   3.400   5.127 -0.2658 -0.3829 -0.4239
15219SOL    HW147098   5.104   3.478   5.104  0.5954  1.1065  2.2603
15219SOL    HW247099   5.096   3.348   5.181 -0.0302 -0.3028 -0.0847
15220SOL     OW47100   4.832   4.918   4.191 -0.5082 -0.5641  0.1893
15220SOL    HW147101   4.840   4.873   4.108 -1.0537 -0.3071 -0.0118
15220SOL    HW247102   4.754   4.879   4.232  1.3521 -2.7564  1.9084
15221SOL     OW47103   5.819   3.014   5.732  0.1171  0.5106  0.0676
15221SOL    HW147104   5.724   3.015   5.720  0.0948 -1.2772 -0.0675
15221SOL    HW247105   5.854   3.038   5.646 -0.2018 -0.1298 -0.2424
15222SOL     OW47106   4.496   5.641   5.823 -0.8036  0.1521 -0.2783
15222SOL    HW147107   4.401   5.636   5.833 -0.7114 -0.5368  0.3279
15222SOL    HW247108   4.516   5.734   5.837 -1.5428  0.6480 -2.0860
15223SOL     OW47109   6.940   3.565   5.200  0.1643 -0.5349 -0.0904
15223SOL    HW147110   6.923   3.593   5.110 -0.0618  0.6531  0.3025
15223SOL    HW247111   6.933   3.645   5.252  0.5471 -1.1573  0.9563
15224SOL     OW47112   3.797   3.995   3.995  0.5860  0.3103 -0.6052
15224SOL    HW147113   3.838   4.000   4.081 -0.6653  0.8494 -0.0212
15224SOL    HW247114   3.866   4.024   3.935  0.9962  1.4676  0.3745
15225SOL     OW47115   5.783   5.003   1.648  0.2223  0.3172  0.0157
15225SOL    HW147116   5.732   5.084   1.657  0.8181  0.7593 -0.5165
15225SOL    HW247117   5.871   5.032   1.626  0.2885 -0.4961 -0.8810
15226SOL     OW47118   4.080   5.714   3.650 -0.3689  0.0349  0.1898
15226SOL    HW147119   4.122   5.688   3.569  0.3158  3.3488 -0.6781
15226SOL    HW247120   4.151   5.713   3.715 -0.5817 -1.1385  0.4259
15227SOL     OW47121   5.028   5.018   5.487 -0.1208 -0.1902  0.4821
15227SOL    HW147122   5.055   4.999   5.577 -1.4649 -0.7545  0.8059
15227SOL    HW247123   4.936   5.042   5.495  0.2156  1.5721 -0.5485
15228SOL     OW47124   5.303   5.318   4.030  0.0961 -0.0724 -0.3049
15228SOL    HW147125   5.285   5.311   4.124  2.2575 -1.2387  0.1001
15228SOL    HW247126   5.224   5.285   3.988 -0.6332 -0.2405  1.1213
15229SOL     OW47127   4.330   5.682   4.957  0.7079  0.2016  0.5211
15229SOL    HW147128   4.377   5.639   5.029 -0.3468 -0.5449  0.7854
15229SOL    HW247129   4.355   5.633   4.879 -1.3620 -1.7084  0.9678
15230SOL     OW47130   3.545   5.337   4.037 -0.4249 -0.6666 -0.4815
15230SOL    HW147131   3.606   5.372   3.973 -0.9585  0.4792 -0.3818
15230SOL    HW247132   3.593   5.265   4.079  1.3613  0.9952  0.4996
15231SOL     OW47133   6.011   7.571   4.033  0.0592 -0.3231 -0.0293
15231SOL    HW147134   6.077   7.640   4.039  0.5660 -0.8188  0.1048
15231SOL    HW247135   5.928   7.619   4.031  0.3589  0.2641  0.8690
15232SOL     OW47136   5.052   7.230   6.446 -0.5711 -0.5290 -0.4767
15232SOL    HW147137   4.962   7.241   6.415 -0.0803 -0.4879 -1.9590
15232SOL    HW247138   5.095   7.178   6.378  0.4820 -0.7109  0.3005
15233SOL     OW47139   4.233   4.334   5.719  0.0247 -0.0668 -0.2912
15233SOL    HW147140   4.211   4.424   5.696  2.1265 -0.4323 -5.0168
15233SOL    HW247141   4.328   4.333   5.727 -0.0667 -1.6407  1.2520
15234SOL     OW47142   4.767   4.671   5.469  0.3166  0.4043  0.2327
15234SOL    HW147143   4.708   4.738   5.503  0.2965 -0.0503  1.1237
15234SOL    HW247144   4.752   4.671   5.374 -0.0742  1.2749  0.2900
15235SOL     OW47145   5.265   4.925   3.960 -0.1245 -0.3807  0.0995
15235SOL    HW147146   5.332   4.955   4.022 -1.0021 -1.9955  1.9218
15235SOL    HW247147   5.286   4.833   3.944 -0.9332 -0.4497 -0.6345
15236SOL     OW47148   5.316   5.783   4.667 -0.1641  0.4775 -0.2739
15236SOL    HW147149   5.318   5.806   4.574 -1.9958  0.4731 -0.3485
15236SOL    HW247150   5.265   5.853   4.708 -2.5765 -1.3947  0.0974
15237SOL     OW47151   5.266   3.189   5.653 -0.2048  0.1638 -0.4379
15237SOL    HW147152   5.188   3.212   5.704  0.0581  0.0379  0.0268
15237SOL    HW247153   5.233   3.172   5.565 -0.7412 -0.1562 -0.1786
15238SOL     OW47154   5.414   4.292   5.461  0.1865 -0.1357 -0.2357
15238SOL    HW147155   5.332   4.339   5.470  0.0121 -0.3581 -0.6515
15238SOL    HW247156   5.452   4.325   5.380  0.4761 -0.0904 -0.0858
15239SOL     OW47157   5.633   3.614   4.411  0.4608  0.0097  0.1533
15239SOL    HW147158   5.561   3.558   4.440 -0.8726  1.4299 -0.3212
15239SOL    HW247159   5.701   3.601   4.477 -0.5379 -0.7242  1.0704
15240SOL     OW47160   2.784   5.240   5.996 -0.4450  0.1750 -0.5169
15240SOL    HW147161   2.865   5.192   5.977 -0.0195  0.7856 -0.2810
15240SOL    HW247162   2.792   5.321   5.945 -0.0372  1.1020  0.9478
15241SOL     OW47163   5.131   5.037   6.151 -0.1552  0.3708 -0.4059
15241SOL    HW147164   5.062   4.976   6.179 -1.3012  0.7939 -2.1538
15241SOL    HW247165   5.187   4.984   6.094 -0.4461  0.6512 -0.9487
15242SOL     OW47166   4.937   4.650   2.777 -0.0191 -0.1137  0.2028
15242SOL    HW147167   4.956   4.601   2.857 -0.3332 -1.8264 -0.7259
15242SOL    HW247168   4.851   4.689   2.792 -0.9033 -1.9095  0.0756
15243SOL     OW47169   4.025   4.484   1.757  0.2627  0.0335  0.1019
15243SOL    HW147170   3.938   4.506   1.789  0.1946  0.0443 -0.0908
15243SOL    HW247171   4.010   4.437   1.675  0.3049 -2.6923  1.5264
15244SOL     OW47172   2.934   5.784   6.009 -0.2973  0.1349  0.4062
15244SOL    HW147173   2.933   5.871   6.049 -0.4461  0.0937  0.4935
15244SOL    HW247174   2.973   5.797   5.923 -1.0639  0.4274  0.0959
15245SOL     OW47175   6.268   3.453   3.876 -0.1104 -0.2060 -0.2967
15245SOL    HW147176   6.259   3.364   3.910  0.5095 -0.5306 -0.9447
15245SOL    HW247177   6.192   3.465   3.819  0.4948 -0.8047 -1.2356
15246SOL     OW47178   6.035   4.222   5.967  0.1701  0.5789  0.4495
15246SOL    HW147179   6.046   4.170   6.045  0.6274  0.8572  0.5706
15246SOL    HW247180   5.951   4.192   5.930  1.0470 -1.1690 -0.2131
15247SOL     OW47181   3.983   4.350   4.005 -0.6005  0.0412 -0.0515
15247SOL    HW147182   4.059   4.398   3.971  0.3414 -1.4099 -0.0757
15247SOL    HW247183   3.973   4.382   4.095  0.8055 -0.5990  0.3598
15248SOL     OW47184   5.072   4.340   3.851 -0.3193  0.4158 -0.1217
15248SOL    HW147185   4.985   4.377   3.834 -1.1223 -2.0647 -1.8701
15248SOL    HW247186   5.069   4.314   3.943 -0.2681  3.1013  0.7149
15249SOL     OW47187   4.805   3.821   4.138  0.2973 -0.1945 -0.2490
15249SOL    HW147188   4.712   3.810   4.119  0.4848 -1.1076 -0.7249
15249SOL    HW247189   4.829   3.741   4.185  1.1946 -0.7904 -1.6229
15250SOL     OW47190   4.148   3.874   4.843  0.2914 -1.1000 -0.5499
15250SOL    HW147191   4.224   3.815   4.840  0.4081 -1.2279  2.0756
15250SOL    HW247192   4.159   3.931   4.767  3.1854 -0.9541 -0.1659
15251SOL     OW47193   6.915   6.096   4.845  0.1264 -0.3355  0.1266
15251SOL    HW147194   6.837   6.073   4.894 -0.1839  0.9979  0.2986
15251SOL    HW247195   6.985   6.097   4.911 -0.3718  1.9212  0.7322
15252SOL     OW47196   5.025   5.892   2.637 -0.1349 -0.0961  0.3557
15252SOL    HW147197   5.023   5.855   2.725 -0.6720  1.3286  0.9649
15252SOL    HW247198   5.107   5.943   2.634 -0.6776  0.7979  0.4410
15253SOL     OW47199   5.643   4.341   3.740 -0.0811  0.5396  0.8395
15253SOL    HW147200   5.559   4.341   3.694 -0.6270 -0.9528  1.7876
15253SOL    HW247201   5.640   4.420   3.795  0.3550  2.0483 -1.1658
15254SOL     OW47202   4.360   6.549   5.076 -0.3268  0.0494  0.2749
15254SOL    HW147203   4.404   6.629   5.104  0.6731 -0.3210 -0.1934
15254SOL    HW247204   4.363   6.551   4.981 -0.7066 -0.3269  0.2477
15255SOL     OW47205   5.336   5.305   3.463  0.0298  0.0722 -0.1719
15255SOL    HW147206   5.318   5.379   3.520 -1.2978 -0.8355  0.6347
15255SOL    HW247207   5.410   5.260   3.504 -0.1596  0.0860  0.1876
15256SOL     OW47208   4.090   2.098   6.045 -0.5453  0.3146 -0.0057
15256SOL    HW147209   4.126   2.187   6.053 -1.6206  0.7740 -0.0952
15256SOL    HW247210   4.047   2.098   5.959 -0.5448 -0.3037 -0.0071
15257SOL     OW47211   4.565   3.261   5.364  0.2970 -0.3664 -0.0852
15257SOL    HW147212   4.616   3.342   5.361 -2.5328  1.5749 -1.9205
15257SOL    HW247213   4.523   3.263   5.450  1.0092 -0.4234  0.2694
15258SOL     OW47214   3.363   5.635   5.180  0.4196  0.2602  0.3599
15258SOL    HW147215   3.352   5.634   5.085 -0.8827 -0.1413  0.4923
15258SOL    HW247216   3.315   5.712   5.208  0.5415  0.2049  0.7177
15259SOL     OW47217   5.014   4.638   4.303 -0.1396  0.5052  0.1471
15259SOL    HW147218   5.055   4.608   4.384 -0.8207  1.2363  0.7829
15259SOL    HW247219   5.085   4.680   4.255 -0.4082  3.4343  2.0698
15260SOL     OW47220   5.251   5.612   5.244  0.1460  0.9897 -0.1779
15260SOL    HW147221   5.177   5.640   5.190 -0.5276  0.1613  0.2853
15260SOL    HW247222   5.311   5.570   5.182 -0.0112  1.2078 -0.4803
15261SOL     OW47223   4.745   4.573   4.228 -0.0128  0.0087  0.0714
15261SOL    HW147224   4.829   4.587   4.272 -0.9348  0.1992  1.8946
15261SOL    HW247225   4.746   4.481   4.201 -0.1762 -0.7208  2.3582
15262SOL     OW47226   6.603   4.214   4.260  0.1264 -0.2129 -0.1504
15262SOL    HW147227   6.687   4.168   4.261  0.8779  1.1248  0.0799
15262SOL    HW247228   6.584   4.227   4.167 -0.2084 -1.1401 -0.2302
15263SOL     OW47229   4.305   5.778   5.527 -0.6421 -0.0280  0.1930
15263SOL    HW147230   4.371   5.710   5.537 -0.7088 -0.1673 -0.2941
15263SOL    HW247231   4.304   5.797   5.433  0.7032  1.9778  0.5410
15264SOL     OW47232   5.723   3.745   4.802 -0.0793  0.0575 -0.3044
15264SOL    HW147233   5.798   3.798   4.775  0.6509 -0.5435  0.4892
15264SOL    HW247234   5.647   3.799   4.781  0.4848  0.0970 -2.4314
15265SOL     OW47235   5.063   2.963   4.486 -0.0103  0.3858  0.7506
15265SOL    HW147236   5.104   2.970   4.572 -0.9836  0.6421  1.2126
15265SOL    HW247237   5.005   3.040   4.481  0.6171  0.8114 -0.4612
15266SOL     OW47238   5.199   4.488   5.350  0.1886  0.2698 -0.3408
15266SOL    HW147239   5.128   4.425   5.357  1.2942 -1.1416 -1.3473
15266SOL    HW247240   5.171   4.547   5.280 -1.1413  1.3703  1.0359
15267SOL     OW47241   6.327   4.960   4.328 -0.0858  0.6023 -0.2426
15267SOL    HW147242   6.409   4.958   4.378  0.4348 -0.3097 -1.0915
15267SOL    HW247243   6.272   4.895   4.372  1.1219 -1.7518 -2.0056
15268SOL     OW47244   4.959   3.693   2.728  0.1762  0.6378 -0.3073
15268SOL    HW147245   4.889   3.639   2.764 -1.1635  2.0347 -0.6830
15268SOL    HW247246   4.928   3.783   2.740  2.0412  1.3071 -0.2679
15269SOL     OW47247   5.566   4.599   6.165  0.7809 -0.2636  0.7068
15269SOL    HW147248   5.527   4.512   6.153 -0.4523  0.4960 -1.2479
15269SOL    HW247249   5.508   4.643   6.227  1.8169 -1.0163  2.2870
15270SOL     OW47250   5.632   4.331   3.388 -0.1693  0.0936 -0.0363
15270SOL    HW147251   5.578   4.356   3.313 -0.6329 -0.2873  0.1704
15270SOL    HW247252   5.580   4.355   3.465 -0.7300 -1.6632  0.1751
15271SOL     OW47253   4.597   6.706   5.889  0.2139  0.0571  0.1632
15271SOL    HW147254   4.540   6.639   5.851  0.2007 -0.1887  0.6102
15271SOL    HW247255   4.604   6.682   5.982  0.5360  0.4448  0.2420
15272SOL     OW47256   4.724   4.852   3.178 -0.5253 -0.0023 -0.1799
15272SOL    HW147257   4.643   4.819   3.140 -0.7268  0.7096 -0.3835
15272SOL    HW247258   4.730   4.809   3.263 -1.6306  0.7063  0.2709
15273SOL     OW47259   7.092   4.144   4.389 -0.0746  0.2827  0.1380
15273SOL    HW147260   7.094   4.232   4.428  0.9278  0.9861 -1.3911
15273SOL    HW247261   7.178   4.135   4.347 -0.7071 -0.8364 -0.9807
15274SOL     OW47262   4.340   3.666   4.896 -0.0630 -0.0043  0.1898
15274SOL    HW147263   4.332   3.571   4.904 -0.7673 -0.1775 -1.7792
15274SOL    HW247264   4.433   3.685   4.908  0.3266 -1.1502 -0.8313
15275SOL     OW47265   1.829   4.671   5.224 -0.2767 -0.4268 -0.2244
15275SOL    HW147266   1.787   4.613   5.288  0.3415  0.8407  1.3761
15275SOL    HW247267   1.898   4.716   5.273 -1.4092  2.4807 -1.0730
15276SOL     OW47268   5.303   6.700   2.972  0.1815  0.1806 -0.8813
15276SOL    HW147269   5.332   6.617   3.010 -0.2644  0.5431  0.2940
15276SOL    HW247270   5.208   6.692   2.966 -0.3639  1.9429  2.8081
15277SOL     OW47271   4.990   5.163   5.270  0.3081  0.3612 -0.7306
15277SOL    HW147272   4.999   5.253   5.302  1.6134 -0.0656  0.2239
15277SOL    HW247273   5.028   5.109   5.340 -0.2613 -0.9155 -1.3711
15278SOL     OW47274   6.911   5.226   4.765  0.3639 -0.2505 -0.1754
15278SOL    HW147275   6.953   5.311   4.751  0.3060 -0.3135 -0.7718
15278SOL    HW247276   6.954   5.167   4.703 -0.2907 -0.4164 -0.4881
15279SOL     OW47277   3.342   6.363   4.804  0.2163 -0.1667  0.3550
15279SOL    HW147278   3.382   6.405   4.880  0.4184 -1.7853  1.1942
15279SOL    HW247279   3.250   6.391   4.806  0.5063  0.8062  0.4418
15280SOL     OW47280   4.450   5.630   6.652  0.0954  0.1312  0.4339
15280SOL    HW147281   4.501   5.560   6.612  1.1682  1.8505 -1.3860
15280SOL    HW247282   4.376   5.643   6.592 -0.3327  0.2963  0.9852
15281SOL     OW47283   4.707   3.941   5.869  0.0099 -0.1391  0.2067
15281SOL    HW147284   4.732   3.849   5.880  0.7424  0.1194  0.7503
15281SOL    HW247285   4.611   3.939   5.868  0.0045 -0.8381  0.8667
15282SOL     OW47286   4.442   4.077   5.942  0.0872  0.1910 -0.0500
15282SOL    HW147287   4.361   4.103   5.985  0.4783  1.5972 -0.1061
15282SOL    HW247288   4.466   4.153   5.888  1.6406 -0.0409  0.2631
15283SOL     OW47289   4.637   4.721   4.638 -0.6943  0.3555 -0.0714
15283SOL    HW147290   4.584   4.641   4.639  0.5378 -0.4909 -0.1878
15283SOL    HW247291   4.583   4.785   4.590 -0.4517 -1.3136 -2.7925
15284SOL     OW47292   6.928   3.062   3.541  0.4088 -0.7858 -0.6328
15284SOL    HW147293   6.927   2.968   3.562  1.0117 -0.5924  0.2797
15284SOL    HW247294   7.020   3.083   3.531  0.2753 -0.2602 -0.7584
15285SOL     OW47295   3.730   3.296   4.593  0.0435 -0.0602  0.6705
15285SOL    HW147296   3.683   3.284   4.675  1.8524 -2.3818  1.4887
15285SOL    HW247297   3.778   3.378   4.604 -0.5477  0.1838  1.4830
15286SOL     OW47298   4.421   5.504   4.709  1.0081 -0.0774 -0.3209
15286SOL    HW147299   4.337   5.465   4.686  0.6075 -0.1402  1.1663
15286SOL    HW247300   4.428   5.581   4.652  0.1763 -0.3509 -0.8015
15287SOL     OW47301   5.931   4.327   7.415  0.0126  0.1035 -0.2273
15287SOL    HW147302   5.955   4.284   7.497  0.2855 -1.9135 -1.3044
15287SOL    HW247303   5.852   4.282   7.386 -0.9983  1.8515 -0.3171
15288SOL     OW47304   7.422   2.719   4.236  0.0928  0.4750  0.1101
15288SOL    HW147305   7.462   2.652   4.291  2.1105  0.6124 -1.0844
15288SOL    HW247306   7.404   2.792   4.295 -1.0907 -0.6397  1.2089
15289SOL     OW47307   5.343   6.164   3.785  0.3979 -0.3129 -0.5832
15289SOL    HW147308   5.364   6.109   3.860  1.4499  0.1119 -0.5518
15289SOL    HW247309   5.281   6.228   3.819 -0.2302 -0.9871 -0.4310
15290SOL     OW47310   4.604   6.059   4.454  0.1383  0.5293 -0.1392
15290SOL    HW147311   4.513   6.086   4.445  0.6490  2.8185  0.8078
15290SOL    HW247312   4.628   6.026   4.367 -1.4646  0.2252 -0.5032
15291SOL     OW47313   4.679   2.822   3.722 -0.1698  0.2573 -0.1916
15291SOL    HW147314   4.584   2.832   3.715 -0.0907  0.3841 -1.2724
15291SOL    HW247315   4.698   2.738   3.678  0.3542  0.9127 -1.2595
15292SOL     OW47316   4.669   5.216   4.440  0.1437  0.3584  0.1666
15292SOL    HW147317   4.761   5.232   4.419  0.3965 -0.1481  0.8343
15292SOL    HW247318   4.670   5.194   4.534 -0.5812 -0.2349  0.0440
15293SOL     OW47319   4.843   4.876   4.758  0.3649 -0.0555  0.4577
15293SOL    HW147320   4.766   4.824   4.735  0.3495 -1.2511  2.9218
15293SOL    HW247321   4.917   4.822   4.730  0.3253 -0.6983  1.5465
15294SOL     OW47322   4.199   5.342   5.742  0.4283  0.4649  0.6003
15294SOL    HW147323   4.280   5.292   5.727  0.9449  1.2925  0.5869
15294SOL    HW247324   4.141   5.280   5.786  0.9004 -0.2815  0.2045
15295SOL     OW47325   4.253   2.977   4.985  0.4775 -0.5164  0.3332
15295SOL    HW147326   4.266   2.986   4.890  0.7748 -2.6154  0.1105
15295SOL    HW247327   4.189   3.043   5.007  1.5831  1.1009 -1.0424
15296SOL     OW47328   3.182   5.008   6.335 -0.1198 -0.0954  0.1299
15296SOL    HW147329   3.244   5.018   6.262 -0.6988 -0.3141 -0.3993
15296SOL    HW247330   3.206   4.925   6.376  1.0924  0.6681  1.0603
15297SOL     OW47331   2.334   5.511   4.034  0.4522 -0.3876 -0.2495
15297SOL    HW147332   2.386   5.434   4.013  2.7940  0.9628  0.2436
15297SOL    HW247333   2.387   5.585   4.003 -1.1244  1.0975  0.4007
15298SOL     OW47334   6.091   4.009   4.530 -0.5352 -0.1133  1.3433
15298SOL    HW147335   6.012   4.060   4.515 -0.5903  0.4870  3.3883
15298SOL    HW247336   6.160   4.074   4.543  0.1829 -0.6205  0.2222
15299SOL     OW47337   4.883   2.857   5.319 -0.4398 -0.3528  0.8956
15299SOL    HW147338   4.881   2.774   5.368  0.4347  0.4313  2.3375
15299SOL    HW247339   4.835   2.918   5.374  0.5043  0.5373  0.7510
15300SOL     OW47340   4.297   6.415   4.577 -0.0847  0.0753 -0.2810
15300SOL    HW147341   4.263   6.326   4.589  0.2652  0.1865  1.9254
15300SOL    HW247342   4.351   6.409   4.498  0.8533 -1.9750  0.4420
15301SOL     OW47343   3.897   3.753   4.831  0.1790 -0.2259 -0.5730
15301SOL    HW147344   3.961   3.824   4.835 -1.5040  1.3790 -0.7667
15301SOL    HW247345   3.814   3.793   4.859 -0.9751 -1.9370 -1.3536
15302SOL     OW47346   3.499   6.395   5.024  0.1684  0.2025 -0.0518
15302SOL    HW147347   3.567   6.330   5.041 -0.1490  0.1791  1.2263
15302SOL    HW247348   3.481   6.434   5.110 -1.9601 -0.3129 -0.2040
15303SOL     OW47349   4.968   4.577   3.032 -0.2427 -0.3394  0.1295
15303SOL    HW147350   4.886   4.562   3.079 -0.3880  2.3525  0.9009
15303SOL    HW247351   5.028   4.511   3.068 -1.4191 -0.8450  1.2579
15304SOL     OW47352   6.029   3.990   3.756  0.2528  0.0396 -0.0996
15304SOL    HW147353   6.054   3.957   3.842 -2.0777 -2.5300 -0.2510
15304SOL    HW247354   6.052   4.083   3.758  3.3499 -0.6196  2.0025
15305SOL     OW47355   5.293   5.645   6.135 -0.1085 -0.2972  0.5509
15305SOL    HW147356   5.310   5.720   6.079  0.8877  0.6768  2.0783
15305SOL    HW247357   5.355   5.578   6.107  0.1885  0.0798  0.3118
15306SOL     OW47358   3.275   6.131   4.631 -0.0692  0.2357 -0.4820
15306SOL    HW147359   3.317   6.201   4.682 -0.1472  0.8336 -1.2139
15306SOL    HW247360   3.183   6.134   4.657  0.0921 -0.1867  0.1414
15307SOL     OW47361   4.111   5.089   6.106 -0.1555 -0.4991 -0.0925
15307SOL    HW147362   4.087   5.036   6.030 -0.7801 -0.5958  0.1696
15307SOL    HW247363   4.073   5.043   6.181 -0.8364  0.3903  0.1256
15308SOL     OW47364   5.478   3.443   3.166  0.3779 -0.1739  0.0303
15308SOL    HW147365   5.403   3.493   3.135  0.8830  2.1436  2.1742
15308SOL    HW247366   5.547   3.460   3.102 -0.0938  0.1561 -0.3911
15309SOL     OW47367   6.803   5.110   2.978  0.0266 -0.1297 -0.3818
15309SOL    HW147368   6.894   5.104   2.950  0.0482  2.1934 -0.9923
15309SOL    HW247369   6.793   5.039   3.042  2.7309  0.5361  0.9308
15310SOL     OW47370   2.593   4.935   6.702  0.1777 -0.0271  0.0089
15310SOL    HW147371   2.681   4.923   6.666  0.5604 -0.3509  1.0164
15310SOL    HW247372   2.539   4.873   6.654  0.5339  0.0328 -0.4823
15311SOL     OW47373   5.600   3.979   3.149 -0.5298 -0.1599  0.1654
15311SOL    HW147374   5.548   4.051   3.115 -0.0746 -0.2953 -0.8568
15311SOL    HW247375   5.536   3.911   3.171 -0.9235  0.3919  0.7568
15312SOL     OW47376   4.150   4.755   3.230  0.1295 -0.1153  0.3217
15312SOL    HW147377   4.057   4.752   3.254 -0.3445  0.1840 -1.3750
15312SOL    HW247378   4.196   4.757   3.314 -1.3925 -0.2014  1.1955
15313SOL     OW47379   5.315   3.935   4.859 -0.4099  0.2292 -0.8435
15313SOL    HW147380   5.221   3.923   4.874 -0.7981  2.0953 -1.4620
15313SOL    HW247381   5.334   4.021   4.896  1.4281 -0.7647  0.6676
15314SOL     OW47382   6.758   4.192   3.997 -0.8968 -0.0183 -0.0131
15314SOL    HW147383   6.727   4.274   3.958 -1.1432 -0.2071 -0.2222
15314SOL    HW247384   6.717   4.123   3.943  0.7633 -0.2808 -1.0148
15315SOL     OW47385   3.991   3.875   4.531  0.0042  0.1076  0.3143
15315SOL    HW147386   3.912   3.925   4.510 -0.7572 -1.0663  0.2475
15315SOL    HW247387   3.962   3.811   4.596  0.4924 -1.3868 -0.8693
15316SOL     OW47388   4.546   5.342   5.422 -0.5025  0.9435  0.0201
15316SOL    HW147389   4.469   5.349   5.365 -0.5387  2.8674  0.2343
15316SOL    HW247390   4.550   5.250   5.446 -1.8423  0.5234 -1.2295
15317SOL     OW47391   5.743   3.971   3.886 -0.2800  0.1736  0.3074
15317SOL    HW147392   5.793   4.052   3.895  0.2927  0.1141 -1.8252
15317SOL    HW247393   5.802   3.911   3.841 -1.2140 -0.9395  0.5187
15318SOL     OW47394   5.588   5.323   5.349 -0.5551 -0.1174 -0.2207
15318SOL    HW147395   5.642   5.246   5.335 -1.4123 -1.0050  1.1081
15318SOL    HW247396   5.498   5.290   5.351 -0.8105  0.4588  2.8422
15319SOL     OW47397   4.877   5.750   4.506  0.3386  0.4376  0.4659
15319SOL    HW147398   4.787   5.782   4.512  1.1148  2.5967  1.5351
15319SOL    HW247399   4.872   5.659   4.533 -2.0995 -0.8010 -3.3522
15320SOL     OW47400   5.583   4.808   3.793 -0.1059 -0.3159 -0.3539
15320SOL    HW147401   5.500   4.796   3.839  0.1769  0.6380  0.4232
15320SOL    HW247402   5.563   4.872   3.724 -0.0239 -0.0871 -0.1675
15321SOL     OW47403   5.085   3.832   5.648 -0.2691 -0.4837  0.1153
15321SOL    HW147404   5.055   3.808   5.736 -0.6354 -1.0668 -0.1651
15321SOL    HW247405   5.014   3.883   5.611 -1.7544 -3.2832 -1.1872
15322SOL     OW47406   4.959   4.381   5.494 -0.0505  0.7328  0.2936
15322SOL    HW147407   4.937   4.375   5.401  0.5601  0.7424  0.1484
15322SOL    HW247408   4.877   4.409   5.536 -0.2412  1.0381 -0.2775
15323SOL     OW47409   4.779   4.491   3.170 -0.7010  0.3328  0.3007
15323SOL    HW147410   4.757   4.552   3.240  2.0689 -0.6258  2.1865
15323SOL    HW247411   4.765   4.404   3.209 -0.1158 -0.2352 -0.7075
15324SOL     OW47412   6.554   3.978   5.396  0.6679 -0.3165 -0.0382
15324SOL    HW147413   6.541   3.886   5.373 -0.8190  0.1352 -1.2089
15324SOL    HW247414   6.556   3.979   5.492 -2.1737 -1.3104  0.1323
15325SOL     OW47415   6.439   4.176   2.714  0.4893  0.2947  0.1321
15325SOL    HW147416   6.483   4.244   2.765  2.7940  0.0289 -1.3697
15325SOL    HW247417   6.476   4.185   2.626 -0.2551 -1.9513 -0.4571
15326SOL     OW47418   7.319   6.187   3.504 -0.0003 -0.0167 -0.1305
15326SOL    HW147419   7.236   6.168   3.546  0.3805 -0.8140  0.2767
15326SOL    HW247420   7.340   6.276   3.533 -1.4988  0.8488 -1.5695
15327SOL     OW47421   4.086   3.446   5.500 -0.2609 -0.1657 -0.1150
15327SOL    HW147422   4.060   3.369   5.449  1.1530  0.0228 -1.1429
15327SOL    HW247423   4.160   3.483   5.453  1.1447 -0.0171  2.1013
15328SOL     OW47424   5.559   4.532   7.078  0.1644  0.0330 -0.8385
15328SOL    HW147425   5.509   4.451   7.088  0.9712 -0.3345  0.4138
15328SOL    HW247426   5.648   4.502   7.058  0.1664  0.6626 -1.8651
15329SOL     OW47427   3.235   5.049   5.777  0.0029 -0.1518  0.2771
15329SOL    HW147428   3.310   5.001   5.814  0.8805 -0.7298 -2.0709
15329SOL    HW247429   3.160   5.017   5.827  0.8499 -2.4462  0.2237
15330SOL     OW47430   6.826   3.880   5.118 -0.6222  0.0904  0.2712
15330SOL    HW147431   6.752   3.927   5.078 -0.3977  0.8227  0.7046
15330SOL    HW247432   6.847   3.930   5.197  1.3654  0.8569 -0.6557
15331SOL     OW47433   6.692   2.869   3.301 -0.2129 -0.4008 -0.2913
15331SOL    HW147434   6.777   2.907   3.320 -1.1980  1.9009 -0.1418
15331SOL    HW247435   6.685   2.872   3.205 -0.4511  0.2469 -0.2611
15332SOL     OW47436   4.576   4.789   4.261 -0.0239  0.0039 -0.0670
15332SOL    HW147437   4.649   4.728   4.252  1.1580  1.4763 -0.9281
15332SOL    HW247438   4.501   4.733   4.284  1.0011 -1.7475 -0.7282
15333SOL     OW47439   3.801   5.468   4.704 -0.3755 -0.0116  0.5778
15333SOL    HW147440   3.745   5.517   4.643  0.1981  0.5145  0.4603
15333SOL    HW247441   3.886   5.462   4.659 -0.3138 -0.7254  0.7866
15334SOL     OW47442   4.711   5.369   3.051  0.0511  0.2594  0.1295
15334SOL    HW147443   4.671   5.282   3.048  0.5783 -0.0009  0.5592
15334SOL    HW247444   4.667   5.418   2.982 -1.1561  0.0382  0.7177
15335SOL     OW47445   5.908   4.472   5.776  0.0160  0.4684 -0.0541
15335SOL    HW147446   5.879   4.405   5.839 -1.7756  0.8576 -0.4015
15335SOL    HW247447   5.988   4.508   5.815  0.7777 -1.5272  0.3667
15336SOL     OW47448   4.652   5.383   4.687  0.5293 -0.5901  0.0042
15336SOL    HW147449   4.563   5.420   4.694  0.9100  0.0628  1.8757
15336SOL    HW247450   4.648   5.301   4.736  0.9734 -0.5430  0.1194
15337SOL     OW47451   5.639   4.305   6.551  0.1720  0.1498 -0.3453
15337SOL    HW147452   5.714   4.335   6.499  0.2057 -0.6789 -0.7874
15337SOL    HW247453   5.563   4.348   6.510  0.3953  1.0574  0.1556
15338SOL     OW47454   5.521   3.748   5.584  0.3120 -0.1009  0.5236
15338SOL    HW147455   5.452   3.687   5.555  1.1787 -0.1388 -1.6114
15338SOL    HW247456   5.474   3.829   5.604 -0.4880 -0.4576  0.1599
15339SOL     OW47457   4.906   6.373   4.355 -0.2222  0.2763 -0.2277
15339SOL    HW147458   4.867   6.459   4.340  0.1087  0.4097 -0.3224
15339SOL    HW247459   4.993   6.391   4.391  0.9367  0.0676 -2.7087
15340SOL     OW47460   5.545   4.379   4.019 -0.3199 -0.2361 -0.2161
15340SOL    HW147461   5.464   4.429   4.007  0.0012  0.5371  0.6623
15340SOL    HW247462   5.527   4.294   3.981 -0.8040  0.6131 -2.0133
15341SOL     OW47463   4.687   2.874   5.080 -0.2293 -0.1227  0.3867
15341SOL    HW147464   4.734   2.839   5.156 -0.6805 -1.3041  0.1437
15341SOL    HW247465   4.665   2.964   5.105  1.3350  0.1485  0.8630
15342SOL     OW47466   3.803   6.696   5.293 -0.5322  0.1829 -0.5038
15342SOL    HW147467   3.806   6.634   5.365  2.0065  1.4480  0.5772
15342SOL    HW247468   3.851   6.654   5.222  1.5348  0.9800  0.3613
15343SOL     OW47469   6.961   5.193   2.049  0.0921  0.5105 -0.3362
15343SOL    HW147470   7.009   5.120   2.088 -0.2098 -0.4057 -1.6093
15343SOL    HW247471   6.870   5.179   2.075  0.2887  1.5247  0.9986
15344SOL     OW47472   5.016   3.996   4.242 -0.2663 -0.1413  0.0990
15344SOL    HW147473   4.945   3.940   4.210 -0.2309  0.2248 -0.6365
15344SOL    HW247474   5.066   3.940   4.301 -2.0657  0.0436  1.8750
15345SOL     OW47475   5.848   2.953   4.317  0.3473 -0.0902 -0.2109
15345SOL    HW147476   5.765   2.985   4.282  1.0268  0.4019 -1.4393
15345SOL    HW247477   5.856   2.995   4.403  0.0928  1.1558 -0.7822
15346SOL     OW47478   4.255   5.235   4.558  0.0522 -0.3077  0.2676
15346SOL    HW147479   4.322   5.222   4.490  0.0995  1.1113  0.0133
15346SOL    HW247480   4.218   5.148   4.572 -2.1896 -0.2264 -3.8481
15347SOL     OW47481   4.619   3.421   5.054  0.2983 -0.7202 -0.5174
15347SOL    HW147482   4.637   3.512   5.029 -0.9480 -0.5796 -0.9905
15347SOL    HW247483   4.524   3.419   5.068  0.3162 -1.9517 -0.4879
15348SOL     OW47484   3.426   4.334   7.010 -0.3042  0.2415 -0.4172
15348SOL    HW147485   3.511   4.370   7.036  0.7293 -1.0729 -1.7815
15348SOL    HW247486   3.440   4.239   7.011 -1.2703  0.0464 -2.2177
15349SOL     OW47487   3.981   4.071   5.830  0.2397  0.1274 -0.0301
15349SOL    HW147488   4.002   3.977   5.831  1.1214  0.3141 -0.1538
15349SOL    HW247489   3.885   4.074   5.820  0.2156 -0.7566 -0.1706
15350SOL     OW47490   5.760   3.863   4.313 -0.4112 -1.0783 -0.3245
15350SOL    HW147491   5.842   3.849   4.361 -1.3616  0.6666  1.9981
15350SOL    HW247492   5.692   3.826   4.370 -1.5107  0.2647 -0.7053
15351SOL     OW47493   6.005   4.299   5.064 -0.3885  0.5396  0.1696
15351SOL    HW147494   5.934   4.362   5.070 -0.1349  0.7957  0.5282
15351SOL    HW247495   6.014   4.282   4.970 -2.1329 -0.8954  0.2093
15352SOL     OW47496   4.203   4.650   6.614 -0.0154  0.2962 -0.2921
15352SOL    HW147497   4.226   4.740   6.640 -0.9112  0.9695 -1.7266
15352SOL    HW247498   4.281   4.619   6.568  0.9787 -0.3464  1.6801
15353SOL     OW47499   3.809   4.620   5.905 -0.2955 -0.3561 -0.6772
15353SOL    HW147500   3.768   4.602   5.989  0.0715 -0.0489 -0.4305
15353SOL    HW247501   3.793   4.542   5.853  0.4016 -0.9895  0.0348
15354SOL     OW47502   3.569   5.916   7.533  0.4311  0.0837  0.0006
15354SOL    HW147503   3.651   5.876   7.563  0.2852 -0.4035 -0.2513
15354SOL    HW247504   3.592   5.956   7.449 -0.3277 -2.8730 -1.7481
15355SOL     OW47505   5.370   4.813   7.487  0.3491 -0.2250  0.0260
15355SOL    HW147506   5.390   4.787   7.576  0.6579 -1.1495 -0.3035
15355SOL    HW247507   5.274   4.814   7.483  0.2543  2.2173  1.0287
15356SOL     OW47508   3.145   5.878   5.498 -0.2261 -0.1269 -0.0927
15356SOL    HW147509   3.185   5.963   5.477 -1.5029  0.7061  0.6455
15356SOL    HW247510   3.218   5.821   5.520  0.7493  0.4467 -1.7104
15357SOL     OW47511   6.844   4.514   9.586  0.1932 -0.6167 -0.5048
15357SOL    HW147512   6.779   4.582   9.607 -0.0742 -0.7083 -1.0043
15357SOL    HW247513   6.793   4.444   9.545  0.7300 -0.2398 -1.8948
15358SOL     OW47514   3.008   5.000   5.935  0.5036 -0.4447  0.5728
15358SOL    HW147515   3.001   4.974   6.027  1.7152  0.8634  1.0705
15358SOL    HW247516   2.963   4.930   5.887 -2.0054 -0.1532  2.2724
15359SOL     OW47517   4.031   4.225   5.547  0.1359  0.1157  0.0418
15359SOL    HW147518   3.936   4.210   5.553 -0.2083  2.4011  1.3482
15359SOL    HW247519   4.048   4.295   5.609  2.8616 -0.8090  0.4498
15360SOL     OW47520   4.864   5.477   6.009  0.1045 -0.0403 -0.4547
15360SOL    HW147521   4.836   5.485   5.917 -1.0905 -1.0260 -0.2042
15360SOL    HW247522   4.819   5.399   6.041 -1.6306  1.6796  1.6990
15361SOL     OW47523   4.537   4.528   5.827 -0.1909 -0.0946  0.1820
15361SOL    HW147524   4.517   4.520   5.920 -0.6392 -0.9088  0.0309
15361SOL    HW247525   4.502   4.613   5.801 -1.2472 -0.4172  0.4842
15362SOL     OW47526   4.793   2.921   7.303 -0.0331 -0.4303  0.0044
15362SOL    HW147527   4.856   2.949   7.237  0.1923 -1.2936 -0.1516
15362SOL    HW247528   4.756   2.840   7.269  1.6742 -2.1284  1.9135
15363SOL     OW47529   3.478   4.241   6.346  0.4971  0.2496 -0.3678
15363SOL    HW147530   3.465   4.184   6.421 -2.3784  1.3545  0.1126
15363SOL    HW247531   3.493   4.182   6.272  1.8825 -0.8953  0.7875
15364SOL     OW47532   5.418   4.634   5.416 -0.2775 -0.5514 -0.4218
15364SOL    HW147533   5.386   4.664   5.501  0.0139 -0.2091 -0.4290
15364SOL    HW247534   5.341   4.597   5.373 -1.0967  1.7721 -1.1190
15365SOL     OW47535   4.143   5.484   5.499 -0.3450 -0.3579 -0.3291
15365SOL    HW147536   4.165   5.491   5.592 -0.1850  0.9269 -0.4357
15365SOL    HW247537   4.067   5.426   5.496  1.5070 -2.9749  0.2798
15366SOL     OW47538   5.920   4.146   6.213  0.3626 -0.4731 -0.6157
15366SOL    HW147539   5.938   4.190   6.297  0.3248  1.3420 -1.5082
15366SOL    HW247540   5.827   4.164   6.197  0.4267 -0.6238 -1.1455
15367SOL     OW47541   6.917   4.043   5.317  0.2054 -0.4900 -0.2063
15367SOL    HW147542   6.865   4.122   5.332 -0.7625 -1.0765 -0.4204
15367SOL    HW247543   6.897   3.986   5.391  0.1529 -0.9249 -0.5496
15368SOL     OW47544   3.811   3.904   7.272 -0.0396  0.0630 -0.4698
15368SOL    HW147545   3.887   3.903   7.214  0.8945 -1.2249  0.7338
15368SOL    HW247546   3.836   3.960   7.345 -0.3278 -0.2063 -0.1598
15369SOL     OW47547   4.074   4.245   6.712  0.0303 -0.2846  0.0944
15369SOL    HW147548   4.026   4.164   6.729 -1.0164 -0.1891 -2.0951
15369SOL    HW247549   4.051   4.303   6.784 -2.9750 -0.3494 -0.6803
15370SOL     OW47550   5.476   5.987   5.785 -0.3094 -0.4963  0.1136
15370SOL    HW147551   5.425   6.026   5.715 -0.4502 -0.8312  0.0265
15370SOL    HW247552   5.565   5.984   5.751 -0.1887  0.2828  0.3460
15371SOL     OW47553   3.546   5.092   6.293 -0.0315 -0.4660  0.4846
15371SOL    HW147554   3.491   5.050   6.227  0.9337 -0.1389 -0.5713
15371SOL    HW247555   3.617   5.029   6.308 -0.5693 -0.8178  1.7179
15372SOL     OW47556   7.397   3.639   5.030  0.0345 -0.2278 -0.3088
15372SOL    HW147557   7.382   3.557   5.077 -0.0627 -0.6671 -1.0817
15372SOL    HW247558   7.490   3.637   5.008  0.2693  0.3665  0.5577
15373SOL     OW47559   5.406   5.175   6.654  0.1901 -0.2935  0.8185
15373SOL    HW147560   5.317   5.209   6.662 -0.7822 -2.0914 -1.2565
15373SOL    HW247561   5.460   5.253   6.637 -1.5276  0.5640 -1.1934
15374SOL     OW47562   3.949   4.222   7.231  0.3594 -0.3096 -0.5494
15374SOL    HW147563   3.960   4.191   7.320 -0.2866  1.2778  0.1246
15374SOL    HW247564   4.022   4.283   7.217 -1.2761  1.9401  0.1088
15375SOL     OW47565   3.550   5.533   6.430 -0.2052 -0.3662 -0.0373
15375SOL    HW147566   3.479   5.568   6.377 -1.4165 -1.5340  0.7483
15375SOL    HW247567   3.521   5.444   6.453  1.6046 -0.9501  0.1367
15376SOL     OW47568   5.370   5.456   7.481 -0.1834  0.2381 -0.5502
15376SOL    HW147569   5.428   5.425   7.411  1.2104  0.8765  0.2663
15376SOL    HW247570   5.319   5.526   7.442 -1.7679 -1.4889 -1.7951
15377SOL     OW47571   4.731   4.067   5.140  0.8257 -0.4516  0.4497
15377SOL    HW147572   4.709   3.986   5.185  2.1680 -1.2740 -0.2929
15377SOL    HW247573   4.773   4.039   5.059  0.4020  0.9950 -0.3088
15378SOL     OW47574   5.273   4.735   5.608 -0.0721 -0.4851  0.1557
15378SOL    HW147575   5.258   4.699   5.696 -1.5905 -0.4854 -0.0722
15378SOL    HW247576   5.191   4.717   5.561  0.6372 -0.2888 -1.1967
15379SOL     OW47577   4.964   4.228   7.224  0.5390  0.0126  0.3890
15379SOL    HW147578   4.885   4.203   7.273  1.5774  0.2437  2.2971
15379SOL    HW247579   4.937   4.302   7.170 -0.7076 -0.3507  0.4798
15380SOL     OW47580   4.901   4.873   6.165  0.3862 -0.1287  0.8899
15380SOL    HW147581   4.899   4.824   6.247 -0.6102  0.2794  1.1324
15380SOL    HW247582   4.846   4.822   6.105  1.1899 -0.4756  0.4381
15381SOL     OW47583   3.550   5.017   6.674  0.3737  0.8566 -0.2141
15381SOL    HW147584   3.470   4.970   6.652  0.1221  1.2487 -0.1479
15381SOL    HW247585   3.616   4.949   6.686 -0.3829  0.3837  1.5762
15382SOL     OW47586   3.671   4.899   7.899  0.4140 -0.3043  0.3207
15382SOL    HW147587   3.719   4.818   7.878  0.3187  0.0892 -1.6357
15382SOL    HW247588   3.676   4.905   7.994  0.4739 -2.5753  0.5343
15383SOL     OW47589   4.226   3.917   5.271  0.6559  0.5245 -0.0262
15383SOL    HW147590   4.287   3.989   5.284  0.5553  0.6546 -0.2769
15383SOL    HW247591   4.176   3.912   5.352  0.7238  0.6795  0.0240
15384SOL     OW47592   5.593   2.671   5.621  0.7848  0.1761  0.5956
15384SOL    HW147593   5.633   2.717   5.694 -1.3206  1.8864  0.7747
15384SOL    HW247594   5.545   2.739   5.573 -0.5706 -1.4547 -0.4767
15385SOL     OW47595   4.220   4.377   6.006  0.0665 -0.4003  0.3037
15385SOL    HW147596   4.208   4.346   5.917  3.0399  1.5998 -0.9678
15385SOL    HW247597   4.140   4.425   6.027 -0.0369  0.5372 -2.0112
15386SOL     OW47598   5.151   5.411   5.901  0.3551  0.5800  0.4750
15386SOL    HW147599   5.068   5.453   5.923 -0.2876  0.0224 -0.7561
15386SOL    HW247600   5.132   5.363   5.821  1.5148 -0.6530  0.9056
15387SOL     OW47601   5.543   4.844   5.101 -0.3835  0.2500 -0.4364
15387SOL    HW147602   5.550   4.932   5.064 -2.5008  0.4451 -0.5263
15387SOL    HW247603   5.499   4.856   5.185  0.4546 -0.6118  0.1479
15388SOL     OW47604   5.953   5.184   6.412 -0.3900 -0.3166  0.0409
15388SOL    HW147605   5.925   5.165   6.502 -0.8139 -1.4827 -0.3297
15388SOL    HW247606   6.047   5.203   6.420 -0.6157  0.5676  0.8518
15389SOL     OW47607   4.258   5.767   5.823 -0.3257  0.3351  0.0282
15389SOL    HW147608   4.279   5.794   5.734 -1.0021 -0.6736 -0.4476
15389SOL    HW247609   4.175   5.720   5.816  0.1270 -0.6732  1.0257
15390SOL     OW47610   4.183   4.741   5.675  0.3089 -0.3076 -0.7633
15390SOL    HW147611   4.151   4.818   5.722  0.3809 -0.0920 -1.0640
15390SOL    HW247612   4.146   4.667   5.722 -0.5063 -0.0643 -1.0142
15391SOL     OW47613   5.826   6.653   6.358 -0.1309  0.0155  0.4900
15391SOL    HW147614   5.900   6.602   6.326  0.0812  0.4928  0.2114
15391SOL    HW247615   5.754   6.590   6.365  0.1006 -0.2968  0.0552
15392SOL     OW47616   4.451   4.991   4.767  0.4429  0.2004 -0.5678
15392SOL    HW147617   4.530   5.007   4.818  0.1233 -1.0213  0.3556
15392SOL    HW247618   4.478   5.003   4.676  1.5060  0.5015 -0.2277
15393SOL     OW47619   4.307   3.551   7.524 -0.1409 -0.3401 -0.1532
15393SOL    HW147620   4.242   3.492   7.487  1.0185 -1.6613 -0.1692
15393SOL    HW247621   4.269   3.638   7.514 -1.5036 -0.9947 -0.9588
15394SOL     OW47622   5.495   3.307   4.515 -0.1279  0.2022  0.1980
15394SOL    HW147623   5.448   3.341   4.591 -2.4483 -1.2260 -0.5183
15394SOL    HW247624   5.540   3.229   4.548 -1.6193 -0.7603  0.0141
15395SOL     OW47625   4.442   5.207   5.684 -0.3979 -0.0955  1.0932
15395SOL    HW147626   4.403   5.134   5.733 -1.2763 -0.1552  0.3232
15395SOL    HW247627   4.499   5.164   5.620 -1.6948 -0.2018 -0.0525
15396SOL     OW47628   3.715   4.367   6.409  0.3081 -0.3096  0.1094
15396SOL    HW147629   3.624   4.339   6.400  0.5018 -0.8423 -0.2266
15396SOL    HW247630   3.728   4.428   6.337 -0.6200  2.0665  1.8370
15397SOL     OW47631   3.573   5.730   5.418 -0.3114  0.2249 -0.5668
15397SOL    HW147632   3.494   5.701   5.372 -0.4048  2.1416 -1.7228
15397SOL    HW247633   3.642   5.728   5.351  0.9377 -2.3822  0.6528
15398SOL     OW47634   4.103   3.880   5.538  0.0631  0.2874  0.4387
15398SOL    HW147635   4.086   3.974   5.535  0.9264  0.4358 -0.1792
15398SOL    HW247636   4.160   3.868   5.614 -0.2512  0.2241  0.6662
15399SOL     OW47637   5.270   2.999   5.911 -0.2869  0.0619 -0.4961
15399SOL    HW147638   5.279   3.083   5.956  0.6579  0.5343 -1.5112
15399SOL    HW247639   5.176   2.990   5.895 -0.5758  0.1299  1.0670
15400SOL     OW47640   5.007   3.524   5.334  0.3000  0.2427  0.3160
15400SOL    HW147641   4.966   3.602   5.295 -1.6569 -1.6132 -1.6063
15400SOL    HW247642   5.013   3.544   5.427  1.4105  3.3119 -0.3061
15401SOL     OW47643   4.115   6.078   6.457  0.9870 -0.3204 -0.1846
15401SOL    HW147644   4.189   6.023   6.432 -0.0267 -1.7023 -0.2795
15401SOL    HW247645   4.039   6.035   6.418 -0.2244 -0.5844  2.2284
15402SOL     OW47646   5.433   4.465   6.443  0.1881 -0.6615 -0.2593
15402SOL    HW147647   5.422   4.497   6.353  1.5423 -0.9719 -0.5604
15402SOL    HW247648   5.345   4.445   6.473 -0.6444  2.1406 -0.4961
15403SOL     OW47649   3.817   4.762   6.400 -0.0309 -0.7875  0.3837
15403SOL    HW147650   3.867   4.702   6.455 -0.4270  0.7739  2.5360
15403SOL    HW247651   3.729   4.724   6.397  0.1934 -1.3101  0.0758
15404SOL     OW47652   4.806   5.814   7.198  0.3717 -0.2452 -0.0141
15404SOL    HW147653   4.786   5.743   7.137  1.7716  0.6944 -1.6498
15404SOL    HW247654   4.742   5.882   7.176 -0.5723 -0.7132  1.1406
15405SOL     OW47655   4.678   4.164   6.235 -0.0091  0.0905  0.5369
15405SOL    HW147656   4.619   4.127   6.170  0.9041 -2.7016  1.1333
15405SOL    HW247657   4.761   4.173   6.190  0.2138 -0.3089  0.8538
15406SOL     OW47658   3.792   4.580   7.047  0.0004  0.2710  0.6880
15406SOL    HW147659   3.839   4.630   6.980  0.8596 -0.4998  0.6908
15406SOL    HW247660   3.700   4.607   7.037  0.4246  1.8374  0.7056
15407SOL     OW47661   4.643   5.066   6.495  0.0126  0.2086  0.2225
15407SOL    HW147662   4.570   5.084   6.554 -1.4588  0.5901 -1.6027
15407SOL    HW247663   4.613   4.992   6.442  0.9797  0.3363 -0.5205
15408SOL     OW47664   5.400   4.664   4.980 -0.0987  0.7967  0.7704
15408SOL    HW147665   5.471   4.722   5.007  0.3057  1.1811 -1.0106
15408SOL    HW247666   5.321   4.719   4.987  0.1897  1.3596 -0.2102
15409SOL     OW47667   3.731   4.043   6.468  0.2934 -0.1778 -0.0357
15409SOL    HW147668   3.679   3.964   6.452  0.4832 -0.3420  0.1309
15409SOL    HW247669   3.692   4.081   6.547 -0.8868  0.8426 -1.0637
15410SOL     OW47670   2.648   3.665   7.716 -0.5905 -0.2679  0.4106
15410SOL    HW147671   2.650   3.571   7.697 -0.0230  0.0817 -1.4044
15410SOL    HW247672   2.733   3.697   7.686 -1.6723  1.2037 -1.2533
15411SOL     OW47673   4.255   4.145   5.458 -0.2455 -0.3238 -0.2010
15411SOL    HW147674   4.321   4.214   5.457  1.0768 -1.5356 -2.6525
15411SOL    HW247675   4.176   4.189   5.493  0.3425  2.6136 -2.1669
15412SOL     OW47676   6.117   5.158   5.910 -0.5221 -0.2644  0.8576
15412SOL    HW147677   6.056   5.231   5.901 -1.1248 -0.7504  0.9379
15412SOL    HW247678   6.136   5.131   5.820 -2.1849 -1.5451  0.8634
15413SOL     OW47679   5.645   5.650   5.894 -0.2004  0.0164  0.3866
15413SOL    HW147680   5.623   5.669   5.803 -0.1903 -0.7621  0.2185
15413SOL    HW247681   5.673   5.734   5.930 -0.0251  0.2886 -0.3769
15414SOL     OW47682   5.651   6.157   6.944  0.5798 -0.1847 -0.4002
15414SOL    HW147683   5.713   6.093   6.979 -1.2118 -1.6970  0.1114
15414SOL    HW247684   5.569   6.110   6.937 -0.3370  1.5198 -1.9138
15415SOL     OW47685   4.814   4.189   5.850 -0.5558 -0.2457  0.3542
15415SOL    HW147686   4.840   4.234   5.931 -1.1707  0.1659  0.3341
15415SOL    HW247687   4.791   4.101   5.878  2.3228 -1.1440  0.1459
15416SOL     OW47688   4.626   3.852   5.279  0.4632 -0.6861  0.2127
15416SOL    HW147689   4.567   3.785   5.243 -0.2468  1.0180 -2.0445
15416SOL    HW247690   4.576   3.891   5.350 -0.4448 -0.4415 -0.5395
15417SOL     OW47691   6.280   5.386   7.198  0.3021  0.5517 -0.0757
15417SOL    HW147692   6.310   5.411   7.111  2.8581 -1.7223  0.0085
15417SOL    HW247693   6.190   5.357   7.185  0.2126  1.4264 -1.6828
15418SOL     OW47694   5.098   4.954   6.503  0.2179 -0.0126 -0.1503
15418SOL    HW147695   5.055   5.035   6.473 -0.6145 -0.0675  0.8394
15418SOL    HW247696   5.071   4.888   6.440  0.6142  0.4033 -0.7660
15419SOL     OW47697   6.528   4.881   6.526  0.0824  0.0022 -0.0086
15419SOL    HW147698   6.580   4.813   6.483 -0.1096 -0.4249  0.4268
15419SOL    HW247699   6.459   4.833   6.572 -0.9965  0.5932 -0.9719
15420SOL     OW47700   5.043   6.030   6.095 -0.5252  0.3694  0.2453
15420SOL    HW147701   5.095   5.983   6.160 -1.0751 -0.3251  0.1935
15420SOL    HW247702   4.986   6.087   6.147  1.7832  2.8447  0.2707
15421SOL     OW47703   5.417   3.425   5.792 -0.2085  0.5030  0.2740
15421SOL    HW147704   5.356   3.431   5.866 -1.8095  1.4964 -1.0528
15421SOL    HW247705   5.449   3.515   5.780 -0.4759  0.4928 -0.6176
15422SOL     OW47706   5.587   4.719   7.345 -0.8300 -0.4710  0.2457
15422SOL    HW147707   5.513   4.771   7.378 -0.5221 -0.1432  0.4302
15422SOL    HW247708   5.549   4.633   7.325 -1.1771 -0.4378  0.7393
15423SOL     OW47709   4.349   5.002   5.848 -0.4416  0.2983 -0.3434
15423SOL    HW147710   4.254   5.010   5.850 -0.4263  0.3491  0.4382
15423SOL    HW247711   4.370   4.944   5.921 -0.1432 -2.9448 -2.7399
15424SOL     OW47712   4.247   5.552   6.488 -0.1180  0.2383  0.3514
15424SOL    HW147713   4.271   5.465   6.459 -1.6512 -0.2637  0.4873
15424SOL    HW247714   4.172   5.577   6.433  0.8057  1.8263 -0.2615
15425SOL     OW47715   3.765   5.045   6.500  0.2110  0.4089  0.0491
15425SOL    HW147716   3.799   4.956   6.511  2.6072  1.0598 -1.4629
15425SOL    HW247717   3.678   5.042   6.540  0.8356 -2.1787  1.4475
15426SOL     OW47718   4.646   4.344   5.241  0.5341 -0.0152  0.4037
15426SOL    HW147719   4.664   4.250   5.239 -0.9235 -0.3269  0.8759
15426SOL    HW247720   4.731   4.385   5.224  0.8991 -1.4269 -1.5628
15427SOL     OW47721   5.016   6.122   4.112 -0.2930 -0.2949 -0.1224
15427SOL    HW147722   4.998   6.099   4.021  0.3569 -0.4483 -0.2206
15427SOL    HW247723   4.931   6.148   4.148 -0.1716  2.3674 -1.5079
15428SOL     OW47724   5.896   6.577   7.152 -0.0229 -0.0793  0.4956
15428SOL    HW147725   5.962   6.645   7.138 -0.9034  0.4738 -1.1403
15428SOL    HW247726   5.946   6.495   7.151  0.6390  0.3016 -1.1428
15429SOL     OW47727   5.981   3.957   5.268  0.5135  0.1437 -0.0215
15429SOL    HW147728   5.933   3.891   5.217  0.8004  0.1134 -0.2571
15429SOL    HW247729   5.918   3.988   5.333  1.0898 -2.1915  1.8003
15430SOL     OW47730   5.333   3.919   6.930 -0.1948  0.0753  0.3810
15430SOL    HW147731   5.341   3.828   6.958  0.8376 -0.4318 -1.4139
15430SOL    HW247732   5.350   3.917   6.835 -1.6907  1.9205 -0.0001
15431SOL     OW47733   3.773   2.739   7.054  0.1326  0.2095  0.7593
15431SOL    HW147734   3.799   2.749   6.962 -0.1433 -0.2751  0.6260
15431SOL    HW247735   3.784   2.826   7.092 -2.2001  1.0839 -0.3636
15432SOL     OW47736   4.479   4.463   6.087  0.0673 -0.6082  0.1701
15432SOL    HW147737   4.484   4.418   6.172  0.5167  1.9380  1.5954
15432SOL    HW247738   4.408   4.418   6.041 -1.0316 -1.3337  2.3930
15433SOL     OW47739   4.030   4.518   5.730 -0.5800  0.1434  0.5841
15433SOL    HW147740   3.950   4.550   5.688 -0.8035 -0.5290  0.4956
15433SOL    HW247741   4.003   4.440   5.778  0.3406 -1.0805 -0.8223
15434SOL     OW47742   2.854   4.623   7.006  0.3993 -0.3152  0.2703
15434SOL    HW147743   2.904   4.665   7.076 -0.0843  0.5844  0.1017
15434SOL    HW247744   2.873   4.676   6.929  1.5677 -1.7758 -0.4849
15435SOL     OW47745   5.005   5.214   7.034 -0.6837 -0.3129 -0.1914
15435SOL    HW147746   5.047   5.180   6.955 -0.8073  0.3135 -0.5383
15435SOL    HW247747   5.009   5.142   7.097  0.8259 -0.3087 -0.2446
15436SOL     OW47748   6.565   6.893   6.744 -0.3977  0.5472 -0.2603
15436SOL    HW147749   6.554   6.960   6.677 -1.2986  1.0596  0.3738
15436SOL    HW247750   6.625   6.829   6.705 -0.1247  1.3296 -1.1642
15437SOL     OW47751   5.320   3.859   7.263  0.4745 -0.1653 -0.0295
15437SOL    HW147752   5.304   3.807   7.185 -2.3963  0.0637  0.2769
15437SOL    HW247753   5.284   3.806   7.335  2.2547  0.0041  1.0525
15438SOL     OW47754   6.121   6.976   5.667  0.0270 -0.2830  0.4257
15438SOL    HW147755   6.076   7.044   5.717  0.1626  0.4821 -0.4677
15438SOL    HW247756   6.211   7.008   5.659 -0.1515 -0.0731 -0.8610
15439SOL     OW47757   4.899   4.066   5.625  0.4569  0.3399 -0.5032
15439SOL    HW147758   4.859   4.115   5.554 -2.6321  0.6495  1.2733
15439SOL    HW247759   4.862   4.104   5.705 -0.6774 -3.5382  1.0503
15440SOL     OW47760   4.997   4.187   5.236 -0.0457 -0.2334 -0.2152
15440SOL    HW147761   4.921   4.128   5.237  0.5554 -1.1739  3.1286
15440SOL    HW247762   4.959   4.274   5.228 -1.5168 -0.7123  0.9456
15441SOL     OW47763   4.149   4.088   6.087 -0.1323  0.4051 -0.2659
15441SOL    HW147764   4.108   4.092   6.001  1.2092  1.3347 -0.8931
15441SOL    HW247765   4.127   4.001   6.120 -0.2359 -0.1640 -1.7632
15442SOL     OW47766   4.544   4.858   6.332 -0.0100 -0.0014  0.2390
15442SOL    HW147767   4.456   4.839   6.364 -0.0574  0.8210  0.6155
15442SOL    HW247768   4.597   4.783   6.361 -0.7300 -0.8882 -0.6670
15443SOL     OW47769   3.987   4.720   6.884 -0.1819 -0.5798  0.0554
15443SOL    HW147770   3.977   4.739   6.791  0.8690 -1.5692 -0.2872
15443SOL    HW247771   3.958   4.800   6.928 -1.8365 -0.5205 -1.0518
15444SOL     OW47772   4.458   5.800   6.284  0.3125 -0.0080  0.0754
15444SOL    HW147773   4.522   5.733   6.262  1.4107  0.7633  0.7927
15444SOL    HW247774   4.376   5.768   6.247  1.0784 -1.0810 -0.7724
15445SOL     OW47775   3.550   5.038   4.846 -0.0826 -0.3261  0.4979
15445SOL    HW147776   3.486   5.107   4.864 -0.4348 -0.5747  0.2058
15445SOL    HW247777   3.598   5.027   4.929 -0.0211  0.2707  0.5419
15446SOL     OW47778   3.960   4.406   6.172 -0.2348  0.6273 -0.1509
15446SOL    HW147779   3.892   4.409   6.105  1.3471  0.0644 -1.8917
15446SOL    HW247780   3.945   4.323   6.218 -0.3023  0.1199 -1.0483
15447SOL     OW47781   3.575   3.799   6.704 -0.8519 -0.8705  0.5681
15447SOL    HW147782   3.563   3.866   6.636  0.7256 -0.9186  0.2123
15447SOL    HW247783   3.641   3.740   6.668  0.4920 -0.5547  2.3913
15448SOL     OW47784   5.346   4.565   9.124  0.2737  0.0303 -0.0209
15448SOL    HW147785   5.251   4.573   9.130  0.2524  0.9254 -1.1071
15448SOL    HW247786   5.361   4.526   9.038  0.8921  0.3265 -0.0516
15449SOL     OW47787   5.242   4.431   4.995  0.4526  0.4219 -0.0606
15449SOL    HW147788   5.281   4.510   4.958 -1.5099  0.6288 -1.8916
15449SOL    HW247789   5.166   4.463   5.045  0.4095 -0.2066  0.2800
15450SOL     OW47790   5.717   3.963   7.708  0.2965  0.0623  0.3380
15450SOL    HW147791   5.630   4.001   7.716  0.8121  1.3210  0.2602
15450SOL    HW247792   5.744   3.983   7.618  1.1866  0.8946  0.7711
15451SOL     OW47793   5.227   4.778   9.464  0.3044 -0.4875  0.2916
15451SOL    HW147794   5.233   4.858   9.518  1.1143 -0.5550  0.3139
15451SOL    HW247795   5.243   4.809   9.375  1.3500 -0.7100  0.3817
15452SOL     OW47796   4.421   4.132   5.158 -0.0376  0.5929  0.6120
15452SOL    HW147797   4.393   4.217   5.123 -1.3922 -0.7445 -1.8241
15452SOL    HW247798   4.515   4.129   5.141 -0.1757  1.1758 -0.3208
15453SOL     OW47799   5.787   4.237   7.836 -0.0545 -0.0389  0.3080
15453SOL    HW147800   5.716   4.279   7.885 -0.0247 -0.1514  0.4456
15453SOL    HW247801   5.743   4.171   7.782 -0.2385  0.8655 -0.6968
15454SOL     OW47802   4.565   6.227   6.577  0.3897  0.5137  0.1731
15454SOL    HW147803   4.517   6.157   6.531 -2.6538  1.0681  2.2369
15454SOL    HW247804   4.517   6.307   6.554  1.4954  1.3890  0.8535
15455SOL     OW47805   5.189   4.980   4.366  0.2727  0.1458  0.4120
15455SOL    HW147806   5.109   4.931   4.346  0.7649 -0.4707 -0.0683
15455SOL    HW247807   5.174   5.066   4.327  0.5460 -0.5222 -1.2678
15456SOL     OW47808   3.324   5.357   4.711 -0.1905 -0.1018 -0.1226
15456SOL    HW147809   3.353   5.306   4.786 -0.0189 -0.6204 -0.5391
15456SOL    HW247810   3.389   5.341   4.643 -0.1280  0.6771 -0.2622
15457SOL     OW47811   4.360   5.210   6.119  0.3196  0.0974  1.2541
15457SOL    HW147812   4.270   5.178   6.114  0.3193  0.2581  0.0817
15457SOL    HW247813   4.411   5.145   6.070  0.8758 -0.0662  2.0259
15458SOL     OW47814   5.906   7.057   7.710 -0.9100  0.0913 -0.1155
15458SOL    HW147815   5.814   7.082   7.707 -0.7491  1.1451  1.9903
15458SOL    HW247816   5.948   7.112   7.643 -1.6328  0.4983 -0.2416
15459SOL     OW47817   5.126   4.273   5.683  0.4095  0.0260 -0.3017
15459SOL    HW147818   5.057   4.207   5.682 -0.7500  1.1851  0.3370
15459SOL    HW247819   5.100   4.336   5.615  1.1769  0.1508 -0.4906
15460SOL     OW47820   5.765   5.207   6.243 -0.2126  0.3546 -0.0277
15460SOL    HW147821   5.770   5.130   6.187  0.7689  0.9075 -0.7371
15460SOL    HW247822   5.845   5.204   6.296 -0.7808  0.2230  0.8372
15461SOL     OW47823   2.325   6.016   6.843  0.0705 -0.0177 -0.0521
15461SOL    HW147824   2.414   5.989   6.865  0.2705  2.0957  2.1971
15461SOL    HW247825   2.328   6.034   6.749  2.0672  0.1018 -0.0053
15462SOL     OW47826   5.534   5.907   7.949  0.1323 -0.4590  0.3440
15462SOL    HW147827   5.471   5.954   7.894 -0.1302 -0.2210  0.8359
15462SOL    HW247828   5.490   5.824   7.970  0.3489 -0.6714 -0.0338
15463SOL     OW47829   5.778   4.493   4.059 -0.4872 -0.1836  0.1371
15463SOL    HW147830   5.699   4.440   4.065  0.0315 -0.7951  2.1704
15463SOL    HW247831   5.822   4.480   4.143  0.6642  1.8951 -0.0948
15464SOL     OW47832   4.640   6.700   6.957 -0.5364  0.5665 -0.3673
15464SOL    HW147833   4.688   6.695   7.040  0.2478 -0.3747 -0.8601
15464SOL    HW247834   4.629   6.794   6.942  0.7041  0.7917  0.0225
15465SOL     OW47835   5.148   4.956   6.997  0.6967 -0.1807 -0.0525
15465SOL    HW147836   5.111   4.938   6.911  0.6087  0.4915 -0.1581
15465SOL    HW247837   5.077   4.936   7.058  0.9184 -1.1304 -0.0977
15466SOL     OW47838   4.497   3.691   5.819  0.6763 -0.1572 -0.0843
15466SOL    HW147839   4.577   3.642   5.838  0.2171 -0.2732  1.8337
15466SOL    HW247840   4.453   3.640   5.751  2.2244 -0.0472 -1.2274
15467SOL     OW47841   5.066   6.759   7.468 -0.3292  0.1576  0.2599
15467SOL    HW147842   5.035   6.848   7.452  0.0163  0.1758 -0.3514
15467SOL    HW247843   5.133   6.769   7.536  1.9362  0.8279 -1.9047
15468SOL     OW47844   4.013   4.774   5.973  0.1423  0.0139 -0.1953
15468SOL    HW147845   3.936   4.719   5.959 -0.6697  0.8026  0.9787
15468SOL    HW247846   4.015   4.833   5.898 -2.4094  2.2061  1.2608
15469SOL     OW47847   4.807   5.117   5.593  0.2176 -0.3866 -0.7144
15469SOL    HW147848   4.788   5.100   5.686 -0.0454  1.5373 -0.3827
15469SOL    HW247849   4.722   5.105   5.550 -0.2224  1.0744 -0.3147
15470SOL     OW47850   5.194   3.352   6.415 -0.2136 -0.6224  0.0676
15470SOL    HW147851   5.239   3.412   6.355 -0.5228 -1.2082 -0.7737
15470SOL    HW247852   5.221   3.265   6.385 -0.3086 -0.9212  0.8393
15471SOL     OW47853   4.699   6.440   4.911 -0.0199  0.1691  0.1992
15471SOL    HW147854   4.613   6.430   4.869  0.0756  1.3771 -0.3238
15471SOL    HW247855   4.709   6.535   4.922  0.0779 -0.0838  2.7573
15472SOL     OW47856   5.113   4.830   7.342  0.4729 -0.9050  0.4556
15472SOL    HW147857   5.179   4.811   7.275  1.3272 -0.7977  1.2478
15472SOL    HW247858   5.066   4.906   7.309  1.7021 -0.0879  0.5380
15473SOL     OW47859   5.239   4.119   7.236 -1.0469 -0.2768 -0.4402
15473SOL    HW147860   5.245   4.024   7.246 -0.9562 -0.2830 -0.5467
15473SOL    HW247861   5.155   4.134   7.194 -1.0202 -0.3166 -0.5078
15474SOL     OW47862   4.552   4.970   4.472 -0.1127 -0.3470  0.5543
15474SOL    HW147863   4.587   5.051   4.437  0.9757 -0.4759  1.3191
15474SOL    HW247864   4.563   4.906   4.401 -1.1440  0.1914 -0.1147
15475SOL     OW47865   4.783   6.017   5.726 -0.2413 -0.5514  0.1905
15475SOL    HW147866   4.830   5.944   5.764 -1.1320 -1.0170  0.4276
15475SOL    HW247867   4.822   6.095   5.767  0.6970 -0.8823 -0.0560
15476SOL     OW47868   6.129   4.673   8.130 -0.3342 -0.2696  0.3615
15476SOL    HW147869   6.071   4.698   8.058  0.4219  2.3635  0.5294
15476SOL    HW247870   6.170   4.592   8.101  0.1670  0.8355 -2.4012
15477SOL     OW47871   4.924   5.930   7.664 -0.6148  0.1116 -0.5425
15477SOL    HW147872   4.868   5.873   7.611 -1.1274  0.1113 -0.0119
15477SOL    HW247873   5.013   5.908   7.637 -0.8377 -0.4347 -0.8536
15478SOL     OW47874   5.121   4.652   6.225 -0.2681  0.8444  0.0981
15478SOL    HW147875   5.061   4.703   6.280  0.5585  1.5635  0.3467
15478SOL    HW247876   5.064   4.589   6.180 -0.9769  0.3638  1.6192
15479SOL     OW47877   4.473   4.560   6.518  0.4146  0.1022 -0.0071
15479SOL    HW147878   4.456   4.483   6.464 -1.1567  1.5241 -1.6737
15479SOL    HW247879   4.542   4.608   6.472 -0.5863  1.0702 -0.5703
15480SOL     OW47880   5.326   3.761   7.623  0.0457 -0.6415 -0.1977
15480SOL    HW147881   5.353   3.729   7.709 -0.0386 -1.2582 -0.3957
15480SOL    HW247882   5.245   3.810   7.640  0.1478 -0.5721  0.1021
15481SOL     OW47883   5.681   4.988   6.899  0.4042  0.2393 -0.4381
15481SOL    HW147884   5.767   4.962   6.934  0.1113 -0.7690 -0.4493
15481SOL    HW247885   5.634   5.022   6.976  1.2096  1.9217 -0.6458
15482SOL     OW47886   4.007   4.902   6.631  0.2323 -0.2777 -0.3130
15482SOL    HW147887   4.014   4.893   6.536 -0.7940  1.8934 -0.6657
15482SOL    HW247888   4.097   4.903   6.662  0.5747 -0.9762 -1.2604
15483SOL     OW47889   5.963   4.648   4.961 -0.2184 -0.5195 -0.1540
15483SOL    HW147890   5.932   4.561   4.935 -0.8218 -0.4976  0.4527
15483SOL    HW247891   5.909   4.671   5.037 -0.8493  0.8633 -0.9804
15484SOL     OW47892   6.659   5.442   6.645 -0.2708  0.3614 -0.1579
15484SOL    HW147893   6.719   5.399   6.583  0.3382  1.8984 -0.6720
15484SOL    HW247894   6.649   5.531   6.611  0.3576  1.3665  2.1452
15485SOL     OW47895   2.833   4.980   6.554  0.0842 -0.2151 -0.2024
15485SOL    HW147896   2.806   5.018   6.471  1.5381  1.1287 -0.0889
15485SOL    HW247897   2.880   4.900   6.530 -1.2773 -0.9624 -0.5262
15486SOL     OW47898   5.834   3.089   6.706  0.3243  0.5467 -0.7178
15486SOL    HW147899   5.777   3.015   6.726  0.6412  0.5661  0.3683
15486SOL    HW247900   5.845   3.134   6.791  3.6722 -0.6863 -0.3314
15487SOL     OW47901   5.241   4.149   3.734 -0.9547  0.0641  0.2065
15487SOL    HW147902   5.177   4.210   3.770 -0.8503 -0.4768  1.3546
15487SOL    HW247903   5.320   4.162   3.787 -1.0394 -1.2969  0.7028
15488SOL     OW47904   5.380   5.253   6.311 -0.3711  0.6586 -0.3869
15488SOL    HW147905   5.468   5.279   6.339  0.3213 -0.7228 -1.1509
15488SOL    HW247906   5.385   5.253   6.216 -1.3445  0.9953 -0.4397
15489SOL     OW47907   4.228   4.199   6.347 -0.0021  0.2187 -0.6045
15489SOL    HW147908   4.173   4.276   6.362 -1.8836 -1.4574  2.0506
15489SOL    HW247909   4.211   4.174   6.257 -1.9561  1.0260 -0.5053
15490SOL     OW47910   5.126   2.958   6.746 -0.3635 -0.1730  0.4455
15490SOL    HW147911   5.122   2.959   6.841 -1.2181  0.2492  0.4123
15490SOL    HW247912   5.035   2.954   6.717 -0.1308 -0.0134 -0.3594
15491SOL     OW47913   4.285   4.799   6.034  0.0269 -0.1927 -0.3143
15491SOL    HW147914   4.196   4.768   6.020  0.0516 -0.3638 -0.0917
15491SOL    HW247915   4.329   4.727   6.079  0.0343  0.2249  0.3569
15492SOL     OW47916   4.627   6.179   6.856 -0.4126 -1.1107 -0.1166
15492SOL    HW147917   4.600   6.252   6.911  1.5403 -1.1448  0.9531
15492SOL    HW247918   4.577   6.190   6.775 -0.1291  1.4261 -0.0089
15493SOL     OW47919   5.758   3.864   5.625 -0.7191  0.0146 -0.2141
15493SOL    HW147920   5.769   3.928   5.555 -2.0564 -0.5318 -0.9577
15493SOL    HW247921   5.677   3.819   5.604  0.1091 -1.8396  0.3606
15494SOL     OW47922   4.892   3.705   6.924  0.1669  0.3365  0.0600
15494SOL    HW147923   4.937   3.707   7.009 -0.4331  1.6137  0.3741
15494SOL    HW247924   4.802   3.732   6.944  0.0338  0.7121 -0.9849
15495SOL     OW47925   5.944   6.094   5.294  0.1393  0.1086 -0.9733
15495SOL    HW147926   5.907   6.058   5.213  0.0873  0.6627 -1.2015
15495SOL    HW247927   5.938   6.022   5.357 -0.6531 -0.0380 -1.2070
15496SOL     OW47928   4.929   4.903   7.774 -0.0972 -0.5207  0.2682
15496SOL    HW147929   4.873   4.947   7.839  0.3657 -0.5221  0.6776
15496SOL    HW247930   5.016   4.904   7.814  0.4191  0.4302 -0.8130
15497SOL     OW47931   5.181   5.603   7.345  0.1300  0.3572 -0.1913
15497SOL    HW147932   5.255   5.664   7.344  1.8960 -1.6743  0.1475
15497SOL    HW247933   5.157   5.594   7.253  0.8721  0.4102 -0.4009
15498SOL     OW47934   3.407   4.169  10.870  0.3554 -0.0319  0.2150
15498SOL    HW147935   3.478   4.111  10.898  0.7691 -0.1008 -0.9305
15498SOL    HW247936   3.329   4.115  10.872  0.7095 -0.5992 -0.6605
15499SOL     OW47937   6.264   4.377   8.777 -0.0494 -0.1035 -0.0645
15499SOL    HW147938   6.221   4.405   8.858 -0.7509  0.2663 -0.5565
15499SOL    HW247939   6.253   4.282   8.774 -0.3932 -0.0657  0.0592
15500SOL     OW47940   6.356   5.453  10.188 -0.1998  0.0167  0.9844
15500SOL    HW147941   6.445   5.426  10.167 -1.0528 -1.5651 -0.9050
15500SOL    HW247942   6.355   5.547  10.170  0.7203 -0.2153 -0.4143
15501SOL     OW47943   4.024   4.237   9.057  0.3733 -0.2722  0.4196
15501SOL    HW147944   3.997   4.303   8.993 -0.8830 -2.7873 -1.8403
15501SOL    HW247945   4.087   4.182   9.011 -0.8221 -2.3720  1.1153
15502SOL     OW47946   4.437   3.492   8.560  0.7305 -0.0431  0.5219
15502SOL    HW147947   4.498   3.419   8.555 -0.5389 -1.1269  0.5829
15502SOL    HW247948   4.363   3.466   8.507  1.7048  2.7072 -2.5226
15503SOL     OW47949   2.543   4.950   8.186  0.8547 -0.3256 -0.1581
15503SOL    HW147950   2.449   4.955   8.203  0.7646 -2.4505  0.2863
15503SOL    HW247951   2.554   4.873   8.131  2.2632  0.4036 -0.9706
15504SOL     OW47952   4.446   6.080   8.478  0.6339 -0.0092 -0.3950
15504SOL    HW147953   4.377   6.107   8.538  0.3222  0.2404 -0.8574
15504SOL    HW247954   4.485   6.163   8.448  0.1663 -0.0967 -1.2560
15505SOL     OW47955   2.031   3.270   8.457 -0.0176 -0.0338  0.3489
15505SOL    HW147956   1.995   3.348   8.413 -1.4857 -0.9330 -0.1208
15505SOL    HW247957   1.984   3.266   8.540  0.6958  0.0510  0.7683
15506SOL     OW47958   4.021   5.231   9.912 -0.3997 -0.3631 -0.4111
15506SOL    HW147959   3.977   5.199   9.833  0.2604  0.3538 -1.0894
15506SOL    HW247960   3.952   5.275   9.962 -0.8362 -0.8828 -0.5429
15507SOL     OW47961   7.110   4.597   9.123  0.1647 -0.2498  0.5699
15507SOL    HW147962   7.061   4.674   9.094 -1.0259 -1.7451 -1.7614
15507SOL    HW247963   7.171   4.630   9.189 -1.8555  2.2494  1.3324
15508SOL     OW47964   5.699   5.540   7.462  0.1610  0.6895  0.1024
15508SOL    HW147965   5.681   5.453   7.427  3.6145 -1.0542  2.1033
15508SOL    HW247966   5.714   5.595   7.385 -0.3108 -0.9450 -1.1959
15509SOL     OW47967   3.449   5.214   7.653 -0.0200 -0.2240 -0.0501
15509SOL    HW147968   3.465   5.138   7.709 -0.3939 -0.5694 -0.4037
15509SOL    HW247969   3.536   5.247   7.631  0.1285  0.0168  0.8640
15510SOL     OW47970   5.114   2.449   7.108  0.3703 -0.2006 -0.1172
15510SOL    HW147971   5.102   2.359   7.138  1.0509 -0.5996 -0.9707
15510SOL    HW247972   5.082   2.503   7.179  0.3533 -1.1209  0.5926
15511SOL     OW47973   5.684   5.181   7.198 -0.2370 -0.0005 -0.2612
15511SOL    HW147974   5.619   5.251   7.206 -0.9547 -0.6763  0.0231
15511SOL    HW247975   5.665   5.123   7.273 -1.3033 -1.8114 -1.8355
15512SOL     OW47976   3.297   4.221   9.619 -0.1827 -0.1698  0.0001
15512SOL    HW147977   3.265   4.131   9.605 -0.5388  0.0295 -0.5084
15512SOL    HW247978   3.385   4.221   9.581  0.5281 -0.7742  1.5729
15513SOL     OW47979   6.069   5.700   7.989 -0.0544  0.3860 -0.3082
15513SOL    HW147980   5.996   5.665   7.938 -1.7696  1.7407  1.1021
15513SOL    HW247981   6.061   5.795   7.979  2.0434  0.5601 -0.7716
15514SOL     OW47982   4.452   3.382   7.687 -0.5459 -0.0785 -0.1155
15514SOL    HW147983   4.430   3.462   7.639  1.2305 -0.7635 -2.2512
15514SOL    HW247984   4.547   3.386   7.696 -0.6845 -0.6410  2.3214
15515SOL     OW47985   5.027   3.973   6.934  0.3752  0.2710 -0.0699
15515SOL    HW147986   5.119   3.961   6.957 -0.1047 -1.5586  1.0443
15515SOL    HW247987   5.007   3.900   6.876 -0.4785  0.4777 -0.0448
15516SOL     OW47988   5.503   5.634   9.173 -0.7079  0.0581  0.7020
15516SOL    HW147989   5.442   5.565   9.198  0.1513 -0.6707  0.8313
15516SOL    HW247990   5.589   5.592   9.172 -0.3534  0.7616 -0.7162
15517SOL     OW47991   4.134   4.156   9.526  0.0706 -0.6434 -0.6404
15517SOL    HW147992   4.120   4.112   9.442  0.1334  0.7538 -1.4074
15517SOL    HW247993   4.139   4.249   9.504  0.4361 -0.2782  0.8757
15518SOL     OW47994   6.200   7.054   7.995  0.6035  0.0735 -0.6810
15518SOL    HW147995   6.135   7.118   8.025  1.1652  0.4288 -0.1987
15518SOL    HW247996   6.184   6.977   8.049 -0.3964 -0.3848 -1.5985
15519SOL     OW47997   3.746   5.241   9.427  0.2301 -0.4201 -0.1204
15519SOL    HW147998   3.695   5.182   9.372  1.6887 -1.6387 -0.2304
15519SOL    HW247999   3.816   5.272   9.369  0.7193 -0.2684  0.5500
15520SOL     OW48000   4.939   3.442   8.274 -0.3928 -0.4859  0.2219
15520SOL    HW148001   4.851   3.417   8.303 -0.7594  0.5359  0.0237
15520SOL    HW248002   4.934   3.536   8.261 -0.0092 -0.7601 -2.4053
15521SOL     OW48003   6.232   3.411   8.458  0.7676 -0.3638  0.1778
15521SOL    HW148004   6.217   3.430   8.365  1.0962 -0.5821  0.0797
15521SOL    HW248005   6.148   3.376   8.488  0.9451 -1.2513 -0.2902
15522SOL     OW48006   4.233   4.186   8.477  0.3982  0.0781  0.8377
15522SOL    HW148007   4.142   4.216   8.473  0.2697 -0.4653 -1.2492
15522SOL    HW248008   4.237   4.111   8.418  1.9030 -0.7930  1.9616
15523SOL     OW48009   5.115   3.302   8.119  0.5500  0.2943 -0.4968
15523SOL    HW148010   5.057   3.345   8.182 -0.3346 -1.8890  0.2476
15523SOL    HW248011   5.058   3.281   8.045  0.7618 -0.4249 -0.4578
15524SOL     OW48012   4.869   5.063   9.210 -0.0059  0.1980 -0.9362
15524SOL    HW148013   4.809   5.068   9.135  0.0537 -0.5302 -1.0430
15524SOL    HW248014   4.849   4.978   9.251 -1.6083  1.5243  1.2456
15525SOL     OW48015   4.553   3.750   8.343  0.1025  0.2046  0.0146
15525SOL    HW148016   4.559   3.655   8.359 -0.3047  0.1156 -0.3307
15525SOL    HW248017   4.478   3.759   8.284  1.0587  0.5900 -1.1783
15526SOL     OW48018   2.452   5.827   8.702 -0.2619  0.1220 -0.2967
15526SOL    HW148019   2.458   5.731   8.700 -0.7422  0.0863 -1.8733
15526SOL    HW248020   2.362   5.845   8.674  0.7257  1.0619 -3.2441
15527SOL     OW48021   5.951   4.217  10.323  0.0467 -0.0001 -0.5728
15527SOL    HW148022   5.871   4.164  10.328 -1.2540  1.9247  0.9021
15527SOL    HW248023   5.921   4.301  10.289  1.7089  0.3941 -1.1596
15528SOL     OW48024   5.309   5.837   8.753  0.1229  0.5434 -0.1964
15528SOL    HW148025   5.371   5.805   8.819 -0.0595 -2.1392 -1.1750
15528SOL    HW248026   5.364   5.877   8.686  0.9390 -1.7686 -1.0363
15529SOL     OW48027   4.239   3.384   8.365 -0.3067  0.0415  0.8256
15529SOL    HW148028   4.212   3.294   8.378 -0.7809  0.2093  1.0304
15529SOL    HW248029   4.165   3.426   8.322 -0.2284  0.4164  1.0446
15530SOL     OW48030   5.642   4.222   6.197 -0.0217  0.2972  0.0099
15530SOL    HW148031   5.553   4.205   6.226 -0.4318 -0.8284 -1.7212
15530SOL    HW248032   5.633   4.257   6.108  1.2290  0.8527  0.0745
15531SOL     OW48033   5.197   4.297   8.735  0.3282  0.4059  0.3670
15531SOL    HW148034   5.204   4.334   8.646  0.0556 -0.5839 -0.0792
15531SOL    HW248035   5.108   4.263   8.740  0.5703 -0.1859  0.7668
15532SOL     OW48036   5.896   3.804   8.861  0.2438 -0.9371 -0.3526
15532SOL    HW148037   5.846   3.885   8.853 -2.1094 -2.3126 -0.4552
15532SOL    HW248038   5.961   3.823   8.928 -1.1044  0.6450  0.5932
15533SOL     OW48039   4.097   4.638   9.293  0.0440 -0.2962 -0.1536
15533SOL    HW148040   4.170   4.693   9.324  0.2671 -1.1655  0.9228
15533SOL    HW248041   4.122   4.614   9.203  0.9448 -0.3386  0.0998
15534SOL     OW48042   5.452   4.673   9.692 -0.0042 -0.0683 -0.1172
15534SOL    HW148043   5.439   4.592   9.741 -3.6571 -0.2830 -1.1766
15534SOL    HW248044   5.411   4.741   9.745  0.6300  0.6336 -0.5006
15535SOL     OW48045   4.125   6.323   9.814 -0.0835  0.8526 -0.1404
15535SOL    HW148046   4.077   6.267   9.752 -0.9588  0.6395  0.7086
15535SOL    HW248047   4.057   6.361   9.869  0.7533  0.2422  1.3552
15536SOL     OW48048   6.285   4.979   6.930  0.1384  0.2426  0.3603
15536SOL    HW148049   6.314   5.033   7.003 -0.6450 -1.2533  1.8399
15536SOL    HW248050   6.289   4.890   6.963  0.3461 -0.5372 -1.6534
15537SOL     OW48051   4.557   5.274   7.691 -0.1028 -0.4576 -0.1350
15537SOL    HW148052   4.602   5.193   7.666  1.5449  0.0052  1.1716
15537SOL    HW248053   4.491   5.286   7.623  0.4599 -2.2170 -1.0631
15538SOL     OW48054   4.628   3.887   8.554  0.2485  0.3955  0.1635
15538SOL    HW148055   4.597   3.843   8.475  1.7581 -0.1933 -0.1272
15538SOL    HW248056   4.548   3.910   8.601 -0.6401 -0.4976 -0.8547
15539SOL     OW48057   4.620   5.236   6.788  0.2373 -0.4035  0.1422
15539SOL    HW148058   4.559   5.171   6.753 -1.3195 -0.2812  2.3689
15539SOL    HW248059   4.591   5.319   6.751  0.3536 -0.6045 -0.4025
15540SOL     OW48060   4.005   4.116   9.980  0.1686 -0.1079  0.6576
15540SOL    HW148061   4.060   4.066   9.920  0.8281 -0.8750  1.8664
15540SOL    HW248062   3.931   4.058   9.999  0.3753 -0.1906  1.2118
15541SOL     OW48063   4.762   4.341   8.948  0.3950 -0.2488 -0.5629
15541SOL    HW148064   4.707   4.312   8.875 -1.0956 -2.1900  1.2087
15541SOL    HW248065   4.699   4.363   9.017  1.7552  1.6230  0.1598
15542SOL     OW48066   4.405   4.537   8.577 -0.0562  0.3267  0.1870
15542SOL    HW148067   4.429   4.464   8.519 -0.5141  0.6716 -0.4437
15542SOL    HW248068   4.460   4.609   8.549  0.5769  0.1615  0.9791
15543SOL     OW48069   4.439   3.489   8.243 -0.3684 -0.0005  0.3443
15543SOL    HW148070   4.359   3.470   8.292 -2.4336  2.8201 -1.6240
15543SOL    HW248071   4.409   3.539   8.167  3.1747  0.0337 -1.2149
15544SOL     OW48072   5.588   4.822   7.920  0.1282 -0.5502  0.0019
15544SOL    HW148073   5.576   4.739   7.875  0.6701 -1.0271  0.7078
15544SOL    HW248074   5.636   4.799   8.000  2.6428  0.7417 -0.9991
15545SOL     OW48075   3.772   2.976   7.578  0.3477  0.1991 -0.0200
15545SOL    HW148076   3.745   3.065   7.554  1.2814  1.1859  2.2118
15545SOL    HW248077   3.862   2.969   7.545  0.0840 -0.1187 -0.6674
15546SOL     OW48078   4.268   3.756   8.658 -0.1079  0.3254 -0.7547
15546SOL    HW148079   4.311   3.678   8.622 -0.1431 -0.8635  1.5685
15546SOL    HW248080   4.245   3.731   8.747 -0.5122  2.9040 -0.0660
15547SOL     OW48081   3.892   5.999   9.156 -0.3384  0.0751 -0.0336
15547SOL    HW148082   3.984   5.981   9.177 -1.0810 -3.8960  0.6735
15547SOL    HW248083   3.879   5.959   9.070 -1.5443 -0.0691  0.1988
15548SOL     OW48084   5.023   6.107   8.143 -0.2275 -0.5554  0.0798
15548SOL    HW148085   4.992   6.039   8.202  0.6750 -0.7902  0.3091
15548SOL    HW248086   5.018   6.068   8.056 -1.3086 -0.3030  0.0147
15549SOL     OW48087   3.977   3.749   8.277 -0.0279  0.5313 -0.3168
15549SOL    HW148088   3.883   3.755   8.293 -0.2531 -0.9179 -0.9527
15549SOL    HW248089   3.995   3.655   8.272  1.4454  0.7805 -0.2950
15550SOL     OW48090   4.636   3.156   7.618 -0.1999  0.1101  0.0709
15550SOL    HW148091   4.549   3.143   7.580 -0.6047  0.4260  0.8557
15550SOL    HW248092   4.647   3.251   7.620  0.9474  0.0509 -1.7120
15551SOL     OW48093   6.412   5.054  10.075 -0.1398  0.8247  0.2557
15551SOL    HW148094   6.355   5.130  10.088 -0.7936  0.3826  0.0170
15551SOL    HW248095   6.374   5.009  10.000  0.0040  0.0435  0.6490
15552SOL     OW48096   4.673   3.489   7.952 -0.2807  0.0288 -0.1595
15552SOL    HW148097   4.668   3.481   7.857 -1.0275 -2.9167  0.0086
15552SOL    HW248098   4.680   3.583   7.969  0.8235  0.5724 -3.1229
15553SOL     OW48099   6.360   4.193   8.508 -0.2690 -0.0950  0.0854
15553SOL    HW148100   6.360   4.288   8.501 -0.4246 -0.0712  0.4145
15553SOL    HW248101   6.441   4.166   8.464  0.3458  0.2677  0.9701
15554SOL     OW48102   4.290   4.951   7.508 -0.3893 -0.1385 -0.1370
15554SOL    HW148103   4.238   4.960   7.428 -2.5588 -2.6234  0.8405
15554SOL    HW248104   4.250   4.878   7.555  1.3979  0.5884  2.8064
15555SOL     OW48105   7.326   5.845   9.038  0.5750  0.1903  0.3962
15555SOL    HW148106   7.310   5.809   9.125  1.2225 -0.1967  0.3674
15555SOL    HW248107   7.374   5.775   8.992 -1.2115 -0.3056 -0.8404
15556SOL     OW48108   5.432   3.521   9.953  0.1604  0.1567  0.0884
15556SOL    HW148109   5.502   3.540  10.015  2.2477 -0.0415 -2.0868
15556SOL    HW248110   5.364   3.479  10.006  2.1774 -0.7927  2.0921
15557SOL     OW48111   4.360   4.009   8.946  0.6939 -0.0055  0.2413
15557SOL    HW148112   4.274   4.049   8.930  0.5718  0.0128  0.9142
15557SOL    HW248113   4.394   3.991   8.859  0.2041  0.4113 -0.0453
15558SOL     OW48114   4.222   7.169   9.244 -0.2796  0.0556 -0.2771
15558SOL    HW148115   4.143   7.127   9.277 -0.4281 -0.5322 -1.3338
15558SOL    HW248116   4.279   7.097   9.218  0.4928  0.4771  0.1939
15559SOL     OW48117   4.918   5.290   8.513 -0.1147 -0.0094  0.0906
15559SOL    HW148118   4.918   5.381   8.482  1.5102  0.0780  0.2620
15559SOL    HW248119   4.953   5.295   8.602 -0.3403 -0.7708  0.2308
15560SOL     OW48120   5.483   4.683   8.532 -0.4459  0.0067  0.3097
15560SOL    HW148121   5.567   4.703   8.490  0.5552  2.8068  3.2650
15560SOL    HW248122   5.491   4.592   8.560  1.2867 -0.0006 -0.1004
15561SOL     OW48123   4.187   4.519   9.054 -0.1084 -0.0433  0.3292
15561SOL    HW148124   4.109   4.550   9.008 -0.1259  0.4504  0.6880
15561SOL    HW248125   4.241   4.480   8.984 -1.0922 -1.2916  0.2275
15562SOL     OW48126   3.630   5.545   8.525  0.2054  0.1963 -0.4554
15562SOL    HW148127   3.719   5.577   8.541 -0.1071  1.2211 -0.6475
15562SOL    HW248128   3.576   5.588   8.592 -0.2454  0.1667 -0.7899
15563SOL     OW48129   5.821   2.903  10.341 -0.0657  0.1869  0.0992
15563SOL    HW148130   5.739   2.902  10.390  1.2276 -1.5837  2.4429
15563SOL    HW248131   5.796   2.882  10.251 -2.2896  1.0723  0.4645
15564SOL     OW48132   2.920   4.780  11.126  0.1159  0.1677 -0.1513
15564SOL    HW148133   2.921   4.766  11.221 -2.4545  1.3448  0.1471
15564SOL    HW248134   3.008   4.755  11.097  1.3238  0.7493  2.6581
15565SOL     OW48135   5.308   4.872   8.506 -0.1458 -0.4598  0.4628
15565SOL    HW148136   5.225   4.823   8.503  0.8231 -2.1154 -0.2610
15565SOL    HW248137   5.376   4.806   8.497  1.4402  0.4757  4.0038
15566SOL     OW48138   4.947   4.239   8.771  0.0798  0.6518  0.0620
15566SOL    HW148139   4.897   4.308   8.815 -1.4848 -0.2645 -0.1971
15566SOL    HW248140   4.882   4.192   8.719  1.4373  0.1192 -1.2247
15567SOL     OW48141   5.041   4.417   8.495 -0.6297  0.1224 -0.2925
15567SOL    HW148142   4.952   4.423   8.528 -0.5194  0.6204 -0.0751
15567SOL    HW248143   5.042   4.471   8.416 -0.2174  1.1265  0.3849
15568SOL     OW48144   3.964   4.710   8.897 -0.1307  0.1228  0.3165
15568SOL    HW148145   3.892   4.753   8.944 -1.0343 -0.8509 -0.1310
15568SOL    HW248146   4.022   4.782   8.871 -1.0633  0.9606  0.4833
15569SOL     OW48147   4.991   4.118   8.325 -0.7167  0.1071 -0.2974
15569SOL    HW148148   4.937   4.195   8.310 -1.6299 -0.4926 -0.1237
15569SOL    HW248149   4.990   4.072   8.241  0.2018  0.4936 -0.5410
15570SOL     OW48150   4.100   3.769  10.500  0.2148 -1.1401  0.0848
15570SOL    HW148151   4.059   3.683  10.494 -0.1004 -0.9639 -0.3501
15570SOL    HW248152   4.115   3.795  10.409 -0.2054 -0.4953  0.1948
15571SOL     OW48153   4.097   4.320  10.141 -0.2649  0.2275 -0.1541
15571SOL    HW148154   4.037   4.252  10.109 -0.6235  0.3484  0.2366
15571SOL    HW248155   4.177   4.308  10.090  0.3683 -1.7011  1.1741
15572SOL     OW48156   5.777   6.373   8.327 -0.5549 -0.3111  0.1400
15572SOL    HW148157   5.785   6.448   8.387 -0.4882 -1.3518  1.4718
15572SOL    HW248158   5.760   6.298   8.384  1.7631 -1.7579 -0.9352
15573SOL     OW48159   3.841   2.822   8.143 -0.5021  0.0588 -0.5537
15573SOL    HW148160   3.807   2.898   8.096  1.6185  0.6743 -1.1891
15573SOL    HW248161   3.892   2.858   8.215 -0.5961 -0.8061 -0.0323
15574SOL     OW48162   5.516   3.554   8.268 -0.5374 -0.6516 -0.7360
15574SOL    HW148163   5.425   3.574   8.287 -0.5097 -0.9853 -0.2139
15574SOL    HW248164   5.533   3.593   8.182 -2.1445 -3.4499 -2.4891
15575SOL     OW48165   6.781   3.708   7.928 -0.2259 -0.3735 -0.5855
15575SOL    HW148166   6.866   3.693   7.887 -0.8090 -1.7916 -1.3909
15575SOL    HW248167   6.755   3.621   7.961 -0.9597  0.2142  0.4478
15576SOL     OW48168   4.162   4.969   9.090  0.1299  0.1572  0.5331
15576SOL    HW148169   4.181   4.902   9.155 -0.2495  1.1103  1.6672
15576SOL    HW248170   4.188   4.930   9.006  1.2552 -0.8590  1.3206
15577SOL     OW48171   4.223   6.680   8.746  0.4116  0.2675 -0.3168
15577SOL    HW148172   4.201   6.587   8.753  0.8845  0.1537 -0.3074
15577SOL    HW248173   4.158   6.724   8.801  0.6263 -0.1251  0.2646
15578SOL     OW48174   3.902   4.455   8.951  0.7564  0.2344 -0.4760
15578SOL    HW148175   3.846   4.406   8.892  1.5251 -0.3693 -0.7288
15578SOL    HW248176   3.910   4.542   8.911  1.9469 -0.4140 -1.7422
15579SOL     OW48177   5.311   3.488   6.224  0.8063 -0.5859  0.0201
15579SOL    HW148178   5.238   3.521   6.172  0.9258  1.9028  1.3004
15579SOL    HW248179   5.382   3.475   6.160 -0.0192 -0.7705 -0.8878
15580SOL     OW48180   5.160   4.898   7.993  0.1633  0.0758  0.1549
15580SOL    HW148181   5.185   4.830   8.055  1.6776  0.5309  0.0725
15580SOL    HW248182   5.087   4.943   8.035 -0.4266 -1.1524  0.5019
15581SOL     OW48183   5.509   4.383   9.349  0.9013 -0.1133  0.5410
15581SOL    HW148184   5.484   4.475   9.351 -0.2194 -0.3760 -0.2157
15581SOL    HW248185   5.464   4.348   9.272 -1.8653 -2.1630  2.8818
15582SOL     OW48186   4.179   4.004   9.308  0.0222  0.3489 -0.3185
15582SOL    HW148187   4.247   3.939   9.323 -0.0817 -0.4409 -2.7842
15582SOL    HW248188   4.100   3.952   9.292  0.0461  0.9504 -2.8678
15583SOL     OW48189   4.940   4.046   8.960 -0.4447 -0.5201  0.2978
15583SOL    HW148190   4.866   3.991   8.934 -0.2544 -0.6108 -0.0508
15583SOL    HW248191   4.936   4.122   8.902 -0.1947 -0.5821  0.2000
15584SOL     OW48192   2.639   4.426   8.768  0.1963 -0.4118  0.3679
15584SOL    HW148193   2.656   4.520   8.759  1.6911 -0.4204  2.3071
15584SOL    HW248194   2.713   4.384   8.725 -0.1820 -0.6984 -0.0109
15585SOL     OW48195   3.578   5.689   7.318  0.5013 -0.1254  0.1409
15585SOL    HW148196   3.525   5.609   7.320  1.9063 -1.0787  1.9659
15585SOL    HW248197   3.549   5.738   7.395  0.1803  0.7837 -0.5482
15586SOL     OW48198   5.358   2.482   7.885 -0.5460 -0.7500  0.0223
15586SOL    HW148199   5.383   2.471   7.794 -0.4751 -0.7524  0.0425
15586SOL    HW248200   5.266   2.456   7.888 -1.2982  1.6177 -0.5469
15587SOL     OW48201   3.974   5.922   9.513 -0.2035 -0.1713 -0.3664
15587SOL    HW148202   3.983   5.838   9.558  0.1449  0.8351  1.5781
15587SOL    HW248203   4.041   5.920   9.445 -0.3409 -1.5470 -0.4816
15588SOL     OW48204   3.673   6.461  11.066  0.1330 -0.0783  0.1326
15588SOL    HW148205   3.591   6.498  11.098 -0.5567 -1.3142 -0.1308
15588SOL    HW248206   3.726   6.537  11.042 -0.0384  0.8219  2.4007
15589SOL     OW48207   6.026   7.987   7.859  0.1394  0.7309 -1.1004
15589SOL    HW148208   6.083   7.951   7.791  0.9840  0.8127 -0.4524
15589SOL    HW248209   6.071   7.966   7.941 -2.9812 -3.5378 -0.0995
15590SOL     OW48210   3.305   6.095   9.360  0.2388  0.1408 -0.0625
15590SOL    HW148211   3.256   6.069   9.439  1.9030 -0.5705  0.7875
15590SOL    HW248212   3.248   6.069   9.288 -1.1608  0.4400  0.8848
15591SOL     OW48213   5.179   3.793   9.676  0.2476 -0.0210  0.2597
15591SOL    HW148214   5.129   3.856   9.624  0.0750 -1.2052 -1.0591
15591SOL    HW248215   5.259   3.841   9.701 -0.8679  1.4391  1.2291
15592SOL     OW48216   4.483   6.316  10.106  0.2987 -0.1822 -0.9036
15592SOL    HW148217   4.438   6.268  10.037 -0.8837  0.3792 -0.5338
15592SOL    HW248218   4.458   6.271  10.187 -0.6463  0.8929 -0.5752
15593SOL     OW48219   3.570   4.752   9.433 -0.3760 -0.8246 -0.5462
15593SOL    HW148220   3.662   4.727   9.428 -0.0153 -0.1318  1.7134
15593SOL    HW248221   3.522   4.669   9.431  0.3045 -1.2173 -1.2034
15594SOL     OW48222   4.714   4.193   8.328 -0.1465  0.3788 -0.2272
15594SOL    HW148223   4.772   4.235   8.264 -2.6531  0.4606 -2.6406
15594SOL    HW248224   4.700   4.105   8.293 -1.5694  0.4191  0.1797
15595SOL     OW48225   4.877   5.950   9.796  0.3395  0.4399 -0.0805
15595SOL    HW148226   4.835   6.034   9.814 -0.2252  0.3443 -0.8905
15595SOL    HW248227   4.831   5.915   9.720  2.2046  0.5785 -1.3552
15596SOL     OW48228   4.699   5.733   8.724  0.4406 -0.0811  0.1329
15596SOL    HW148229   4.605   5.750   8.730  0.4019 -0.4749  0.7564
15596SOL    HW248230   4.705   5.641   8.698  0.6512 -0.3615  1.1425
15597SOL     OW48231   3.571   4.446  12.238 -0.6508 -0.2799 -0.2396
15597SOL    HW148232   3.533   4.432  12.152 -0.3978 -1.6156 -0.1607
15597SOL    HW248233   3.583   4.541  12.244 -0.3125 -0.1880 -1.8272
15598SOL     OW48234   5.202   4.537   7.594  0.7721 -0.6255 -0.5386
15598SOL    HW148235   5.167   4.472   7.534  1.7785  1.2328 -3.3666
15598SOL    HW248236   5.140   4.610   7.590  1.0320 -0.3307  0.4434
15599SOL     OW48237   5.368   3.350   8.031  0.2363  0.1618  0.2115
15599SOL    HW148238   5.424   3.344   8.108  0.2215 -1.3093  0.1248
15599SOL    HW248239   5.283   3.318   8.060  0.3786 -0.9560 -0.5347
15600SOL     OW48240   3.428   7.139   9.757  0.2634 -0.5200  0.3404
15600SOL    HW148241   3.511   7.095   9.738  0.3152  0.5288 -2.3340
15600SOL    HW248242   3.450   7.232   9.761 -0.6399 -0.3052  0.5696
15601SOL     OW48243   4.613   5.119  10.428  0.2645  0.0408 -0.0779
15601SOL    HW148244   4.549   5.113  10.500  0.3659  0.6051  0.0608
15601SOL    HW248245   4.682   5.175  10.462  1.4253 -1.4923  0.2052
15602SOL     OW48246   5.000   4.706   7.585  0.2615  0.6965 -0.6059
15602SOL    HW148247   4.991   4.731   7.493  1.4182  2.1663 -0.3508
15602SOL    HW248248   4.961   4.778   7.634 -1.1406 -0.4707  0.0741
15603SOL     OW48249   5.071   4.729   8.402 -0.0196 -0.2485  0.4775
15603SOL    HW148250   5.014   4.723   8.479  1.0184  0.0094  1.2950
15603SOL    HW248251   5.050   4.651   8.350 -1.8354  0.3615  0.2222
15604SOL     OW48252   5.411   4.294   8.222 -0.4794  0.5758  0.4587
15604SOL    HW148253   5.485   4.235   8.234 -1.9738 -1.3439  0.6429
15604SOL    HW248254   5.364   4.293   8.306 -1.9079  0.0154 -0.3101
15605SOL     OW48255   5.018   3.706   7.145  0.3770 -0.1297  0.1791
15605SOL    HW148256   4.982   3.731   7.230 -1.0981 -0.7248 -0.2333
15605SOL    HW248257   5.043   3.614   7.155  3.0698  0.5902  0.8301
15606SOL     OW48258   4.436   4.735   9.043 -0.0647 -0.3505 -0.2233
15606SOL    HW148259   4.425   4.646   9.076  1.6411 -0.6808 -0.4559
15606SOL    HW248260   4.399   4.732   8.955  0.6717 -1.0609 -0.5253
15607SOL     OW48261   6.075   4.715   6.929  0.2522  0.2250  0.5207
15607SOL    HW148262   6.000   4.656   6.931  1.1761 -1.0371  3.7002
15607SOL    HW248263   6.041   4.797   6.892 -2.0940 -0.9704 -0.1306
15608SOL     OW48264   4.570   3.239   8.042  0.1319  0.0143  0.0672
15608SOL    HW148265   4.613   3.310   7.993  1.7604 -1.1023 -0.1937
15608SOL    HW248266   4.549   3.278   8.127  3.0190  0.2775  0.7683
15609SOL     OW48267   4.021   3.346   7.952  0.5796  0.5525 -0.4147
15609SOL    HW148268   3.946   3.404   7.963  0.8345  0.6876  0.7837
15609SOL    HW248269   4.092   3.402   7.922  1.3266  1.2957  2.4348
15610SOL     OW48270   4.927   5.925   7.959 -0.0184  0.0092 -0.7220
15610SOL    HW148271   4.948   5.926   7.866 -0.4821 -1.2626 -0.8717
15610SOL    HW248272   4.856   5.860   7.966  0.7689 -0.7372  0.6485
15611SOL     OW48273   5.402   3.663   9.002  0.2151  0.4902  0.6843
15611SOL    HW148274   5.443   3.656   8.916 -0.1640  3.4736  0.1535
15611SOL    HW248275   5.318   3.706   8.985 -0.3305  0.2004  2.4410
15612SOL     OW48276   5.142   5.994   6.978 -0.5344  0.4812  0.1349
15612SOL    HW148277   5.165   5.903   6.959 -0.8840  0.6036 -0.9378
15612SOL    HW248278   5.063   6.011   6.927  0.0521  1.6570 -0.4362
15613SOL     OW48279   4.870   6.028  10.117 -0.3677 -0.1178  1.0478
15613SOL    HW148280   4.808   5.961  10.088 -0.6934  0.9340 -0.8669
15613SOL    HW248281   4.834   6.110  10.083  3.6231  0.2658 -3.2225
15614SOL     OW48282   3.519   3.983   7.256 -0.4912 -0.1855  0.2080
15614SOL    HW148283   3.458   4.009   7.188  0.3884 -0.2965 -0.6395
15614SOL    HW248284   3.602   3.969   7.211  0.4722  1.0755  1.4938
15615SOL     OW48285   5.310   4.045   8.918  0.1830 -0.2631  0.4788
15615SOL    HW148286   5.231   3.990   8.916  0.6926 -1.0553  1.2297
15615SOL    HW248287   5.361   4.009   8.990  1.3178  0.1173 -0.1206
15616SOL     OW48288   4.259   3.991   7.966 -0.1261 -0.3494  0.1532
15616SOL    HW148289   4.168   3.963   7.975 -0.2727  0.3224  0.9419
15616SOL    HW248290   4.256   4.086   7.979  0.9511 -0.5762  2.5225
15617SOL     OW48291   7.354   5.550   8.674 -0.0233 -0.5963 -0.1578
15617SOL    HW148292   7.281   5.586   8.724 -0.0334 -1.6355  0.5953
15617SOL    HW248293   7.432   5.572   8.726  0.4382  1.9910 -1.7721
15618SOL     OW48294   3.756   5.993   9.389  0.3225 -0.4233  0.1794
15618SOL    HW148295   3.785   6.008   9.299 -0.0849 -1.3668 -0.1222
15618SOL    HW248296   3.834   5.966   9.436  0.2580 -1.3564 -0.2424
15619SOL     OW48297   6.173   5.083   7.625  0.3162  0.5602  0.6760
15619SOL    HW148298   6.188   5.104   7.533 -0.6646 -1.1900  0.0771
15619SOL    HW248299   6.077   5.085   7.635  0.4243  1.2912  1.8242
15620SOL     OW48300   3.701   4.522   9.136  0.2010 -0.1412  0.7538
15620SOL    HW148301   3.684   4.612   9.110  1.0513 -0.2025 -0.0435
15620SOL    HW248302   3.788   4.503   9.103  0.0139 -1.2790  0.8658
15621SOL     OW48303   4.933   4.747   8.647 -0.3848 -0.4034  0.1033
15621SOL    HW148304   4.866   4.685   8.621 -0.9951  1.0840 -2.2124
15621SOL    HW248305   4.885   4.827   8.669  0.4367 -0.3890  1.9831
15622SOL     OW48306   3.226   5.751   8.963  0.3732  0.0928  0.4515
15622SOL    HW148307   3.226   5.658   8.943  2.4003  0.0667  0.3334
15622SOL    HW248308   3.195   5.758   9.053 -2.0659 -0.4337 -0.2752
15623SOL     OW48309   6.269   3.742   8.692  0.2490  0.0792  0.8286
15623SOL    HW148310   6.365   3.733   8.688  0.0379 -3.9931  0.4689
15623SOL    HW248311   6.243   3.759   8.601  0.5845 -0.1594  0.6846
15624SOL     OW48312   5.264   3.634   8.172 -0.6759  0.0374  0.0417
15624SOL    HW148313   5.280   3.728   8.165  0.2643 -0.1209 -0.0835
15624SOL    HW248314   5.198   3.616   8.104  0.4323  0.3286 -1.1581
15625SOL     OW48315   5.258   4.227   8.437 -0.3974 -0.3385  0.4051
15625SOL    HW148316   5.233   4.135   8.430 -1.0455 -0.1380 -0.1310
15625SOL    HW248317   5.175   4.274   8.432  0.0282  0.3403 -0.8863
15626SOL     OW48318   5.619   4.614   6.596  0.4064  0.4775 -0.4292
15626SOL    HW148319   5.626   4.683   6.530 -1.3314  0.5882 -0.5463
15626SOL    HW248320   5.549   4.557   6.563  1.8626 -1.4308 -0.3995
15627SOL     OW48321   3.270   5.207   6.048  0.4815 -0.5174 -0.0447
15627SOL    HW148322   3.183   5.209   6.089 -1.0173 -1.4010 -2.9027
15627SOL    HW248323   3.305   5.120   6.070  1.4280  0.4065  2.4223
15628SOL     OW48324   4.938   5.051   7.261 -0.0426  0.1850  0.0818
15628SOL    HW148325   4.845   5.032   7.277  0.0564 -0.0475  0.3861
15628SOL    HW248326   4.957   5.126   7.317  0.5601 -1.2412  1.8926
15629SOL     OW48327   3.889   5.624   8.273  0.0736  0.2248 -0.1855
15629SOL    HW148328   3.923   5.611   8.184  0.8251 -0.6137  0.2061
15629SOL    HW248329   3.813   5.567   8.278 -0.1105  0.4544 -0.3691
15630SOL     OW48330   4.444   4.104   9.839 -0.0647 -0.1561 -0.2344
15630SOL    HW148331   4.395   4.178   9.874  1.2803  0.5746  0.1860
15630SOL    HW248332   4.470   4.133   9.751  1.5577  0.4400  0.4048
15631SOL     OW48333   3.228   5.279   8.010 -0.0471  0.0586  0.4924
15631SOL    HW148334   3.162   5.310   8.071 -0.1192  2.1173 -0.5270
15631SOL    HW248335   3.191   5.199   7.972 -0.9089 -0.0771  1.5954
15632SOL     OW48336   3.940   4.499  10.580 -0.0321  0.3758 -0.0230
15632SOL    HW148337   3.969   4.487  10.489  1.0187  0.5114  0.2801
15632SOL    HW248338   3.994   4.570  10.613 -1.5807  1.5012  0.2210
15633SOL     OW48339   5.239   3.905   8.146  0.0922 -0.2147 -0.3875
15633SOL    HW148340   5.253   3.965   8.073  1.0869 -0.1180 -0.1379
15633SOL    HW248341   5.146   3.912   8.165 -0.2017 -0.2974 -1.6871
15634SOL     OW48342   6.447   5.837   8.066 -0.3238  0.1194 -0.6330
15634SOL    HW148343   6.375   5.784   8.101 -0.1332 -0.1590 -0.6583
15634SOL    HW248344   6.477   5.788   7.990  0.4020 -0.1662 -0.1724
15635SOL     OW48345   3.543   4.387   9.323  0.0319  0.0003 -0.2287
15635SOL    HW148346   3.456   4.424   9.335  1.1383  2.4148  1.4336
15635SOL    HW248347   3.581   4.439   9.252  1.0628  1.0973  1.0541
15636SOL     OW48348   5.644   5.980   9.222  0.0925 -0.5260  0.3084
15636SOL    HW148349   5.680   5.961   9.135  0.5069  2.2633 -0.2339
15636SOL    HW248350   5.562   5.932   9.225  0.7010 -1.7327 -1.0795
15637SOL     OW48351   4.688   3.944   8.188 -0.0901 -0.1764 -0.7576
15637SOL    HW148352   4.648   3.904   8.265 -0.4883  1.6097 -0.0001
15637SOL    HW248353   4.667   3.884   8.116 -0.6930 -1.2833  0.2994
15638SOL     OW48354   4.853   2.805   8.226 -0.2856 -0.1095  0.4767
15638SOL    HW148355   4.762   2.808   8.254 -0.4692  0.8660 -0.1865
15638SOL    HW248356   4.873   2.895   8.200  0.9804 -0.2267  0.9693
15639SOL     OW48357   4.767   6.756   7.218  0.1223  0.3928 -0.2023
15639SOL    HW148358   4.848   6.771   7.169 -0.3041  1.2119 -0.6830
15639SOL    HW248359   4.791   6.692   7.286  1.0920  0.4040 -0.5217
15640SOL     OW48360   4.039   5.355   8.648 -0.1544 -0.0152 -0.6672
15640SOL    HW148361   4.035   5.278   8.706  0.4927  0.9939  0.7635
15640SOL    HW248362   4.118   5.340   8.595  0.3618 -0.0295  0.0843
15641SOL     OW48363   4.865   4.669   8.969 -1.0562  0.1090 -0.1963
15641SOL    HW148364   4.825   4.668   8.883 -0.0901 -0.8813 -0.6647
15641SOL    HW248365   4.792   4.668   9.030 -1.7879  2.1026 -0.9584
15642SOL     OW48366   4.462   5.279   7.964  0.2176  0.4234 -0.1507
15642SOL    HW148367   4.506   5.293   7.880 -1.6652  0.2729 -1.2339
15642SOL    HW248368   4.533   5.267   8.027  1.7346  2.6303 -1.3138
15643SOL     OW48369   4.113   4.041   8.838 -0.3632 -0.1873 -0.3551
15643SOL    HW148370   4.039   4.063   8.781 -1.4967  1.1376  1.4901
15643SOL    HW248371   4.081   3.971   8.894  0.7923 -1.5914 -1.3752
15644SOL     OW48372   3.292   4.568  10.145 -0.5425 -0.2601 -0.1612
15644SOL    HW148373   3.358   4.502  10.167  0.0443  1.0665  2.4930
15644SOL    HW248374   3.211   4.534  10.184 -0.4948  0.0273  0.1934
15645SOL     OW48375   3.590   3.877   9.661 -0.0096  0.7158  0.3898
15645SOL    HW148376   3.624   3.902   9.575  0.4800  3.3366  1.2367
15645SOL    HW248377   3.500   3.910   9.662 -0.1993  0.1989  0.6815
15646SOL     OW48378   2.631   6.386  10.051 -0.1548 -0.3661 -0.3821
15646SOL    HW148379   2.576   6.313  10.077 -0.8049 -0.1447 -1.0792
15646SOL    HW248380   2.665   6.421  10.133 -2.2027  0.3731  0.2349
15647SOL     OW48381   6.605   5.801  10.493 -0.2388  0.3432 -0.0610
15647SOL    HW148382   6.570   5.793  10.581 -1.5377  0.2717 -0.5595
15647SOL    HW248383   6.667   5.873  10.498  1.4591 -1.1317  1.4109
15648SOL     OW48384   6.338   4.490  10.640  0.6731  0.0179  0.4428
15648SOL    HW148385   6.385   4.439  10.573  0.6463  0.8092 -0.1901
15648SOL    HW248386   6.391   4.481  10.718  1.2954 -0.0176  0.0235
15649SOL     OW48387   6.189   2.953   7.478 -0.0145 -0.2002 -0.5830
15649SOL    HW148388   6.220   3.043   7.478 -0.8187  0.0842 -0.0246
15649SOL    HW248389   6.256   2.904   7.526 -0.6730  0.5152  1.1492
15650SOL     OW48390   5.102   4.030  10.858  0.0667 -0.6692 -0.1357
15650SOL    HW148391   5.189   4.012  10.822  1.1212  2.2822  0.6267
15650SOL    HW248392   5.114   4.023  10.953 -0.3749  0.2481 -0.0068
15651SOL     OW48393   5.815   3.902   9.478 -0.3493  0.0760  0.1131
15651SOL    HW148394   5.883   3.967   9.495 -0.0070 -0.6752  1.8300
15651SOL    HW248395   5.863   3.823   9.453 -0.4755 -0.6675  2.0204
15652SOL     OW48396   4.286   4.274   9.243 -0.3610  0.2659  0.1072
15652SOL    HW148397   4.288   4.178   9.235 -1.0186  0.1966  0.7364
15652SOL    HW248398   4.194   4.297   9.232 -0.0181  0.9813 -1.6003
15653SOL     OW48399   4.693   4.099  11.668  0.6138  0.2315  0.7756
15653SOL    HW148400   4.625   4.102  11.601 -1.7695 -2.6132  2.8056
15653SOL    HW248401   4.722   4.008  11.669  0.6726  0.1915  3.4287
15654SOL     OW48402   4.019   4.999  10.266 -0.0710  0.3526 -0.4815
15654SOL    HW148403   3.975   5.069  10.314  0.0449  0.9519 -1.2436
15654SOL    HW248404   4.104   5.035  10.244 -0.0017 -0.0388 -0.8589
15655SOL     OW48405   5.448   6.656  10.022 -0.6310  0.6437 -0.0916
15655SOL    HW148406   5.404   6.674   9.939 -0.2682  3.8910  0.2984
15655SOL    HW248407   5.541   6.651  10.000 -0.5180  1.6754  0.1081
15656SOL     OW48408   4.024   3.096  11.107  0.1009  0.2955 -0.0220
15656SOL    HW148409   4.096   3.091  11.044  0.6884  0.8725  0.5872
15656SOL    HW248410   4.011   3.190  11.121 -1.6620  0.2591 -1.1010
15657SOL     OW48411   7.010   3.576   9.081 -0.2089  0.1825  0.5048
15657SOL    HW148412   7.040   3.635   9.150 -0.3926  0.1246  0.6329
15657SOL    HW248413   6.963   3.507   9.127  1.8134 -1.2289  0.5838
15658SOL     OW48414   4.832   6.751   9.386  0.0350  0.4196 -0.0852
15658SOL    HW148415   4.810   6.680   9.446 -1.2848  1.4839  0.7764
15658SOL    HW248416   4.824   6.713   9.299  1.3031 -0.9832  0.3651
15659SOL     OW48417   5.442   5.408  11.229 -0.2267 -0.0532 -0.3205
15659SOL    HW148418   5.526   5.411  11.275 -0.3079 -1.0335 -0.0687
15659SOL    HW248419   5.465   5.379  11.140 -0.0009  2.4159 -1.1345
15660SOL     OW48420   4.167   5.449   8.870 -0.0696 -0.2304  0.1305
15660SOL    HW148421   4.255   5.429   8.838 -0.2826 -1.3798  0.2230
15660SOL    HW248422   4.109   5.430   8.797 -0.3043 -0.1245  0.2861
15661SOL     OW48423   4.852   4.845   9.579 -0.3584 -0.3301  0.2612
15661SOL    HW148424   4.824   4.767   9.628 -0.4459 -0.8028 -0.5281
15661SOL    HW248425   4.771   4.895   9.566 -0.2840 -0.0393  0.8691
15662SOL     OW48426   6.110   6.444  10.345  0.0592  0.0379  0.2757
15662SOL    HW148427   6.196   6.437  10.302 -0.3261 -0.6115 -0.4110
15662SOL    HW248428   6.104   6.365  10.398  1.1124  1.4541  2.7058
15663SOL     OW48429   5.004   3.791   9.920  0.0220 -0.7084  0.0370
15663SOL    HW148430   5.018   3.699   9.898  1.1222 -0.3435 -0.8869
15663SOL    HW248431   5.072   3.838   9.872  0.0104  0.5208  1.1748
15664SOL     OW48432   4.476   5.561  11.276 -0.2746 -0.1543  0.1380
15664SOL    HW148433   4.523   5.577  11.358 -0.1500  1.7539 -0.2482
15664SOL    HW248434   4.392   5.524  11.303  0.5860 -1.5666  0.9707
15665SOL     OW48435   3.506   5.087  11.364  0.0253 -0.3266 -0.3461
15665SOL    HW148436   3.539   5.071  11.276 -1.5733 -0.0265 -1.0239
15665SOL    HW248437   3.414   5.061  11.361 -0.4290  1.0075  0.8237
15666SOL     OW48438   6.846   6.325   9.764  0.2220 -0.1442  0.2033
15666SOL    HW148439   6.822   6.403   9.814 -1.1476  0.1377 -0.8299
15666SOL    HW248440   6.864   6.357   9.676 -0.5728 -0.9890 -0.2916
15667SOL     OW48441   2.954   6.204   9.966 -0.0657  0.0932  0.1182
15667SOL    HW148442   2.936   6.298   9.971  1.5097  0.6622 -2.7137
15667SOL    HW248443   3.030   6.191  10.022 -1.1565  0.1673  1.6808
15668SOL     OW48444   5.098   3.343   8.491  0.0181  0.2857  0.5295
15668SOL    HW148445   5.103   3.427   8.445  1.5072 -0.7095 -1.2920
15668SOL    HW248446   5.005   3.329   8.505 -0.4080  1.3517 -0.9080
15669SOL     OW48447   3.620   5.741   9.395 -0.1200  0.4571 -0.5504
15669SOL    HW148448   3.657   5.826   9.417  0.0400  0.0240  0.9299
15669SOL    HW248449   3.694   5.681   9.392 -0.2221  0.3524 -1.6468
15670SOL     OW48450   5.086   4.985  11.764 -0.5841 -0.6158  0.1483
15670SOL    HW148451   5.018   5.011  11.825 -0.7763  0.5903 -0.5394
15670SOL    HW248452   5.071   4.892  11.748 -0.9663 -0.7736  1.3589
15671SOL     OW48453   3.814   5.332  10.035 -0.7472 -0.5592  0.4791
15671SOL    HW148454   3.823   5.387  10.112  1.6593  0.5506 -0.5148
15671SOL    HW248455   3.774   5.251  10.068 -1.8315  0.7085  2.4431
15672SOL     OW48456   3.592   4.673   1.285  0.0710 -0.0862 -0.0367
15672SOL    HW148457   3.593   4.580   1.307 -0.1133 -0.0733  0.0234
15672SOL    HW248458   3.679   4.705   1.309 -0.0001 -0.1559  0.3097
15673SOL     OW48459   6.824   3.783  10.576 -0.3136 -0.5080 -0.0216
15673SOL    HW148460   6.905   3.783  10.524 -0.6257 -2.1004 -0.5719
15673SOL    HW248461   6.764   3.839  10.528  0.9696  2.1912  1.3289
15674SOL     OW48462   4.854   5.732  10.271  0.4614 -0.6477 -0.3019
15674SOL    HW148463   4.923   5.797  10.282 -0.0088 -0.3698  1.2269
15674SOL    HW248464   4.788   5.775  10.217  0.3050  0.0425  0.4207
15675SOL     OW48465   5.591   4.474   8.731  0.1545 -0.4841 -0.0154
15675SOL    HW148466   5.648   4.550   8.746  1.5215 -1.5139  0.2562
15675SOL    HW248467   5.612   4.446   8.642 -0.5081 -0.4174 -0.1966
15676SOL     OW48468   3.984   6.114  11.353  0.6238 -0.0034 -0.2996
15676SOL    HW148469   3.911   6.069  11.311  1.9238 -2.0667 -0.4950
15676SOL    HW248470   4.059   6.098  11.295  1.6656  0.2314  0.9318
15677SOL     OW48471   5.607   4.500  10.608 -0.1907 -0.0239 -0.4479
15677SOL    HW148472   5.562   4.557  10.671 -0.3003 -0.0885 -0.4678
15677SOL    HW248473   5.654   4.560  10.550 -0.7246  0.0725 -0.7893
15678SOL     OW48474   5.179   4.493  10.810 -0.1084  0.0459 -0.2455
15678SOL    HW148475   5.243   4.485  10.881 -0.3622 -0.5193 -0.0754
15678SOL    HW248476   5.214   4.563  10.754 -0.8981  1.9459  1.4935
15679SOL     OW48477   4.038   5.021  10.680 -0.1376 -0.4046 -0.2133
15679SOL    HW148478   3.984   4.987  10.752 -0.2656 -0.5390 -0.3728
15679SOL    HW248479   4.100   4.951  10.661 -1.1785 -1.0512 -1.3549
15680SOL     OW48480   4.129   5.766  10.398 -0.0490 -0.5106 -0.5569
15680SOL    HW148481   4.106   5.681  10.358 -1.5691 -0.1926 -0.4049
15680SOL    HW248482   4.085   5.831  10.343  0.5001  0.1457 -0.2355
15681SOL     OW48483   6.295   3.707   9.682 -0.4258  0.4394 -0.3322
15681SOL    HW148484   6.306   3.612   9.675 -0.5664  0.4238 -0.3333
15681SOL    HW248485   6.201   3.720   9.681 -0.3972  0.6190 -0.8230
15682SOL     OW48486   5.182   0.213   7.563 -0.4651 -0.4482 -0.1462
15682SOL    HW148487   5.246   0.146   7.538  0.9539  0.2473  1.4356
15682SOL    HW248488   5.098   0.167   7.564  0.1760 -1.6865 -1.0910
15683SOL     OW48489   3.758   3.529  11.159  0.4756 -0.6236 -0.4334
15683SOL    HW148490   3.785   3.522  11.067  2.1197  0.1126 -0.0325
15683SOL    HW248491   3.679   3.583  11.157  1.4011  0.7368 -1.2800
15684SOL     OW48492   6.443   3.814  10.782 -0.2357 -1.2161  0.2942
15684SOL    HW148493   6.380   3.780  10.719 -0.5426 -1.1794  0.5748
15684SOL    HW248494   6.418   3.773  10.865 -0.1282 -0.9085  0.4811
15685SOL     OW48495   3.739   5.029  11.026 -0.2502 -0.2978  0.3335
15685SOL    HW148496   3.680   5.030  10.951 -0.4233  0.3579  0.4697
15685SOL    HW248497   3.693   4.975  11.092  0.0109 -1.0700 -0.1039
15686SOL     OW48498   7.656   3.891   9.818  0.5984  0.4533 -0.4233
15686SOL    HW148499   7.651   3.950   9.743 -0.6857 -0.8599 -1.4375
15686SOL    HW248500   7.741   3.910   9.858  1.1869  1.4064 -2.0352
15687SOL     OW48501   4.529   3.421   9.906  0.1629  0.1910  0.0111
15687SOL    HW148502   4.441   3.422   9.870 -0.0242  2.1931  0.4072
15687SOL    HW248503   4.584   3.457   9.836  0.7365 -1.2420 -0.3155
15688SOL     OW48504   5.957   4.491  11.370 -0.0740  0.4862  0.0047
15688SOL    HW148505   5.906   4.514  11.292  0.8537 -0.2541 -0.8556
15688SOL    HW248506   6.000   4.409  11.347  2.7105  1.7921  0.0360
15689SOL     OW48507   3.343   5.270  11.694 -0.3581  0.5195  0.0509
15689SOL    HW148508   3.254   5.237  11.685 -0.3948  0.4482  0.6600
15689SOL    HW248509   3.399   5.195  11.676 -0.4182  0.5649 -0.3331
15690SOL     OW48510   5.572   3.000   9.548  0.3467 -0.0402  0.6423
15690SOL    HW148511   5.510   2.998   9.475  0.4265  1.5542  0.4889
15690SOL    HW248512   5.649   3.044   9.513  1.1290 -0.9399  1.1722
15691SOL     OW48513   4.160   5.849   9.309  0.0650  0.2614 -0.6679
15691SOL    HW148514   4.148   5.784   9.240 -1.7896  0.4313 -0.5679
15691SOL    HW248515   4.255   5.854   9.321  0.6721  1.5902 -4.5149
15692SOL     OW48516   4.670   3.157  11.689 -0.4756  0.5080  0.0626
15692SOL    HW148517   4.680   3.240  11.738  0.6832  1.1384 -1.1790
15692SOL    HW248518   4.614   3.180  11.615  2.4604  1.1118 -2.1519
15693SOL     OW48519   4.406   6.132  10.555 -0.3236 -0.0196  0.5292
15693SOL    HW148520   4.485   6.085  10.528 -0.0800  0.1944  0.8753
15693SOL    HW248521   4.434   6.189  10.625 -0.9440 -0.5083  1.1951
15694SOL     OW48522   3.773   6.369  10.552  0.5002 -0.5541 -0.2400
15694SOL    HW148523   3.681   6.382  10.528  0.1730  0.0418  1.1872
15694SOL    HW248524   3.808   6.311  10.485 -0.6818 -0.0737 -1.3067
15695SOL     OW48525   4.704   3.801   9.906  0.1095  0.0426 -0.1820
15695SOL    HW148526   4.663   3.760   9.830  1.5782 -0.0808 -0.9493
15695SOL    HW248527   4.798   3.791   9.891  0.4539  1.0227  1.1056
15696SOL     OW48528   5.135   4.922  10.489  0.9806 -0.3578 -0.1427
15696SOL    HW148529   5.168   4.999  10.442  3.1524 -0.5704  0.8669
15696SOL    HW248530   5.082   4.875  10.425 -0.5372  2.0052 -0.7519
15697SOL     OW48531   4.625   6.625   8.954  0.7842  0.1872  0.0483
15697SOL    HW148532   4.644   6.673   8.874  0.6969 -1.2860 -0.8805
15697SOL    HW248533   4.586   6.543   8.925 -0.8851  0.3297  1.6471
15698SOL     OW48534   3.115   5.168  10.110 -0.2906  0.2889 -0.7799
15698SOL    HW148535   3.052   5.104  10.144 -0.9210  1.3842  0.2029
15698SOL    HW248536   3.200   5.129  10.127 -0.6476 -0.0169  0.4743
15699SOL     OW48537   2.299   4.142  11.310  0.0122  0.4263 -0.3145
15699SOL    HW148538   2.344   4.215  11.352 -1.6952  1.9292 -0.9611
15699SOL    HW248539   2.350   4.065  11.335  1.5620  1.7519  0.8527
15700SOL     OW48540   3.747   7.492  10.522  0.0835  0.1094 -0.1658
15700SOL    HW148541   3.788   7.438  10.590 -0.1816 -1.0360 -0.8851
15700SOL    HW248542   3.769   7.582  10.546  1.9987 -0.3919  0.1162
15701SOL     OW48543   5.097   3.478  11.118  0.2911 -0.4394 -0.3007
15701SOL    HW148544   5.087   3.451  11.027  0.9474 -1.2681 -0.1315
15701SOL    HW248545   5.011   3.462  11.158 -0.5664  1.5726 -1.1584
15702SOL     OW48546   4.836   5.480  10.378  0.4727  0.0861  0.3347
15702SOL    HW148547   4.848   5.569  10.345 -0.2746  0.5281  1.2236
15702SOL    HW248548   4.757   5.448  10.334  0.1517  0.2451  0.7889
15703SOL     OW48549   3.952   6.551  10.878 -0.0929 -0.3603 -0.0843
15703SOL    HW148550   3.962   6.581  10.788  1.2257 -1.3286 -0.2893
15703SOL    HW248551   4.003   6.613  10.930 -2.5813  1.4871  0.3228
15704SOL     OW48552   5.893   4.995   9.495 -0.1751  0.2777  0.5894
15704SOL    HW148553   5.853   5.079   9.475 -0.3035  0.1043  0.1041
15704SOL    HW248554   5.850   4.966   9.575  0.0082  0.7622  0.8686
15705SOL     OW48555   4.028   7.486  10.359 -0.0684  0.0364  0.1744
15705SOL    HW148556   4.030   7.575  10.395 -2.4683  0.7350 -1.1452
15705SOL    HW248557   3.935   7.463  10.359  0.4290 -2.1571 -0.2855
15706SOL     OW48558   4.201   5.453  11.070 -0.2492 -0.1544  0.3544
15706SOL    HW148559   4.279   5.398  11.054  0.3133  0.4944  0.8297
15706SOL    HW248560   4.167   5.422  11.154 -0.9780 -0.9645 -0.2141
15707SOL     OW48561   2.169   5.810   9.377  0.3321 -0.0120 -0.0604
15707SOL    HW148562   2.206   5.879   9.322 -0.0109  0.9496  0.8841
15707SOL    HW248563   2.207   5.729   9.342  0.9583  0.6641 -1.0120
15708SOL     OW48564   4.371   2.659  11.505  0.8821 -0.1381 -0.0225
15708SOL    HW148565   4.387   2.750  11.530 -0.8872 -0.1830  1.4495
15708SOL    HW248566   4.458   2.621  11.495  1.6504  1.6358 -0.4198
15709SOL     OW48567   4.244   3.412  10.898 -0.3177 -0.1377  0.7903
15709SOL    HW148568   4.318   3.368  10.939  0.1643 -2.6070 -2.3150
15709SOL    HW248569   4.177   3.344  10.891 -2.0184  1.3944  1.3563
15710SOL     OW48570   4.917   5.616  11.179 -0.0373 -0.3851  0.1784
15710SOL    HW148571   5.004   5.580  11.164  0.4356  0.1687  1.4722
15710SOL    HW248572   4.858   5.555  11.134  0.8770 -1.6898  0.6886
15711SOL     OW48573   6.266   5.993  10.453  0.0204 -0.3310  0.5930
15711SOL    HW148574   6.256   5.927  10.522  0.8970 -0.0656  0.9822
15711SOL    HW248575   6.248   6.076  10.497  0.3787 -0.1782  0.4477
15712SOL     OW48576   3.107   5.238  12.208 -0.2404  0.6664 -0.0601
15712SOL    HW148577   3.196   5.202  12.208 -0.7334 -0.6949  1.3110
15712SOL    HW248578   3.057   5.178  12.152 -0.3726  1.1961 -0.5085
15713SOL     OW48579   4.962   5.143   9.480  0.0334  0.6027  0.4228
15713SOL    HW148580   4.937   5.104   9.396  0.2646  0.0389  0.6134
15713SOL    HW248581   4.880   5.153   9.528 -0.1311  1.1711  0.0296
15714SOL     OW48582   4.195   4.197  10.367 -0.0723  0.6741  0.2897
15714SOL    HW148583   4.114   4.151  10.392 -0.3129  1.8465  1.8134
15714SOL    HW248584   4.175   4.236  10.282 -1.6477  2.0992  1.2526
15715SOL     OW48585   4.387   6.864   9.951  0.1612 -0.1093  0.4543
15715SOL    HW148586   4.427   6.852   9.865  1.8716  0.3312  1.1496
15715SOL    HW248587   4.318   6.798   9.955  0.1353 -0.2261 -1.1936
15716SOL     OW48588   5.033   4.609  11.148 -0.1136  0.1462  0.6182
15716SOL    HW148589   5.004   4.673  11.083 -0.2660 -0.8233 -0.3081
15716SOL    HW248590   5.028   4.525  11.102  1.5064 -0.3651  1.3259
15717SOL     OW48591   6.793   4.251  10.251 -0.0904 -0.0769 -0.1173
15717SOL    HW148592   6.771   4.313  10.181 -1.5749 -1.5375 -1.0190
15717SOL    HW248593   6.708   4.221  10.284  0.5951 -0.6286  1.2226
15718SOL     OW48594   3.145   5.684   7.869 -0.7647 -0.3783  0.2426
15718SOL    HW148595   3.182   5.597   7.855 -0.4556  0.0691 -2.0713
15718SOL    HW248596   3.104   5.679   7.956 -2.5663 -3.4597 -0.6363
15719SOL     OW48597   6.616   3.691   9.783  0.6598 -0.1531 -0.0950
15719SOL    HW148598   6.535   3.682   9.732 -0.4785 -2.1606  1.9099
15719SOL    HW248599   6.609   3.778   9.823  0.6154  0.6100 -1.6526
15720SOL     OW48600   4.939   5.433   9.700 -0.1890 -0.6543 -0.3580
15720SOL    HW148601   4.979   5.386   9.773 -0.8082  1.1830  1.2629
15720SOL    HW248602   4.878   5.370   9.661 -2.2262 -0.8371  2.7656
15721SOL     OW48603   6.002   3.948   7.454  0.8042  0.1439 -0.0513
15721SOL    HW148604   5.934   4.013   7.470  0.5438 -0.2696  0.5700
15721SOL    HW248605   6.082   3.999   7.442  0.1093  0.7551 -2.6386
15722SOL     OW48606   3.634   6.040  10.238 -0.0663 -0.3481 -0.0593
15722SOL    HW148607   3.721   6.075  10.257  0.8452 -2.3774 -0.2057
15722SOL    HW248608   3.633   5.954  10.281 -2.2888 -0.0416  0.5822
15723SOL     OW48609   5.627   3.011  11.758 -0.1963  0.5985  0.4853
15723SOL    HW148610   5.676   3.042  11.834  0.8731  0.9033 -0.2994
15723SOL    HW248611   5.608   3.091  11.708 -1.9692  0.5487  1.0256
15724SOL     OW48612   3.804   4.789   9.832 -0.0132  0.8169  0.3187
15724SOL    HW148613   3.803   4.878   9.868 -1.6221  0.2510  1.8313
15724SOL    HW248614   3.854   4.739   9.896  0.0472  0.4486 -0.0172
15725SOL     OW48615   3.359   3.775  11.462  0.3620  0.2283 -0.2277
15725SOL    HW148616   3.405   3.709  11.514 -0.2156  0.8690  1.1490
15725SOL    HW248617   3.338   3.731  11.379  2.2785 -0.4811 -0.3877
15726SOL     OW48618   6.195   3.597   9.996  0.0722  0.2158  0.3830
15726SOL    HW148619   6.211   3.528   9.931  0.5426  0.6005  0.0817
15726SOL    HW248620   6.237   3.565  10.076 -0.8535 -0.4425  0.6251
15727SOL     OW48621   5.705   5.392  10.384 -0.0856 -0.2767  0.2378
15727SOL    HW148622   5.794   5.399  10.417  0.0794  1.7605 -0.5285
15727SOL    HW248623   5.653   5.447  10.442 -0.4815  0.1404 -0.4985
15728SOL     OW48624   4.553   5.463   8.944 -0.1524 -0.0152 -0.3717
15728SOL    HW148625   4.639   5.502   8.925 -0.6335  1.0081 -0.4867
15728SOL    HW248626   4.490   5.527   8.911 -0.9809 -0.1589  0.8811
15729SOL     OW48627   3.789   4.027   9.493  0.1498 -0.6226 -0.1022
15729SOL    HW148628   3.812   3.984   9.576 -1.3475 -0.1483  0.5879
15729SOL    HW248629   3.772   3.955   9.433  1.7437 -0.9788 -0.1849
15730SOL     OW48630   5.278   4.441  11.117 -0.1823  0.3421 -0.5023
15730SOL    HW148631   5.301   4.352  11.142  0.5932  0.4119 -0.9102
15730SOL    HW248632   5.195   4.458  11.160  0.8790  0.3258  1.6870
15731SOL     OW48633   6.641   4.338   9.495 -0.4275  0.1665  0.3004
15731SOL    HW148634   6.605   4.270   9.553 -2.9960  1.6478  0.5917
15731SOL    HW248635   6.565   4.375   9.451  1.0886  1.6438 -1.2430
15732SOL     OW48636   6.170   4.203   9.321 -0.1724  0.2343 -0.1836
15732SOL    HW148637   6.264   4.184   9.313  0.5806  0.6289  4.6729
15732SOL    HW248638   6.167   4.297   9.340 -1.6504  0.3476 -0.8710
15733SOL     OW48639   5.765   5.818   0.228 -0.1522  0.2177 -0.2163
15733SOL    HW148640   5.707   5.889   0.258 -1.1575 -0.0537 -1.4485
15733SOL    HW248641   5.708   5.743   0.217  0.7019 -0.4682 -0.0898
15734SOL     OW48642   7.044   5.526  10.984  0.2167 -0.4397  0.2088
15734SOL    HW148643   6.996   5.472  11.046  0.9181  0.2489  1.3724
15734SOL    HW248644   6.976   5.568  10.931 -0.3467 -2.3847 -0.7033
15735SOL     OW48645   4.042   7.610  10.873 -0.2141  0.5628  0.6541
15735SOL    HW148646   3.965   7.613  10.816 -0.7236  0.6510  1.3276
15735SOL    HW248647   4.109   7.568  10.821 -1.2918 -1.3085  0.7032
15736SOL     OW48648   4.515   3.075   0.280  0.6500  0.5859  0.2281
15736SOL    HW148649   4.534   3.163   0.247  1.1369  0.0913 -0.8730
15736SOL    HW248650   4.595   3.049   0.327  0.7212  0.5191  0.0709
15737SOL     OW48651   5.583   4.703  12.215  0.1098  0.3212  0.4870
15737SOL    HW148652   5.658   4.658  12.254 -0.9671 -0.0071  2.3064
15737SOL    HW248653   5.621   4.773  12.162  1.7067 -0.3898  0.6494
15738SOL     OW48654   6.003   3.437  10.298  0.1314  0.0282  0.4320
15738SOL    HW148655   5.966   3.374  10.361 -0.3474 -0.6360 -0.4929
15738SOL    HW248656   5.928   3.466  10.247  0.6300 -0.0093 -0.3265
15739SOL     OW48657   5.377   5.059  11.500 -0.2737  0.1229 -0.2932
15739SOL    HW148658   5.282   5.061  11.507 -0.3499  0.4207 -1.2445
15739SOL    HW248659   5.408   5.116  11.570 -0.6851 -1.7413  1.4963
15740SOL     OW48660   4.378   5.761  10.822 -0.7141  0.0300 -0.2998
15740SOL    HW148661   4.369   5.791  10.731  1.0550  1.1260 -0.1643
15740SOL    HW248662   4.452   5.701  10.821 -0.6771  0.0504  0.4236
15741SOL     OW48663   4.682   2.470  11.855  0.3421  0.2591 -0.3254
15741SOL    HW148664   4.710   2.381  11.875 -1.2495 -0.2256 -0.0736
15741SOL    HW248665   4.749   2.526  11.893 -0.3310 -0.7560  2.5729
15742SOL     OW48666   4.640   3.985  10.915  0.3833  0.3086 -0.0875
15742SOL    HW148667   4.701   4.052  10.883  2.3820 -2.0158 -1.5431
15742SOL    HW248668   4.568   3.986  10.852  1.1096  0.1657 -0.9462
15743SOL     OW48669   3.802   5.978  11.216 -0.0608 -0.0892  0.1941
15743SOL    HW148670   3.756   5.993  11.134  0.4943  1.6301  0.1386
15743SOL    HW248671   3.847   5.894  11.205 -0.2825 -0.0440 -1.1248
15744SOL     OW48672   3.635   4.212  11.722 -0.4131 -0.1070 -0.1096
15744SOL    HW148673   3.658   4.121  11.707  1.2305 -0.3308  2.9559
15744SOL    HW248674   3.547   4.209  11.759  0.5025 -0.8173  2.2445
15745SOL     OW48675   5.238   3.272   9.704  0.9585 -0.3629 -0.6401
15745SOL    HW148676   5.184   3.327   9.649 -0.8461  0.5678  1.8698
15745SOL    HW248677   5.328   3.302   9.689  0.3873  0.7452 -1.9917
15746SOL     OW48678   5.781   5.512   8.663 -0.1930 -0.2840  0.1805
15746SOL    HW148679   5.701   5.478   8.704 -0.3416  0.5258  0.5914
15746SOL    HW248680   5.794   5.598   8.705 -0.0901  0.3699 -1.1385
15747SOL     OW48681   4.484   5.727  11.800  0.3573  0.2920 -0.2342
15747SOL    HW148682   4.499   5.671  11.723 -0.7223  0.8982 -0.9094
15747SOL    HW248683   4.406   5.690  11.841  1.3673 -0.5081  1.0563
15748SOL     OW48684   6.222   3.297  11.716  0.2874  0.3264 -0.6900
15748SOL    HW148685   6.216   3.275  11.623  1.1695  1.8147 -1.1417
15748SOL    HW248686   6.310   3.272  11.741  0.4215  0.9232 -0.5482
15749SOL     OW48687   4.710   4.580  10.777 -0.1164 -0.6141 -0.0474
15749SOL    HW148688   4.643   4.513  10.793 -1.2664 -0.4275 -3.3272
15749SOL    HW248689   4.660   4.657  10.752  1.3173  0.2683 -0.2678
15750SOL     OW48690   3.506   2.388  12.317 -0.5081  0.0795  0.3290
15750SOL    HW148691   3.477   2.477  12.336  0.3350  0.2500  0.8793
15750SOL    HW248692   3.425   2.337  12.312 -0.9966  0.8739 -0.0084
15751SOL     OW48693   5.278   4.896  10.189  0.0917 -0.2479 -0.3712
15751SOL    HW148694   5.295   4.842  10.112  3.0240 -0.0450  0.0250
15751SOL    HW248695   5.217   4.845  10.241  1.4133 -2.4243 -0.8184
15752SOL     OW48696   5.151   5.902   0.184 -0.1648 -0.3277  0.1527
15752SOL    HW148697   5.132   5.961   0.256 -1.9301  1.8421 -1.9165
15752SOL    HW248698   5.090   5.829   0.197 -0.6004  0.1343  0.7695
15753SOL     OW48699   5.876   5.233  11.110 -0.4881  0.7283  0.4992
15753SOL    HW148700   5.831   5.210  11.028 -2.4967 -0.1792  1.7811
15753SOL    HW248701   5.953   5.281  11.082 -0.6648 -0.2814 -1.9758
15754SOL     OW48702   4.733   3.761   7.923  0.1320  0.1303  0.5794
15754SOL    HW148703   4.694   3.806   7.848  1.1475 -1.4948 -0.9991
15754SOL    HW248704   4.825   3.787   7.920  0.2122 -0.0854  1.1484
15755SOL     OW48705   5.116   4.937  11.269  0.1349  0.6229 -0.1295
15755SOL    HW148706   5.153   5.015  11.227  4.8622 -0.8749  0.6589
15755SOL    HW248707   5.112   4.872  11.199  1.1977  0.1516  0.2299
15756SOL     OW48708   4.516   4.331   8.430 -0.6854 -0.7073 -0.1624
15756SOL    HW148709   4.591   4.281   8.398 -0.7707 -0.8620 -0.1222
15756SOL    HW248710   4.444   4.268   8.431 -0.8022 -0.5742 -0.1456
15757SOL     OW48711   3.747   3.222  10.871  0.0415  0.5169  0.1947
15757SOL    HW148712   3.835   3.260  10.877  0.8045 -0.7742 -1.9117
15757SOL    HW248713   3.760   3.136  10.831 -2.1937  0.3524 -0.3239
15758SOL     OW48714   4.578   4.208  12.089  0.1511  1.0232 -0.0699
15758SOL    HW148715   4.564   4.271  12.019  0.6831  0.5453 -0.6151
15758SOL    HW248716   4.531   4.244  12.164 -1.3254  1.0245 -0.9615
15759SOL     OW48717   7.350   4.183  10.019 -0.0630  0.2808 -0.3503
15759SOL    HW148718   7.333   4.265  10.065  0.3861 -0.1792  0.6864
15759SOL    HW248719   7.413   4.206   9.951  0.5428  0.7018  0.3316
15760SOL     OW48720   5.215   5.380  11.456 -0.0034 -0.0440  0.5209
15760SOL    HW148721   5.175   5.296  11.478  0.0030 -0.1800  0.0294
15760SOL    HW248722   5.267   5.362  11.378 -0.0661  0.4308  0.3633
15761SOL     OW48723   5.041   3.620  10.222  0.2080  0.3358 -0.3043
15761SOL    HW148724   4.957   3.648  10.186  0.5841 -1.0416 -2.4776
15761SOL    HW248725   5.018   3.564  10.296 -0.6382  2.2443  0.9744
15762SOL     OW48726   6.477   3.572   8.431  0.4120 -0.4921 -0.6192
15762SOL    HW148727   6.443   3.639   8.372  1.2757  1.7820  1.3028
15762SOL    HW248728   6.400   3.525   8.461 -0.5738  1.3547 -0.0825
15763SOL     OW48729   3.822   5.881  10.601 -0.2834 -0.3397 -0.0349
15763SOL    HW148730   3.875   5.932  10.662  0.2280 -0.4352 -0.3886
15763SOL    HW248731   3.816   5.794  10.640  1.6336 -0.9604 -0.9832
15764SOL     OW48732   6.509   4.856   0.087  0.4599 -0.1017 -0.4876
15764SOL    HW148733   6.549   4.866   0.173 -0.1187 -0.0092 -0.2240
15764SOL    HW248734   6.482   4.764   0.084  2.3454 -0.6833 -1.4035
15765SOL     OW48735   5.311   4.200  10.200  0.1716  0.2589 -0.2375
15765SOL    HW148736   5.316   4.225  10.107  1.5951 -1.8778 -0.8195
15765SOL    HW248737   5.400   4.211  10.233 -0.0540 -0.1793  0.5389
15766SOL     OW48738   5.313   3.498  11.270 -0.8306  0.0628  0.3076
15766SOL    HW148739   5.368   3.427  11.237 -1.1798 -0.1805  0.2503
15766SOL    HW248740   5.231   3.491  11.221 -1.4482 -0.4419  1.3643
15767SOL     OW48741   4.547   4.125   9.186 -0.3731 -0.1429  0.0705
15767SOL    HW148742   4.505   4.087   9.108  1.5973 -0.6163 -0.8331
15767SOL    HW248743   4.572   4.049   9.239  0.5487  0.0399 -0.0837
15768SOL     OW48744   5.673   3.987   8.977 -0.6972  0.3554 -0.4790
15768SOL    HW148745   5.621   3.989   9.057  0.4801 -0.9360  0.3748
15768SOL    HW248746   5.618   3.942   8.914 -1.1067  0.1236  0.0361
15769SOL     OW48747   6.018   4.940  10.882  0.0592  0.6734  0.3662
15769SOL    HW148748   6.014   4.930  10.787 -0.0019 -0.5838  0.4785
15769SOL    HW248749   5.933   4.975  10.907 -0.7254 -0.9818  0.1466
15770SOL     OW48750   5.425   2.533  10.955  0.1392 -0.1109  0.1876
15770SOL    HW148751   5.365   2.462  10.936  0.8852 -0.6856 -0.0992
15770SOL    HW248752   5.463   2.556  10.870  0.9106 -0.3065  0.4701
15771SOL     OW48753   6.016   2.378   9.835 -0.0046 -0.2874 -0.0035
15771SOL    HW148754   5.945   2.439   9.820  0.6362  0.5342  0.2338
15771SOL    HW248755   6.051   2.402   9.921  0.6124 -0.6111 -0.1528
15772SOL     OW48756   7.269   3.351   0.078  0.8338  0.7670 -0.2114
15772SOL    HW148757   7.257   3.259   0.057 -1.1207  0.9267  0.0326
15772SOL    HW248758   7.357   3.356   0.116  0.5356 -1.1693  0.8353
15773SOL     OW48759   5.647   2.778  11.589  0.1515  0.5021  0.4561
15773SOL    HW148760   5.614   2.795  11.500  1.1436  0.2309  0.0164
15773SOL    HW248761   5.642   2.863  11.633  1.4702  1.1223 -0.5003
15774SOL     OW48762   2.318   6.042   9.272 -0.6415  0.1628 -0.3793
15774SOL    HW148763   2.385   6.020   9.338 -0.2716 -0.9304 -1.0920
15774SOL    HW248764   2.337   6.132   9.248  1.5370 -0.5626 -1.6323
15775SOL     OW48765   3.321   5.356   9.810  0.2387  0.3697  0.1073
15775SOL    HW148766   3.334   5.451   9.798 -0.3644  0.4275 -0.1183
15775SOL    HW248767   3.388   5.316   9.755 -0.8886  0.6604 -1.5517
15776SOL     OW48768   4.043   6.717   9.167 -0.2705  1.1304  0.1031
15776SOL    HW148769   4.095   6.659   9.110 -0.2864  1.2569 -0.0399
15776SOL    HW248770   4.085   6.709   9.253 -0.1917  1.0072  0.0542
15777SOL     OW48771   6.146   5.153   9.432 -0.0973 -0.3751 -0.1322
15777SOL    HW148772   6.148   5.221   9.499 -1.2232 -0.5166  0.0735
15777SOL    HW248773   6.075   5.095   9.460  1.7082 -2.4454  0.4544
15778SOL     OW48774   3.828   3.848  10.906 -0.3044  0.1883  0.2050
15778SOL    HW148775   3.805   3.935  10.938 -1.1207 -0.0611  0.2996
15778SOL    HW248776   3.900   3.864  10.844  0.7234  0.7558  1.5088
15779SOL     OW48777   3.172   3.883  11.641  0.0844 -0.3912 -0.1852
15779SOL    HW148778   3.252   3.864  11.593  0.5456  0.4902  0.2207
15779SOL    HW248779   3.106   3.899  11.574  0.2857 -0.9296 -0.5183
15780SOL     OW48780   5.558   5.213   9.224 -0.0657 -0.6298  0.3789
15780SOL    HW148781   5.613   5.150   9.179  0.1317 -0.1746 -0.0295
15780SOL    HW248782   5.497   5.160   9.275 -0.9853 -1.1938 -1.2191
15781SOL     OW48783   6.807   4.268   9.021 -0.1453  0.1364 -0.6817
15781SOL    HW148784   6.856   4.212   9.080  0.0222 -1.4507 -2.2561
15781SOL    HW248785   6.860   4.348   9.014 -0.3557  0.5501  1.5314
15782SOL     OW48786   4.041   4.282  10.707 -0.2705 -0.2935 -0.0447
15782SOL    HW148787   4.031   4.219  10.635  1.7893  0.2318 -0.8503
15782SOL    HW248788   4.038   4.367  10.664  1.2803  0.0207  0.4356
15783SOL     OW48789   5.517   5.309  10.979 -0.1449  0.3375 -0.1804
15783SOL    HW148790   5.589   5.334  10.920 -0.9054  1.6453 -0.5890
15783SOL    HW248791   5.507   5.215  10.965  1.0898  0.2384 -0.5569
15784SOL     OW48792   4.684   5.508  11.065 -0.2851  0.3646  0.3914
15784SOL    HW148793   4.658   5.550  10.983  0.2614  0.7812  0.4274
15784SOL    HW248794   4.601   5.484  11.108 -0.5727  0.0916 -0.3035
15785SOL     OW48795   3.286   6.252  10.671  0.1835  0.3227 -0.2491
15785SOL    HW148796   3.228   6.272  10.597 -0.3014 -2.0241 -0.5984
15785SOL    HW248797   3.310   6.337  10.706 -0.9613  1.4708 -2.0470
15786SOL     OW48798   6.182   3.833   8.920  0.3723 -0.0563 -0.0073
15786SOL    HW148799   6.197   3.802   8.831  0.3464  0.6066 -0.2475
15786SOL    HW248800   6.255   3.798   8.970 -0.4824 -1.8728  0.0846
15787SOL     OW48801   3.696   4.425  10.493 -0.0426 -0.1371 -0.0751
15787SOL    HW148802   3.775   4.445  10.544  0.0277 -0.1973 -0.1602
15787SOL    HW248803   3.669   4.509  10.457 -1.5719  0.4195  2.1426
15788SOL     OW48804   4.986   5.595  12.390 -0.0575  0.4934  0.1936
15788SOL    HW148805   4.962   5.587  12.298 -1.1504 -3.6158  0.5930
15788SOL    HW248806   4.902   5.601  12.436  0.4158  1.3032  0.9851
15789SOL     OW48807   4.587   3.059   9.589 -0.1266  0.5459 -0.1104
15789SOL    HW148808   4.670   3.070   9.542 -0.7395  0.3113 -1.2927
15789SOL    HW248809   4.597   3.111   9.668  0.5137  1.9113 -1.0600
15790SOL     OW48810   5.423   5.960  10.625  0.0418 -0.2074 -0.4391
15790SOL    HW148811   5.445   6.036  10.678  1.5562  1.8220 -3.6390
15790SOL    HW248812   5.359   5.912  10.676 -0.0356  2.5283  2.2983
15791SOL     OW48813   3.784   4.344  11.504  0.3489 -0.1553  0.3251
15791SOL    HW148814   3.717   4.345  11.436  0.0096 -1.6786  0.6169
15791SOL    HW248815   3.739   4.313  11.582  1.5115 -1.9432  0.3437
15792SOL     OW48816   2.851   5.371  11.789 -0.0337 -0.2701 -0.2170
15792SOL    HW148817   2.788   5.418  11.735  0.2664 -0.5827 -0.8468
15792SOL    HW248818   2.893   5.439  11.842 -1.0011 -0.0789  0.3262
15793SOL     OW48819   5.446   5.782  11.906  0.1497  0.4658  0.4773
15793SOL    HW148820   5.504   5.820  11.972 -1.4593 -0.0514  2.2864
15793SOL    HW248821   5.446   5.688  11.925 -0.0974  0.2629 -0.4674
15794SOL     OW48822   4.806   4.562   8.473 -0.3948  0.3003  0.3266
15794SOL    HW148823   4.807   4.522   8.386  1.1331  1.3264 -0.1672
15794SOL    HW248824   4.725   4.613   8.474 -0.0391  0.9362 -0.8384
15795SOL     OW48825   5.875   5.726   7.308  0.1564  0.2358 -0.2194
15795SOL    HW148826   5.938   5.747   7.240 -0.0851 -0.5792 -0.7180
15795SOL    HW248827   5.920   5.746   7.390  1.6386 -1.6906 -0.4883
15796SOL     OW48828   5.438   3.835  12.045 -0.1796  0.1613 -0.2136
15796SOL    HW148829   5.526   3.800  12.059 -0.3271  0.0474  0.4657
15796SOL    HW248830   5.451   3.911  11.989  0.3773  0.3013  0.0959
15797SOL     OW48831   5.457   4.522  10.289  0.7576  0.0419 -0.2942
15797SOL    HW148832   5.397   4.513  10.363  2.6391 -0.4752  1.2454
15797SOL    HW248833   5.505   4.603  10.307  2.0409 -0.6902 -0.2929
15798SOL     OW48834   2.594   6.195  11.342 -0.0342 -0.2801  0.3176
15798SOL    HW148835   2.605   6.269  11.403 -2.4296  0.6275 -0.2726
15798SOL    HW248836   2.669   6.202  11.283  0.5051  0.8489  1.0918
15799SOL     OW48837   5.083   4.543   9.505  0.3935 -0.7015  0.1024
15799SOL    HW148838   5.134   4.623   9.518  0.4070 -0.1023 -2.9144
15799SOL    HW248839   4.996   4.565   9.540  0.3030  0.8136 -0.9620
15800SOL     OW48840   7.592   0.157  10.256  0.2153 -0.4188  0.1398
15800SOL    HW148841   7.542   0.093  10.206  0.8875 -1.4620  0.7660
15800SOL    HW248842   7.623   0.219  10.191  1.5940 -2.0796 -0.8588
15801SOL     OW48843   5.992   3.599   8.711 -0.3015 -0.2865 -0.2208
15801SOL    HW148844   6.080   3.629   8.732  0.8295 -2.2073 -1.7860
15801SOL    HW248845   5.935   3.671   8.736  1.8797  1.8183 -0.9478
15802SOL     OW48846   3.465   4.652  11.066  0.0383  0.0900  0.4199
15802SOL    HW148847   3.423   4.573  11.033 -3.0142  1.1224  1.4660
15802SOL    HW248848   3.463   4.712  10.991 -0.4866  0.1692  0.4942
15803SOL     OW48849   5.312   5.184   9.730  0.4529 -0.4525  0.4129
15803SOL    HW148850   5.386   5.229   9.771  1.0777 -0.4421 -0.6842
15803SOL    HW248851   5.235   5.227   9.767  1.0074  1.8205 -0.8571
15804SOL     OW48852   3.578   4.248  11.204  0.6262  0.1106  0.2311
15804SOL    HW148853   3.579   4.300  11.123  1.7818  0.5288  0.4920
15804SOL    HW248854   3.661   4.201  11.203 -0.4792 -1.9582 -0.0992
15805SOL     OW48855   6.344   6.480  10.172  0.2232 -0.1581 -0.3202
15805SOL    HW148856   6.398   6.416  10.125  0.1921 -0.0272 -0.5330
15805SOL    HW248857   6.350   6.560  10.119  2.2980  0.8037  1.2026
15806SOL     OW48858   3.404   5.990   9.778 -0.0449 -0.5855  0.3273
15806SOL    HW148859   3.322   5.987   9.728  0.1547 -1.0624  0.0168
15806SOL    HW248860   3.473   5.997   9.712  0.0989  2.1513  0.6335
15807SOL     OW48861   2.987   5.953   9.842 -0.0873 -0.2861  0.5102
15807SOL    HW148862   2.959   6.039   9.873  1.5842  0.0798  1.0619
15807SOL    HW248863   2.980   5.897   9.920  1.9008  0.1123  1.0211
15808SOL     OW48864   4.975   5.741  10.921 -0.3093  0.2887  0.4040
15808SOL    HW148865   5.029   5.663  10.911 -0.0973  0.3355  1.1033
15808SOL    HW248866   4.987   5.766  11.013  0.3903  1.7148 -0.0636
15809SOL     OW48867   4.255   6.076   0.257  0.1155  0.2053  0.0407
15809SOL    HW148868   4.165   6.105   0.244 -0.6308 -2.1675 -0.6547
15809SOL    HW248869   4.284   6.048   0.170  0.1119 -2.6009  0.8303
15810SOL     OW48870   5.287   2.969  11.149 -0.2878 -0.2297 -0.1358
15810SOL    HW148871   5.359   2.913  11.119 -0.9936 -1.0301 -0.3651
15810SOL    HW248872   5.228   2.975  11.073 -1.3239 -1.0169  0.5811
15811SOL     OW48873   4.138   4.422   9.741 -0.2351  0.5414  0.0287
15811SOL    HW148874   4.051   4.427   9.781 -0.7346 -0.7668 -0.8309
15811SOL    HW248875   4.121   4.417   9.647  0.5123 -3.2920 -0.0408
15812SOL     OW48876   6.059   4.251   9.774 -0.1177 -0.3200 -0.1873
15812SOL    HW148877   5.993   4.204   9.825 -2.0121  2.0050 -0.3051
15812SOL    HW248878   6.050   4.216   9.685 -0.8742 -0.3473 -0.1023
15813SOL     OW48879   3.329   4.936   8.048 -0.6723  0.1876 -0.3985
15813SOL    HW148880   3.345   4.846   8.022 -0.6279  0.3420 -0.9032
15813SOL    HW248881   3.355   4.939   8.140 -0.9929 -0.3934 -0.2861
15814SOL     OW48882   2.087   6.015  10.674 -0.0629 -0.4085  0.0681
15814SOL    HW148883   2.021   5.948  10.653  0.3692  0.1443 -3.6161
15814SOL    HW248884   2.171   5.970  10.662  0.2319  0.0219  0.5037
15815SOL     OW48885   5.597   3.860   9.636 -0.4862 -0.1548  0.3565
15815SOL    HW148886   5.671   3.883   9.580  0.6846  0.5252  2.1064
15815SOL    HW248887   5.521   3.901   9.593  0.4444  0.7469 -0.4853
15816SOL     OW48888   5.066   5.160   9.012  0.4309  0.0095  0.7028
15816SOL    HW148889   4.986   5.136   9.058 -0.2392  1.2445  0.2319
15816SOL    HW248890   5.132   5.169   9.082 -0.4423  1.3488  1.3866
15817SOL     OW48891   6.043   6.150  12.100 -0.3560 -0.0773 -0.2221
15817SOL    HW148892   5.971   6.141  12.037 -1.4582 -1.3181  1.1376
15817SOL    HW248893   6.111   6.091  12.067 -0.7925 -0.4709 -0.4353
15818SOL     OW48894   6.045   3.066  10.246  0.2356  0.0015 -0.4297
15818SOL    HW148895   6.037   3.051  10.152 -0.1446  1.9692 -0.7506
15818SOL    HW248896   5.965   3.028  10.283  0.4381 -0.8789 -0.8796
15819SOL     OW48897   5.869   3.826  10.291  0.3574 -0.3529 -0.0233
15819SOL    HW148898   5.904   3.801  10.205  1.3813  0.5400  0.1016
15819SOL    HW248899   5.812   3.900  10.273  1.3665  0.4948  0.1485
15820SOL     OW48900   3.600   5.726   8.281  0.4681 -0.1678  0.3355
15820SOL    HW148901   3.517   5.774   8.282  0.9741  0.7468  2.0507
15820SOL    HW248902   3.628   5.724   8.373  2.0086 -1.0524 -0.1160
15821SOL     OW48903   5.655   5.172  10.627 -0.6020  0.7185  0.0216
15821SOL    HW148904   5.627   5.213  10.545 -0.5429 -0.0617 -0.3948
15821SOL    HW248905   5.690   5.087  10.601  1.3467  1.2869  0.6221
15822SOL     OW48906   6.307   5.916  11.704 -0.2485  0.4011  0.2577
15822SOL    HW148907   6.393   5.927  11.744  0.0058  1.2085 -0.4898
15822SOL    HW248908   6.322   5.853  11.633 -0.7495 -1.2339  1.5394
15823SOL     OW48909   4.403   6.236  12.190  0.3073  0.2461 -0.4792
15823SOL    HW148910   4.372   6.298  12.124  0.0996  1.0356  0.3417
15823SOL    HW248911   4.363   6.266  12.272  2.1210  0.4645  0.3822
15824SOL     OW48912   6.920   4.541  10.817 -0.0712  0.0790  0.2267
15824SOL    HW148913   6.883   4.611  10.870 -1.9182 -1.1651  0.7026
15824SOL    HW248914   6.954   4.478  10.881 -1.3726 -0.9421 -0.0343
15825SOL     OW48915   4.060   4.915   9.919  0.3795 -0.4828 -0.0523
15825SOL    HW148916   4.069   4.942   9.827 -0.5996  0.7079  0.1717
15825SOL    HW248917   4.146   4.932   9.957  0.7750 -0.9196 -0.7149
15826SOL     OW48918   4.894   5.142  11.397  0.0678  0.7030  0.0249
15826SOL    HW148919   4.849   5.219  11.363 -1.9046 -0.5284 -0.3258
15826SOL    HW248920   4.959   5.120  11.330 -0.2385  1.3187 -0.4814
15827SOL     OW48921   6.317   4.274  11.500  0.1355  0.3100 -0.4059
15827SOL    HW148922   6.389   4.257  11.561 -0.3191  1.5563  0.5187
15827SOL    HW248923   6.338   4.222  11.422  1.1012 -0.7469  0.5310
15828SOL     OW48924   4.332   5.341  10.735 -0.0677  0.1040  0.0768
15828SOL    HW148925   4.313   5.425  10.693  1.6801  0.2565 -0.5108
15828SOL    HW248926   4.351   5.364  10.826 -0.2907  0.2460  0.0892
15829SOL     OW48927   3.553   6.673  10.691  0.6112  0.7150  0.5627
15829SOL    HW148928   3.484   6.720  10.737  1.3966  0.5559  1.9546
15829SOL    HW248929   3.522   6.667  10.601 -2.3417 -1.5045  1.5752
15830SOL     OW48930   4.826   3.676   8.584  0.5192 -0.4702 -0.5970
15830SOL    HW148931   4.749   3.731   8.570  0.3223 -0.6434 -0.1822
15830SOL    HW248932   4.868   3.712   8.662  0.4348 -0.8589 -0.3722
15831SOL     OW48933   6.080   4.538   7.798 -0.4152 -0.4413 -0.0969
15831SOL    HW148934   6.111   4.500   7.716 -1.0829  1.5488 -1.3451
15831SOL    HW248935   6.051   4.626   7.775 -1.4991 -0.1293  2.1124
15832SOL     OW48936   6.141   5.154   9.149  0.0417 -0.1928 -0.1416
15832SOL    HW148937   6.160   5.233   9.098 -0.8651  0.7590  0.9453
15832SOL    HW248938   6.177   5.173   9.235 -0.8278 -0.6784  0.3344
15833SOL     OW48939   4.940   5.164  11.982 -0.2305 -0.3918 -0.0935
15833SOL    HW148940   5.028   5.150  12.018  0.3823  0.3236 -1.2416
15833SOL    HW248941   4.883   5.110  12.036  0.8388 -0.4547  1.0186
15834SOL     OW48942   3.263   4.214  11.147 -0.5873  0.1329 -0.1234
15834SOL    HW148943   3.294   4.157  11.218  1.2547 -0.0151 -0.9858
15834SOL    HW248944   3.256   4.156  11.071 -2.1420  0.3782 -0.2043
15835SOL     OW48945   3.055   4.211  11.726 -0.0028 -1.1224  0.7432
15835SOL    HW148946   2.960   4.222  11.715  0.1930  3.0197  1.4014
15835SOL    HW248947   3.071   4.234  11.818  1.8098  0.3607  0.1126
15836SOL     OW48948   6.643   3.331  10.499  0.2333 -0.5404 -0.0734
15836SOL    HW148949   6.706   3.397  10.473  0.7342 -0.3276  1.5498
15836SOL    HW248950   6.583   3.377  10.558  0.3746 -1.4294  0.7900
15837SOL     OW48951   3.676   4.569   9.776 -0.8662  0.2523 -0.0291
15837SOL    HW148952   3.735   4.524   9.714  0.1757 -1.0545  1.8027
15837SOL    HW248953   3.724   4.647   9.802 -0.3908 -0.2459  0.6300
15838SOL     OW48954   5.332   3.964  10.524  0.5284 -0.2715  0.2554
15838SOL    HW148955   5.326   3.952  10.618  0.1481  0.5270  0.3422
15838SOL    HW248956   5.249   4.007  10.500  1.0548  0.4740 -0.2808
15839SOL     OW48957   4.069   5.533  10.270  0.2563  0.1885  0.6694
15839SOL    HW148958   3.984   5.510  10.306 -0.0690 -0.1071 -0.2640
15839SOL    HW248959   4.098   5.454  10.224 -0.5460  1.3074 -1.9761
15840SOL     OW48960   3.191   6.555  10.362  0.3094  0.3717  0.0351
15840SOL    HW148961   3.159   6.569  10.273 -1.0057  0.7375  0.5478
15840SOL    HW248962   3.189   6.460  10.374 -0.6022  0.3930  0.0598
15841SOL     OW48963   3.957   5.205  11.080  0.3711 -0.0865 -0.3340
15841SOL    HW148964   3.899   5.149  11.028  1.1959 -0.1663 -1.1820
15841SOL    HW248965   3.905   5.226  11.158  0.6842 -3.7348  1.0969
15842SOL     OW48966   3.047   5.480  10.086  0.1954 -0.3036  0.1990
15842SOL    HW148967   3.108   5.409  10.068  0.8491  0.2816  0.0710
15842SOL    HW248968   3.090   5.559  10.052 -0.4193  0.1906  0.5293
15843SOL     OW48969   5.458   5.807   9.962  0.6769 -0.2842 -0.0310
15843SOL    HW148970   5.440   5.808  10.056 -1.2311  0.2471 -0.3746
15843SOL    HW248971   5.437   5.717   9.935  1.3315 -0.4691  0.0448
15844SOL     OW48972   3.147   5.906  10.573  0.1495  0.5444  1.0313
15844SOL    HW148973   3.109   5.898  10.661  0.7362  0.2263  1.2633
15844SOL    HW248974   3.217   5.970  10.582 -1.0321  1.9800  0.3536
15845SOL     OW48975   4.811   4.158   9.615 -0.2778 -0.0937 -0.0931
15845SOL    HW148976   4.775   4.110   9.541  0.2076  1.8552 -1.6993
15845SOL    HW248977   4.900   4.124   9.625  0.2863  0.8336 -1.6236
15846SOL     OW48978   5.819   3.428   9.642  0.3742 -0.0159  0.2828
15846SOL    HW148979   5.870   3.434   9.561  0.0890 -2.4140 -0.1643
15846SOL    HW248980   5.741   3.482   9.625  0.1988 -0.6715 -1.1804
15847SOL     OW48981   3.067   3.838  10.851  0.0761  0.2901 -0.4521
15847SOL    HW148982   3.018   3.805  10.776  0.4750 -1.5905  0.0714
15847SOL    HW248983   3.114   3.762  10.885  2.8347  1.8471 -0.5117
15848SOL     OW48984   3.686   4.898   8.169 -0.0277 -0.1469 -0.0563
15848SOL    HW148985   3.725   4.815   8.197  0.1351 -0.2110 -0.4788
15848SOL    HW248986   3.606   4.905   8.221 -0.8856 -1.3509 -1.1537
15849SOL     OW48987   3.989   4.494  12.335  0.1504 -0.2121  0.3798
15849SOL    HW148988   3.960   4.580  12.364  0.8373  0.3918 -0.6403
15849SOL    HW248989   4.020   4.451  12.414 -0.3929  0.3884  0.9356
15850SOL     OW48990   5.103   5.224   0.514 -0.4901  0.3485  0.2561
15850SOL    HW148991   5.044   5.283   0.468 -1.6121  0.8744  2.2582
15850SOL    HW248992   5.135   5.275   0.589 -0.3232 -1.0990  1.2164
15851SOL     OW48993   4.520   4.423  10.880 -0.0399 -0.1170 -0.3101
15851SOL    HW148994   4.503   4.393  10.969  0.1292  1.8058  0.4053
15851SOL    HW248995   4.479   4.356  10.824 -1.9737 -0.3053  1.2276
15852SOL     OW48996   3.281   3.387  11.413  0.8152  0.4110 -0.0560
15852SOL    HW148997   3.290   3.440  11.492 -1.2837  0.9647 -0.1369
15852SOL    HW248998   3.273   3.450  11.342  1.7859 -0.0742 -0.6143
15853SOL     OW48999   6.455   4.847  11.519 -0.0072 -0.2373  0.0251
15853SOL    HW149000   6.484   4.937  11.531  0.3177 -0.2756 -0.4484
15853SOL    HW249001   6.375   4.854  11.468 -0.0694 -0.2128  0.1240
15854SOL     OW49002   6.877   3.277  12.227 -0.0149 -0.2461  0.1643
15854SOL    HW149003   6.891   3.229  12.308 -1.5130 -0.8554  0.0916
15854SOL    HW249004   6.904   3.216  12.158 -1.5960 -0.8954  0.0878
15855SOL     OW49005   6.764   2.624  10.600 -0.0592 -0.2947  0.3833
15855SOL    HW149006   6.772   2.649  10.508 -1.0418 -2.3491 -0.3296
15855SOL    HW249007   6.828   2.679  10.645 -0.7563  2.0354 -1.2295
15856SOL     OW49008   6.162   5.104  11.115 -0.2778 -0.2775 -0.7506
15856SOL    HW149009   6.138   5.195  11.098 -0.4648 -0.3113 -0.6700
15856SOL    HW249010   6.196   5.071  11.031  0.7459  0.1628 -0.5248
15857SOL     OW49011   5.806   5.861  11.855 -0.2173  0.2129 -0.1120
15857SOL    HW149012   5.729   5.867  11.798 -2.3595 -1.1718  2.4110
15857SOL    HW249013   5.853   5.784  11.824  0.4956  1.3356 -1.9706
15858SOL     OW49014   4.229   4.698  12.335  0.0264 -0.3159  0.0844
15858SOL    HW149015   4.231   4.620  12.390 -1.1255 -0.3322  0.1336
15858SOL    HW249016   4.137   4.727  12.337  0.1238  0.1683 -1.1487
15859SOL     OW49017   5.889   3.986  10.993  0.1588 -0.4313 -0.3361
15859SOL    HW149018   5.919   3.905  10.952 -0.0374 -0.9914  0.6019
15859SOL    HW249019   5.967   4.040  10.999 -0.3039  0.9469 -4.2046
15860SOL     OW49020   6.360   5.180   0.312  0.3254  0.0345  0.8936
15860SOL    HW149021   6.436   5.135   0.348 -0.0986 -0.8637  0.7018
15860SOL    HW249022   6.353   5.261   0.362  3.2412  1.7134 -1.0629
15861SOL     OW49023   5.135   3.624  10.661  0.6658  0.1466 -0.8029
15861SOL    HW149024   5.071   3.694  10.674 -0.3863 -0.7877 -0.7653
15861SOL    HW249025   5.214   3.655  10.705 -0.7305 -0.0028  2.0798
15862SOL     OW49026   5.753   5.385   0.499  0.4299 -0.2017  0.0235
15862SOL    HW149027   5.735   5.465   0.548  0.9275  0.5254 -0.9307
15862SOL    HW249028   5.716   5.402   0.412 -1.2177 -1.7986  0.3557
15863SOL     OW49029   4.040   5.505  10.618  0.9074 -0.4909 -0.2228
15863SOL    HW149030   4.092   5.567  10.567 -0.3485  1.3801  0.6323
15863SOL    HW249031   4.064   5.523  10.709 -1.1010  0.3783  0.1928
15864SOL     OW49032   5.325   5.068   0.686  0.3244 -0.2243  0.5890
15864SOL    HW149033   5.378   5.105   0.615  1.2267 -0.2167  1.2557
15864SOL    HW249034   5.260   5.013   0.641  0.3600  0.4220 -0.2807
15865SOL     OW49035   4.709   5.086   8.993 -0.1433 -0.2447 -0.5830
15865SOL    HW149036   4.619   5.115   9.005 -0.3545 -1.6390  2.0906
15865SOL    HW249037   4.724   5.088   8.899 -3.2223 -0.7151 -1.1664
15866SOL     OW49038   3.554   4.736  12.261  0.0935 -0.1441 -0.4187
15866SOL    HW149039   3.508   4.748  12.345  0.8656  0.1280 -0.0271
15866SOL    HW249040   3.595   4.821  12.245  0.7981 -0.5107 -0.5598
15867SOL     OW49041   6.058   2.393  12.253 -0.7306 -0.2218  0.2049
15867SOL    HW149042   6.118   2.467  12.240 -0.9551 -0.0714  0.0142
15867SOL    HW249043   6.106   2.317  12.221 -1.0803  0.0676 -1.0694
15868SOL     OW49044   5.476   3.901  10.299 -0.2610  0.5081  0.5558
15868SOL    HW149045   5.405   3.903  10.235 -0.3914 -0.7063  0.6538
15868SOL    HW249046   5.435   3.924  10.382 -0.8315 -1.4117  0.8536
15869SOL     OW49047   4.519   3.932  12.044 -0.0861 -0.2356 -0.1860
15869SOL    HW149048   4.513   3.921  12.139 -1.1577  0.1117 -0.2066
15869SOL    HW249049   4.571   4.011  12.032  0.2134 -0.3868  0.0979
15870SOL     OW49050   3.985   4.819  11.391  0.6424 -0.6970  0.4402
15870SOL    HW149051   3.982   4.890  11.455 -2.1333 -0.1724 -0.1426
15870SOL    HW249052   3.959   4.741  11.440 -1.9314 -0.2173 -0.0094
15871SOL     OW49053   5.124   2.843  11.822 -0.1578 -0.2855  0.0444
15871SOL    HW149054   5.202   2.897  11.836 -0.3008 -0.4078  1.3623
15871SOL    HW249055   5.123   2.827  11.727  1.0110  0.3169 -0.0837
15872SOL     OW49056   6.123   4.168  12.254  0.1927 -0.3857 -0.1131
15872SOL    HW149057   6.204   4.146  12.300  0.3348  0.5146  0.0889
15872SOL    HW249058   6.058   4.182  12.323 -0.2435 -1.4593 -0.2846
15873SOL     OW49059   5.536   3.032  10.901 -0.4401  0.6627 -0.4374
15873SOL    HW149060   5.576   3.048  10.816  0.3601  1.5693  0.0868
15873SOL    HW249061   5.493   3.115  10.923  1.3315  1.2532  1.0573
15874SOL     OW49062   6.409   5.069  11.264  0.2705  0.3475  0.4792
15874SOL    HW149063   6.372   4.993  11.309  0.7496 -0.9654 -1.2424
15874SOL    HW249064   6.333   5.112  11.224  0.2200 -0.7146 -0.6540
15875SOL     OW49065   5.645   4.577  11.784  0.4374  0.3379 -0.4850
15875SOL    HW149066   5.711   4.519  11.747 -0.3837 -1.0936  0.1910
15875SOL    HW249067   5.671   4.586  11.876 -1.3561 -1.9242  0.3266
15876SOL     OW49068   3.868   4.989   0.158 -0.1683  0.2036 -0.3799
15876SOL    HW149069   3.870   5.017   0.249 -1.4702  1.6872 -0.7520
15876SOL    HW249070   3.947   5.026   0.119  0.7662 -1.0395  0.2710
15877SOL     OW49071   5.760   4.385  11.603  0.0142  0.3070 -0.1071
15877SOL    HW149072   5.821   4.322  11.643 -1.5157 -0.8778  0.4733
15877SOL    HW249073   5.804   4.415  11.524  1.9391  0.5642  1.0108
15878SOL     OW49074   5.377   4.729   0.811  0.1436  0.0303 -1.2475
15878SOL    HW149075   5.390   4.726   0.717 -0.6926 -1.3910 -1.3375
15878SOL    HW249076   5.347   4.641   0.835 -3.8365  1.3915 -0.3230
15879SOL     OW49077   6.051   4.514   0.518 -0.0721 -0.1432 -0.5789
15879SOL    HW149078   6.077   4.605   0.500 -0.5125  0.1794  0.3657
15879SOL    HW249079   6.128   4.476   0.560  0.1023 -0.1993 -0.9468
15880SOL     OW49080   4.268   5.065  11.629  0.7314  0.3182  0.1709
15880SOL    HW149081   4.338   5.048  11.566 -0.1383  0.5009 -0.8886
15880SOL    HW249082   4.305   5.041  11.714  3.0158  2.8869  0.0484
15881SOL     OW49083   2.966   4.956   9.662  0.5067 -0.4897 -0.2582
15881SOL    HW149084   2.988   5.034   9.713 -0.0938 -0.5066  0.0372
15881SOL    HW249085   3.018   4.886   9.701  0.8463 -0.2905 -0.3525
15882SOL     OW49086   5.382   3.250  11.152  0.4721 -0.2215  0.1371
15882SOL    HW149087   5.365   3.177  11.092  1.2056 -0.9433  0.7896
15882SOL    HW249088   5.430   3.314  11.099  2.2898 -1.4196  0.2658
15883SOL     OW49089   6.240   6.493  10.718  0.2485 -0.4033 -0.3898
15883SOL    HW149090   6.159   6.537  10.745 -0.2837 -2.2126  1.1877
15883SOL    HW249091   6.302   6.564  10.703 -0.9060  0.9353  0.8769
15884SOL     OW49092   4.863   5.082   0.585 -0.0175  0.0506 -0.0500
15884SOL    HW149093   4.939   5.140   0.587 -1.0678  1.4618  0.1832
15884SOL    HW249094   4.868   5.039   0.499 -1.0495  3.0954 -1.7837
15885SOL     OW49095   3.243   6.826  10.079 -0.1702  0.6818 -0.2399
15885SOL    HW149096   3.238   6.862   9.990  0.5695 -2.5363 -1.7001
15885SOL    HW249097   3.166   6.771  10.087  1.5508 -1.9370 -0.3767
15886SOL     OW49098   4.736   6.398   2.927  0.3157 -0.7060 -0.0688
15886SOL    HW149099   4.681   6.441   2.992 -0.4240  0.5968 -1.4992
15886SOL    HW249100   4.800   6.350   2.978 -0.2449  0.2617  1.6178
15887SOL     OW49101   6.144   5.534  12.236 -0.3324  0.0004  0.3549
15887SOL    HW149102   6.093   5.606  12.199 -1.6291 -0.0322  1.9938
15887SOL    HW249103   6.105   5.455  12.198  1.4827  0.0965 -1.9259
15888SOL     OW49104   4.867   5.106   0.084 -0.3319  0.6457 -0.2177
15888SOL    HW149105   4.960   5.115   0.105 -0.2036  0.5798 -0.7504
15888SOL    HW249106   4.851   5.173   0.017 -0.2923 -0.3829 -1.2853
15889SOL     OW49107   5.464   4.081   9.894  0.2772  0.1313 -0.1904
15889SOL    HW149108   5.548   4.097   9.937 -0.6330  1.1058  1.3570
15889SOL    HW249109   5.443   3.990   9.915 -0.0269  0.5144  1.2786
15890SOL     OW49110   4.853   6.106   1.185  0.2780 -0.2281 -0.2574
15890SOL    HW149111   4.893   6.183   1.146  1.7903 -0.2349  1.1649
15890SOL    HW249112   4.761   6.130   1.195  0.6906  1.3869  0.0701
15891SOL     OW49113   5.265   6.106  10.235  0.4321 -0.1008 -0.2460
15891SOL    HW149114   5.244   6.080  10.146 -0.4226 -1.3973  0.3074
15891SOL    HW249115   5.350   6.065  10.252  0.6420  0.2283 -0.4880
15892SOL     OW49116   4.393   7.191  11.840  0.6541  0.0737  0.5004
15892SOL    HW149117   4.471   7.184  11.786  1.1967  0.9278  1.1465
15892SOL    HW249118   4.345   7.266  11.806 -0.6179 -1.2476 -0.7669
15893SOL     OW49119   6.349   4.690  11.932  0.0025 -0.3294  0.3112
15893SOL    HW149120   6.259   4.699  11.903  0.1711 -1.3653 -0.5902
15893SOL    HW249121   6.343   4.642  12.015 -0.3632  1.1574  1.1930
15894SOL     OW49122   4.798   7.299   2.160 -0.0124  0.0065  0.7054
15894SOL    HW149123   4.795   7.205   2.177  0.5202  0.1243  1.5278
15894SOL    HW249124   4.742   7.337   2.228  2.6556  0.5503  2.7733
15895SOL     OW49125   4.832   4.138  10.771  0.3369 -0.2336 -0.2272
15895SOL    HW149126   4.908   4.084  10.795 -0.5774 -1.8412 -0.8302
15895SOL    HW249127   4.839   4.148  10.676 -1.0819 -1.8181 -0.5275
15896SOL     OW49128   5.389   2.951  12.480 -0.2336 -0.0893  0.0044
15896SOL    HW149129   5.367   3.044  12.493 -0.9306 -0.1860 -0.4641
15896SOL    HW249130   5.437   2.949  12.398  0.0703 -0.1059  0.1804
15897SOL     OW49131   5.790   3.421  10.789  0.1935  0.3525  0.0499
15897SOL    HW149132   5.865   3.416  10.849 -0.3182  0.3480  0.6978
15897SOL    HW249133   5.740   3.496  10.819  0.4804  1.0042 -1.0351
15898SOL     OW49134   4.168   5.249  12.011 -0.1582 -0.3576  0.7094
15898SOL    HW149135   4.198   5.316  11.949  0.7412 -0.1854  1.3022
15898SOL    HW249136   4.088   5.214  11.972  0.6576 -0.6206 -0.8270
15899SOL     OW49137   5.075   5.411  10.178  0.2928  0.3081 -0.1872
15899SOL    HW149138   5.114   5.481  10.126 -0.5803 -0.7530 -2.4404
15899SOL    HW249139   5.147   5.351  10.197  0.6579  0.8065  0.0035
15900SOL     OW49140   4.638   3.762   0.405  0.1246 -0.2269 -0.3457
15900SOL    HW149141   4.719   3.746   0.357 -0.1080 -2.4119 -0.0944
15900SOL    HW249142   4.577   3.795   0.338  0.7787  0.0143 -0.8369
15901SOL     OW49143   5.781   3.824  11.639  0.1412 -0.2267 -0.1412
15901SOL    HW149144   5.726   3.798  11.565  1.3606  0.1793 -1.2476
15901SOL    HW249145   5.817   3.909  11.613  0.1460  0.2015  1.1935
15902SOL     OW49146   4.224   1.341  11.412  0.3777  0.3965 -0.1255
15902SOL    HW149147   4.300   1.356  11.467 -0.5146 -0.3565  1.3913
15902SOL    HW249148   4.239   1.256  11.372 -0.1344 -0.2733  1.0552
15903SOL     OW49149   4.356   3.823  11.507 -0.7192  0.1711 -0.5916
15903SOL    HW149150   4.447   3.808  11.532 -0.5645  0.3225 -1.0496
15903SOL    HW249151   4.307   3.822  11.590 -0.3255 -0.0678 -0.3624
15904SOL     OW49152   6.076   3.559  11.354 -0.5047 -0.4599  0.8828
15904SOL    HW149153   5.998   3.504  11.361 -1.7253  1.0940 -0.0271
15904SOL    HW249154   6.060   3.632  11.414  0.0962  0.0791  0.3991
15905SOL     OW49155   2.829   5.285  12.293 -0.0459 -0.1070 -0.0136
15905SOL    HW149156   2.820   5.190  12.307  0.6541  0.1242  2.4953
15905SOL    HW249157   2.919   5.296  12.260 -1.1663 -0.5076 -3.6430
15906SOL     OW49158   5.439   5.607  11.622  0.0736  0.1231 -0.2635
15906SOL    HW149159   5.351   5.569  11.626  0.2883 -0.2879  1.2241
15906SOL    HW249160   5.498   5.532  11.630  0.5198  0.5787  0.8977
15907SOL     OW49161   5.807   5.775  12.457  0.0381 -0.1101 -0.6475
15907SOL    HW149162   5.799   5.780  12.552 -0.0218  1.0176 -0.6932
15907SOL    HW249163   5.830   5.684  12.439 -2.4162 -0.9883  0.2591
15908SOL     OW49164   5.723   4.772   9.756  0.0508  0.2921  0.3394
15908SOL    HW149165   5.651   4.732   9.707 -1.7229  2.2927  1.1644
15908SOL    HW249166   5.703   4.755   9.848  2.1714 -1.4867  0.5799
15909SOL     OW49167   3.644   4.161  10.458  0.4309 -0.0141  0.2264
15909SOL    HW149168   3.687   4.164  10.372 -0.2398 -0.7509 -0.1525
15909SOL    HW249169   3.628   4.253  10.480  1.6284  0.2366  0.0964
15910SOL     OW49170   5.196   2.579   1.298 -0.4623 -0.2943 -0.2275
15910SOL    HW149171   5.268   2.526   1.262 -0.5357 -0.7421  0.2800
15910SOL    HW249172   5.192   2.555   1.390 -1.4931 -0.5381 -0.3214
15911SOL     OW49173   6.069   1.929  11.391  0.6615 -0.0171 -0.1482
15911SOL    HW149174   6.071   1.887  11.477  1.0595 -0.6695 -0.4669
15911SOL    HW249175   6.053   1.857  11.330  4.4178 -0.3289 -1.0414
15912SOL     OW49176   7.532   3.485   0.424 -0.0715 -0.2335 -0.3117
15912SOL    HW149177   7.503   3.560   0.475  0.5512 -0.7456  0.8356
15912SOL    HW249178   7.622   3.507   0.399  0.7786 -1.3328  1.5930
15913SOL     OW49179   6.235   4.453  11.104  0.4623  0.2346  0.6199
15913SOL    HW149180   6.263   4.525  11.161 -1.4120  2.1149 -0.7003
15913SOL    HW249181   6.140   4.463  11.097  0.6824  1.1126 -4.0111
15914SOL     OW49182   4.103   5.210  11.393  0.0385  0.3859  0.4219
15914SOL    HW149183   4.166   5.138  11.389  0.1160  0.4755 -0.0713
15914SOL    HW249184   4.019   5.169  11.371 -0.1749  0.1644  1.5907
15915SOL     OW49185   6.311   3.732  10.564  0.1206  0.4403  0.1121
15915SOL    HW149186   6.335   3.744  10.472 -2.0024 -3.0275 -1.0968
15915SOL    HW249187   6.227   3.777  10.573 -0.7841 -1.0693 -0.3771
15916SOL     OW49188   5.912   5.478   9.645  0.2889 -0.2852  0.0293
15916SOL    HW149189   5.952   5.535   9.710  0.4901 -0.6979  0.2735
15916SOL    HW249190   5.873   5.537   9.581  0.9540  0.1272 -0.0071
15917SOL     OW49191   3.995   3.194  11.862 -0.3234 -0.4262  0.2468
15917SOL    HW149192   3.986   3.143  11.943 -2.6921 -1.9437 -0.8358
15917SOL    HW249193   3.976   3.284  11.888  1.4187 -0.4450  1.7669
15918SOL     OW49194   5.215   6.065  11.619  0.3534  0.4759  0.2836
15918SOL    HW149195   5.290   6.106  11.663  1.3765 -1.9151  0.8945
15918SOL    HW249196   5.220   5.973  11.644 -1.6354 -0.1261 -1.3255
15919SOL     OW49197   6.814   4.233   0.509  0.1521  0.2000 -0.1797
15919SOL    HW149198   6.746   4.224   0.442 -0.2803  0.4938  0.2126
15919SOL    HW249199   6.846   4.322   0.498  1.2472 -0.2863 -1.0805
15920SOL     OW49200   5.498   4.464  10.934 -0.0356 -0.0007 -0.6519
15920SOL    HW149201   5.436   4.458  11.007  0.5828 -1.3095 -0.1942
15920SOL    HW249202   5.564   4.528  10.964 -0.0229 -0.2007 -0.2419
15921SOL     OW49203   5.261   3.700  11.472 -0.2951  0.5092  0.0189
15921SOL    HW149204   5.271   3.634  11.404  0.7482 -1.1525  1.6839
15921SOL    HW249205   5.350   3.716  11.504 -0.5558  2.5514 -0.1370
15922SOL     OW49206   5.748   4.507   0.338  0.3186  0.6682 -0.2946
15922SOL    HW149207   5.762   4.422   0.297  2.1377  0.2592  1.0232
15922SOL    HW249208   5.755   4.570   0.266 -1.8503 -0.2748 -1.4236
15923SOL     OW49209   5.144   5.548  11.654 -0.0515 -0.3376 -0.0670
15923SOL    HW149210   5.052   5.536  11.677  0.2699 -1.0125  0.9346
15923SOL    HW249211   5.165   5.473  11.600  0.1355 -0.6442  0.4280
15924SOL     OW49212   4.745   2.783  12.400 -0.4633 -0.3189 -0.2864
15924SOL    HW149213   4.705   2.726  12.333 -1.4376  1.2678 -1.1051
15924SOL    HW249214   4.790   2.851  12.350  0.8048 -0.4230  0.6812
15925SOL     OW49215   4.372   4.887   0.599 -0.2625 -0.3080 -0.3333
15925SOL    HW149216   4.440   4.820   0.588 -0.3896 -0.6332  0.7737
15925SOL    HW249217   4.392   4.952   0.531  0.6479 -0.8117 -0.5699
15926SOL     OW49218   5.274   6.225   1.750 -0.2567 -0.5822 -0.2710
15926SOL    HW149219   5.221   6.160   1.796 -0.1337 -0.5752 -0.1220
15926SOL    HW249220   5.364   6.195   1.761  0.1252  1.2911  2.5028
15927SOL     OW49221   6.382   5.097  11.733  0.0458 -0.7693  0.3085
15927SOL    HW149222   6.377   5.032  11.803 -1.4457 -0.6586  0.3314
15927SOL    HW249223   6.326   5.169  11.763 -0.7678 -0.7976 -1.0592
15928SOL     OW49224   4.501   5.095   0.465  0.1489  0.8355  0.0013
15928SOL    HW149225   4.468   5.183   0.450 -1.6230  0.1389 -0.5062
15928SOL    HW249226   4.552   5.075   0.386  1.7173  1.8786  0.7230
15929SOL     OW49227   4.797   4.727   0.867 -0.2813 -0.8316  0.1093
15929SOL    HW149228   4.785   4.723   0.962 -0.6785 -2.7533  0.0148
15929SOL    HW249229   4.774   4.639   0.836 -2.0340  0.2669 -1.9920
15930SOL     OW49230   5.085   4.421   0.290 -0.1673 -0.0194 -0.3726
15930SOL    HW149231   5.094   4.416   0.195 -0.6264 -0.8684 -0.3862
15930SOL    HW249232   5.016   4.357   0.311  1.3580 -1.3852  0.7375
15931SOL     OW49233   5.487   4.392   9.610 -0.0466 -0.2299  0.3629
15931SOL    HW149234   5.504   4.394   9.516 -0.1110  0.5095  0.3595
15931SOL    HW249235   5.392   4.381   9.618 -0.0480 -0.2320  0.3441
15932SOL     OW49236   3.824   5.173  12.337 -0.1582 -0.1203 -0.2759
15932SOL    HW149237   3.891   5.108  12.357  1.4387  1.8333  1.0871
15932SOL    HW249238   3.849   5.209  12.252  0.6939  0.7518  0.3249
15933SOL     OW49239   3.426   5.990   0.924 -0.2126  0.1817  0.3613
15933SOL    HW149240   3.403   5.897   0.933  0.3650  0.0431  0.4722
15933SOL    HW249241   3.343   6.037   0.937 -0.5078 -0.3160  0.3089
15934SOL     OW49242   5.327   5.494   0.403  0.4085 -0.5663  0.6340
15934SOL    HW149243   5.312   5.587   0.384 -1.2205 -0.7171  1.0471
15934SOL    HW249244   5.341   5.491   0.497 -1.3361 -0.8932  0.9280
15935SOL     OW49245   5.986   4.642  12.130 -0.3455 -0.5501  0.4660
15935SOL    HW149246   5.941   4.722  12.157 -0.0440 -0.9712  2.3784
15935SOL    HW249247   6.032   4.666  12.049 -2.3136  0.4572 -0.4102
15936SOL     OW49248   6.021   5.512   9.965 -0.1555  0.3627  0.3190
15936SOL    HW149249   6.021   5.565   9.885 -2.0589  0.6227  0.4353
15936SOL    HW249250   6.007   5.576  10.036 -3.1754 -0.2133  0.4096
15937SOL     OW49251   3.880   4.720  11.157  0.3247  0.4448 -0.4679
15937SOL    HW149252   3.919   4.730  11.243  0.4779  0.4549 -0.5385
15937SOL    HW249253   3.952   4.733  11.095  0.3801 -0.3562 -0.5818
15938SOL     OW49254   4.550   4.002  10.309  0.4180 -0.1966  0.2229
15938SOL    HW149255   4.541   3.946  10.231  3.5585  0.1482 -0.5276
15938SOL    HW249256   4.553   4.091  10.274  1.5171 -0.0146  0.7523
15939SOL     OW49257   4.902   5.813  11.371  0.0930 -0.3804  0.8120
15939SOL    HW149258   4.990   5.800  11.406 -0.3649 -1.4403  1.6076
15939SOL    HW249259   4.897   5.755  11.296  0.3430  0.3042  0.2521
15940SOL     OW49260   6.268   3.986   0.141  0.0238  0.6146  0.2358
15940SOL    HW149261   6.249   3.917   0.205 -0.7591 -0.7176 -1.3521
15940SOL    HW249262   6.364   3.989   0.137  0.1012 -1.3653 -0.6122
15941SOL     OW49263   6.048   5.278  12.445  0.0894 -1.0540 -0.0937
15941SOL    HW149264   6.049   5.270  12.540 -2.1376  0.4663  0.1556
15941SOL    HW249265   6.138   5.295  12.420  0.3722  1.0043  2.0485
15942SOL     OW49266   5.471   3.775  11.753 -0.1174  0.0336 -0.8606
15942SOL    HW149267   5.563   3.752  11.744 -0.1736 -0.3182 -0.5479
15942SOL    HW249268   5.463   3.861  11.711  0.8790  1.2809  1.3000
15943SOL     OW49269   4.964   4.893  12.305  0.1516 -0.0321  0.1142
15943SOL    HW149270   4.991   4.871  12.395  1.0847  0.2158 -0.0958
15943SOL    HW249271   5.006   4.826  12.251  1.0193  0.8191 -0.2968
15944SOL     OW49272   2.400   5.428  12.223 -0.1753  0.0115 -0.1095
15944SOL    HW149273   2.453   5.474  12.289  1.7002 -1.2735 -0.6424
15944SOL    HW249274   2.464   5.391  12.162 -1.7553 -0.8183 -1.3464
15945SOL     OW49275   4.382   5.075   1.047 -0.4764 -0.1373  0.4433
15945SOL    HW149276   4.293   5.047   1.024 -0.5303  0.3956 -0.0438
15945SOL    HW249277   4.373   5.169   1.064  0.2172  0.2164 -0.9597
15946SOL     OW49278   5.389   4.536  11.707  0.6379  1.1083 -0.3701
15946SOL    HW149279   5.480   4.564  11.711  0.6530  1.7026 -3.0680
15946SOL    HW249280   5.339   4.616  11.720  0.4895  0.8675  0.5984
15947SOL     OW49281   4.352   4.029  10.505 -0.1875 -0.0801  0.2329
15947SOL    HW149282   4.287   4.077  10.453 -1.7572 -3.3699 -1.1379
15947SOL    HW249283   4.418   4.003  10.441  1.6785  1.6800  1.3068
15948SOL     OW49284   4.662   2.943  12.093  0.2511 -0.3918  0.3090
15948SOL    HW149285   4.622   2.864  12.130  0.6484 -1.1019 -0.7261
15948SOL    HW249286   4.743   2.954  12.143 -0.6466  0.4289  1.6758
15949SOL     OW49287   4.001   3.704  11.204 -0.4766  0.5198 -0.1800
15949SOL    HW149288   3.932   3.654  11.159  0.9953 -1.8839  0.0389
15949SOL    HW249289   4.064   3.725  11.136  1.0212 -1.8195  0.3771
15950SOL     OW49290   7.132   3.796  12.476  0.2013 -0.1236 -0.3661
15950SOL    HW149291   7.075   3.872  12.471  1.6088  1.0356  0.3475
15950SOL    HW249292   7.109   3.754  12.558 -1.0729 -0.9104 -1.1002
15951SOL     OW49293   5.309   2.404  12.338  0.2485 -0.5826 -0.1867
15951SOL    HW149294   5.376   2.432  12.402  1.3399 -1.2977 -0.9825
15951SOL    HW249295   5.344   2.433  12.254  0.1956 -2.0983 -0.7515
15952SOL     OW49296   5.716   5.094   0.930  0.0498  0.6758  0.8951
15952SOL    HW149297   5.637   5.042   0.917 -0.5682  1.2850  2.0194
15952SOL    HW249298   5.784   5.047   0.882 -0.7110 -0.5641  0.9842
15953SOL     OW49299   5.248   5.455  10.629 -0.2863 -0.7949 -0.0919
15953SOL    HW149300   5.247   5.508  10.550  0.4662 -0.6542 -0.0138
15953SOL    HW249301   5.245   5.365  10.598 -0.3439 -0.7330 -0.2676
15954SOL     OW49302   4.126   5.172   0.708 -0.0011  0.0546  0.3062
15954SOL    HW149303   4.202   5.231   0.706 -0.6309  0.8931 -1.1656
15954SOL    HW249304   4.143   5.114   0.782  3.5938 -1.8006 -1.6769
15955SOL     OW49305   4.396   4.243  10.716 -0.1291 -0.3147 -0.0883
15955SOL    HW149306   4.325   4.207  10.770  0.0551 -1.1133 -0.3521
15955SOL    HW249307   4.408   4.177  10.647  0.2008  0.2913 -0.6182
15956SOL     OW49308   5.673   4.686  11.029 -0.3969  0.2195  0.4180
15956SOL    HW149309   5.704   4.698  11.119 -1.0078 -1.0605  0.8169
15956SOL    HW249310   5.577   4.685  11.036 -0.5675  2.4576 -0.5781
15957SOL     OW49311   5.866   6.210   0.616  0.2920 -0.0495  0.0505
15957SOL    HW149312   5.901   6.199   0.528 -1.5296 -1.9042 -0.5240
15957SOL    HW249313   5.771   6.201   0.606  0.1081 -1.6798  2.3316
15958SOL     OW49314   2.935   5.147  11.966 -0.0093 -0.0322 -0.4095
15958SOL    HW149315   2.876   5.080  11.932  0.0416 -0.8546  1.0400
15958SOL    HW249316   2.924   5.221  11.908 -1.7049 -0.5376 -0.7651
15959SOL     OW49317   5.993   1.574  10.992 -0.1311  0.4683 -0.4762
15959SOL    HW149318   5.977   1.500  10.934 -0.8118  1.9380 -2.2765
15959SOL    HW249319   6.088   1.574  11.005 -0.2912 -1.7916  1.1428
15960SOL     OW49320   6.495   4.662  11.706  0.1109  0.0131 -0.4585
15960SOL    HW149321   6.478   4.737  11.648 -1.5992  0.7956  0.9252
15960SOL    HW249322   6.431   4.673  11.777  2.0685 -0.9126  1.5552
15961SOL     OW49323   5.186   5.538  11.173 -0.1718  0.2649  0.3163
15961SOL    HW149324   5.197   5.495  11.088  0.6678  2.3152 -0.6725
15961SOL    HW249325   5.273   5.536  11.213  0.0698  1.6330 -0.0805
15962SOL     OW49326   4.638   6.059   0.242 -0.1962  0.2738  0.6148
15962SOL    HW149327   4.687   6.141   0.242  0.1096  0.0998  1.6664
15962SOL    HW249328   4.594   6.057   0.327  0.8278 -1.2479  1.1458
15963SOL     OW49329   5.301   5.282   0.207 -0.2899 -0.8667  0.3512
15963SOL    HW149330   5.283   5.332   0.286 -0.6849 -0.7032  0.1652
15963SOL    HW249331   5.396   5.277   0.202 -0.2695 -1.3650  1.1341
15964SOL     OW49332   3.808   5.348   1.275 -0.5914  0.6089  0.3505
15964SOL    HW149333   3.772   5.371   1.190  1.0006  2.7311  0.1702
15964SOL    HW249334   3.765   5.406   1.337 -0.0159  0.7349  0.6408
15965SOL     OW49335   5.049   3.964   0.071  0.3501 -0.2839  0.7123
15965SOL    HW149336   5.101   3.884   0.079  0.0687 -0.3735  1.7014
15965SOL    HW249337   5.095   4.029   0.124 -1.2278 -0.7287  2.7257
15966SOL     OW49338   2.768   5.020  12.275  0.5092  0.2727  0.3280
15966SOL    HW149339   2.742   5.024  12.183  0.2601 -1.3560  0.2927
15966SOL    HW249340   2.855   4.979  12.273  1.1059  1.4935  0.7379
15967SOL     OW49341   5.555   5.796  12.305 -0.3589 -0.2414  0.1408
15967SOL    HW149342   5.595   5.832  12.226 -0.3170 -0.7120 -0.0553
15967SOL    HW249343   5.629   5.762  12.355 -0.1970  1.4179  1.1203
15968SOL     OW49344   3.699   3.318  11.593 -0.4361 -0.0937  0.2171
15968SOL    HW149345   3.699   3.224  11.610  0.5059 -0.0049  0.7834
15968SOL    HW249346   3.785   3.336  11.554 -0.9394  0.4016 -0.7061
15969SOL     OW49347   4.580   6.078  12.466 -0.5793 -0.2925 -0.2676
15969SOL    HW149348   4.615   6.161  12.434  0.6948 -1.0682 -0.9922
15969SOL    HW249349   4.602   6.076  12.559 -0.4341  0.0930 -0.2959
15970SOL     OW49350   5.351   3.239  12.112 -0.6832 -0.2005 -0.3489
15970SOL    HW149351   5.310   3.325  12.118 -0.3321 -0.1006  0.7480
15970SOL    HW249352   5.411   3.247  12.037 -0.6975  0.4850 -0.2956
15971SOL     OW49353   6.229   3.663  11.641 -0.3844 -0.0334  0.0640
15971SOL    HW149354   6.320   3.633  11.642 -0.4363 -0.4876 -2.2824
15971SOL    HW249355   6.186   3.611  11.708  0.4663 -2.1495 -0.9246
15972SOL     OW49356   3.127   5.604  10.872 -0.3255 -0.3136  0.2954
15972SOL    HW149357   3.207   5.595  10.925  0.7410  1.9857 -0.7984
15972SOL    HW249358   3.140   5.543  10.799  0.4088  0.0013  0.1576
15973SOL     OW49359   6.889   3.659  11.428 -0.4157  0.2923 -0.3742
15973SOL    HW149360   6.804   3.687  11.462 -0.4960  1.7048 -1.6028
15973SOL    HW249361   6.868   3.610  11.349 -0.1075  0.2946 -0.4596
15974SOL     OW49362   2.196   4.952  11.729  0.3922 -0.5097  0.0463
15974SOL    HW149363   2.168   4.901  11.805 -0.7092  2.5694  1.9027
15974SOL    HW249364   2.291   4.944  11.728  0.3822 -1.0210  1.4792
15975SOL     OW49365   3.665   5.087  10.125  0.1397  0.3069 -0.7885
15975SOL    HW149366   3.571   5.070  10.119  0.0705 -0.1945  1.0427
15975SOL    HW249367   3.703   5.002  10.147  0.7311  0.9329  0.7202
15976SOL     OW49368   4.155   3.477  10.655 -0.0511 -0.4746  0.6153
15976SOL    HW149369   4.219   3.516  10.595  0.6179 -0.4838  1.3080
15976SOL    HW249370   4.205   3.457  10.734 -1.0472  0.1358  1.4303
15977SOL     OW49371   5.292   4.754  11.811 -0.3188  0.9703 -0.1785
15977SOL    HW149372   5.297   4.740  11.906 -1.5478  0.6513 -0.1501
15977SOL    HW249373   5.273   4.847  11.801  2.2684  1.5683 -0.2145
15978SOL     OW49374   5.800   5.904  11.247 -0.4267  0.2012  0.0388
15978SOL    HW149375   5.752   5.865  11.320 -0.5681  1.2291  0.5121
15978SOL    HW249376   5.791   5.998  11.260 -0.7375  0.4066 -1.5047
15979SOL     OW49377   4.664   6.834  11.968  0.4794  0.3061 -1.0557
15979SOL    HW149378   4.670   6.893  12.042  2.8984  0.5623 -1.3644
15979SOL    HW249379   4.579   6.791  11.977 -0.6956  2.7179 -0.0060
15980SOL     OW49380   3.836   4.176  11.260 -0.1004  0.1430  0.1969
15980SOL    HW149381   3.847   4.154  11.352 -0.2851  0.5398  0.3148
15980SOL    HW249382   3.893   4.252  11.246 -2.1847  1.9257  0.7021
15981SOL     OW49383   3.796   5.358  12.127  0.2338  0.0583 -0.3718
15981SOL    HW149384   3.819   5.379  12.037  0.2704 -0.9999 -0.6297
15981SOL    HW249385   3.701   5.367  12.131  0.3714  1.6572 -0.0713
15982SOL     OW49386   5.872   5.419  11.546  0.0536  0.4972 -0.2030
15982SOL    HW149387   5.932   5.439  11.618 -0.3964  3.8347 -0.6223
15982SOL    HW249388   5.929   5.409  11.470  0.3816 -1.2838  0.2239
15983SOL     OW49389   5.296   5.728  10.188 -0.4407  0.1188 -0.2778
15983SOL    HW149390   5.244   5.720  10.268  1.4329  0.6997  1.0574
15983SOL    HW249391   5.308   5.638  10.158 -0.9421 -0.1254  0.2303
15984SOL     OW49392   5.552   5.638   0.184  0.2802  0.4575  0.3764
15984SOL    HW149393   5.480   5.681   0.230 -0.3832 -1.0170  0.7883
15984SOL    HW249394   5.512   5.600   0.106  0.8450  0.5616  0.0254
15985SOL     OW49395   3.930   5.103  11.955 -0.2487  0.7939  0.0900
15985SOL    HW149396   3.901   5.015  11.981  0.0834  0.5616 -0.3183
15985SOL    HW249397   3.854   5.141  11.910 -0.2132  0.5153 -0.2079
15986SOL     OW49398   6.474   4.740  10.951 -0.3084  0.0912  0.1774
15986SOL    HW149399   6.521   4.666  10.913  0.2765  0.1302  0.8254
15986SOL    HW249400   6.391   4.743  10.902  0.0912 -0.3553 -0.5430
15987SOL     OW49401   5.522   5.098   0.032  0.2682  0.2163 -0.0566
15987SOL    HW149402   5.574   5.174   0.004  0.6176 -0.2332 -0.6414
15987SOL    HW249403   5.574   5.058   0.101 -0.4312  1.1250  1.0392
15988SOL     OW49404   3.845   5.523   0.452 -0.0780 -0.0704  0.0546
15988SOL    HW149405   3.787   5.576   0.398 -0.7534  0.3127  1.1366
15988SOL    HW249406   3.884   5.461   0.390  0.1233  1.1508 -1.0867
15989SOL     OW49407   6.422   5.386  12.007  0.1012 -0.1323  0.3309
15989SOL    HW149408   6.354   5.345  11.954 -0.0945  1.1392 -0.4601
15989SOL    HW249409   6.493   5.404  11.946  0.8045 -0.6609  0.9754
15990SOL     OW49410   2.569   5.140  12.454  0.0046 -0.7104  0.9285
15990SOL    HW149411   2.604   5.228  12.464 -0.2151 -0.3792 -0.8960
15990SOL    HW249412   2.626   5.098  12.389 -1.6865 -0.8398 -0.5638
15991SOL     OW49413   6.986   4.550  12.351 -0.3319 -0.1869 -0.1820
15991SOL    HW149414   7.053   4.576  12.414  0.2742  2.2643 -1.6801
15991SOL    HW249415   6.903   4.574  12.393 -0.0360  0.0763  0.2593
15992SOL     OW49416   4.092   4.999  12.476 -0.7582  0.0408 -0.3334
15992SOL    HW149417   4.166   4.993  12.536 -1.3494  2.2321  0.7107
15992SOL    HW249418   4.130   5.028  12.393 -0.4726  1.7741  0.3681
15993SOL     OW49419   6.161   2.950  11.684  0.8205 -0.1823 -0.0476
15993SOL    HW149420   6.176   3.013  11.613 -0.7412  0.9342  0.5398
15993SOL    HW249421   6.141   2.868  11.639 -0.5258  0.5957 -0.9578
15994SOL     OW49422   5.293   2.281   0.529 -0.3442  0.6805  0.1158
15994SOL    HW149423   5.286   2.316   0.618  0.1419  0.4553  0.2460
15994SOL    HW249424   5.301   2.358   0.473 -0.2725  0.8119  0.3080
15995SOL     OW49425   5.789   3.612   9.240  0.0522  0.2230  0.1982
15995SOL    HW149426   5.704   3.652   9.260 -0.0862  0.7944 -1.4394
15995SOL    HW249427   5.790   3.602   9.145  1.3997 -0.7705  0.2794
15996SOL     OW49428   5.138   5.981   9.719  0.0692 -0.2902  0.0203
15996SOL    HW149429   5.131   5.927   9.641  2.0403  0.5621 -0.8380
15996SOL    HW249430   5.055   5.970   9.765 -1.2044 -0.6872 -2.2678
15997SOL     OW49431   5.171   4.089  11.678 -0.3556  0.1651  0.3873
15997SOL    HW149432   5.123   4.168  11.701 -1.4387 -0.4450  0.2927
15997SOL    HW249433   5.208   4.107  11.591 -1.2052  0.3133  0.0451
15998SOL     OW49434   6.462   3.816   1.174  0.4246 -0.2921  0.1132
15998SOL    HW149435   6.420   3.747   1.225 -0.6229 -0.3443 -0.7677
15998SOL    HW249436   6.398   3.887   1.174  0.7364 -0.0071 -0.4837
15999SOL     OW49437   3.523   5.128  10.804  0.0547 -0.0094  0.2413
15999SOL    HW149438   3.523   5.223  10.800 -3.4240  0.1211  0.4492
15999SOL    HW249439   3.524   5.100  10.712 -1.4060  0.3616  0.0897
16000SOL     OW49440   5.096   4.056  12.035 -0.1712  0.0930  0.0082
16000SOL    HW149441   5.097   4.089  12.125 -0.4414  0.2507 -0.0471
16000SOL    HW249442   5.159   4.111  11.989  0.1430 -0.1419  0.1555
16001SOL     OW49443   4.720   7.009   0.442  0.2154  0.4258  0.0379
16001SOL    HW149444   4.778   7.082   0.465  1.3388 -0.6314  0.6361
16001SOL    HW249445   4.683   7.034   0.358  2.1860  0.7562 -0.7837
16002SOL     OW49446   4.116   6.048   1.855 -0.4383  0.3174 -0.1234
16002SOL    HW149447   4.195   6.033   1.803 -0.7432  0.7115 -0.7160
16002SOL    HW249448   4.113   5.975   1.916 -0.9890 -1.0994 -1.7925
16003SOL     OW49449   4.317   7.131   1.834  0.9776  0.9802 -0.1130
16003SOL    HW149450   4.384   7.199   1.834  0.3277  1.6728 -2.2020
16003SOL    HW249451   4.353   7.062   1.778  0.6074  0.6487  0.0552
16004SOL     OW49452   3.903   5.769   1.841  0.0507  0.2499  0.3087
16004SOL    HW149453   3.950   5.796   1.920  0.4502 -0.6197  0.3840
16004SOL    HW249454   3.967   5.718   1.791 -0.4853 -0.0188 -0.1131
16005SOL     OW49455   5.112   0.943   3.008 -0.0090 -0.0318 -0.6814
16005SOL    HW149456   5.035   0.962   2.955 -1.9139 -1.3307  1.4445
16005SOL    HW249457   5.119   0.847   3.005 -1.3873 -0.3593  2.8259
16006SOL     OW49458   3.869   6.770   0.260  0.7290 -0.1533  0.6541
16006SOL    HW149459   3.951   6.727   0.283  1.8786  1.3111 -0.5080
16006SOL    HW249460   3.863   6.763   0.165  0.2845  1.0607  0.5718
16007SOL     OW49461   5.189   5.598   0.077 -0.1198 -0.9219  0.4383
16007SOL    HW149462   5.160   5.632   0.162  0.0403 -1.6017  0.7749
16007SOL    HW249463   5.109   5.593   0.025 -0.0704  0.4509  0.1967
16008SOL     OW49464   3.837   6.290  12.237  0.2556 -1.1263  0.2320
16008SOL    HW149465   3.775   6.302  12.165 -0.4750  1.5123  1.1910
16008SOL    HW249466   3.785   6.254  12.309  0.3405 -1.0437  0.3359
16009SOL     OW49467   5.000   6.360   3.144  1.0799  0.3259  0.3061
16009SOL    HW149468   5.041   6.284   3.104  0.6764  0.3796 -0.2100
16009SOL    HW249469   4.965   6.327   3.227  0.3266 -0.2108 -0.2138
16010SOL     OW49470   4.912   5.552   1.044  0.4399  0.4078  0.0621
16010SOL    HW149471   4.983   5.506   1.087 -1.2434 -0.9951  1.5087
16010SOL    HW249472   4.921   5.643   1.072  0.5158 -0.1244  1.8824
16011SOL     OW49473   5.040   6.672   2.951  0.2309  0.0118 -0.3796
16011SOL    HW149474   4.977   6.655   2.881  0.8574 -0.9114 -0.7441
16011SOL    HW249475   4.986   6.692   3.027 -0.4742  2.3576 -1.3872
16012SOL     OW49476   4.167   6.305   1.979 -0.2752  0.5169  0.1224
16012SOL    HW149477   4.130   6.228   1.934 -2.5243  2.0770 -0.8811
16012SOL    HW249478   4.133   6.299   2.068 -0.6991  0.5104 -0.0384
16013SOL     OW49479   5.081   6.861   0.040  0.0334 -0.3966 -0.1134
16013SOL    HW149480   5.054   6.886   0.129 -2.0441  1.0323 -1.0619
16013SOL    HW249481   5.079   6.765   0.041 -3.0721 -0.4338  0.6003
16014SOL     OW49482   2.767   6.179   1.586  1.2458 -0.5890  0.3085
16014SOL    HW149483   2.788   6.118   1.656  0.0950 -0.0574  1.1394
16014SOL    HW249484   2.850   6.221   1.565  1.5555 -0.5302  1.5768
16015SOL     OW49485   6.587   7.064   0.829 -0.6284 -0.3814  0.4768
16015SOL    HW149486   6.602   7.149   0.786 -0.4351 -0.0697  1.1422
16015SOL    HW249487   6.503   7.034   0.795 -0.3487 -0.2749 -0.3240
16016SOL     OW49488   4.778   5.999   2.728  0.0390  0.1064 -0.1301
16016SOL    HW149489   4.870   5.990   2.702 -0.1050  1.0420 -1.0313
16016SOL    HW249490   4.765   6.093   2.737 -1.3399  0.1637 -2.0064
16017SOL     OW49491   5.515   6.805   1.983  0.0387 -0.3154  0.7327
16017SOL    HW149492   5.497   6.840   2.070 -0.4363 -2.1263  1.4157
16017SOL    HW249493   5.486   6.714   1.988 -0.5159 -0.3186 -1.5018
16018SOL     OW49494   5.641   7.030   0.164 -0.1716  0.3702  0.4125
16018SOL    HW149495   5.700   6.957   0.148 -0.7730 -0.5984  2.3215
16018SOL    HW249496   5.576   7.024   0.094  0.0748 -0.6277  0.2603
16019SOL     OW49497   4.198   6.933   1.099 -0.5626 -0.0551 -0.0881
16019SOL    HW149498   4.199   6.986   1.019  0.1617 -1.1929 -0.8597
16019SOL    HW249499   4.106   6.911   1.111 -0.5978 -0.4703 -1.0275
16020SOL     OW49500   2.200   5.323   2.220  0.5306 -0.5257 -0.1042
16020SOL    HW149501   2.292   5.330   2.196  0.5448 -0.2568  0.0195
16020SOL    HW249502   2.181   5.230   2.219  0.4905 -0.5128 -1.3000
16021SOL     OW49503   5.017   7.336  10.884  0.4015  0.5360 -0.3631
16021SOL    HW149504   5.019   7.277  10.809  1.5076  0.5511 -0.3540
16021SOL    HW249505   5.098   7.317  10.932 -0.4435  0.2507  1.0412
16022SOL     OW49506   6.215   4.966   0.656 -0.3215  0.3920  0.3898
16022SOL    HW149507   6.266   5.022   0.715  0.9449 -0.8085  0.5065
16022SOL    HW249508   6.173   4.903   0.715 -2.6288  1.7935  0.3717
16023SOL     OW49509   4.374   7.203   1.361 -0.0694 -0.5951 -0.0946
16023SOL    HW149510   4.459   7.205   1.317  0.7762 -0.1609  1.4996
16023SOL    HW249511   4.374   7.281   1.416 -2.7087  1.0389 -2.1637
16024SOL     OW49512   4.726   0.369   0.389 -0.2407  0.0639  0.1874
16024SOL    HW149513   4.803   0.338   0.436  0.3244  0.2515 -0.6001
16024SOL    HW249514   4.710   0.457   0.424  0.1298  0.1718  0.0872
16025SOL     OW49515   4.473   7.790  11.747  0.0946  0.5194 -0.1364
16025SOL    HW149516   4.556   7.782  11.793  0.0333 -2.3068 -0.3555
16025SOL    HW249517   4.407   7.789  11.816  0.1321 -0.9042 -0.0849
16026SOL     OW49518   6.083   7.725   1.721 -0.6087  0.1325 -0.5036
16026SOL    HW149519   6.138   7.793   1.761 -0.7105 -0.2716  0.3545
16026SOL    HW249520   6.002   7.770   1.697 -0.3600  0.4833 -0.6952
16027SOL     OW49521   4.500   5.949   1.073  0.0113  0.5103  0.1733
16027SOL    HW149522   4.524   5.883   1.138  1.6700  0.2313 -0.6758
16027SOL    HW249523   4.409   5.971   1.094 -0.2790 -1.3353  1.0815
16028SOL     OW49524   2.652   6.414   0.911  0.2623 -0.2682 -0.0979
16028SOL    HW149525   2.580   6.406   0.973 -0.5960 -0.8393 -1.1272
16028SOL    HW249526   2.612   6.455   0.834  1.4314  0.9721 -0.0855
16029SOL     OW49527   2.455   6.425   1.104 -0.1893 -0.0298  0.2236
16029SOL    HW149528   2.369   6.390   1.127 -0.3512  0.8000  0.9251
16029SOL    HW249529   2.466   6.501   1.161  1.8726 -1.2479  1.5540
16030SOL     OW49530   3.639   5.767   0.664  0.3259  0.0007 -0.2126
16030SOL    HW149531   3.596   5.734   0.742  0.8929 -0.8593 -0.2518
16030SOL    HW249532   3.571   5.816   0.618  0.5303  2.5433  1.9234
16031SOL     OW49533   3.430   5.197   1.241  0.2208  0.7313  0.0394
16031SOL    HW149534   3.342   5.216   1.274  0.7642 -1.4637  3.1657
16031SOL    HW249535   3.489   5.227   1.310  1.9546  1.4109 -1.6322
16032SOL     OW49536   3.914   6.310  11.885  0.5088 -0.1653 -0.1221
16032SOL    HW149537   3.936   6.286  11.795 -0.5138 -0.2034 -0.3701
16032SOL    HW249538   3.985   6.273  11.937  0.3647 -1.3908 -0.7633
16033SOL     OW49539   5.839   7.417   1.860  0.0539  0.6904  0.5601
16033SOL    HW149540   5.852   7.326   1.885 -3.5052 -0.1215  0.0623
16033SOL    HW249541   5.857   7.419   1.766  2.6288  1.2080  0.9786
16034SOL     OW49542   5.148   7.370   0.594 -0.1232 -0.5756 -0.3961
16034SOL    HW149543   5.181   7.416   0.516 -0.6237 -0.8477 -0.7745
16034SOL    HW249544   5.180   7.422   0.667  0.4047 -0.3462 -0.7802
16035SOL     OW49545   3.991   4.359   1.482  0.3518 -0.5881 -0.2200
16035SOL    HW149546   3.981   4.411   1.402 -3.1964 -2.7751 -1.4331
16035SOL    HW249547   3.999   4.269   1.451 -1.5668 -1.5505  1.8046
16036SOL     OW49548   4.361   0.180   2.596  0.0385 -0.2755  0.3973
16036SOL    HW149549   4.375   0.087   2.576  1.4376 -0.2362  1.0969
16036SOL    HW249550   4.438   0.224   2.560 -0.5996  0.6233  0.0979
16037SOL     OW49551   5.567   5.947   0.668  0.2950  0.2013  0.7012
16037SOL    HW149552   5.570   5.956   0.763 -0.9361  0.4956  0.7240
16037SOL    HW249553   5.649   5.902   0.646  0.4833 -0.0844  1.9162
16038SOL     OW49554   4.827   5.899   1.374 -0.1689 -0.0735  0.2687
16038SOL    HW149555   4.888   5.869   1.442 -0.1508  0.7058  0.6101
16038SOL    HW249556   4.878   5.961   1.322  0.1114 -1.3704 -1.0666
16039SOL     OW49557   5.034   6.595   0.790 -0.1705 -0.6797  0.2118
16039SOL    HW149558   4.954   6.567   0.834 -0.5445  1.4989  1.0281
16039SOL    HW249559   5.066   6.669   0.842  0.7192  0.4255 -1.8019
16040SOL     OW49560   5.420   7.281  12.403 -0.0511  0.6272 -0.1340
16040SOL    HW149561   5.392   7.288  12.494  1.1767  1.8880  0.1922
16040SOL    HW249562   5.405   7.190  12.379 -0.0153  0.1842  1.4645
16041SOL     OW49563   3.518   7.284   1.357  0.1127 -0.3661  0.0270
16041SOL    HW149564   3.501   7.191   1.344 -0.7515  0.0394 -2.2431
16041SOL    HW249565   3.469   7.308   1.435  0.8282 -1.9051  0.9889
16042SOL     OW49566   4.457   5.596   1.250  0.0314  0.5329 -0.4270
16042SOL    HW149567   4.521   5.537   1.211 -1.2743 -1.2587  0.0175
16042SOL    HW249568   4.509   5.671   1.279  1.7990 -0.4567 -0.8518
16043SOL     OW49569   5.637   7.550   1.981 -0.2344 -0.0857  0.4689
16043SOL    HW149570   5.641   7.623   1.919  0.1450 -1.0615 -0.6949
16043SOL    HW249571   5.708   7.492   1.954 -1.3663 -1.5434  0.5109
16044SOL     OW49572   3.974   6.370   1.502 -0.3487  0.0693  0.0298
16044SOL    HW149573   3.960   6.390   1.410  0.3567 -2.3476 -0.6756
16044SOL    HW249574   3.892   6.330   1.531 -1.0938  2.0859  0.9191
16045SOL     OW49575   6.602   5.410   0.749 -0.1181  0.4277 -0.2243
16045SOL    HW149576   6.527   5.352   0.758 -0.9914  1.7070  1.2247
16045SOL    HW249577   6.641   5.412   0.837  0.3896  1.3697 -0.4619
16046SOL     OW49578   2.988   6.635   1.260 -0.2824  0.3561  0.2250
16046SOL    HW149579   3.079   6.631   1.232 -0.1825 -0.8271  0.6603
16046SOL    HW249580   2.939   6.593   1.190 -0.3839  0.1070  0.4472
16047SOL     OW49581   4.529   7.888   2.105 -0.2634 -0.2797 -0.2611
16047SOL    HW149582   4.547   7.795   2.099  0.0021 -0.2083 -0.5618
16047SOL    HW249583   4.611   7.931   2.080 -0.5077  0.0370 -0.5276
16048SOL     OW49584   4.968   6.129  11.101  0.4547  0.3950 -0.3810
16048SOL    HW149585   4.958   6.199  11.036 -0.8137 -0.7330 -1.4588
16048SOL    HW249586   5.003   6.055  11.051  0.7539 -0.0880  0.5189
16049SOL     OW49587   3.915   6.458   1.933  0.0290 -0.1025  0.1797
16049SOL    HW149588   3.889   6.368   1.952 -0.6657 -0.3140 -1.6139
16049SOL    HW249589   4.011   6.456   1.936  0.0271 -0.2528  2.7322
16050SOL     OW49590   6.156   7.465   0.063 -0.1534  0.0685  0.4598
16050SOL    HW149591   6.129   7.554   0.040 -1.0756 -0.2100  0.4218
16050SOL    HW249592   6.120   7.410  -0.007 -0.0531 -0.3991  0.7697
16051SOL     OW49593   3.111   6.334   1.249 -0.3319  0.4858  0.5552
16051SOL    HW149594   3.106   6.317   1.155 -0.1904 -1.1310  0.8253
16051SOL    HW249595   3.191   6.386   1.259  0.2401 -0.2526 -0.0969
16052SOL     OW49596   5.097   7.068   0.832 -0.0155  0.2232  0.2079
16052SOL    HW149597   5.143   7.146   0.863  0.0923  0.7442 -1.1930
16052SOL    HW249598   5.009   7.098   0.811 -0.0430 -0.0794 -0.1258
16053SOL     OW49599   3.564   1.139   0.961  0.3903 -0.1134  0.3625
16053SOL    HW149600   3.612   1.075   0.908 -1.6214 -1.9300  0.6014
16053SOL    HW249601   3.590   1.119   1.051  3.3661  2.6016  0.2925
16054SOL     OW49602   6.749   4.735  12.206 -0.4732 -0.0094  0.0699
16054SOL    HW149603   6.715   4.824  12.219 -0.7716 -0.2791  1.1824
16054SOL    HW249604   6.755   4.698  12.293  0.6830 -0.7269 -0.2940
16055SOL     OW49605   2.858   0.488   1.740  0.1022 -0.4875  0.1487
16055SOL    HW149606   2.911   0.408   1.731  0.4539 -0.2088 -0.3587
16055SOL    HW249607   2.909   0.543   1.799  0.0322 -0.5027  0.2222
16056SOL     OW49608   4.226   5.951  10.926 -0.3402  0.0881  0.5965
16056SOL    HW149609   4.274   6.030  10.902 -0.8908  0.6222  1.2378
16056SOL    HW249610   4.276   5.880  10.885  1.0082  0.6248  1.2553
16057SOL     OW49611   4.653   6.029   0.578 -0.6991  0.0039 -0.7472
16057SOL    HW149612   4.593   6.100   0.554 -1.0203  0.2250  0.5889
16057SOL    HW249613   4.613   5.990   0.656  0.6494 -0.1571 -0.1180
16058SOL     OW49614   3.083   7.714   0.352 -0.2437 -0.2016  0.1956
16058SOL    HW149615   3.018   7.781   0.373  0.7674  0.9438 -0.2102
16058SOL    HW249616   3.033   7.646   0.308 -1.0423  1.1052 -1.0300
16059SOL     OW49617   3.976   7.440   1.720 -0.0643  0.0393  0.0991
16059SOL    HW149618   3.924   7.520   1.719 -0.7367 -0.3785 -0.8836
16059SOL    HW249619   4.004   7.428   1.629 -1.7384 -1.8939 -0.2505
16060SOL     OW49620   3.454   5.559   2.504 -0.0614  0.0316  0.1724
16060SOL    HW149621   3.436   5.650   2.524 -0.5416  0.6137 -2.5464
16060SOL    HW249622   3.548   5.556   2.486  0.2467 -0.3561  1.7375
16061SOL     OW49623   0.056   6.264   0.775 -0.6853 -0.6707 -0.0097
16061SOL    HW149624   0.006   6.295   0.850 -1.5884 -3.0602  0.4830
16061SOL    HW249625   0.132   6.221   0.812  0.4287  0.6648 -0.6507
16062SOL     OW49626   6.055   0.130  12.379 -0.6475 -0.0802  0.4587
16062SOL    HW149627   5.983   0.102  12.435 -2.3816  1.6271 -0.7981
16062SOL    HW249628   6.028   0.106  12.290  0.9017 -0.4693  0.0527
16063SOL     OW49629   5.357   7.244   0.171  0.8620 -0.3139 -0.4255
16063SOL    HW149630   5.267   7.273   0.185  0.6926 -0.7699 -0.5522
16063SOL    HW249631   5.358   7.153   0.201  1.6505  0.1389  0.9792
16064SOL     OW49632   3.726   7.707   0.184 -0.3359  0.0580  0.4942
16064SOL    HW149633   3.665   7.634   0.176  0.7352 -0.7563 -0.8032
16064SOL    HW249634   3.678   7.783   0.151 -1.1100 -0.2712  0.8444
16065SOL     OW49635   5.555   7.775  12.476 -0.7241  0.0320 -0.1717
16065SOL    HW149636   5.511   7.847  12.431  0.4525  1.7434  1.2428
16065SOL    HW249637   5.591   7.720  12.406 -0.1795  1.7835 -1.3264
16066SOL     OW49638   3.340   7.162   0.766  0.1200 -0.4080 -0.9086
16066SOL    HW149639   3.408   7.228   0.752  0.3049 -0.7810 -1.8468
16066SOL    HW249640   3.382   7.079   0.743 -0.3041 -0.7769 -0.3544
16067SOL     OW49641   5.098   4.554   2.165  0.1348 -0.8035  0.0769
16067SOL    HW149642   5.061   4.581   2.081 -0.8148 -0.8532  0.4662
16067SOL    HW249643   5.041   4.483   2.194 -0.6981  0.4563  1.6578
16068SOL     OW49644   5.425   6.129   1.334  0.7683  0.6081  0.7626
16068SOL    HW149645   5.520   6.127   1.322  0.7908 -0.9804  1.0884
16068SOL    HW249646   5.408   6.216   1.369  2.3032  0.3378  2.3172
16069SOL     OW49647   3.804   6.364   2.648  0.3723 -0.4672 -0.0099
16069SOL    HW149648   3.844   6.349   2.563 -0.1569  0.4971 -0.4388
16069SOL    HW249649   3.737   6.430   2.632 -0.7424 -1.3515  0.8711
16070SOL     OW49650   5.372   7.173  11.663  0.3899 -0.9174  0.1861
16070SOL    HW149651   5.307   7.150  11.729  0.2694 -0.2095  0.3174
16070SOL    HW249652   5.383   7.267  11.671 -2.8872  0.1017 -3.6660
16071SOL     OW49653   3.024   7.336   0.024 -0.1021 -0.6820  0.8839
16071SOL    HW149654   3.108   7.300   0.052  0.3373  0.7246  1.5057
16071SOL    HW249655   2.962   7.264   0.034  1.3217 -2.3897 -1.5346
16072SOL     OW49656   1.775   7.019   1.854  0.5522  1.1314 -0.1423
16072SOL    HW149657   1.835   7.014   1.780  1.4212  0.0484  0.5885
16072SOL    HW249658   1.745   7.110   1.856  0.5422  1.1854 -1.7694
16073SOL     OW49659   4.495   5.074  12.253  0.0796  0.0662  0.6179
16073SOL    HW149660   4.523   5.063  12.344 -0.3813 -0.1399  0.7365
16073SOL    HW249661   4.458   4.989  12.229 -0.7818  0.4496  0.5806
16074SOL     OW49662   4.817   6.984   1.026  0.0513  0.0678 -0.1519
16074SOL    HW149663   4.736   6.937   1.046  0.6766 -1.6381 -1.3311
16074SOL    HW249664   4.820   6.988   0.930  1.2682  0.2516 -0.1267
16075SOL     OW49665   4.870   7.248   0.536 -0.6720  0.2788 -0.0863
16075SOL    HW149666   4.958   7.267   0.568 -0.6187  1.8996 -1.0602
16075SOL    HW249667   4.855   7.314   0.468 -2.7030  0.1256  0.1602
16076SOL     OW49668   4.369   6.763  12.005  0.2977 -0.5681 -0.6920
16076SOL    HW149669   4.334   6.824  11.939  1.0952  0.4124 -0.2423
16076SOL    HW249670   4.318   6.783  12.084  1.1599  0.1734 -0.3020
16077SOL     OW49671   5.208   6.149  11.353  0.3033 -0.1890 -0.2134
16077SOL    HW149672   5.202   6.133  11.447 -0.1717 -0.9000 -0.3514
16077SOL    HW249673   5.123   6.121  11.319  0.8712 -1.0209 -1.0010
16078SOL     OW49674   3.875   7.326   1.273 -0.2476 -0.4007  0.0946
16078SOL    HW149675   3.813   7.395   1.295 -1.1953 -0.8186 -1.1307
16078SOL    HW249676   3.822   7.247   1.265  0.5240 -0.8846 -0.4633
16079SOL     OW49677   5.305   7.453   1.711 -0.0553  0.0998  0.1442
16079SOL    HW149678   5.277   7.477   1.623 -1.1756  2.4427  1.0412
16079SOL    HW249679   5.400   7.443   1.705 -0.0723  0.6228 -1.2396
16080SOL     OW49680   4.725   5.323  11.883  1.0511 -0.5947  0.3872
16080SOL    HW149681   4.644   5.318  11.933 -1.0603 -1.2140 -2.8069
16080SOL    HW249682   4.760   5.234  11.884  0.9657 -0.6245  0.6539
16081SOL     OW49683   3.794   0.536   2.255 -0.0460 -0.3641  0.2271
16081SOL    HW149684   3.833   0.622   2.274  3.1465 -1.8114  0.7908
16081SOL    HW249685   3.800   0.488   2.338 -0.5295 -1.5972 -0.4271
16082SOL     OW49686   6.104   4.781   0.815  0.0777 -0.0154 -0.0131
16082SOL    HW149687   6.159   4.710   0.779  1.4896  1.1801 -0.3159
16082SOL    HW249688   6.055   4.739   0.885  1.6811 -1.0946  0.5334
16083SOL     OW49689   3.303   0.179   1.659  0.7823  0.2824  0.1677
16083SOL    HW149690   3.320   0.205   1.750 -0.6271  1.1693  0.2158
16083SOL    HW249691   3.311   0.083   1.660 -1.1764  0.0433  1.7418
16084SOL     OW49692   4.967   6.821  12.023 -0.1117  0.3940  0.8029
16084SOL    HW149693   5.012   6.774  12.093  0.5554  1.2322  0.9506
16084SOL    HW249694   4.917   6.889  12.068  1.7058  2.0810  0.3983
16085SOL     OW49695   4.482   4.843   0.175 -0.2736 -0.2103  0.2257
16085SOL    HW149696   4.398   4.887   0.188 -0.6895 -0.5075 -1.2003
16085SOL    HW249697   4.548   4.908   0.198 -0.8566 -0.3278  2.4589
16086SOL     OW49698   3.772   5.697   1.079  0.1508 -0.0325 -0.2553
16086SOL    HW149699   3.776   5.617   1.026 -0.8362 -2.6852  3.2944
16086SOL    HW249700   3.729   5.761   1.022  1.1308 -1.8682 -3.3310
16087SOL     OW49701   0.952   6.774   1.135 -0.0349 -0.2661 -0.6165
16087SOL    HW149702   1.047   6.766   1.149  0.2385  0.1279 -2.0476
16087SOL    HW249703   0.932   6.705   1.072 -0.7021 -0.3564 -0.3026
16088SOL     OW49704   3.959   5.921   1.457  0.1855  0.3106  0.0698
16088SOL    HW149705   4.045   5.912   1.499  0.2731  1.1048  0.0918
16088SOL    HW249706   3.948   5.842   1.405  1.3232  0.5958 -0.6321
16089SOL     OW49707   5.569   6.030  12.472  0.4744  0.1962  0.4035
16089SOL    HW149708   5.476   6.007  12.472  0.2793  0.8725  1.5683
16089SOL    HW249709   5.610   5.966  12.413 -1.0507  1.3973 -2.0961
16090SOL     OW49710   4.072   6.146  12.328 -0.1705  0.0316  0.2591
16090SOL    HW149711   4.148   6.195  12.360  0.1450  0.4653 -1.0612
16090SOL    HW249712   4.027   6.208  12.270  0.7689 -1.4328 -2.2150
16091SOL     OW49713   6.096   7.310  12.354  0.4127  0.6178  0.3630
16091SOL    HW149714   6.021   7.257  12.329  0.6459  0.1823  0.5717
16091SOL    HW249715   6.124   7.352  12.273  0.1642  0.5013  0.2179
16092SOL     OW49716   7.772   6.182  11.887  0.0440  0.1714  0.5326
16092SOL    HW149717   7.859   6.220  11.882 -0.1194  0.4435 -0.3171
16092SOL    HW249718   7.713   6.253  11.863 -0.1429 -1.1364 -3.7886
16093SOL     OW49719   3.893   6.095   0.966 -0.1684 -0.0157  0.0792
16093SOL    HW149720   3.842   6.103   0.886  0.1911 -0.4457 -0.1970
16093SOL    HW249721   3.839   6.042   1.024 -0.2596 -0.0336 -0.0222
16094SOL     OW49722   6.534   5.183   2.296 -0.2532 -0.5654  0.9862
16094SOL    HW149723   6.457   5.218   2.252  0.7410  0.0778 -0.2945
16094SOL    HW249724   6.579   5.132   2.230 -0.1368 -1.8826  2.0358
16095SOL     OW49725   4.696   7.440   3.274  0.5897 -0.0566  0.2783
16095SOL    HW149726   4.772   7.397   3.236 -0.0092 -0.8750 -0.0103
16095SOL    HW249727   4.703   7.531   3.244  1.3377 -0.1657  0.0913
16096SOL     OW49728   3.765   6.802   3.360  0.2510  0.6429  0.0117
16096SOL    HW149729   3.785   6.892   3.335  2.2152  0.2743  0.0931
16096SOL    HW249730   3.686   6.780   3.311 -0.3868  2.4748  0.1748
16097SOL     OW49731   5.145   5.410   0.733 -0.2154  0.7949  0.0122
16097SOL    HW149732   5.052   5.431   0.718  0.0581  2.2088  0.1201
16097SOL    HW249733   5.184   5.494   0.759  1.1345  0.2676 -0.2447
16098SOL     OW49734   5.832   6.445   0.350 -0.2362 -0.5139  0.1025
16098SOL    HW149735   5.914   6.427   0.396  0.1282 -1.2493 -0.7980
16098SOL    HW249736   5.844   6.531   0.311 -0.6815  0.2783  1.6287
16099SOL     OW49737   4.990   4.719   0.018  0.5008  0.0319 -0.4452
16099SOL    HW149738   5.065   4.667   0.045  0.8604  1.0457  0.5562
16099SOL    HW249739   4.961   4.764   0.097  0.2503  1.4105 -1.2829
16100SOL     OW49740   3.800   7.693   1.875 -0.5493  0.0333  0.5261
16100SOL    HW149741   3.824   7.717   1.964 -0.4932 -0.5559  0.6785
16100SOL    HW249742   3.810   7.773   1.824  1.9611 -0.2016  0.5317
16101SOL     OW49743   2.715   7.273   1.648 -0.3551 -0.3857  0.1732
16101SOL    HW149744   2.681   7.353   1.688 -0.6734 -0.3738 -0.1216
16101SOL    HW249745   2.811   7.282   1.655 -0.4024 -0.6706  1.5069
16102SOL     OW49746   3.695   5.521   2.435  0.0508 -0.6063 -0.1762
16102SOL    HW149747   3.697   5.457   2.364  0.1569 -0.1536 -0.5867
16102SOL    HW249748   3.756   5.487   2.501  0.3720 -0.7512 -0.5473
16103SOL     OW49749   3.686   7.051   0.752  0.2660 -0.7893 -0.6932
16103SOL    HW149750   3.616   7.025   0.692 -0.5020 -1.1031  0.3088
16103SOL    HW249751   3.699   6.974   0.808 -1.4955  0.5691  1.8065
16104SOL     OW49752   4.752   7.571   0.673  0.7134 -0.0215 -0.4894
16104SOL    HW149753   4.705   7.511   0.615  2.2185 -1.7836  0.0046
16104SOL    HW249754   4.761   7.652   0.622 -2.5860  0.3849 -0.6683
16105SOL     OW49755   3.556   6.452  12.338  0.1496  0.3340 -0.0657
16105SOL    HW149756   3.470   6.413  12.347  0.0342  0.3792 -0.8992
16105SOL    HW249757   3.617   6.381  12.356 -0.0337  0.5087  1.4260
16106SOL     OW49758   5.161   5.338  12.318 -0.4765  0.3123  0.1426
16106SOL    HW149759   5.179   5.323  12.410 -3.1609 -0.1439  0.6646
16106SOL    HW249760   5.160   5.433  12.309  1.5337  0.3864  0.1261
16107SOL     OW49761   4.485   0.173   1.454 -0.7438  0.2655  0.1764
16107SOL    HW149762   4.579   0.195   1.451 -0.3793 -1.2443 -1.3260
16107SOL    HW249763   4.446   0.243   1.505  1.0342  1.6015 -0.1701
16108SOL     OW49764   5.468   7.418   0.437  0.4883 -0.1480  0.1261
16108SOL    HW149765   5.473   7.396   0.530  0.9150 -0.1041  0.1146
16108SOL    HW249766   5.536   7.364   0.396  0.3573 -0.1061 -0.1499
16109SOL     OW49767   5.413   7.667   0.991 -0.3120  0.4246 -0.1849
16109SOL    HW149768   5.501   7.674   0.953  0.2541 -1.9986  0.4585
16109SOL    HW249769   5.423   7.696   1.082 -0.0930 -0.1099 -0.0341
16110SOL     OW49770   4.525   0.066   0.207 -0.1921  0.3960 -0.7344
16110SOL    HW149771   4.587   0.045   0.277  0.3465  1.0566 -0.9995
16110SOL    HW249772   4.441   0.074   0.252  0.0923  0.4850 -0.2085
16111SOL     OW49773   3.777   7.391   2.059 -0.5277  0.2090  0.1037
16111SOL    HW149774   3.685   7.370   2.042 -0.5383 -0.5833  1.0826
16111SOL    HW249775   3.794   7.468   2.003 -1.7633  0.3448 -0.1218
16112SOL     OW49776   3.671   6.035   2.609 -1.0091  0.0211  0.0360
16112SOL    HW149777   3.676   6.122   2.571  0.6847  1.0324  2.3731
16112SOL    HW249778   3.762   6.008   2.621 -1.4911 -1.3266  0.9285
16113SOL     OW49779   3.179   4.885   2.141  0.0869 -0.0658  0.0075
16113SOL    HW149780   3.253   4.945   2.140  0.3076 -0.3395 -0.4943
16113SOL    HW249781   3.217   4.799   2.122 -0.4418 -0.0982 -1.0076
16114SOL     OW49782   2.813   5.624   0.520  0.6382  0.1728 -0.6475
16114SOL    HW149783   2.872   5.646   0.592 -0.3213  1.3066 -0.1633
16114SOL    HW249784   2.822   5.698   0.459  1.4135 -0.7549 -1.7060
16115SOL     OW49785   2.900   7.888   0.023  0.0664  0.3804  0.4577
16115SOL    HW149786   2.948   7.955   0.072  2.5085 -0.2129 -0.9534
16115SOL    HW249787   2.900   7.920  -0.067 -2.1473  0.2726  0.3784
16116SOL     OW49788   4.315   5.078   1.634  0.0898 -0.1065 -0.0301
16116SOL    HW149789   4.365   5.024   1.695 -0.8827  0.2639  1.1142
16116SOL    HW249790   4.322   5.031   1.550  0.1238 -1.4647  0.7025
16117SOL     OW49791   5.974   0.390   1.151  0.0303 -0.0667 -0.1046
16117SOL    HW149792   5.908   0.454   1.124 -0.4313 -0.8296 -0.8412
16117SOL    HW249793   6.034   0.385   1.077  0.7737  0.4193  0.4517
16118SOL     OW49794   5.327   7.290   1.246  0.0703  0.2475  0.0028
16118SOL    HW149795   5.324   7.235   1.168 -0.3183 -0.8864  0.8021
16118SOL    HW249796   5.414   7.273   1.284 -0.6928 -1.2250  1.2121
16119SOL     OW49797   2.038   6.684   2.815  0.3871 -0.0359 -0.3097
16119SOL    HW149798   1.971   6.653   2.876  1.7443  0.1915  1.3647
16119SOL    HW249799   2.050   6.611   2.754 -0.3567 -0.6325  0.2276
16120SOL     OW49800   3.394   6.612   0.357 -0.3523  0.1902 -0.2749
16120SOL    HW149801   3.355   6.696   0.381  0.3383  0.4141  0.1026
16120SOL    HW249802   3.427   6.624   0.268 -1.3783 -0.0892 -0.7014
16121SOL     OW49803   5.621   6.533   0.573 -0.1443  0.5282  0.2701
16121SOL    HW149804   5.675   6.569   0.502  1.5314  0.2068  1.3036
16121SOL    HW249805   5.585   6.452   0.538  0.7964  0.2942 -0.1836
16122SOL     OW49806   4.341   4.742   1.215 -0.2524  0.3511  0.0968
16122SOL    HW149807   4.411   4.679   1.198  0.7323  1.2243  0.7674
16122SOL    HW249808   4.297   4.752   1.131 -0.0033 -0.7235 -0.1739
16123SOL     OW49809   6.374   7.939  11.122 -0.3802 -0.4034 -0.0813
16123SOL    HW149810   6.358   7.995  11.198  0.9771  0.1492 -0.1781
16123SOL    HW249811   6.287   7.916  11.091 -1.0378  2.3279 -0.5167
16124SOL     OW49812   3.703   7.585   0.812  0.4617  0.0594 -0.3544
16124SOL    HW149813   3.765   7.643   0.767  1.5640 -1.5525 -1.0204
16124SOL    HW249814   3.752   7.556   0.890  0.0004 -0.1538 -0.1452
16125SOL     OW49815   6.147   7.275   2.052  0.3955 -0.0081  0.1700
16125SOL    HW149816   6.067   7.305   2.096 -0.2788 -1.5527  0.0783
16125SOL    HW249817   6.186   7.354   2.017 -1.3993  0.7468 -0.2623
16126SOL     OW49818   6.653   4.959  12.276 -0.4978 -0.0186  0.2069
16126SOL    HW149819   6.736   4.966  12.323 -1.6073 -1.6847  2.6169
16126SOL    HW249820   6.616   5.047  12.278  0.1741  0.2568  1.2207
16127SOL     OW49821   3.016   5.892   2.867 -0.4563  0.1548 -0.6363
16127SOL    HW149822   3.023   5.799   2.845 -0.0588  0.6011 -2.5775
16127SOL    HW249823   3.044   5.897   2.959 -0.3368 -1.6093 -0.5404
16128SOL     OW49824   5.418   6.290   0.179  0.0195 -0.1090 -0.8162
16128SOL    HW149825   5.503   6.249   0.195  0.1399 -0.0525 -1.2833
16128SOL    HW249826   5.390   6.323   0.264  1.0074  0.9177 -0.8738
16129SOL     OW49827   4.525   6.955   1.141 -0.0460 -0.4262  0.3745
16129SOL    HW149828   4.556   7.038   1.178  0.0872 -0.4855  0.3981
16129SOL    HW249829   4.446   6.978   1.093  0.6107 -0.0878 -0.5843
16130SOL     OW49830   5.371   7.773   0.547 -0.1125 -0.3468  0.0358
16130SOL    HW149831   5.357   7.713   0.620 -0.2321  0.6249  0.8281
16130SOL    HW249832   5.285   7.811   0.530  0.4529  1.7259  1.4535
16131SOL     OW49833   3.136   5.857   0.158 -0.1092 -0.6574 -0.4398
16131SOL    HW149834   3.145   5.944   0.197  1.5629 -2.0167  2.5309
16131SOL    HW249835   3.073   5.812   0.213  0.2857 -1.8486 -0.9219
16132SOL     OW49836   5.329   5.523  12.213 -0.2331  0.4151 -0.4353
16132SOL    HW149837   5.281   5.528  12.130 -0.1821  2.0829 -0.3941
16132SOL    HW249838   5.420   5.510  12.187 -0.2352  0.7891 -0.6286
16133SOL     OW49839   2.950   7.157   1.525 -0.0332 -0.2659 -0.5517
16133SOL    HW149840   2.958   7.228   1.462  0.2222 -0.1628 -0.4057
16133SOL    HW249841   2.863   7.119   1.509 -0.8482  1.1067  0.4528
16134SOL     OW49842   5.131   4.912   0.226  0.2893 -0.2132 -0.3609
16134SOL    HW149843   5.180   4.964   0.162 -0.9571 -1.0556 -2.0603
16134SOL    HW249844   5.186   4.913   0.304  1.5171  1.4709 -1.1833
16135SOL     OW49845   2.679   0.541   2.561  0.5100  0.4474 -0.0324
16135SOL    HW149846   2.708   0.610   2.501  0.2473 -0.0649 -0.7669
16135SOL    HW249847   2.671   0.585   2.646 -0.4532  1.5254 -0.6454
16136SOL     OW49848   3.543   5.554   0.881  0.0436 -0.2005 -0.2786
16136SOL    HW149849   3.521   5.497   0.954 -0.5818 -0.9140 -1.0031
16136SOL    HW249850   3.635   5.534   0.862  0.1051 -0.2697  0.0865
16137SOL     OW49851   3.557   6.238   1.177 -0.5706 -0.1257 -0.4142
16137SOL    HW149852   3.648   6.209   1.169 -0.5436 -0.0950 -0.2280
16137SOL    HW249853   3.530   6.256   1.087 -0.4826 -0.4060 -0.4993
16138SOL     OW49854   2.417   5.855   0.818  0.7783  0.2991  0.0623
16138SOL    HW149855   2.383   5.943   0.834  0.9195  0.5958 -1.1890
16138SOL    HW249856   2.512   5.867   0.816  1.1198 -0.5277  3.5713
16139SOL     OW49857   2.570   4.732   1.537  0.0703 -0.1316  0.4111
16139SOL    HW149858   2.502   4.675   1.573 -0.2478  0.3928  0.6505
16139SOL    HW249859   2.522   4.795   1.484  0.5928 -1.3745 -1.6227
16140SOL     OW49860   4.569   6.777   2.148 -0.4395 -0.4589  0.0876
16140SOL    HW149861   4.557   6.816   2.061 -1.3737 -1.5771 -0.3154
16140SOL    HW249862   4.642   6.825   2.186 -0.0692  0.1161 -1.2843
16141SOL     OW49863   5.788   5.773   0.640 -0.2856  0.1235 -0.1756
16141SOL    HW149864   5.874   5.746   0.607  0.0830  2.3028 -1.1461
16141SOL    HW249865   5.726   5.741   0.574  0.1263  1.4303 -1.2303
16142SOL     OW49866   4.681   4.974   1.989  0.4366  0.1221  0.3460
16142SOL    HW149867   4.772   5.004   1.987 -0.0043  1.6801  1.5348
16142SOL    HW249868   4.640   5.027   2.057 -1.3916 -0.4966 -0.2194
16143SOL     OW49869   1.902   7.630   1.127  0.1018  0.1366 -0.2076
16143SOL    HW149870   1.884   7.596   1.040  1.3568  0.2259 -0.5189
16143SOL    HW249871   1.823   7.678   1.152 -0.4213 -0.2437 -1.1144
16144SOL     OW49872   1.987   4.264   2.032 -0.1357 -0.3498 -0.0655
16144SOL    HW149873   1.967   4.315   2.110 -0.7071 -0.1607 -0.3242
16144SOL    HW249874   2.047   4.320   1.982  1.6487 -1.2046  1.0320
16145SOL     OW49875   3.002   6.277   2.471  0.1782 -0.1474  0.1836
16145SOL    HW149876   3.020   6.274   2.377  1.4895 -1.6777  0.4330
16145SOL    HW249877   3.035   6.193   2.504 -0.8918  0.0654  1.9097
16146SOL     OW49878   5.434   7.012  12.333 -0.0776  0.1078  0.0228
16146SOL    HW149879   5.372   6.944  12.357 -0.7358  0.5738 -0.3255
16146SOL    HW249880   5.510   6.964  12.299 -0.4914 -0.4582 -0.1289
16147SOL     OW49881   4.199   5.637   1.365  0.0311 -0.3686 -0.0926
16147SOL    HW149882   4.205   5.719   1.413 -1.1680  0.5837 -1.4548
16147SOL    HW249883   4.283   5.628   1.321 -0.0620  0.5171 -0.4778
16148SOL     OW49884   4.202   6.382   2.409 -0.5909 -0.7707  0.8460
16148SOL    HW149885   4.200   6.471   2.444 -0.0258 -1.4935  2.8376
16148SOL    HW249886   4.295   6.359   2.407 -0.8081 -1.7781  1.6338
16149SOL     OW49887   5.956   0.285  11.858 -0.2517 -0.5626  0.5940
16149SOL    HW149888   5.992   0.372  11.839 -1.3117 -0.0537  0.8411
16149SOL    HW249889   6.018   0.247  11.920  0.3387 -0.0766  0.3176
16150SOL     OW49890   6.638   7.577   2.315  0.1692  0.2012 -0.3329
16150SOL    HW149891   6.690   7.529   2.380  0.4815 -1.0398 -1.4669
16150SOL    HW249892   6.550   7.542   2.325  0.7274 -1.9810 -2.3425
16151SOL     OW49893   5.395   0.990   1.344  0.1328  0.7354  0.2241
16151SOL    HW149894   5.329   1.037   1.394 -1.2479  0.3669 -1.1783
16151SOL    HW249895   5.355   0.976   1.258  2.1231  0.6825 -0.7453
16152SOL     OW49896   2.883   0.555   1.127  0.3348 -0.3034 -0.3702
16152SOL    HW149897   2.929   0.629   1.087 -0.3700 -0.2042 -1.0368
16152SOL    HW249898   2.795   0.559   1.088 -0.5843  0.1385  1.6093
16153SOL     OW49899   4.555   7.473   1.445 -0.0676 -0.9163 -0.1192
16153SOL    HW149900   4.611   7.405   1.483 -0.9203 -0.2860  2.4795
16153SOL    HW249901   4.484   7.483   1.507 -0.6919  1.4073 -1.1053
16154SOL     OW49902   3.444   7.284   0.383  0.1873 -0.3405  0.2747
16154SOL    HW149903   3.379   7.306   0.449 -0.6576  0.6764 -0.8310
16154SOL    HW249904   3.425   7.344   0.310  0.6548 -1.8405 -1.1442
16155SOL     OW49905   6.561   7.476   0.316  0.0771  0.0374  0.4612
16155SOL    HW149906   6.569   7.571   0.305 -0.7267 -0.1187 -2.3014
16155SOL    HW249907   6.524   7.465   0.403  1.0191  2.1979  1.2103
16156SOL     OW49908   5.501   7.182   3.288 -0.2010  0.2318  0.1099
16156SOL    HW149909   5.491   7.207   3.196 -1.4468  0.6284  0.3307
16156SOL    HW249910   5.592   7.156   3.296 -0.0484  0.2823 -1.2198
16157SOL     OW49911   4.390   1.276   1.435  0.1330 -0.6819 -0.5955
16157SOL    HW149912   4.339   1.350   1.469 -0.7584 -1.6487  0.2675
16157SOL    HW249913   4.476   1.286   1.476 -0.0981 -0.3343 -0.1819
16158SOL     OW49914   6.672   5.307  12.150  0.0227  0.3524  0.1421
16158SOL    HW149915   6.682   5.279  12.059  0.6966  0.4284  0.1853
16158SOL    HW249916   6.577   5.316  12.162 -0.0828  0.1726 -0.4968
16159SOL     OW49917   3.219   7.260   1.170  0.4232  0.3819 -0.1097
16159SOL    HW149918   3.185   7.339   1.129 -0.4812  0.0236 -0.0570
16159SOL    HW249919   3.181   7.259   1.257  1.6775  0.7020  0.4632
16160SOL     OW49920   5.607   6.395  12.394  0.3947  0.4650 -0.0641
16160SOL    HW149921   5.559   6.459  12.446  0.1206 -0.6764  1.1260
16160SOL    HW249922   5.625   6.441  12.311 -0.4697  1.7953  0.4454
16161SOL     OW49923   5.848   7.203  12.241 -0.3163 -0.6612  0.4889
16161SOL    HW149924   5.769   7.203  12.186 -0.4276 -1.5192  0.6444
16161SOL    HW249925   5.823   7.256  12.317 -0.2236  0.3705 -0.1742
16162SOL     OW49926   5.095   4.122   0.778 -0.1181 -0.1566  0.2993
16162SOL    HW149927   5.188   4.105   0.794 -0.2350 -0.8509  0.2566
16162SOL    HW249928   5.059   4.037   0.754 -0.6288  0.2347 -0.3422
16163SOL     OW49929   3.670   7.452   1.479  0.0831 -0.3212 -0.3891
16163SOL    HW149930   3.711   7.426   1.562 -0.8311 -0.7745 -0.0597
16163SOL    HW249931   3.630   7.372   1.446  2.0063 -0.5967 -2.2478
16164SOL     OW49932   5.977   7.744  12.225  0.3018  1.0091 -0.1159
16164SOL    HW149933   5.954   7.837  12.219 -0.3133  0.9072  0.4817
16164SOL    HW249934   5.997   7.730  12.317 -0.5143  0.3515 -0.0262
16165SOL     OW49935   4.476   6.807   1.872 -0.4017  0.1877 -0.3582
16165SOL    HW149936   4.498   6.732   1.816 -0.9266 -1.1091  1.0924
16165SOL    HW249937   4.384   6.795   1.894  0.0930 -0.1267  1.8339
16166SOL     OW49938   4.909   7.465   0.327 -0.5693 -0.0410 -1.1255
16166SOL    HW149939   4.997   7.434   0.307 -0.1749  0.1659  0.1703
16166SOL    HW249940   4.872   7.490   0.242  0.1508 -1.2978 -1.8434
16167SOL     OW49941   6.216   7.739  11.383  0.1926 -0.0005 -0.8162
16167SOL    HW149942   6.229   7.646  11.365 -0.2838 -0.0331 -1.0041
16167SOL    HW249943   6.302   7.771  11.411  0.0021 -0.8535  0.8239
16168SOL     OW49944   4.676   7.930  11.415  0.1330  0.0228 -0.0801
16168SOL    HW149945   4.687   7.937  11.320  0.9425 -1.1031 -0.0894
16168SOL    HW249946   4.618   8.002  11.437 -0.8461 -0.2529 -1.5647
16169SOL     OW49947   5.563   5.858   2.443 -0.4390 -0.3662 -0.2874
16169SOL    HW149948   5.623   5.800   2.397 -0.5236  0.2453 -1.1957
16169SOL    HW249949   5.477   5.838   2.405 -0.6190 -0.3460  0.1056
16170SOL     OW49950   3.753   7.330   0.480  0.4608  0.7487  0.4586
16170SOL    HW149951   3.681   7.271   0.457  1.0303  0.6078 -1.0783
16170SOL    HW249952   3.796   7.288   0.554 -0.3123  0.2320  0.6259
16171SOL     OW49953   4.144   6.890   0.727 -0.0360 -0.1180 -0.4438
16171SOL    HW149954   4.199   6.833   0.780  1.1167 -1.2274 -2.6827
16171SOL    HW249955   4.199   6.967   0.710 -0.2274  0.0283 -0.4055
16172SOL     OW49956   3.661   6.571   2.297 -0.4171 -0.6401  0.5354
16172SOL    HW149957   3.629   6.587   2.208  0.4034  1.2526  0.5389
16172SOL    HW249958   3.756   6.580   2.290 -0.3291 -0.6866  1.5783
16173SOL     OW49959   4.557   5.138   2.177  0.0746  0.5947 -0.5504
16173SOL    HW149960   4.487   5.174   2.231  0.4387  1.6650 -0.7819
16173SOL    HW249961   4.637   5.176   2.212  0.9343 -2.5936  1.4413
16174SOL     OW49962   4.843   0.229   0.159  0.3003 -0.0866 -0.2858
16174SOL    HW149963   4.789   0.151   0.156  0.0457  0.1018 -0.7783
16174SOL    HW249964   4.797   0.288   0.218  0.5977 -0.3798  0.2464
16175SOL     OW49965   4.549   7.480   0.847 -0.8375 -0.4705 -0.4551
16175SOL    HW149966   4.493   7.535   0.902  0.6799 -0.7044  1.4812
16175SOL    HW249967   4.610   7.542   0.806 -0.1848 -0.4932  0.4233
16176SOL     OW49968   2.366   3.755   3.842  0.6471 -0.0343 -0.0343
16176SOL    HW149969   2.350   3.841   3.880  1.3771 -0.2334  0.7603
16176SOL    HW249970   2.339   3.693   3.910  0.7912 -0.4201 -0.3244
16177SOL     OW49971   4.743   6.314   0.246 -0.3240 -0.0287 -0.0134
16177SOL    HW149972   4.784   6.394   0.280 -0.1851 -0.3369  0.5527
16177SOL    HW249973   4.651   6.338   0.233  0.0531  0.7382 -1.5159
16178SOL     OW49974   5.062   5.500   1.462 -0.0323  0.8849 -0.3177
16178SOL    HW149975   5.140   5.457   1.428  0.5943  0.5228  1.4539
16178SOL    HW249976   5.089   5.590   1.479 -0.5232  1.2386 -1.3084
16179SOL     OW49977   3.463   0.028   1.265 -0.3291 -0.4657 -0.4717
16179SOL    HW149978   3.486  -0.049   1.317  2.3487  0.4165 -0.1770
16179SOL    HW249979   3.542   0.083   1.267 -1.2697  1.1378 -2.7411
16180SOL     OW49980   3.884   6.183   1.906  0.5772  0.1156 -0.0355
16180SOL    HW149981   3.839   6.113   1.955  2.2412  0.0531  1.5034
16180SOL    HW249982   3.974   6.153   1.900  1.0285  1.5320 -0.5484
16181SOL     OW49983   4.016   6.797   1.539  0.3556 -0.7695 -0.5289
16181SOL    HW149984   4.016   6.730   1.608  0.2526  1.5772  1.8996
16181SOL    HW249985   4.100   6.786   1.495  1.2814 -1.1384  1.2513
16182SOL     OW49986   5.283   6.387   2.840  0.1461  0.1501  0.1071
16182SOL    HW149987   5.355   6.341   2.796  0.7336  1.3901 -0.2850
16182SOL    HW249988   5.212   6.324   2.841  0.9769 -0.8314 -0.2461
16183SOL     OW49989   5.710   7.226   0.374  0.1621 -0.6235  0.4696
16183SOL    HW149990   5.771   7.286   0.330 -1.5467  0.8970  0.0338
16183SOL    HW249991   5.713   7.146   0.321  1.6502 -0.5480  0.3994
16184SOL     OW49992   4.914   6.393   1.111 -0.0400 -0.1480  0.0333
16184SOL    HW149993   4.950   6.458   1.172 -0.9106 -0.4461  0.9020
16184SOL    HW249994   4.849   6.442   1.061 -0.5994 -0.3009  0.5945
16185SOL     OW49995   4.736   4.866   1.308 -0.4319 -0.0599  0.1936
16185SOL    HW149996   4.699   4.937   1.361 -0.4624 -0.7844  1.1644
16185SOL    HW249997   4.799   4.822   1.366  0.0423 -0.4527 -0.5943
16186SOL     OW49998   3.995   5.862   0.443  0.1074  0.0636  0.3680
16186SOL    HW149999   3.933   5.934   0.454  0.9871  0.8332  0.3808
16186SOL    HW250000   4.071   5.887   0.496  0.8966 -0.3126 -0.5563
16187SOL     OW50001   3.851   6.559   0.980  0.1621 -0.2182  0.1449
16187SOL    HW150002   3.794   6.636   0.978  0.2907 -0.1240  0.0213
16187SOL    HW250003   3.814   6.499   0.915  0.9474  0.3861 -0.9118
16188SOL     OW50004   4.924   6.372   0.015 -0.2870 -0.2650 -0.4117
16188SOL    HW150005   4.839   6.353  -0.025 -0.8569 -0.4456  0.8434
16188SOL    HW250006   4.935   6.304   0.081 -1.1474  2.1020  2.3674
16189SOL     OW50007   5.828   0.071  11.326  0.5178 -0.0139 -0.0759
16189SOL    HW150008   5.905   0.024  11.359  0.4361  0.9102  1.5050
16189SOL    HW250009   5.789   0.112  11.403 -2.3687 -1.5415 -0.5783
16190SOL     OW50010   3.492   5.344   0.156 -0.0823  0.5122  0.4512
16190SOL    HW150011   3.551   5.402   0.107 -1.1267  1.3980  0.1948
16190SOL    HW250012   3.510   5.365   0.248  1.5545 -0.8262  0.4730
16191SOL     OW50013   7.099   4.601  12.076  0.0469 -0.1789 -0.3209
16191SOL    HW150014   7.050   4.571  12.152  0.5804 -0.9602 -0.2771
16191SOL    HW250015   7.033   4.613  12.008 -0.2983 -0.4815 -0.0449
16192SOL     OW50016   6.345   7.706   2.174  0.1310 -0.2774 -0.4852
16192SOL    HW150017   6.432   7.745   2.186 -0.0997  0.0865  0.1006
16192SOL    HW250018   6.285   7.774   2.203 -0.4621  0.2254 -2.7755
16193SOL     OW50019   6.962   0.433   0.594 -0.0014  0.1363  0.2368
16193SOL    HW150020   6.930   0.349   0.561  2.0236 -0.0316 -1.5101
16193SOL    HW250021   6.883   0.486   0.607 -1.1617 -1.2036 -1.0269
16194SOL     OW50022   3.737   7.626   3.734  0.0781  0.3349 -0.1024
16194SOL    HW150023   3.778   7.698   3.782  0.6984 -0.7437  1.0199
16194SOL    HW250024   3.790   7.617   3.655  0.3043  0.7697 -0.0054
16195SOL     OW50025   4.386   6.922   1.599  0.2384 -0.4843 -0.4671
16195SOL    HW150026   4.337   6.859   1.651 -1.0500  0.8959  0.0645
16195SOL    HW250027   4.330   6.938   1.523  0.7756 -0.3332 -0.8367
16196SOL     OW50028   5.833   6.134   2.240 -0.7106 -0.1653 -0.0268
16196SOL    HW150029   5.925   6.131   2.265 -0.5227  1.0090 -0.4875
16196SOL    HW250030   5.831   6.191   2.162 -1.7605 -0.5555 -0.3014
16197SOL     OW50031   5.148   6.145   0.767  0.6322 -0.0801 -0.1322
16197SOL    HW150032   5.086   6.075   0.748  1.5597 -1.2803  1.0511
16197SOL    HW250033   5.201   6.112   0.840  1.5957  1.5561 -0.0196
16198SOL     OW50034   2.399   5.936  12.144 -0.1096 -0.0423 -0.0920
16198SOL    HW150035   2.368   5.849  12.170 -1.2357  0.1064 -0.8414
16198SOL    HW250036   2.329   5.996  12.171 -0.8908  0.2311 -2.4482
16199SOL     OW50037   5.425   6.701   0.505  0.2399 -0.0340  0.0645
16199SOL    HW150038   5.415   6.675   0.414 -0.7489 -1.7588  0.6070
16199SOL    HW250039   5.495   6.645   0.539  0.1303  0.0949  0.5160
16200SOL     OW50040   2.760   7.252   1.047  0.0034 -0.0506 -0.0375
16200SOL    HW150041   2.687   7.226   0.992 -0.1871  1.0334 -0.3136
16200SOL    HW250042   2.821   7.179   1.042 -0.8826 -0.8003 -0.1116
16201SOL     OW50043   3.531   0.005   2.325  0.2307 -0.3277  0.0222
16201SOL    HW150044   3.571  -0.065   2.376  1.4149  0.7493  0.6192
16201SOL    HW250045   3.590   0.080   2.335 -1.9505  1.4032  1.0695
16202SOL     OW50046   5.726   0.204  11.576  0.1159  0.1563  0.0974
16202SOL    HW150047   5.637   0.198  11.613  1.1380 -0.2673  2.6889
16202SOL    HW250048   5.771   0.126  11.609  2.1823  1.6521  1.0378
16203SOL     OW50049   5.585   5.303   2.422  0.4623 -0.2307 -0.0474
16203SOL    HW150050   5.532   5.243   2.370 -0.6079  0.9331 -0.3564
16203SOL    HW250051   5.661   5.321   2.366  1.3101 -2.0226  0.4616
16204SOL     OW50052   3.945   7.053  11.289 -0.9066 -0.1908  0.1079
16204SOL    HW150053   3.924   7.029  11.199  1.6129 -0.8263 -0.3884
16204SOL    HW250054   3.889   6.997  11.343 -1.4648 -0.7910 -1.0660
16205SOL     OW50055   4.184   5.855   0.689  0.4492  0.1296  0.3506
16205SOL    HW150056   4.243   5.920   0.651  0.9772  0.0120  0.9595
16205SOL    HW250057   4.161   5.890   0.775  0.9528 -0.6117  0.7976
16206SOL     OW50058   6.595   6.052  12.208  0.0018  0.2120 -0.2326
16206SOL    HW150059   6.664   6.010  12.259  0.5222 -0.1092 -1.1786
16206SOL    HW250060   6.642   6.097  12.138 -0.4490  3.0449  1.1491
16207SOL     OW50061   7.106   7.117  12.346  0.5801 -0.4764  0.4063
16207SOL    HW150062   7.200   7.123  12.332  0.6732  2.8278  1.6874
16207SOL    HW250063   7.078   7.044  12.290  3.4328  0.3751 -2.3940
16208SOL     OW50064   6.206   6.801  11.662 -0.1015 -0.1679 -0.3338
16208SOL    HW150065   6.239   6.752  11.587  0.6892 -0.7322  0.3714
16208SOL    HW250066   6.125   6.756  11.686 -0.1025 -0.2807 -0.5500
16209SOL     OW50067   3.012   5.967  12.386  0.4103  0.1499  0.1686
16209SOL    HW150068   3.098   5.963  12.344  0.5284 -1.0306  0.4759
16209SOL    HW250069   3.025   5.925  12.471 -0.6033 -0.6828 -0.0591
16210SOL     OW50070   6.513   0.749   1.797  0.2814  0.0551 -0.0970
16210SOL    HW150071   6.528   0.798   1.717 -1.3796  1.3109  0.3055
16210SOL    HW250072   6.427   0.709   1.786 -1.0753  2.1298  1.8583
16211SOL     OW50073   1.615   6.943   2.972  0.5029 -0.0605  0.0536
16211SOL    HW150074   1.558   6.866   2.971  0.9149 -0.3655  0.0268
16211SOL    HW250075   1.571   7.005   3.030  1.4804 -1.3178  2.2514
16212SOL     OW50076   5.322   4.992   4.744 -0.0338  0.4204 -0.1465
16212SOL    HW150077   5.244   4.954   4.784 -0.2841 -1.1911 -2.0073
16212SOL    HW250078   5.313   5.086   4.757 -3.9304  0.6634 -2.9175
16213SOL     OW50079   2.659   4.834   2.934  0.2519 -0.2473 -0.1510
16213SOL    HW150080   2.733   4.863   2.988 -1.3161 -0.1691  2.0989
16213SOL    HW250081   2.672   4.739   2.924  1.0287 -0.1200 -0.4399
16214SOL     OW50082   4.523   7.220   2.591  0.4138 -0.5614 -0.9873
16214SOL    HW150083   4.480   7.184   2.514 -0.6297 -0.3774 -0.5082
16214SOL    HW250084   4.474   7.184   2.666  1.1643 -0.4371 -0.4223
16215SOL     OW50085   3.125   6.547   2.821 -0.4567 -0.5831  0.5386
16215SOL    HW150086   3.045   6.599   2.823 -0.2739 -0.2685  0.0847
16215SOL    HW250087   3.195   6.611   2.838 -0.2468 -0.7070  0.1586
16216SOL     OW50088   4.442   0.854   1.548 -0.1374 -0.2529  0.0325
16216SOL    HW150089   4.525   0.871   1.504 -1.5121  1.5391 -2.0278
16216SOL    HW250090   4.375   0.878   1.485 -2.3020 -2.4194  1.3205
16217SOL     OW50091   6.424   5.556   0.168  0.2373 -0.3044 -0.0182
16217SOL    HW150092   6.466   5.494   0.226  0.4347  0.9213  1.1965
16217SOL    HW250093   6.392   5.626   0.225 -0.0414  0.6807 -1.3075
16218SOL     OW50094   4.515   7.222   3.545 -1.0753  0.2980 -0.0386
16218SOL    HW150095   4.513   7.174   3.462  2.1213 -0.2816  0.1038
16218SOL    HW250096   4.537   7.312   3.519  0.7348 -0.0553  0.1818
16219SOL     OW50097   5.105   6.646   4.196  0.1535 -0.1874 -0.2467
16219SOL    HW150098   5.110   6.716   4.261 -0.7951 -0.3428  0.0178
16219SOL    HW250099   5.048   6.681   4.127  1.6181  0.1923 -1.3000
16220SOL     OW50100   4.593   6.420   3.354 -0.6141 -0.6599  0.4327
16220SOL    HW150101   4.678   6.449   3.388  0.6279 -2.7950 -0.6662
16220SOL    HW250102   4.541   6.403   3.433 -0.7546  2.3603  1.1474
16221SOL     OW50103   3.266   6.773   4.170 -0.0857 -0.1748 -0.7635
16221SOL    HW150104   3.307   6.747   4.088 -1.1707  1.2271 -1.8066
16221SOL    HW250105   3.233   6.861   4.153  1.5631  1.0913  1.8750
16222SOL     OW50106   3.650   6.004   4.266 -0.1926 -0.0067  0.1321
16222SOL    HW150107   3.615   5.940   4.328 -0.8255 -0.2208 -0.4403
16222SOL    HW250108   3.580   6.017   4.203  1.1672 -1.3587 -1.7571
16223SOL     OW50109   4.682   7.171   3.001  0.1793 -0.3014  0.5825
16223SOL    HW150110   4.747   7.104   3.025  0.3806 -0.7192 -1.0424
16223SOL    HW250111   4.603   7.122   2.980 -0.1945  0.1036  1.0262
16224SOL     OW50112   3.981   6.170   3.494 -0.1412  0.7232  0.3063
16224SOL    HW150113   3.944   6.082   3.499 -0.3111  0.7465 -0.4583
16224SOL    HW250114   4.076   6.157   3.501  0.0449  0.2177 -2.3048
16225SOL     OW50115   4.828   5.347   1.448  0.4309 -0.4833  0.2452
16225SOL    HW150116   4.758   5.408   1.472 -0.3280 -1.7045  1.2523
16225SOL    HW250117   4.908   5.399   1.455 -0.3910  1.2064 -1.8560
16226SOL     OW50118   4.560   6.459   3.911 -0.5189 -0.7231 -0.1151
16226SOL    HW150119   4.606   6.384   3.875  0.3557 -1.1582  1.8098
16226SOL    HW250120   4.629   6.522   3.932 -1.0006 -0.4383  0.6630
16227SOL     OW50121   4.663   6.205   3.175 -0.2212 -0.0126 -0.3058
16227SOL    HW150122   4.624   6.291   3.184  1.5553  0.7919  0.1966
16227SOL    HW250123   4.725   6.199   3.248  4.3681  0.9637 -3.6586
16228SOL     OW50124   2.770   5.967   2.608 -0.2190 -1.1330  0.4744
16228SOL    HW150125   2.746   5.974   2.701 -0.7898  1.6624  0.1770
16228SOL    HW250126   2.694   5.927   2.567 -0.3489 -1.4773  1.0265
16229SOL     OW50127   3.466   6.053   3.912 -0.3844  0.0627 -1.1320
16229SOL    HW150128   3.541   6.113   3.914 -0.2392 -0.1251 -0.3593
16229SOL    HW250129   3.505   5.966   3.920 -0.6920 -0.0220 -0.4617
16230SOL     OW50130   2.862   5.795   2.104  0.5629 -0.1730 -0.1644
16230SOL    HW150131   2.927   5.864   2.119 -1.2611  1.3924  1.0735
16230SOL    HW250132   2.780   5.843   2.087 -0.6554 -2.0358  0.2139
16231SOL     OW50133   6.215   4.102   3.426 -0.0773  0.1665  0.0439
16231SOL    HW150134   6.261   4.018   3.414  0.3551  0.1943  1.3087
16231SOL    HW250135   6.123   4.077   3.439 -0.1251 -0.0295 -0.6466
16232SOL     OW50136   3.525   6.512   3.839  0.8949  0.1883  0.4822
16232SOL    HW150137   3.586   6.451   3.799 -0.9402 -1.0193 -0.6272
16232SOL    HW250138   3.518   6.584   3.776 -0.3178 -0.6551 -0.3931
16233SOL     OW50139   5.979   7.045   2.390  0.0230 -0.8241 -0.1614
16233SOL    HW150140   6.056   7.057   2.334 -0.5030 -1.3980 -1.0366
16233SOL    HW250141   5.950   7.134   2.409 -0.5819 -0.5980 -1.9532
16234SOL     OW50142   2.536   1.006   2.350 -0.0322 -0.3705  0.1839
16234SOL    HW150143   2.466   0.957   2.393  1.3688 -1.8696  0.8575
16234SOL    HW250144   2.548   0.963   2.265 -0.4078  0.3503 -0.2424
16235SOL     OW50145   6.577   5.712   2.856 -0.5419  0.2674  0.1175
16235SOL    HW150146   6.570   5.630   2.905  0.0223  0.9569  1.4089
16235SOL    HW250147   6.668   5.713   2.824  0.1182  1.3457  1.9270
16236SOL     OW50148   4.695   5.248   0.976 -0.1578  0.3401  0.0549
16236SOL    HW150149   4.771   5.190   0.973 -1.5382 -1.5088 -0.6068
16236SOL    HW250150   4.705   5.295   1.059  1.8412  0.3816 -0.1536
16237SOL     OW50151   3.727   5.187   4.698  0.2575  0.3596  0.2198
16237SOL    HW150152   3.661   5.131   4.738 -1.0126  1.8164  0.2216
16237SOL    HW250153   3.811   5.150   4.727 -0.4352 -2.5968 -1.2146
16238SOL     OW50154   5.704   7.204   4.377  0.5052 -0.2440 -0.1684
16238SOL    HW150155   5.623   7.224   4.423 -0.0124 -0.9972 -0.7234
16238SOL    HW250156   5.682   7.214   4.285  1.4403  0.9169 -0.2874
16239SOL     OW50157   4.187   7.612   4.650  0.0576  0.1270  0.2622
16239SOL    HW150158   4.214   7.656   4.730  0.2886 -2.5642  1.7704
16239SOL    HW250159   4.111   7.560   4.675  1.3978 -2.4557 -0.6141
16240SOL     OW50160   4.783   4.576   2.462  0.4637 -0.0133  0.1530
16240SOL    HW150161   4.815   4.509   2.401 -1.6174  0.7841 -1.9796
16240SOL    HW250162   4.827   4.656   2.433  1.4124 -0.0522  1.4085
16241SOL     OW50163   3.583   4.797   1.605  0.0676 -0.5851  0.0633
16241SOL    HW150164   3.492   4.777   1.584  0.1532 -0.0287 -0.8877
16241SOL    HW250165   3.579   4.867   1.670 -0.1989 -2.0703  1.7218
16242SOL     OW50166   4.398   0.261   3.467  0.4895  0.2412 -0.1125
16242SOL    HW150167   4.467   0.195   3.471 -0.1630 -0.4166  0.6674
16242SOL    HW250168   4.430   0.326   3.404  0.9290 -1.0667 -1.2771
16243SOL     OW50169   5.442   6.991   3.690 -0.1355 -0.1983  0.1470
16243SOL    HW150170   5.431   6.905   3.730  0.8389  0.0640  1.0687
16243SOL    HW250171   5.401   6.985   3.604 -1.6657 -1.0225  0.9073
16244SOL     OW50172   4.255   6.132   3.594  0.6721  0.2246 -0.0603
16244SOL    HW150173   4.328   6.193   3.605  2.4731 -1.6893 -0.6430
16244SOL    HW250174   4.295   6.054   3.555 -1.3772 -1.5996  1.2840
16245SOL     OW50175   7.090   7.542   1.997  0.0709  0.6593 -0.0416
16245SOL    HW150176   7.112   7.464   1.947  2.6322  1.6323 -0.5938
16245SOL    HW250177   7.135   7.530   2.081  0.0917  1.3145  0.0490
16246SOL     OW50178   4.935   7.974   3.502  0.0761  0.7441  0.5760
16246SOL    HW150179   4.871   7.903   3.496 -0.1573  0.9402  0.7008
16246SOL    HW250180   5.019   7.933   3.480 -0.2580  0.7321 -0.8187
16247SOL     OW50181   4.176   4.681   0.297  0.1937 -0.2670 -0.0450
16247SOL    HW150182   4.083   4.676   0.317  0.4895  0.8927  1.9384
16247SOL    HW250183   4.195   4.775   0.298  1.6687 -0.5325  1.2644
16248SOL     OW50184   4.425   5.794   3.807 -0.4397 -0.4794 -0.3125
16248SOL    HW150185   4.499   5.733   3.804  0.0400  0.0044  0.9586
16248SOL    HW250186   4.353   5.742   3.843 -1.0843 -1.2646 -2.5891
16249SOL     OW50187   5.927   7.645   1.171 -0.1317  0.0032 -0.3605
16249SOL    HW150188   5.891   7.573   1.223 -1.9107  1.3588  0.3993
16249SOL    HW250189   6.022   7.634   1.177 -0.3541 -1.7114  0.5354
16250SOL     OW50190   6.014   5.767   2.156  0.0136  0.4479  0.1334
16250SOL    HW150191   6.105   5.742   2.141 -0.2066 -0.8218  0.7745
16250SOL    HW250192   6.017   5.861   2.172  1.2456  0.3883  0.3405
16251SOL     OW50193   5.388   6.009   4.000  0.1865 -0.1848  0.0005
16251SOL    HW150194   5.368   5.922   3.967 -0.0012  0.0850 -0.6173
16251SOL    HW250195   5.483   6.017   3.990  0.0242  0.2624 -1.4478
16252SOL     OW50196   5.440   6.455   3.857 -0.3384 -0.3085  0.3073
16252SOL    HW150197   5.508   6.400   3.817 -0.1210  0.2090 -0.0528
16252SOL    HW250198   5.465   6.462   3.949  1.0574  1.2529 -0.1474
16253SOL     OW50199   4.355   5.698   0.491  0.0555 -0.4742  0.5668
16253SOL    HW150200   4.310   5.755   0.553  1.0203  0.1090  0.7560
16253SOL    HW250201   4.330   5.610   0.516 -1.1508 -0.1599  0.5250
16254SOL     OW50202   4.182   6.668   2.173  0.0813  0.1146 -0.7295
16254SOL    HW150203   4.191   6.653   2.079  1.3730 -1.4617 -0.3949
16254SOL    HW250204   4.272   6.670   2.206 -0.3786 -0.9063  0.6831
16255SOL     OW50205   3.907   4.701   3.374  0.4473 -0.4036  0.1841
16255SOL    HW150206   3.911   4.631   3.439 -0.0991  0.0705  0.7429
16255SOL    HW250207   3.910   4.781   3.426 -4.0996  0.0802  0.0787
16256SOL     OW50208   4.103   7.156   4.437  0.8827  0.0537  0.4617
16256SOL    HW150209   4.044   7.082   4.450  1.2514 -0.2054  0.6663
16256SOL    HW250210   4.048   7.233   4.452 -0.1446 -0.0644 -2.1500
16257SOL     OW50211   5.963   7.111   4.701  0.7298  0.3391  0.6714
16257SOL    HW150212   5.907   7.048   4.747  2.1806 -2.5412 -1.1597
16257SOL    HW250213   6.046   7.110   4.749  1.7692 -1.5966 -1.0089
16258SOL     OW50214   4.667   4.581   1.486 -0.2316 -0.0138  0.0442
16258SOL    HW150215   4.673   4.487   1.473 -0.0340  0.1791 -1.3959
16258SOL    HW250216   4.584   4.606   1.446  0.9580  0.7759 -2.1055
16259SOL     OW50217   4.117   5.617   2.833  0.3257 -0.5988  0.5721
16259SOL    HW150218   4.030   5.656   2.825  1.1937  1.4732  0.6547
16259SOL    HW250219   4.101   5.523   2.839 -1.8224 -0.3802 -0.7126
16260SOL     OW50220   5.588   7.081   1.223 -0.1743  0.2162  0.0329
16260SOL    HW150221   5.524   7.066   1.293 -0.9260  1.7482 -0.2921
16260SOL    HW250222   5.629   7.165   1.244 -0.7273  0.9326 -1.5730
16261SOL     OW50223   3.253   7.188   2.782 -0.0627 -0.1932 -0.1652
16261SOL    HW150224   3.194   7.239   2.837 -0.8968 -1.4951  0.2022
16261SOL    HW250225   3.309   7.141   2.844 -0.9828 -1.6459 -0.3725
16262SOL     OW50226   5.223   5.528   2.981  0.1225  0.4054  0.5247
16262SOL    HW150227   5.194   5.441   3.009 -0.3666  1.1068  2.3375
16262SOL    HW250228   5.178   5.543   2.897  0.6206 -1.2703 -0.0707
16263SOL     OW50229   4.580   0.205   2.263  0.0686  0.5906  0.5197
16263SOL    HW150230   4.600   0.253   2.343 -2.6528  0.6261  1.2945
16263SOL    HW250231   4.563   0.116   2.293  0.2949  0.3051 -0.1976
16264SOL     OW50232   5.324   7.240   3.055 -0.2246 -0.2314 -0.0354
16264SOL    HW150233   5.393   7.305   3.045  1.9232 -2.1489  1.2373
16264SOL    HW250234   5.291   7.254   3.144 -0.0148 -0.6113  0.1052
16265SOL     OW50235   5.414   5.619   2.787 -0.1746 -0.0394 -0.1106
16265SOL    HW150236   5.360   5.564   2.730 -1.4648  0.8893  0.1728
16265SOL    HW250237   5.394   5.589   2.876  0.0613  0.0529 -0.0250
16266SOL     OW50238   4.721   6.269   2.689  0.3312  0.5986 -0.6862
16266SOL    HW150239   4.766   6.314   2.760  0.7943 -0.0157 -0.5849
16266SOL    HW250240   4.629   6.293   2.700 -0.2456 -2.1834  2.2915
16267SOL     OW50241   6.612   0.047   2.874  0.3394 -0.6935  0.4264
16267SOL    HW150242   6.596  -0.003   2.794 -0.0228  0.6532 -0.3677
16267SOL    HW250243   6.545   0.116   2.873  0.6530 -0.3514  1.6324
16268SOL     OW50244   2.618   5.511   1.548  0.6342 -0.6765  0.0527
16268SOL    HW150245   2.702   5.500   1.505 -0.0958 -1.8454 -1.1517
16268SOL    HW250246   2.636   5.499   1.641  2.0370  0.6903  0.0045
16269SOL     OW50247   4.485   6.002   2.074  0.3063 -0.1781 -0.2313
16269SOL    HW150248   4.498   6.024   1.982 -0.1340 -0.9971 -0.4895
16269SOL    HW250249   4.443   5.916   2.074 -0.7354  0.2993  0.7094
16270SOL     OW50250   3.803   0.074   1.466  0.4451 -0.1180  0.6820
16270SOL    HW150251   3.885   0.116   1.438  0.0411 -0.7078 -1.5325
16270SOL    HW250252   3.744   0.147   1.486  0.0324  0.4516 -2.2614
16271SOL     OW50253   6.443   4.326   3.733  0.1020 -0.1376  0.5162
16271SOL    HW150254   6.443   4.359   3.643 -0.6287  0.2918  0.6620
16271SOL    HW250255   6.402   4.240   3.727  1.0928 -0.6133  0.2836
16272SOL     OW50256   3.900   7.669   2.264  0.2168 -0.3559 -0.0368
16272SOL    HW150257   3.994   7.651   2.259  0.5539  0.3985  2.2724
16272SOL    HW250258   3.889   7.753   2.220  0.7971 -0.0351  0.4088
16273SOL     OW50259   5.216   6.922   2.763 -0.3376 -0.0773 -0.2774
16273SOL    HW150260   5.275   6.997   2.761 -0.6720  0.1802 -2.0168
16273SOL    HW250261   5.189   6.915   2.854 -1.1098  2.5790 -0.2257
16274SOL     OW50262   3.122   4.919   1.372  0.4853  0.1719  1.5222
16274SOL    HW150263   3.102   4.949   1.284  0.5062 -1.3876  0.9579
16274SOL    HW250264   3.054   4.958   1.427 -1.3340 -1.1693  0.3514
16275SOL     OW50265   4.323   6.102   2.667  0.2689 -0.0604  0.2872
16275SOL    HW150266   4.290   6.022   2.709 -0.9303  0.3890  0.2349
16275SOL    HW250267   4.396   6.072   2.614  0.1083 -1.0642  0.6046
16276SOL     OW50268   5.146   5.667   2.511 -0.3429  0.4432 -0.3265
16276SOL    HW150269   5.078   5.730   2.534  0.5992  1.4244 -0.1228
16276SOL    HW250270   5.120   5.586   2.553 -1.1088  0.9473  0.1864
16277SOL     OW50271   4.109   4.690   2.524  0.6777 -0.2271  0.7122
16277SOL    HW150272   4.079   4.629   2.591  1.6364 -0.9432  0.5208
16277SOL    HW250273   4.154   4.759   2.573 -1.2513  0.8966  1.0058
16278SOL     OW50274   5.271   7.534   3.780 -0.3930  0.4071  0.3259
16278SOL    HW150275   5.333   7.599   3.814 -1.9815  1.6595  0.9152
16278SOL    HW250276   5.292   7.528   3.687 -0.4115  1.9949  0.1995
16279SOL     OW50277   6.280   5.715   3.973  0.7095  0.0557  0.2532
16279SOL    HW150278   6.230   5.633   3.973 -0.8200  0.9619  0.7207
16279SOL    HW250279   6.226   5.776   4.022  1.3599  1.6374 -0.9292
16280SOL     OW50280   4.796   6.652   2.787  0.5578  0.1322 -0.0734
16280SOL    HW150281   4.761   6.577   2.835  1.7025 -0.8994 -0.7839
16280SOL    HW250282   4.777   6.633   2.695  1.0269  0.6306 -0.2776
16281SOL     OW50283   4.493   6.628   2.662 -0.0504  0.3777 -0.2710
16281SOL    HW150284   4.505   6.535   2.683  0.5178  0.8072  1.5283
16281SOL    HW250285   4.560   6.647   2.597  0.1234 -0.3678 -0.3165
16282SOL     OW50286   2.744   5.909   3.442 -0.4887 -0.2503 -0.1111
16282SOL    HW150287   2.680   5.868   3.384  0.0284 -0.4385 -0.5512
16282SOL    HW250288   2.794   5.835   3.478 -1.1189 -0.1756  0.9521
16283SOL     OW50289   5.798   5.890   2.982 -0.1023 -0.7500 -0.3615
16283SOL    HW150290   5.766   5.828   2.917 -3.5391  1.3645 -0.9880
16283SOL    HW250291   5.812   5.838   3.061 -2.5060 -2.4293 -0.9457
16284SOL     OW50292   3.972   5.807   2.278 -0.5896 -0.1629  0.3663
16284SOL    HW150293   3.918   5.885   2.292 -1.0044 -0.3848  0.0358
16284SOL    HW250294   4.041   5.813   2.344 -0.2577  0.8058 -0.0464
16285SOL     OW50295   3.701   5.479   3.368 -0.2663 -0.0007 -0.6468
16285SOL    HW150296   3.639   5.430   3.423  0.1904 -0.1800 -0.2814
16285SOL    HW250297   3.782   5.479   3.418 -0.1862  0.9288 -0.7480
16286SOL     OW50298   4.667   5.674   4.786  0.4149  0.7072 -0.4054
16286SOL    HW150299   4.613   5.615   4.733  0.6988 -0.1274  0.2214
16286SOL    HW250300   4.637   5.762   4.761  0.0599  0.3160 -1.4306
16287SOL     OW50301   4.456   7.085   2.857 -0.4631 -0.5723 -0.2351
16287SOL    HW150302   4.408   7.006   2.829 -1.5504  0.0213 -0.0942
16287SOL    HW250303   4.392   7.155   2.850 -1.0982 -0.4005  4.2543
16288SOL     OW50304   2.686   6.456   2.855 -0.2333 -0.4123  0.5286
16288SOL    HW150305   2.626   6.382   2.845 -0.6054 -0.0163 -0.2315
16288SOL    HW250306   2.768   6.426   2.816 -0.4611 -0.3441 -0.0197
16289SOL     OW50307   5.080   6.209   2.845 -0.1193 -0.9170 -0.1498
16289SOL    HW150308   5.109   6.146   2.780  0.4939 -2.0534  1.1566
16289SOL    HW250309   5.082   6.160   2.928  1.0205  1.0068  1.0212
16290SOL     OW50310   3.845   6.500   2.977 -0.4106 -0.6293 -0.2496
16290SOL    HW150311   3.757   6.485   2.942  0.0247 -1.3922 -1.0662
16290SOL    HW250312   3.830   6.540   3.063 -1.5217  0.8744 -1.0919
16291SOL     OW50313   3.388   7.106   2.134  0.3657  0.0688  0.1247
16291SOL    HW150314   3.297   7.086   2.113  0.4374 -0.6040  0.4496
16291SOL    HW250315   3.390   7.202   2.140 -1.1596  0.0273  3.7230
16292SOL     OW50316   4.318   6.010   3.256  0.1759 -0.2626  0.4566
16292SOL    HW150317   4.383   5.982   3.320  0.7479  1.4481  0.6928
16292SOL    HW250318   4.238   5.965   3.281  0.3256  0.5401  2.5513
16293SOL     OW50319   4.154   7.136   2.486  0.8625  0.0777 -0.1331
16293SOL    HW150320   4.190   7.157   2.572  0.0480  0.9609  0.0058
16293SOL    HW250321   4.187   7.205   2.429  1.0346 -0.2579 -0.4507
16294SOL     OW50322   4.902   6.242   0.864  0.0145 -0.3744  0.1169
16294SOL    HW150323   4.924   6.285   0.946  0.2348  0.9119 -0.5987
16294SOL    HW250324   4.987   6.228   0.821 -0.1416 -0.5416 -0.1401
16295SOL     OW50325   3.018   0.002   2.428  0.5202  0.4398  0.0672
16295SOL    HW150326   3.050   0.065   2.492  3.5875 -0.3536 -0.4945
16295SOL    HW250327   3.086  -0.065   2.425 -1.7350 -2.0010 -0.6697
16296SOL     OW50328   4.692   5.149   3.389  0.2462 -0.1838 -0.1125
16296SOL    HW150329   4.681   5.242   3.372  1.7715  0.1289  0.4685
16296SOL    HW250330   4.605   5.112   3.375 -0.6902  1.5009  0.8228
16297SOL     OW50331   5.102   0.598   1.338 -0.0381 -0.0202  0.0206
16297SOL    HW150332   5.143   0.515   1.360  1.3118  0.7880  0.6580
16297SOL    HW250333   5.014   0.592   1.377  0.7013 -0.4199  1.7100
16298SOL     OW50334   1.741   6.487   2.594  0.2689  0.2333 -0.3134
16298SOL    HW150335   1.682   6.447   2.657  0.4913  1.2181  0.5434
16298SOL    HW250336   1.705   6.575   2.578  0.8048  0.3897 -0.7304
16299SOL     OW50337   4.142   0.331   2.051 -0.2234  0.3141  0.4183
16299SOL    HW150338   4.222   0.329   2.000 -0.3585 -1.8899  0.2248
16299SOL    HW250339   4.161   0.392   2.123  0.6447  1.9045 -1.0856
16300SOL     OW50340   4.077   5.924   3.317 -0.0683  0.1774 -0.1377
16300SOL    HW150341   4.010   5.888   3.376  0.9009  0.5376  1.2295
16300SOL    HW250342   4.027   5.978   3.255 -1.2212 -1.0559 -0.3384
16301SOL     OW50343   4.993   6.785   1.892 -0.0824 -0.0694  0.2326
16301SOL    HW150344   4.976   6.812   1.801 -1.0989 -0.1753  0.3846
16301SOL    HW250345   4.907   6.769   1.929  0.2696  0.8823  1.5122
16302SOL     OW50346   6.957   6.043   5.316 -0.8609  0.1495  0.3626
16302SOL    HW150347   6.990   5.967   5.365 -1.7130  1.7249  3.6186
16302SOL    HW250348   6.905   6.092   5.379 -0.6120  3.3196 -1.6861
16303SOL     OW50349   5.725   6.827   3.765  0.5153  0.1297  0.2658
16303SOL    HW150350   5.678   6.892   3.818 -0.6992  0.8925 -1.6520
16303SOL    HW250351   5.658   6.761   3.745  1.0116 -0.2509 -0.1550
16304SOL     OW50352   6.050   4.904   3.335 -0.1820 -0.3851  0.3867
16304SOL    HW150353   5.982   4.967   3.357 -1.1593 -0.2079 -2.7644
16304SOL    HW250354   6.043   4.836   3.403 -0.8526  1.5024  2.3177
16305SOL     OW50355   4.822   7.796   2.219 -0.2777 -0.2980 -0.0623
16305SOL    HW150356   4.850   7.789   2.311 -1.0658 -1.5719  0.0942
16305SOL    HW250357   4.753   7.730   2.209  0.7663 -1.1793 -1.9463
16306SOL     OW50358   4.297   7.709   1.490 -0.5481  1.1914 -0.7457
16306SOL    HW150359   4.286   7.778   1.556 -1.5999  0.7726 -0.4584
16306SOL    HW250360   4.287   7.627   1.539 -0.9021  0.8673 -1.3459
16307SOL     OW50361   3.914   0.140   4.002  0.2231 -0.0867 -0.4551
16307SOL    HW150362   3.847   0.078   3.975 -1.8908  2.5727 -1.8006
16307SOL    HW250363   3.947   0.105   4.085 -2.4498 -1.7956  0.0061
16308SOL     OW50364   3.020   7.690   2.761 -0.3229 -0.0519  0.2105
16308SOL    HW150365   3.031   7.663   2.670 -1.4911 -1.6225  0.4884
16308SOL    HW250366   2.926   7.676   2.778  0.1080 -0.9704  1.9997
16309SOL     OW50367   4.570   6.079   2.525 -0.4233  0.4356 -0.2147
16309SOL    HW150368   4.616   6.001   2.493  1.2267  0.7394  1.2385
16309SOL    HW250369   4.637   6.127   2.573 -1.9151  1.7585  0.6149
16310SOL     OW50370   5.178   7.824   3.224 -0.1565 -0.1128 -0.5623
16310SOL    HW150371   5.226   7.748   3.190  1.6709  0.7899 -0.1067
16310SOL    HW250372   5.086   7.804   3.205  0.2977 -2.2657 -0.7774
16311SOL     OW50373   5.620   4.709   3.307  1.0245  0.3690 -0.4894
16311SOL    HW150374   5.579   4.787   3.346 -0.6855 -1.7559  2.2842
16311SOL    HW250375   5.678   4.676   3.375  0.2884 -1.8136 -0.8667
16312SOL     OW50376   3.344   7.374   2.477 -0.2515  0.1755 -0.4741
16312SOL    HW150377   3.276   7.339   2.419 -0.0811  0.4980 -0.8788
16312SOL    HW250378   3.334   7.469   2.470  0.7967  0.2501 -1.2322
16313SOL     OW50379   3.955   7.033   4.074 -0.1319  0.1198 -0.0784
16313SOL    HW150380   3.902   7.093   4.127  1.1208 -0.3817  1.8452
16313SOL    HW250381   4.017   7.089   4.028  0.2747  0.4122  0.8072
16314SOL     OW50382   4.045   6.918   3.126  0.1161  0.6461 -0.0982
16314SOL    HW150383   4.123   6.972   3.118  1.4609 -1.4138 -2.0186
16314SOL    HW250384   4.073   6.844   3.180 -0.6155  0.0842 -0.4697
16315SOL     OW50385   4.186   5.819   2.447 -0.4574  0.2781 -0.7389
16315SOL    HW150386   4.228   5.735   2.426 -0.9796  0.4178 -2.5700
16315SOL    HW250387   4.259   5.881   2.455  0.0114 -0.5025  1.6979
16316SOL     OW50388   2.757   7.608   2.781 -0.0501  0.4144  0.2957
16316SOL    HW150389   2.718   7.574   2.700  0.4325 -0.3860  0.3840
16316SOL    HW250390   2.702   7.682   2.805 -1.4523 -0.6117  0.3539
16317SOL     OW50391   4.039   6.295   2.206  0.1527 -0.4040 -0.4245
16317SOL    HW150392   4.084   6.323   2.286 -1.2199  1.3100 -0.1893
16317SOL    HW250393   3.995   6.214   2.230 -0.9673  0.5452  0.8795
16318SOL     OW50394   4.704   6.791   3.239  0.6174  0.6311 -0.3383
16318SOL    HW150395   4.784   6.792   3.292  0.7983 -2.1440 -0.4325
16318SOL    HW250396   4.691   6.699   3.217 -2.8395  0.9261 -0.0027
16319SOL     OW50397   5.268   7.033   4.074  0.4219  0.3026  0.5626
16319SOL    HW150398   5.278   7.027   3.979  1.5912  1.2247  0.6074
16319SOL    HW250399   5.175   7.053   4.088  0.1835 -0.1333 -0.3660
16320SOL     OW50400   5.170   5.567   4.125 -0.2257  0.2552 -0.0605
16320SOL    HW150401   5.127   5.490   4.162 -1.2917  0.4273 -0.8782
16320SOL    HW250402   5.142   5.640   4.181  1.1251  0.0277  0.9733
16321SOL     OW50403   5.349   5.776   3.902 -0.9142 -0.0974 -0.1003
16321SOL    HW150404   5.391   5.690   3.899  1.3715  0.9705 -2.8689
16321SOL    HW250405   5.290   5.777   3.827  1.6456  1.8036 -2.2632
16322SOL     OW50406   2.639   5.791   3.048  0.7403 -0.3086 -0.2823
16322SOL    HW150407   2.708   5.731   3.077  0.5963  0.5384  2.0429
16322SOL    HW250408   2.584   5.804   3.126 -1.0047  0.4597 -1.5713
16323SOL     OW50409   5.569   6.567   3.472  0.0301  0.0647  1.1596
16323SOL    HW150410   5.589   6.480   3.439 -0.1921  0.0235  1.1316
16323SOL    HW250411   5.647   6.619   3.451 -0.6596  0.4075 -0.7356
16324SOL     OW50412   5.441   4.855   3.058 -0.0636 -0.4171 -0.5616
16324SOL    HW150413   5.495   4.795   3.007  0.8196 -0.7531  0.7062
16324SOL    HW250414   5.372   4.799   3.095 -0.2621 -0.3133 -0.7699
16325SOL     OW50415   4.673   7.295   1.599 -0.5691 -0.1888  0.1924
16325SOL    HW150416   4.641   7.214   1.639  1.1549 -0.7258  0.5757
16325SOL    HW250417   4.762   7.305   1.632  0.1538  0.5361 -1.7941
16326SOL     OW50418   3.725   7.007   2.078 -0.3958 -0.3467  0.1306
16326SOL    HW150419   3.669   6.995   2.002 -1.2483 -0.2838  0.7321
16326SOL    HW250420   3.674   6.974   2.152  0.2682 -0.0873  0.7300
16327SOL     OW50421   3.509   6.013   2.844 -0.0962 -0.8110 -0.4147
16327SOL    HW150422   3.553   5.988   2.763 -0.0735 -0.9892 -0.3476
16327SOL    HW250423   3.500   5.931   2.893 -0.4410 -0.7651 -0.3960
16328SOL     OW50424   6.100   7.118   4.453  0.0132 -1.1795 -0.0847
16328SOL    HW150425   6.052   7.195   4.421 -0.8586 -0.8162  1.9755
16328SOL    HW250426   6.071   7.107   4.543  0.5057 -3.6511 -0.1626
16329SOL     OW50427   5.840   4.135   4.341 -0.2690 -0.3037 -0.1458
16329SOL    HW150428   5.776   4.197   4.305  0.0046 -0.9564 -1.8458
16329SOL    HW250429   5.795   4.051   4.341 -0.9411 -0.0340  2.9729
16330SOL     OW50430   3.180   6.968   1.549 -0.0461 -0.2008 -0.1923
16330SOL    HW150431   3.234   7.030   1.597  1.5992 -1.1174 -0.7411
16330SOL    HW250432   3.130   7.021   1.488  1.2566  0.6351 -0.5836
16331SOL     OW50433   6.102   5.636   0.919  0.3010  0.1087 -0.0212
16331SOL    HW150434   6.012   5.612   0.941 -0.1705  1.3160 -0.5576
16331SOL    HW250435   6.155   5.567   0.958 -0.6061  1.0262  3.1028
16332SOL     OW50436   3.857   5.501   0.921 -0.2763  0.1573  0.4882
16332SOL    HW150437   3.880   5.558   0.847  0.9923  0.2125  0.9063
16332SOL    HW250438   3.876   5.413   0.889 -0.8320  0.0789  0.3589
16333SOL     OW50439   5.317   7.517   4.738 -0.0145  0.3515 -0.1534
16333SOL    HW150440   5.359   7.444   4.784  1.3928  0.1766 -1.6258
16333SOL    HW250441   5.335   7.593   4.793  1.9224  0.2000 -0.4909
16334SOL     OW50442   5.551   7.469   4.097  0.7006  0.5212 -0.3391
16334SOL    HW150443   5.473   7.515   4.130 -0.0958 -0.1879 -1.1691
16334SOL    HW250444   5.623   7.531   4.111  0.1716  0.8223  1.3419
16335SOL     OW50445   3.715   6.332   3.718  0.1784 -0.3783 -1.1566
16335SOL    HW150446   3.738   6.338   3.625  0.0577  0.1517 -1.1551
16335SOL    HW250447   3.746   6.245   3.744  0.9926 -0.2028 -1.4838
16336SOL     OW50448   4.021   5.405   2.335 -0.0676  0.0150 -0.7182
16336SOL    HW150449   3.978   5.391   2.419 -0.1520 -2.1086 -1.0545
16336SOL    HW250450   3.955   5.448   2.281 -0.1244  1.0841  0.1660
16337SOL     OW50451   5.431   4.405   2.429  0.0516  0.3096 -0.2022
16337SOL    HW150452   5.507   4.429   2.483 -0.2791  0.2313  0.3070
16337SOL    HW250453   5.400   4.488   2.393  0.0387  0.4119  0.0427
16338SOL     OW50454   5.195   6.797   0.947 -0.2090 -0.1136 -0.0740
16338SOL    HW150455   5.246   6.795   0.866  0.8392 -0.1631  0.5547
16338SOL    HW250456   5.148   6.880   0.944  1.1074  0.6613  0.0066
16339SOL     OW50457   4.580   5.320   1.821 -0.1604  0.5415  0.0711
16339SOL    HW150458   4.488   5.308   1.847 -0.1124  1.1215  0.5185
16339SOL    HW250459   4.575   5.373   1.742 -0.2641 -0.5326 -0.6737
16340SOL     OW50460   3.491   5.836   2.550  0.2526 -0.1538 -0.2129
16340SOL    HW150461   3.495   5.829   2.454 -1.2975  0.6158 -0.3846
16340SOL    HW250462   3.546   5.911   2.571 -0.5095  0.5585 -0.6805
16341SOL     OW50463   6.007   5.650   3.680 -0.1239 -0.4656 -0.3239
16341SOL    HW150464   5.960   5.628   3.760 -2.0114 -1.3214 -1.6043
16341SOL    HW250465   6.093   5.609   3.691 -0.3963 -0.6877  1.1853
16342SOL     OW50466   5.577   6.672   1.591  0.7335  0.5181  0.0268
16342SOL    HW150467   5.664   6.698   1.560  1.7773 -1.6661  0.9026
16342SOL    HW250468   5.595   6.607   1.659 -1.6073 -0.5534 -0.3026
16343SOL     OW50469   3.550   7.200   2.438  0.0818  0.3350  0.1389
16343SOL    HW150470   3.631   7.251   2.435  0.8587 -0.8726 -2.3382
16343SOL    HW250471   3.484   7.262   2.469  1.7202  1.6853  1.1046
16344SOL     OW50472   4.105   6.854   2.355 -0.7149  0.2998  0.0193
16344SOL    HW150473   4.148   6.779   2.313  0.3923  0.6824  0.4157
16344SOL    HW250474   4.099   6.829   2.447  1.4504  1.4198  0.5403
16345SOL     OW50475   4.411   7.702   3.511 -0.5010 -0.3342  0.0227
16345SOL    HW150476   4.408   7.770   3.579  0.6429 -1.1753  0.9503
16345SOL    HW250477   4.464   7.740   3.441  0.6685 -0.4850  0.8059
16346SOL     OW50478   4.685   6.221   3.792  0.0837 -0.7746  0.2390
16346SOL    HW150479   4.640   6.152   3.841  0.7619 -0.1678  1.7631
16346SOL    HW250480   4.707   6.180   3.708 -1.2249 -1.7961  0.3641
16347SOL     OW50481   4.755   6.869   2.969 -0.4283 -0.0083  0.1647
16347SOL    HW150482   4.741   6.803   2.901  0.7510 -0.0920 -0.0240
16347SOL    HW250483   4.731   6.824   3.050 -1.5426 -0.0098 -0.1470
16348SOL     OW50484   4.189   6.269   3.188 -0.0914  0.3058  0.2296
16348SOL    HW150485   4.216   6.192   3.238  0.6185  0.6453  0.3798
16348SOL    HW250486   4.116   6.238   3.135 -0.8536 -0.0812  1.4439
16349SOL     OW50487   4.487   6.294   3.595  0.2701 -0.4078 -0.0630
16349SOL    HW150488   4.539   6.215   3.581  0.6088 -0.1463 -0.3071
16349SOL    HW250489   4.523   6.332   3.675  0.4635 -0.2290 -0.2299
16350SOL     OW50490   5.152   6.378   2.328 -0.1210 -0.0685  0.2457
16350SOL    HW150491   5.117   6.299   2.370 -1.8006  0.8407  0.6394
16350SOL    HW250492   5.206   6.419   2.396  1.3173 -1.1626 -0.1696
16351SOL     OW50493   5.281   5.369   2.704  0.2170  0.3382 -0.4669
16351SOL    HW150494   5.322   5.302   2.759 -0.4580  1.4149  1.4504
16351SOL    HW250495   5.273   5.328   2.618  2.9411 -0.7862 -0.2746
16352SOL     OW50496   4.234   5.897   4.293  0.1854 -0.1552  0.6791
16352SOL    HW150497   4.157   5.944   4.262  0.2889 -0.1593  0.4155
16352SOL    HW250498   4.222   5.893   4.388  0.7791  1.4826  0.8536
16353SOL     OW50499   4.866   5.735   1.821  0.2620 -0.5570 -0.5107
16353SOL    HW150500   4.903   5.683   1.892  2.1807  1.4483  0.0910
16353SOL    HW250501   4.931   5.804   1.806 -1.5171  0.8751 -2.1598
16354SOL     OW50502   4.041   0.436   3.691  0.2446  0.8635  0.1256
16354SOL    HW150503   4.083   0.405   3.771 -0.2387  1.3486  0.5704
16354SOL    HW250504   4.076   0.379   3.623  1.1974  0.8939  0.5685
16355SOL     OW50505   1.915   5.898   2.401 -0.3041  0.0767 -0.2081
16355SOL    HW150506   1.907   5.960   2.329 -0.8538  1.0426  0.6542
16355SOL    HW250507   1.990   5.928   2.451 -0.7722  0.2569  0.4020
16356SOL     OW50508   3.906   5.429   2.612  0.1528 -0.0284 -0.3064
16356SOL    HW150509   3.943   5.508   2.653  1.6450  0.1562 -1.8846
16356SOL    HW250510   3.934   5.357   2.669 -0.5735  0.4857  0.7378
16357SOL     OW50511   4.759   5.792   3.554 -0.1415 -0.7041 -0.1386
16357SOL    HW150512   4.705   5.757   3.625 -0.3300 -1.3636 -0.5995
16357SOL    HW250513   4.842   5.814   3.595 -0.0725 -1.5587  0.1860
16358SOL     OW50514   6.519   5.975   1.046  0.3863 -0.3427  0.1324
16358SOL    HW150515   6.592   6.036   1.036  0.5937 -0.5698  0.2487
16358SOL    HW250516   6.545   5.920   1.120 -1.0070  1.1954  1.8847
16359SOL     OW50517   5.875   6.472   1.812  0.1536  0.0814  0.2272
16359SOL    HW150518   5.781   6.470   1.795  0.1148 -1.9243  0.4546
16359SOL    HW250519   5.915   6.477   1.725 -0.1611 -0.9129  0.0130
16360SOL     OW50520   5.486   7.304   3.618  0.1515 -0.3409 -0.4084
16360SOL    HW150521   5.525   7.316   3.705 -1.5895 -0.0326  0.3641
16360SOL    HW250522   5.466   7.210   3.614 -0.8980 -0.1478  0.0440
16361SOL     OW50523   5.724   5.899   3.996  0.6650  0.5345 -0.3038
16361SOL    HW150524   5.720   5.886   4.091  1.1298 -2.3014 -0.5965
16361SOL    HW250525   5.703   5.992   3.984 -0.6510  0.6964  2.4666
16362SOL     OW50526   4.802   7.095   4.267 -0.0587  0.1571 -0.1479
16362SOL    HW150527   4.730   7.053   4.220  0.2146  0.0615 -0.4877
16362SOL    HW250528   4.786   7.075   4.359 -1.8007  2.1439  0.0725
16363SOL     OW50529   6.663   5.489   2.535  0.0041  0.2730  0.2195
16363SOL    HW150530   6.595   5.493   2.602  1.4443 -0.1423  1.7497
16363SOL    HW250531   6.742   5.465   2.582  0.7255 -1.8445 -1.8824
16364SOL     OW50532   5.866   0.713   4.251 -0.1306  0.3250  0.0883
16364SOL    HW150533   5.891   0.653   4.322 -0.9763  1.5703  1.5090
16364SOL    HW250534   5.937   0.706   4.188 -0.0357 -1.9044  0.3438
16365SOL     OW50535   2.420   7.735   4.244 -0.4575  0.3784  0.4898
16365SOL    HW150536   2.502   7.689   4.265 -0.7809 -0.2572  0.3809
16365SOL    HW250537   2.443   7.828   4.248  0.3067  0.2060  0.3249
16366SOL     OW50538   3.897   7.091   2.315 -0.5410 -0.5487 -0.1874
16366SOL    HW150539   3.868   6.999   2.321  0.3049 -0.8294 -0.2489
16366SOL    HW250540   3.969   7.097   2.377 -0.2162 -0.0753 -0.6048
16367SOL     OW50541   3.400   0.216   3.206 -0.0434  0.0186  0.4879
16367SOL    HW150542   3.441   0.240   3.123  0.4422 -0.0191  0.7111
16367SOL    HW250543   3.378   0.299   3.247  0.7035  0.0703  0.8014
16368SOL     OW50544   5.488   0.418   2.792 -0.0989 -0.0676  0.0439
16368SOL    HW150545   5.564   0.473   2.773  1.0006 -1.2234  0.8737
16368SOL    HW250546   5.506   0.336   2.747 -1.5469  0.0957 -0.8876
16369SOL     OW50547   6.614   6.762   3.885 -0.2519  0.6263 -0.3967
16369SOL    HW150548   6.636   6.854   3.897 -1.2878  0.8571 -0.1847
16369SOL    HW250549   6.530   6.751   3.930 -1.3261  0.1542 -2.4031
16370SOL     OW50550   3.373   7.327   4.585 -0.1226  0.2673 -0.1696
16370SOL    HW150551   3.426   7.403   4.608 -1.4311  0.6530  1.8807
16370SOL    HW250552   3.433   7.269   4.538  1.9973  0.9056  1.5627
16371SOL     OW50553   3.766   7.710   3.086  0.2946 -0.1100  0.0165
16371SOL    HW150554   3.729   7.794   3.057  1.0095 -0.1542 -1.0650
16371SOL    HW250555   3.736   7.647   3.020  0.8781 -0.4515  0.0744
16372SOL     OW50556   4.889   7.880   3.810 -0.1744 -0.0491  0.2377
16372SOL    HW150557   4.830   7.816   3.770 -0.5608  0.0586  0.6223
16372SOL    HW250558   4.950   7.828   3.861 -0.5228 -0.1184  0.5956
16373SOL     OW50559   3.364   0.003   4.095 -0.5159  0.2848 -0.5170
16373SOL    HW150560   3.277   0.029   4.124 -0.1453  0.7119  0.2694
16373SOL    HW250561   3.414   0.084   4.091  0.3277 -0.1118  0.8096
16374SOL     OW50562   5.762   4.934   3.527  0.2909 -0.3995 -0.0128
16374SOL    HW150563   5.698   4.965   3.463  0.0635 -1.1688 -0.1574
16374SOL    HW250564   5.766   4.840   3.514  0.7351 -0.4792  0.6576
16375SOL     OW50565   5.394   0.072   0.946  0.1270  0.0200  0.2257
16375SOL    HW150566   5.419   0.110   1.030  0.7659  1.3486 -0.5262
16375SOL    HW250567   5.471   0.023   0.919  0.2906  0.4165 -0.0343
16376SOL     OW50568   2.563   0.276   1.178 -0.3255 -0.1457 -0.1758
16376SOL    HW150569   2.613   0.357   1.175 -0.4156 -0.0675  0.3968
16376SOL    HW250570   2.472   0.304   1.186 -0.5782 -0.2656 -2.1787
16377SOL     OW50571   4.458   6.340   2.320 -0.4343  0.6286  0.9341
16377SOL    HW150572   4.519   6.269   2.301  0.6677  1.2802  1.9220
16377SOL    HW250573   4.475   6.404   2.251 -2.4692 -0.6128 -0.8649
16378SOL     OW50574   4.548   6.090   1.828 -0.5524  0.2005  0.1493
16378SOL    HW150575   4.544   6.184   1.812  0.0965 -0.0532 -1.6654
16378SOL    HW250576   4.635   6.075   1.865 -0.6445  0.2891  0.4086
16379SOL     OW50577   4.422   5.071   3.397  0.0719 -0.4227 -0.3835
16379SOL    HW150578   4.392   5.075   3.488 -3.1955  0.5106 -1.3929
16379SOL    HW250579   4.395   4.984   3.368  0.2894 -0.3710 -0.7378
16380SOL     OW50580   3.028   6.358   3.915  0.0961 -0.3076  0.1565
16380SOL    HW150581   3.047   6.418   3.987 -2.3904  0.1970  0.4757
16380SOL    HW250582   3.025   6.413   3.837  0.1761 -0.4242  0.0700
16381SOL     OW50583   6.257   7.904   3.452  0.3451 -0.1872  0.4457
16381SOL    HW150584   6.324   7.965   3.485  0.8626 -1.1455  1.1996
16381SOL    HW250585   6.175   7.953   3.458  0.7515  0.4347  1.0554
16382SOL     OW50586   2.328   0.131   2.511  0.8882  0.5122  0.1012
16382SOL    HW150587   2.374   0.211   2.534 -0.3248  1.5042 -0.7706
16382SOL    HW250588   2.289   0.149   2.426  0.7048 -1.0654 -0.1784
16383SOL     OW50589   3.533   6.262   4.388  0.3397 -0.0991 -0.3845
16383SOL    HW150590   3.587   6.266   4.309 -0.3815  1.6255 -0.8261
16383SOL    HW250591   3.486   6.179   4.381 -1.3769  0.9854 -2.9225
16384SOL     OW50592   3.857   7.553   3.288  0.2887 -0.1566  0.1374
16384SOL    HW150593   3.921   7.492   3.251  1.1687  0.4995  0.5370
16384SOL    HW250594   3.816   7.593   3.212 -0.0301 -0.9689 -0.1263
16385SOL     OW50595   4.245   6.376   1.520 -0.3374  0.2398 -0.0815
16385SOL    HW150596   4.154   6.392   1.495 -0.7473  0.4300  1.4532
16385SOL    HW250597   4.240   6.310   1.589  0.6020  1.0040  0.7453
16386SOL     OW50598   6.462   5.089   3.258 -0.1367  0.5890 -0.1848
16386SOL    HW150599   6.379   5.113   3.299  0.7653  2.4272  0.6698
16386SOL    HW250600   6.509   5.041   3.327  0.1242  0.9105 -0.1383
16387SOL     OW50601   3.638   6.726   2.017 -0.1836  0.3314 -0.1533
16387SOL    HW150602   3.593   6.769   1.944  1.2237  1.9323 -0.1532
16387SOL    HW250603   3.605   6.771   2.095  0.8838  1.0650 -0.1064
16388SOL     OW50604   5.914   5.695   2.407 -0.1307 -0.4657 -0.0596
16388SOL    HW150605   5.983   5.721   2.345 -1.0124  1.0771 -0.4341
16388SOL    HW250606   5.847   5.654   2.353 -0.2396 -0.4682  0.0777
16389SOL     OW50607   5.176   6.849   3.213 -0.1345 -0.0698 -0.0955
16389SOL    HW150608   5.217   6.778   3.262  0.0439 -1.2521 -1.8587
16389SOL    HW250609   5.249   6.894   3.170 -0.3589  0.3510 -0.0427
16390SOL     OW50610   3.645   4.785   3.549  0.6596 -0.1746 -0.0479
16390SOL    HW150611   3.633   4.823   3.636  1.3590  0.0617 -0.0436
16390SOL    HW250612   3.717   4.723   3.561 -0.3459 -1.3894 -0.0916
16391SOL     OW50613   3.474   6.482   5.298 -0.1927  0.1320 -0.6000
16391SOL    HW150614   3.479   6.551   5.364 -0.9264  0.6751 -1.1078
16391SOL    HW250615   3.466   6.401   5.349  1.1139  0.3626  0.0060
16392SOL     OW50616   5.650   6.194   3.454  0.2704  0.3734 -0.0235
16392SOL    HW150617   5.608   6.182   3.369 -0.5278  1.7165  0.1616
16392SOL    HW250618   5.730   6.142   3.449 -0.4686 -0.7090 -1.0739
16393SOL     OW50619   7.067   6.536   1.977  0.0836 -0.4507 -0.6408
16393SOL    HW150620   7.032   6.515   1.890  0.9773 -0.2728 -1.0515
16393SOL    HW250621   7.156   6.500   1.976  0.4674  0.4764 -0.1740
16394SOL     OW50622   3.786   5.745   4.064 -0.5065 -0.0732  0.2027
16394SOL    HW150623   3.806   5.751   3.971 -2.5502  0.3441 -0.2584
16394SOL    HW250624   3.789   5.652   4.084  2.5494 -0.0401  0.4232
16395SOL     OW50625   4.838   7.028   1.863 -0.2575 -0.0670 -0.0393
16395SOL    HW150626   4.930   7.040   1.840  0.1567 -2.9033 -0.1940
16395SOL    HW250627   4.791   7.040   1.781 -0.0689  1.2465  0.0133
16396SOL     OW50628   5.304   1.120   4.453 -0.0631  0.3815 -0.1113
16396SOL    HW150629   5.298   1.203   4.405  0.6732  0.6344  0.2206
16396SOL    HW250630   5.336   1.057   4.389  0.3601  0.5853 -0.0964
16397SOL     OW50631   5.582   5.792   3.385  0.1197  0.1418 -0.3227
16397SOL    HW150632   5.599   5.884   3.363  0.5741  0.1759  0.1734
16397SOL    HW250633   5.668   5.755   3.403 -0.0717 -0.3605 -0.4210
16398SOL     OW50634   4.750   5.738   2.714 -0.0569  0.1549 -0.3869
16398SOL    HW150635   4.672   5.760   2.765  0.7184 -0.2363  1.0086
16398SOL    HW250636   4.799   5.819   2.708  0.4069 -0.0550  0.4939
16399SOL     OW50637   5.028   7.791   4.253  0.1170  0.0259  0.0068
16399SOL    HW150638   5.086   7.820   4.325 -2.5632 -1.2143  2.9080
16399SOL    HW250639   5.009   7.700   4.274 -1.2068 -0.2142 -2.0478
16400SOL     OW50640   5.424   7.883   4.319  0.3465 -0.1239  0.5429
16400SOL    HW150641   5.508   7.848   4.347 -0.4498 -2.1207  0.6251
16400SOL    HW250642   5.443   7.972   4.291  2.4034 -0.3886  0.9317
16401SOL     OW50643   4.324   6.049  12.497 -0.2198 -0.0893 -0.7012
16401SOL    HW150644   4.298   6.140  12.479  1.3108  1.0686  2.2606
16401SOL    HW250645   4.412   6.042  12.460 -0.7251 -0.7316 -1.8152
16402SOL     OW50646   6.821   5.645   2.874  0.0111  0.2583 -0.0335
16402SOL    HW150647   6.810   5.668   2.966  1.0809  0.0433  0.1539
16402SOL    HW250648   6.850   5.554   2.874  0.0370  0.2606 -0.5869
16403SOL     OW50649   3.417   7.493   3.188  0.2476 -0.4081  0.1920
16403SOL    HW150650   3.412   7.584   3.158  0.1314 -0.5771 -0.3149
16403SOL    HW250651   3.421   7.500   3.283 -1.0989  0.0832  0.2461
16404SOL     OW50652   1.479   6.613   1.874  0.5851  0.0544  0.0811
16404SOL    HW150653   1.534   6.620   1.952 -0.7981  0.3176  1.0718
16404SOL    HW250654   1.520   6.672   1.810 -0.1455  2.5574  1.7968
16405SOL     OW50655   5.910   5.958   3.781 -0.1739  0.0439  0.4321
16405SOL    HW150656   5.862   5.956   3.699  0.2068  1.1824  0.1689
16405SOL    HW250657   5.851   5.918   3.845 -1.2791  0.9899  0.0158
16406SOL     OW50658   5.951   4.409   3.307 -0.3964 -0.2891 -0.5824
16406SOL    HW150659   6.020   4.475   3.300 -0.3627 -0.2673 -0.0780
16406SOL    HW250660   5.871   4.456   3.286 -0.3543 -0.1212 -0.3725
16407SOL     OW50661   1.981   0.560   2.493  0.2574 -0.2492  0.3533
16407SOL    HW150662   1.981   0.511   2.575 -0.6102 -0.9799 -0.0649
16407SOL    HW250663   2.006   0.649   2.518  1.1736 -0.7405  1.2226
16408SOL     OW50664   7.151   0.569   2.256 -0.1394  0.1551  0.2749
16408SOL    HW150665   7.124   0.492   2.205 -0.5404  0.1696  0.4547
16408SOL    HW250666   7.230   0.601   2.213 -0.7368  0.4481 -0.6345
16409SOL     OW50667   4.484   5.257   3.795 -0.3783  0.0149  0.5155
16409SOL    HW150668   4.439   5.181   3.758  0.6048 -1.3740  2.0588
16409SOL    HW250669   4.511   5.309   3.719  0.2188 -1.9217 -0.6450
16410SOL     OW50670   4.620   5.057   3.021  0.0106 -0.4133  0.1074
16410SOL    HW150671   4.669   5.044   2.940 -0.9323 -3.2086 -0.1348
16410SOL    HW250672   4.660   4.997   3.084  0.3362  1.2645  1.5797
16411SOL     OW50673   4.484   6.356   2.742  0.0230  0.5987 -0.1636
16411SOL    HW150674   4.437   6.392   2.817 -0.5634 -0.6253  0.0675
16411SOL    HW250675   4.461   6.264   2.741  1.7489  0.1410 -0.5591
16412SOL     OW50676   4.368   5.674   2.716 -0.0021  0.0754  0.0454
16412SOL    HW150677   4.289   5.643   2.759 -0.6081 -0.0669 -1.1379
16412SOL    HW250678   4.406   5.736   2.778 -1.6671  1.0347  0.1679
16413SOL     OW50679   6.051   7.777   0.525  0.3832  0.3249 -0.1215
16413SOL    HW150680   6.039   7.855   0.470  0.0654  0.6449  0.3936
16413SOL    HW250681   5.963   7.743   0.538  0.4563  0.2496  0.1838
16414SOL     OW50682   3.365   6.439   2.640  0.0418  0.3439 -0.2986
16414SOL    HW150683   3.371   6.363   2.698 -0.6850 -0.6084 -1.4346
16414SOL    HW250684   3.275   6.469   2.648  0.5299  1.6095  0.7507
16415SOL     OW50685   5.014   5.052   2.241  0.3447  0.2824  0.1340
16415SOL    HW150686   4.993   5.071   2.150  4.9224  0.1433 -1.2040
16415SOL    HW250687   5.002   5.135   2.287 -3.1313  0.0898 -0.1753
16416SOL     OW50688   5.683   6.254   0.188 -0.7100  0.8987  0.5547
16416SOL    HW150689   5.722   6.320   0.246  0.5798  1.2722 -0.6863
16416SOL    HW250690   5.708   6.170   0.227  1.0384  1.1368  0.0256
16417SOL     OW50691   6.128   4.849   1.852 -0.0281 -0.0243 -0.1320
16417SOL    HW150692   6.149   4.811   1.766  0.2426 -1.8921  0.7002
16417SOL    HW250693   6.034   4.832   1.863 -0.9347  3.3318 -1.4636
16418SOL     OW50694   2.499   0.784   1.185  0.1931 -0.1836  0.4961
16418SOL    HW150695   2.430   0.824   1.134  1.1780  0.9012 -0.0264
16418SOL    HW250696   2.516   0.846   1.256  0.3555 -0.6307  0.8573
16419SOL     OW50697   3.837   7.092   3.458 -0.9297  0.7241  0.1201
16419SOL    HW150698   3.762   7.151   3.468 -0.3806  1.1472  2.1498
16419SOL    HW250699   3.837   7.040   3.538  1.5107  1.4255  0.6471
16420SOL     OW50700   4.523   6.854   0.741  0.1106  0.3007  0.3313
16420SOL    HW150701   4.444   6.869   0.792  0.1863 -0.7829  0.7966
16420SOL    HW250702   4.519   6.919   0.671 -1.8298 -0.5562 -0.4053
16421SOL     OW50703   3.116   7.621   7.065 -0.5086 -0.2475 -0.1584
16421SOL    HW150704   3.025   7.650   7.070 -0.1879  1.2544 -1.8203
16421SOL    HW250705   3.120   7.570   6.984  0.3637  0.7846 -0.7950
16422SOL     OW50706   4.579   6.550   4.598  0.3027  0.3062 -0.9608
16422SOL    HW150707   4.497   6.554   4.550  0.1821 -1.1545 -0.9284
16422SOL    HW250708   4.610   6.460   4.586  2.0706  0.9135 -1.2506
16423SOL     OW50709   4.747   6.318   5.363 -0.1426 -0.1204 -0.6226
16423SOL    HW150710   4.669   6.323   5.307 -0.5536 -0.1062 -0.0558
16423SOL    HW250711   4.744   6.230   5.401 -1.3668  0.7680  1.4905
16424SOL     OW50712   3.798   7.237   6.209 -0.3537 -0.2847 -0.2092
16424SOL    HW150713   3.849   7.157   6.198  1.0740  0.3177  1.6097
16424SOL    HW250714   3.766   7.257   6.121 -0.3119 -2.5356 -0.8034
16425SOL     OW50715   4.688   6.731   4.918 -0.0363 -0.3551 -0.3982
16425SOL    HW150716   4.594   6.743   4.901 -0.2912 -1.5683  0.0959
16425SOL    HW250717   4.728   6.741   4.832 -0.6726 -0.3287 -0.7015
16426SOL     OW50718   4.996   5.340   3.683  0.5232 -0.3169 -0.0919
16426SOL    HW150719   4.922   5.325   3.742 -0.2157 -1.3288 -1.2256
16426SOL    HW250720   5.058   5.392   3.734 -1.0548  0.7327  0.8129
16427SOL     OW50721   3.872   5.774   4.975 -0.2887 -0.2665 -0.2855
16427SOL    HW150722   3.816   5.800   4.902  0.0776  0.2144 -0.4022
16427SOL    HW250723   3.923   5.700   4.942  1.1378  1.0398 -1.1345
16428SOL     OW50724   4.342   7.648   6.747 -0.0036  0.3306 -0.6310
16428SOL    HW150725   4.379   7.583   6.687 -0.7760  0.2299 -1.0123
16428SOL    HW250726   4.394   7.727   6.732  0.1620  0.1478 -1.0432
16429SOL     OW50727   5.070   5.268   4.547  0.4204  0.0100  0.2530
16429SOL    HW150728   5.038   5.204   4.611 -0.6152 -1.7530 -1.8941
16429SOL    HW250729   5.150   5.303   4.586  1.6674 -3.4224  1.0819
16430SOL     OW50730   4.899   0.507   6.669  0.2076  0.7125  0.6508
16430SOL    HW150731   4.814   0.482   6.632  0.6374 -1.9413  1.2270
16430SOL    HW250732   4.923   0.587   6.623 -1.9687  0.7674 -0.5135
16431SOL     OW50733   4.033   7.206   7.938  0.2935 -0.5219  0.3773
16431SOL    HW150734   4.000   7.126   7.898  0.1542 -0.8093  1.0452
16431SOL    HW250735   4.028   7.272   7.869  0.4205 -1.0910 -0.1797
16432SOL     OW50736   3.200   7.514   7.490  0.1566  0.5287 -0.2879
16432SOL    HW150737   3.108   7.527   7.465  0.5157 -0.0653 -2.0759
16432SOL    HW250738   3.214   7.575   7.562 -2.2666 -0.9856  1.6901
16433SOL     OW50739   5.451   5.867   4.953  0.5227  0.4498  0.4283
16433SOL    HW150740   5.449   5.869   5.049 -0.1534 -1.4954  0.4959
16433SOL    HW250741   5.364   5.896   4.927  0.1809 -0.4843  0.4814
16434SOL     OW50742   5.538   6.200   4.242  0.6113 -0.2137 -0.0907
16434SOL    HW150743   5.451   6.165   4.258  1.6919 -2.7983  0.6279
16434SOL    HW250744   5.573   6.217   4.330  1.6477 -1.4237 -0.2523
16435SOL     OW50745   3.300   7.574   4.802 -0.0163  0.2387  0.0363
16435SOL    HW150746   3.277   7.488   4.838  0.1974  0.1376 -0.0696
16435SOL    HW250747   3.391   7.586   4.828 -0.6969  1.4677  2.1193
16436SOL     OW50748   2.621   6.712   4.416 -0.1066  0.6925 -0.7151
16436SOL    HW150749   2.649   6.781   4.475  0.5355  1.8726 -2.3199
16436SOL    HW250750   2.526   6.720   4.412 -0.0879  1.0574 -0.3769
16437SOL     OW50751   4.220   7.211   2.760  0.5521  0.3904 -0.1407
16437SOL    HW150752   4.140   7.218   2.812  1.4607  0.5268  1.2743
16437SOL    HW250753   4.233   7.300   2.726  0.9221  0.7454  0.8961
16438SOL     OW50754   2.640   6.353   6.150  0.5273 -0.3607 -0.4300
16438SOL    HW150755   2.620   6.356   6.056 -0.4405 -0.1857 -0.2285
16438SOL    HW250756   2.565   6.395   6.192  0.3007 -1.6515  0.5124
16439SOL     OW50757   3.335   0.413   6.156  0.3181 -0.0116 -0.2665
16439SOL    HW150758   3.267   0.404   6.222  0.6058 -1.1393 -0.0958
16439SOL    HW250759   3.413   0.438   6.206 -0.0381  1.6370 -0.5059
16440SOL     OW50760   4.435   5.544   4.360 -0.2237 -0.6595  0.1788
16440SOL    HW150761   4.526   5.573   4.356 -0.5398  1.1919  3.2714
16440SOL    HW250762   4.440   5.448   4.360  1.5762 -0.6156 -0.9846
16441SOL     OW50763   5.380   5.553   5.822  0.5691 -0.6488  0.1089
16441SOL    HW150764   5.309   5.496   5.854 -0.2470 -1.1747 -2.4245
16441SOL    HW250765   5.366   5.636   5.867 -2.7461 -0.2042 -1.4242
16442SOL     OW50766   6.745   4.536   3.694 -0.5852 -0.2060 -0.2108
16442SOL    HW150767   6.837   4.558   3.677 -0.7093 -0.4389 -1.2429
16442SOL    HW250768   6.696   4.608   3.655 -0.8818 -0.7630 -0.8875
16443SOL     OW50769   6.028   6.671   2.853  0.3593  0.2204 -0.1291
16443SOL    HW150770   5.997   6.754   2.891  3.5071  0.6658  1.8131
16443SOL    HW250771   6.038   6.689   2.760  0.0251  1.6855  0.0927
16444SOL     OW50772   2.911   6.680   3.365  0.1948  0.5173 -0.3113
16444SOL    HW150773   2.989   6.735   3.363 -0.2769  1.1866 -0.5473
16444SOL    HW250774   2.942   6.593   3.341  0.5769  1.1460 -2.2169
16445SOL     OW50775   6.434   5.236   3.962  0.9179 -0.4001 -0.6920
16445SOL    HW150776   6.360   5.175   3.965 -0.3117  1.0169 -0.5842
16445SOL    HW250777   6.395   5.321   3.982  2.6617  0.3492 -0.3252
16446SOL     OW50778   4.477   7.946   5.100  0.4730 -0.4968 -0.3805
16446SOL    HW150779   4.400   7.891   5.114  0.4409 -0.4788 -0.4844
16446SOL    HW250780   4.445   8.020   5.047  0.9867 -1.5502 -2.2667
16447SOL     OW50781   4.136   5.465   4.653  0.5023 -0.3123  0.1229
16447SOL    HW150782   4.165   5.375   4.638  0.3661 -0.3068 -0.1845
16447SOL    HW250783   4.105   5.494   4.568  1.2342  0.2788  0.0445
16448SOL     OW50784   4.691   5.136   4.839  0.0211 -0.6085  0.1096
16448SOL    HW150785   4.700   5.129   4.934 -1.0611 -2.1803  0.1290
16448SOL    HW250786   4.757   5.077   4.804  0.1743 -0.3061 -0.1226
16449SOL     OW50787   5.293   6.027   6.501 -1.2602 -0.7767 -0.2910
16449SOL    HW150788   5.220   6.070   6.546 -0.2361 -1.9956  2.8826
16449SOL    HW250789   5.362   6.093   6.500 -1.1313 -0.8902  0.4473
16450SOL     OW50790   5.201   5.585   4.803 -0.1820 -0.4285  0.1420
16450SOL    HW150791   5.242   5.655   4.751  1.1776  0.3370  2.1428
16450SOL    HW250792   5.107   5.604   4.798  0.0605  0.7442 -0.4465
16451SOL     OW50793   2.383   5.426   3.705 -0.1863  0.0586 -0.0402
16451SOL    HW150794   2.400   5.370   3.629  1.1359  1.0529 -0.5190
16451SOL    HW250795   2.451   5.401   3.768  1.0932  1.7933 -0.6658
16452SOL     OW50796   3.987   0.043   5.103 -0.6853  0.1675 -0.3620
16452SOL    HW150797   3.992  -0.026   5.036 -1.3068  0.7496 -1.0191
16452SOL    HW250798   3.895   0.045   5.129 -0.5617  0.3657  0.0733
16453SOL     OW50799   5.693   6.839   6.754 -0.0095 -0.0632  0.0300
16453SOL    HW150800   5.624   6.903   6.738  0.5446  1.3448  2.6522
16453SOL    HW250801   5.751   6.847   6.678 -1.1280  0.9446 -0.7534
16454SOL     OW50802   5.021   5.341   5.638 -0.2235 -0.5206  0.1487
16454SOL    HW150803   4.959   5.277   5.605 -1.1857  0.1921  0.5311
16454SOL    HW250804   5.083   5.354   5.566 -1.5384  0.0598 -0.9165
16455SOL     OW50805   4.627   7.151   4.894 -0.1369 -0.1767 -0.1992
16455SOL    HW150806   4.535   7.128   4.885 -0.1844  0.0852 -0.3569
16455SOL    HW250807   4.672   7.097   4.828 -0.1704 -0.3277 -0.1003
16456SOL     OW50808   5.605   7.764   4.984  0.7065  0.0678  0.8718
16456SOL    HW150809   5.534   7.811   5.028 -1.7460 -2.1685 -0.3948
16456SOL    HW250810   5.585   7.671   4.999  1.4826 -0.7177 -2.2254
16457SOL     OW50811   5.497   4.361   3.112  0.7743 -0.0639  0.7428
16457SOL    HW150812   5.423   4.419   3.095  0.7424 -0.0039  1.0693
16457SOL    HW250813   5.487   4.290   3.050  0.4655 -0.0334  0.7557
16458SOL     OW50814   1.133   4.717   5.283 -0.1838  0.2281 -0.1583
16458SOL    HW150815   1.197   4.704   5.214  1.4701  0.9717  1.1504
16458SOL    HW250816   1.095   4.631   5.298 -0.4084  0.0239 -1.8128
16459SOL     OW50817   6.385   5.276   3.567 -0.8960 -0.0548  0.0048
16459SOL    HW150818   6.363   5.187   3.539  0.8229 -0.3487 -0.5595
16459SOL    HW250819   6.302   5.324   3.565 -1.9095 -1.7153  0.6398
16460SOL     OW50820   4.604   6.496   7.434  0.3473  0.7483 -0.3692
16460SOL    HW150821   4.611   6.480   7.340 -0.7951 -2.1860 -0.0565
16460SOL    HW250822   4.691   6.477   7.469  0.4184  0.4764 -0.6911
16461SOL     OW50823   4.879   6.139   6.294 -0.0151  0.3062 -0.2474
16461SOL    HW150824   4.792   6.174   6.272 -0.4975 -0.5544  0.2206
16461SOL    HW250825   4.861   6.070   6.359  0.9495 -0.4095 -0.7207
16462SOL     OW50826   5.410   7.020   4.305 -0.3923 -0.4207  0.2207
16462SOL    HW150827   5.430   6.932   4.338 -2.2692 -0.8768  0.2301
16462SOL    HW250828   5.351   7.005   4.231 -2.0731  0.8647  1.2294
16463SOL     OW50829   5.341   5.198   6.048 -0.3695 -0.6207  0.5544
16463SOL    HW150830   5.294   5.120   6.076 -0.2824 -1.2830 -1.0355
16463SOL    HW250831   5.274   5.257   6.015 -0.2675 -0.8349 -0.0515
16464SOL     OW50832   4.171   5.194   3.279 -0.7467 -0.0281  0.0671
16464SOL    HW150833   4.264   5.172   3.292 -1.4616 -3.8334 -0.2190
16464SOL    HW250834   4.135   5.197   3.367 -1.0844 -2.9119  0.1295
16465SOL     OW50835   5.052   6.710   5.036 -0.1938 -0.7403  0.0710
16465SOL    HW150836   5.069   6.757   4.954 -0.6772  0.1620  0.4792
16465SOL    HW250837   4.987   6.644   5.012  0.3666 -1.1089 -0.4732
16466SOL     OW50838   2.391   6.267   3.967 -0.3514  0.4131 -0.0899
16466SOL    HW150839   2.310   6.315   3.982 -0.8959 -0.3093 -0.6167
16466SOL    HW250840   2.411   6.227   4.052 -0.5296  0.6166  0.0485
16467SOL     OW50841   5.802   5.364   3.043  0.2330 -0.3860  0.2322
16467SOL    HW150842   5.778   5.385   3.133  1.6939 -0.4072  0.6613
16467SOL    HW250843   5.719   5.350   2.999 -0.5330 -3.4924  2.3133
16468SOL     OW50844   4.521   6.881   6.124 -0.1678 -0.1113 -0.2269
16468SOL    HW150845   4.484   6.830   6.197 -1.4776  2.3396  0.9700
16468SOL    HW250846   4.449   6.887   6.061 -0.2390  0.6312 -0.0935
16469SOL     OW50847   5.175   5.927   5.291  0.3716  0.0803  0.0309
16469SOL    HW150848   5.118   6.004   5.292 -0.7824 -0.7534  0.4672
16469SOL    HW250849   5.145   5.876   5.216  0.5770 -0.3455  0.2338
16470SOL     OW50850   4.195   5.745   6.098 -0.3426 -0.2727  0.3637
16470SOL    HW150851   4.230   5.658   6.120 -0.8195 -0.7233 -0.6089
16470SOL    HW250852   4.237   5.767   6.014 -0.7329  0.1404  0.2724
16471SOL     OW50853   3.692   7.162   4.693 -0.1666 -0.1617  0.1743
16471SOL    HW150854   3.666   7.074   4.719 -1.1626  0.1389  0.2624
16471SOL    HW250855   3.650   7.219   4.757 -1.7787  0.5291 -1.4057
16472SOL     OW50856   1.541   0.364   3.912 -0.1684  0.9051 -0.3761
16472SOL    HW150857   1.629   0.399   3.928  0.3578 -0.7285  0.5254
16472SOL    HW250858   1.504   0.422   3.845  1.5571  1.6779 -0.7194
16473SOL     OW50859   5.877   7.875   5.008 -0.0447  0.1892 -0.0250
16473SOL    HW150860   5.931   7.901   4.933 -0.5950  1.7183  0.0673
16473SOL    HW250861   5.793   7.850   4.970 -0.3530  1.0502  0.0672
16474SOL     OW50862   4.278   6.303   6.116 -0.2289 -0.8475  0.0212
16474SOL    HW150863   4.287   6.388   6.073  0.4568 -0.5905  0.6471
16474SOL    HW250864   4.328   6.242   6.061 -1.5278 -1.0757 -0.9749
16475SOL     OW50865   4.659   6.255   4.655 -0.2366 -0.6570 -0.0883
16475SOL    HW150866   4.616   6.209   4.583 -1.5997  0.0015  0.2530
16475SOL    HW250867   4.602   6.239   4.730  1.8245 -2.4168  1.2238
16476SOL     OW50868   5.116   7.405   4.588  0.8222 -0.3645  0.6253
16476SOL    HW150869   5.173   7.368   4.521  0.7270 -0.4612  0.5971
16476SOL    HW250870   5.174   7.460   4.641  0.8785 -0.2105  0.4055
16477SOL     OW50871   4.146   7.886   9.033  0.2463  0.1911 -0.2143
16477SOL    HW150872   4.178   7.796   9.031  1.8291  0.7290 -1.3891
16477SOL    HW250873   4.057   7.881   8.998  0.4548 -0.8775 -0.6102
16478SOL     OW50874   3.576   7.769   6.484  0.3314  0.6470  0.3172
16478SOL    HW150875   3.548   7.714   6.410 -0.0502  1.8629 -0.4810
16478SOL    HW250876   3.495   7.792   6.529  0.5468  0.0679  1.0207
16479SOL     OW50877   4.427   5.749   4.559 -0.2451 -0.3360 -0.7800
16479SOL    HW150878   4.509   5.797   4.571  0.4247 -1.6542  0.1118
16479SOL    HW250879   4.441   5.697   4.480 -0.6147  0.2051 -1.2071
16480SOL     OW50880   4.897   5.410   3.243 -0.4114 -0.6537 -0.7371
16480SOL    HW150881   4.847   5.421   3.162 -1.0190 -1.8111 -0.5407
16480SOL    HW250882   4.895   5.316   3.260  0.2781 -0.5047  0.2719
16481SOL     OW50883   4.531   6.918   5.728 -1.1726  0.7359 -0.1418
16481SOL    HW150884   4.525   6.848   5.793 -0.8812  1.3777  0.5944
16481SOL    HW250885   4.610   6.898   5.678 -0.5364  1.0495  0.7034
16482SOL     OW50886   4.433   5.258   4.336 -0.6384  0.0220 -0.2920
16482SOL    HW150887   4.432   5.270   4.241 -2.2524  1.6373 -0.1098
16482SOL    HW250888   4.526   5.252   4.358 -0.2042  0.5293 -1.8731
16483SOL     OW50889   3.138   0.110   5.062  0.5432 -0.2892 -0.3703
16483SOL    HW150890   3.182   0.090   5.144 -1.6995  0.8537  1.2265
16483SOL    HW250891   3.071   0.042   5.053 -1.2903  1.2917  0.4847
16484SOL     OW50892   4.529   7.338   5.989 -0.4515 -0.0046  0.4842
16484SOL    HW150893   4.490   7.318   5.904 -0.5893  0.5334  0.4189
16484SOL    HW250894   4.459   7.383   6.038  0.0692  0.9461  0.3725
16485SOL     OW50895   5.394   5.497   5.014 -0.6099 -0.4047 -0.0986
16485SOL    HW150896   5.325   5.515   4.950 -0.5081  1.1076  0.1984
16485SOL    HW250897   5.468   5.549   4.986  0.5706 -2.2557 -0.5926
16486SOL     OW50898   3.816   7.239   5.363 -0.6393 -0.1199  0.4518
16486SOL    HW150899   3.852   7.152   5.377 -0.4662 -0.1418 -0.0807
16486SOL    HW250900   3.732   7.239   5.409 -0.8589 -0.7306  0.0589
16487SOL     OW50901   4.852   4.958   3.555  0.1854  0.0424 -0.1861
16487SOL    HW150902   4.808   4.880   3.520  0.8207 -0.5312  0.2635
16487SOL    HW250903   4.799   5.031   3.524 -0.3551 -0.5604 -0.7227
16488SOL     OW50904   5.454   6.551   4.576 -0.1743 -0.3917 -0.2784
16488SOL    HW150905   5.402   6.476   4.546 -0.4629  0.4488 -2.0493
16488SOL    HW250906   5.541   6.536   4.539  0.0617 -0.3793  0.2666
16489SOL     OW50907   3.600   7.393   3.678  1.0567 -0.2176 -0.4476
16489SOL    HW150908   3.615   7.391   3.583 -3.7773 -1.5221 -1.4687
16489SOL    HW250909   3.601   7.486   3.700 -0.7471  0.3894 -2.5436
16490SOL     OW50910   4.541   6.118   5.260 -0.1185  0.1958 -0.5130
16490SOL    HW150911   4.512   6.209   5.254 -0.3614  0.0977 -0.8496
16490SOL    HW250912   4.539   6.098   5.353 -0.3512  0.4437 -0.4642
16491SOL     OW50913   4.596   0.075   3.497  0.1475  0.3852  0.1700
16491SOL    HW150914   4.634   0.069   3.409 -0.8044 -0.1644 -0.2267
16491SOL    HW250915   4.666   0.111   3.551  1.1734 -0.4427 -0.5549
16492SOL     OW50916   5.295   5.230   5.346  0.0435 -0.4848  0.3002
16492SOL    HW150917   5.275   5.178   5.424 -0.1307 -1.3947 -0.3307
16492SOL    HW250918   5.233   5.303   5.349 -1.1244 -1.4362  0.1347
16493SOL     OW50919   4.889   5.484   4.581 -0.5452 -0.1116 -0.2814
16493SOL    HW150920   4.806   5.456   4.618 -1.1304 -0.8814 -2.0722
16493SOL    HW250921   4.952   5.418   4.610 -0.7229 -0.0151  0.3454
16494SOL     OW50922   4.426   6.435   4.322  0.3243  0.5616  0.3276
16494SOL    HW150923   4.450   6.375   4.251 -0.3644  0.6809 -0.0150
16494SOL    HW250924   4.417   6.520   4.279 -0.1061  0.6339  0.5605
16495SOL     OW50925   5.513   4.949   3.373 -0.4510  0.0222  0.3591
16495SOL    HW150926   5.497   5.017   3.438 -0.8701 -0.6554  0.9855
16495SOL    HW250927   5.486   4.989   3.290  1.1549  1.2854  0.4008
16496SOL     OW50928   3.814   6.209   4.376  0.2850 -0.4362 -0.2785
16496SOL    HW150929   3.766   6.142   4.327  0.7843 -1.4581  0.5889
16496SOL    HW250930   3.887   6.233   4.319 -0.9522  0.8292 -1.4309
16497SOL     OW50931   5.196   5.984   4.879 -0.1514 -0.3240  0.4325
16497SOL    HW150932   5.105   5.971   4.853 -0.1307 -0.0858  0.2329
16497SOL    HW250933   5.191   6.021   4.967 -0.2383 -0.6375  0.5578
16498SOL     OW50934   3.648   7.191   2.719  0.6128 -0.5336  0.2066
16498SOL    HW150935   3.719   7.130   2.700 -0.5125 -2.3600  1.5499
16498SOL    HW250936   3.570   7.151   2.681  0.2916  1.6507 -1.6199
16499SOL     OW50937   3.430   6.985   4.897 -0.0492  0.3723 -0.6695
16499SOL    HW150938   3.498   6.953   4.837  1.1206  3.7669 -1.3837
16499SOL    HW250939   3.392   7.060   4.852 -1.3058  1.1594  1.5571
16500SOL     OW50940   2.360   0.379   4.239 -0.0356 -0.1225 -0.3982
16500SOL    HW150941   2.408   0.358   4.319  0.0250  1.5453  0.0312
16500SOL    HW250942   2.334   0.293   4.203 -3.6307 -1.0109  3.5111
16501SOL     OW50943   4.362   7.110   4.486  0.4091  0.6665 -0.8239
16501SOL    HW150944   4.394   7.184   4.435  0.2926  1.3468  0.0669
16501SOL    HW250945   4.267   7.110   4.473  0.4688  0.3300 -1.2689
16502SOL     OW50946   2.552   5.680   3.971 -0.1118 -0.0019  0.5077
16502SOL    HW150947   2.624   5.668   3.909 -0.1503  1.2587  0.2000
16502SOL    HW250948   2.592   5.720   4.048 -0.4853  0.8248  0.2864
16503SOL     OW50949   2.451   5.270   5.152  0.0594  0.4859 -0.6456
16503SOL    HW150950   2.389   5.342   5.142 -1.2285 -0.5079 -0.0394
16503SOL    HW250951   2.473   5.269   5.246 -1.2095 -0.8907 -0.3200
16504SOL     OW50952   5.928   5.269   5.016  0.4022 -0.0951 -0.0081
16504SOL    HW150953   5.861   5.274   4.948 -0.9186 -0.8121  1.1966
16504SOL    HW250954   5.979   5.191   4.993  0.7411  0.3552 -0.8333
16505SOL     OW50955   4.463   5.240   4.073  0.2758 -0.5998  0.5925
16505SOL    HW150956   4.449   5.145   4.065  1.7429 -0.7472 -1.0182
16505SOL    HW250957   4.452   5.272   3.983 -0.7659  0.8796  1.2135
16506SOL     OW50958   3.882   6.594   3.993 -0.6612 -0.1813 -0.1988
16506SOL    HW150959   3.903   6.528   3.928 -0.3564 -0.3775  0.0972
16506SOL    HW250960   3.958   6.596   4.051 -1.2642 -0.6029  0.6369
16507SOL     OW50961   6.778   4.344   3.169  0.0978  0.2610  0.2232
16507SOL    HW150962   6.722   4.270   3.147 -0.6407  0.4210  1.4482
16507SOL    HW250963   6.795   4.334   3.263  1.9466  0.3437 -0.0776
16508SOL     OW50964   4.961   6.691   4.462  0.0636 -0.1658 -0.1382
16508SOL    HW150965   5.011   6.767   4.492  0.0084  0.5717 -1.8175
16508SOL    HW250966   5.010   6.615   4.493  1.1104  0.5487 -0.0122
16509SOL     OW50967   2.685   0.107   3.016 -0.0735 -0.1095 -0.0777
16509SOL    HW150968   2.757   0.169   3.021 -0.7528  0.7832 -1.0147
16509SOL    HW250969   2.717   0.029   3.062  1.2320  0.4925  0.0714
16510SOL     OW50970   4.019   0.019   4.228 -0.5348  0.3855  0.1168
16510SOL    HW150971   3.974   0.034   4.311 -0.0979 -0.0881  0.4487
16510SOL    HW250972   4.028  -0.076   4.222 -2.5272  0.2430 -1.5589
16511SOL     OW50973   2.846   6.859   2.649 -1.0172  0.3947  0.0886
16511SOL    HW150974   2.869   6.775   2.608  1.1741  0.6440  0.6946
16511SOL    HW250975   2.848   6.841   2.743 -2.0348  0.7931  0.2002
16512SOL     OW50976   5.668   4.919   4.395  0.0824 -0.0445 -0.4069
16512SOL    HW150977   5.739   4.859   4.417 -0.2482 -1.2713 -2.3770
16512SOL    HW250978   5.596   4.894   4.453  0.6816  0.0102  0.3686
16513SOL     OW50979   3.931   0.641   7.791 -0.4006  0.4644 -0.0325
16513SOL    HW150980   3.874   0.587   7.845 -1.2500  0.0870 -1.2484
16513SOL    HW250981   3.924   0.729   7.830 -1.2928  0.2822  0.2501
16514SOL     OW50982   3.414   5.905   4.869  0.1760 -0.1913 -0.4125
16514SOL    HW150983   3.356   5.947   4.932 -1.3825 -0.3790 -1.6467
16514SOL    HW250984   3.355   5.857   4.811  1.1288  2.2370 -3.7576
16515SOL     OW50985   3.239   6.638   6.187  0.0302 -0.5854  0.8071
16515SOL    HW150986   3.192   6.682   6.116  2.8477  0.2716 -0.6607
16515SOL    HW250987   3.258   6.707   6.250  0.1335 -0.7496  0.9558
16516SOL     OW50988   5.838   7.082   6.429  0.3780 -0.0678  0.2496
16516SOL    HW150989   5.840   7.002   6.482  0.4303 -0.7248 -0.7381
16516SOL    HW250990   5.897   7.065   6.356 -0.0041  0.6744 -0.2444
16517SOL     OW50991   4.696   6.735   7.846  0.5291 -0.1807 -0.6199
16517SOL    HW150992   4.758   6.687   7.791  1.1648 -0.9008  0.6918
16517SOL    HW250993   4.689   6.821   7.804  1.4534 -0.5060 -1.4844
16518SOL     OW50994   4.687   4.723   2.819 -0.2485 -0.6712 -0.4294
16518SOL    HW150995   4.616   4.718   2.754  0.0137  1.9378 -1.0253
16518SOL    HW250996   4.643   4.716   2.903 -0.9738 -0.9766 -0.8224
16519SOL     OW50997   4.373   6.725   6.733 -0.2691 -0.3837  0.1209
16519SOL    HW150998   4.450   6.776   6.758  0.2374 -0.8168 -0.5010
16519SOL    HW250999   4.306   6.791   6.712  0.7586  0.1186 -1.8952
16520SOL     OW51000   4.984   7.462   4.948  0.2185  0.3051  0.3236
16520SOL    HW151001   4.993   7.376   4.907 -1.1461  0.2735  0.0354
16520SOL    HW251002   5.006   7.524   4.878  2.1143  0.2012  0.7923
16521SOL     OW51003   3.530   5.807   3.979 -0.0910  0.0277  0.1583
16521SOL    HW151004   3.476   5.748   3.925 -2.9659  0.6514  2.1296
16521SOL    HW251005   3.603   5.752   4.008 -0.5910 -1.4209 -1.1710
16522SOL     OW51006   4.640   6.626   5.262 -0.6587  0.3996  0.4034
16522SOL    HW151007   4.645   6.714   5.224  1.3844  0.4715  0.7438
16522SOL    HW251008   4.724   6.586   5.242 -0.7020 -0.6807  2.1373
16523SOL     OW51009   1.889   5.345   5.472 -0.4525  0.5797  0.2443
16523SOL    HW151010   1.845   5.293   5.405  0.0404  0.2854  0.1396
16523SOL    HW251011   1.866   5.303   5.555  1.2017 -0.7932  0.0607
16524SOL     OW51012   3.307   6.099   5.436 -0.2508 -0.4460  0.2260
16524SOL    HW151013   3.255   6.175   5.411  1.0583  0.0362 -1.1854
16524SOL    HW251014   3.383   6.135   5.481 -0.5149 -1.0616  1.2011
16525SOL     OW51015   6.027   5.160   4.611 -0.1436 -0.0938 -0.2607
16525SOL    HW151016   5.992   5.078   4.577  0.2818  0.2012 -1.4823
16525SOL    HW251017   6.120   5.141   4.627 -0.2165 -0.0647  0.2145
16526SOL     OW51018   4.182   7.173   4.119  0.0180 -0.3017 -0.4824
16526SOL    HW151019   4.205   7.245   4.178  0.0117 -0.4837 -0.2582
16526SOL    HW251020   4.142   7.107   4.176 -0.2789 -0.3433 -0.7378
16527SOL     OW51021   4.693   5.344   4.099 -0.2993  0.7759  0.1123
16527SOL    HW151022   4.746   5.298   4.164  0.5611 -0.4903 -1.3997
16527SOL    HW251023   4.608   5.301   4.102 -1.1282  2.4264  2.1404
16528SOL     OW51024   4.963   4.866   2.999  0.1964  0.2717  0.4379
16528SOL    HW151025   4.934   4.774   2.996 -1.1449  0.6606  0.5170
16528SOL    HW251026   4.882   4.915   3.012  0.7515  1.5453 -0.6543
16529SOL     OW51027   4.511   6.431   6.270  0.6218 -0.5098  0.4301
16529SOL    HW151028   4.462   6.466   6.345 -1.9794 -0.5782 -1.1153
16529SOL    HW251029   4.584   6.492   6.259  0.3191  0.2430  2.1734
16530SOL     OW51030   3.839   6.610   5.750 -0.0410  0.2788 -0.2479
16530SOL    HW151031   3.896   6.534   5.742  0.7477  0.9371 -1.1865
16530SOL    HW251032   3.895   6.678   5.787 -0.6225  0.5261  0.1915
16531SOL     OW51033   3.067   5.000   4.651 -0.1564 -0.1589 -0.3459
16531SOL    HW151034   3.024   4.958   4.576 -1.0330 -0.8043  0.5018
16531SOL    HW251035   3.158   4.969   4.647 -0.1648 -0.1135 -1.1818
16532SOL     OW51036   4.617   5.409   5.807  0.0510  0.5603  0.1194
16532SOL    HW151037   4.564   5.489   5.809  0.9706  1.1934 -0.0680
16532SOL    HW251038   4.557   5.342   5.773 -0.4602  1.3835 -0.6671
16533SOL     OW51039   3.266   0.123   4.784 -0.1630  0.2845 -0.0996
16533SOL    HW151040   3.319   0.044   4.778 -1.6146 -0.7032 -0.3610
16533SOL    HW251041   3.230   0.122   4.873 -0.9900  0.0900 -0.4236
16534SOL     OW51042   7.153   5.791   7.590  0.6557  0.1734  0.0643
16534SOL    HW151043   7.120   5.738   7.518 -1.1347  0.3780  0.6621
16534SOL    HW251044   7.154   5.880   7.555 -0.3773  0.2969  0.3091
16535SOL     OW51045   5.779   5.319   3.919 -0.3243 -0.4103 -0.0103
16535SOL    HW151046   5.789   5.266   3.998  0.2789  0.6814  0.6775
16535SOL    HW251047   5.771   5.255   3.848  1.4525 -1.4341  0.6453
16536SOL     OW51048   2.408   5.365   5.742 -0.3430  0.2164  0.6142
16536SOL    HW151049   2.363   5.448   5.727  0.3709  0.3884 -0.7474
16536SOL    HW251050   2.500   5.385   5.729 -0.1709 -0.8012  0.1721
16537SOL     OW51051   2.666   7.001   4.856  0.0635  0.3495  0.5067
16537SOL    HW151052   2.683   7.089   4.889  1.6886  0.0754  0.5080
16537SOL    HW251053   2.731   6.946   4.900  0.8539 -0.3913 -1.4624
16538SOL     OW51054   5.233   6.341   4.911 -0.2927  0.1115  0.1608
16538SOL    HW151055   5.146   6.341   4.872 -0.3034 -0.9837  0.1636
16538SOL    HW251056   5.229   6.274   4.979  0.5990 -0.0733  0.0482
16539SOL     OW51057   4.662   6.894   5.145  0.4888  0.3128 -0.6756
16539SOL    HW151058   4.615   6.976   5.131  0.4228  0.3477 -0.2785
16539SOL    HW251059   4.670   6.855   5.058 -1.0472 -0.1119 -0.6601
16540SOL     OW51060   4.086   6.205   4.498 -0.4991  0.1352 -0.2912
16540SOL    HW151061   4.004   6.182   4.542 -1.1882 -1.8010 -2.4124
16540SOL    HW251062   4.060   6.230   4.410  1.1460 -0.0647 -0.8623
16541SOL     OW51063   3.975   6.241   2.913 -0.3462  0.2966  0.6232
16541SOL    HW151064   4.011   6.157   2.942  0.2383  0.7884  1.3678
16541SOL    HW251065   3.892   6.248   2.959 -0.5809 -0.0384  0.2629
16542SOL     OW51066   3.630   7.531   4.552 -0.2457  0.0545 -0.6828
16542SOL    HW151067   3.657   7.530   4.460  2.4897  0.4416  0.0123
16542SOL    HW251068   3.643   7.622   4.580 -0.3770 -0.1978  0.2423
16543SOL     OW51069   4.706   6.594   6.130  0.0980  0.5984 -0.4426
16543SOL    HW151070   4.724   6.523   6.068 -0.4987  1.4551 -1.6326
16543SOL    HW251071   4.780   6.592   6.190 -1.0228 -2.5265  1.0373
16544SOL     OW51072   6.208   7.743   5.197 -0.3827 -0.2300  0.2511
16544SOL    HW151073   6.238   7.715   5.283 -1.3327 -0.5612  0.4884
16544SOL    HW251074   6.131   7.797   5.214  0.9479  1.9362 -0.2531
16545SOL     OW51075   3.556   5.444   5.299 -0.3050 -0.1609  0.9017
16545SOL    HW151076   3.488   5.499   5.260 -2.7706 -1.7307  2.7234
16545SOL    HW251077   3.617   5.507   5.339 -1.2128  1.2885  0.0763
16546SOL     OW51078   4.639   6.074   3.563  0.1034  0.1121  0.6004
16546SOL    HW151079   4.717   6.083   3.508 -1.1173  0.8581 -1.1066
16546SOL    HW251080   4.586   6.007   3.519 -1.5151  1.6692  0.0427
16547SOL     OW51081   5.349   5.932   3.100  0.1767 -1.0767  0.4903
16547SOL    HW151082   5.303   5.874   3.161 -1.3947 -1.5003 -0.9945
16547SOL    HW251083   5.346   5.886   3.016 -1.4288  1.1866 -0.8370
16548SOL     OW51084   2.138   7.419   3.653 -0.2090  0.3505 -0.0847
16548SOL    HW151085   2.194   7.497   3.651 -1.4512  1.2926  0.4765
16548SOL    HW251086   2.088   7.427   3.734 -0.5727 -0.8917 -0.1659
16549SOL     OW51087   5.140   4.808   4.979  0.2298 -0.1664 -0.1815
16549SOL    HW151088   5.113   4.771   5.063 -0.4346 -1.4785 -0.9441
16549SOL    HW251089   5.126   4.902   4.989  2.5175  0.0685  2.0191
16550SOL     OW51090   4.741   5.488   5.026  0.0325  0.0177 -0.6098
16550SOL    HW151091   4.694   5.555   4.976  0.6312 -0.0981 -1.3552
16550SOL    HW251092   4.735   5.409   4.971 -2.0349 -1.0201  0.9714
16551SOL     OW51093   3.519   5.306   4.532 -0.1144 -0.1978 -0.2257
16551SOL    HW151094   3.533   5.343   4.445 -1.5218  1.3637  0.1788
16551SOL    HW251095   3.604   5.314   4.575  0.6333 -1.0824 -1.4396
16552SOL     OW51096   5.487   4.125   3.922  0.1352 -0.2278  0.7090
16552SOL    HW151097   5.426   4.074   3.977 -1.5938  0.1981 -0.7241
16552SOL    HW251098   5.551   4.061   3.892 -0.0413 -0.8591  1.6140
16553SOL     OW51099   3.452   7.157   3.618 -0.1733 -0.3149 -0.1196
16553SOL    HW151100   3.419   7.125   3.702 -0.2178  1.3632  0.5387
16553SOL    HW251101   3.490   7.243   3.638 -0.1006  0.0820 -1.7964
16554SOL     OW51102   3.759   7.237   5.641  0.2223  0.3843 -0.4608
16554SOL    HW151103   3.681   7.256   5.589 -0.5143  1.9751  1.1343
16554SOL    HW251104   3.748   7.145   5.667 -1.1247  0.5726 -0.2875
16555SOL     OW51105   3.742   6.438   4.496  0.8667 -0.4944  0.3680
16555SOL    HW151106   3.715   6.407   4.583  0.7252  1.0643  0.9210
16555SOL    HW251107   3.783   6.362   4.455  0.5346 -1.3902  1.6237
16556SOL     OW51108   5.052   5.192   6.375  0.4556 -0.2929  0.7139
16556SOL    HW151109   5.072   5.155   6.288 -0.4818 -0.8923  0.7334
16556SOL    HW251110   5.011   5.276   6.356  2.3012  0.6377  0.6576
16557SOL     OW51111   4.728   5.558   3.401 -0.7100 -0.8191  0.0847
16557SOL    HW151112   4.795   5.523   3.342 -1.4521 -1.6054 -0.3040
16557SOL    HW251113   4.767   5.639   3.435 -0.3252 -0.2463 -1.6071
16558SOL     OW51114   5.128   5.099   5.016  0.0930  0.0609  0.1521
16558SOL    HW151115   5.223   5.105   5.029  0.0927  0.0427  0.1623
16558SOL    HW251116   5.091   5.151   5.087  0.1348  1.2374 -0.6633
16559SOL     OW51117   5.810   6.385   5.319  0.0088  0.5572  0.4263
16559SOL    HW151118   5.800   6.461   5.376 -0.3712  1.6002 -0.9508
16559SOL    HW251119   5.735   6.390   5.259  0.9414  0.1539 -0.8309
16560SOL     OW51120   5.166   4.536   4.556 -0.0144 -0.3760  0.0129
16560SOL    HW151121   5.136   4.563   4.643  0.0793  0.3246 -0.1677
16560SOL    HW251122   5.162   4.440   4.558  1.2928 -0.4297  1.2598
16561SOL     OW51123   5.555   5.800   4.523 -0.2645 -0.0948 -0.2454
16561SOL    HW151124   5.546   5.717   4.478 -1.2599 -0.2382  0.1911
16561SOL    HW251125   5.531   5.781   4.614  0.2498  0.5057  0.0269
16562SOL     OW51126   2.554   7.772   5.591  0.3916  0.0566 -0.5712
16562SOL    HW151127   2.472   7.819   5.608 -0.0196 -0.3207 -1.4326
16562SOL    HW251128   2.552   7.755   5.496  0.5569 -1.6298 -0.3017
16563SOL     OW51129   4.227   5.826   6.568  0.1896 -0.1536  0.1585
16563SOL    HW151130   4.236   5.743   6.521 -1.1851  0.0323 -0.4913
16563SOL    HW251131   4.142   5.819   6.612  0.6737  0.3804  1.2122
16564SOL     OW51132   4.195   0.664   4.671 -0.0436  0.5598 -0.1484
16564SOL    HW151133   4.101   0.666   4.688  0.1531  0.0153  1.0696
16564SOL    HW251134   4.233   0.720   4.738  0.5349  0.5746 -0.4770
16565SOL     OW51135   5.165   5.487   3.290  0.1039 -0.5882 -0.0747
16565SOL    HW151136   5.083   5.453   3.256 -1.6756  2.6460  0.5853
16565SOL    HW251137   5.200   5.417   3.345 -2.0553 -2.1560 -0.5982
16566SOL     OW51138   4.519   6.654   5.577 -0.7420  0.1955 -0.0713
16566SOL    HW151139   4.466   6.640   5.499 -1.0501  0.6030  0.0594
16566SOL    HW251140   4.551   6.744   5.568 -0.1728 -0.0016 -0.0867
16567SOL     OW51141   5.371   5.242   5.072  0.0975 -0.2364  0.0377
16567SOL    HW151142   5.379   5.332   5.039  1.0685 -0.0762  0.6601
16567SOL    HW251143   5.361   5.253   5.167  2.0646 -0.8158  0.3644
16568SOL     OW51144   4.346   6.109   4.471  0.3736 -0.1781 -0.7142
16568SOL    HW151145   4.344   6.067   4.385  0.6574  1.1012 -1.3637
16568SOL    HW251146   4.261   6.153   4.478  0.9558  1.0571 -1.0585
16569SOL     OW51147   4.046   1.021   4.488 -0.1849 -0.0083  0.3779
16569SOL    HW151148   4.077   1.013   4.398 -0.4090  2.3552  0.0313
16569SOL    HW251149   4.046   1.115   4.505 -1.7297 -0.3013  2.2943
16570SOL     OW51150   5.633   7.267   5.147 -0.4791 -0.3100  0.3187
16570SOL    HW151151   5.586   7.256   5.230  2.4374  1.1408  2.2989
16570SOL    HW251152   5.597   7.347   5.109 -0.7237 -0.0851  1.0088
16571SOL     OW51153   4.812   7.539   3.978  0.1551  0.2106 -0.2341
16571SOL    HW151154   4.755   7.580   4.042 -0.7745 -0.7957 -0.3723
16571SOL    HW251155   4.870   7.609   3.948 -0.3886  1.0389  0.6007
16572SOL     OW51156   5.521   7.014   7.673  0.0800 -0.9172  0.0964
16572SOL    HW151157   5.581   7.085   7.696  1.2616 -1.0538 -2.2474
16572SOL    HW251158   5.434   7.055   7.673  0.8243  0.8637 -2.0875
16573SOL     OW51159   5.983   4.884   4.832 -0.0476 -0.1536  0.1628
16573SOL    HW151160   5.955   4.869   4.742 -0.7443 -0.3074  0.3961
16573SOL    HW251161   5.976   4.798   4.874  0.2797 -0.0851  0.3601
16574SOL     OW51162   5.032   5.449   2.627 -0.1548 -0.1933 -0.7406
16574SOL    HW151163   4.968   5.454   2.698 -0.5747 -0.0669 -1.1320
16574SOL    HW251164   5.108   5.406   2.667 -0.1473  0.4533 -0.0380
16575SOL     OW51165   3.675   0.063   5.391 -0.0979 -0.6360 -0.1421
16575SOL    HW151166   3.609   0.030   5.453 -0.1512 -3.3032 -1.4632
16575SOL    HW251167   3.756   0.068   5.442 -1.1229  2.3657  1.4191
16576SOL     OW51168   4.837   7.430   4.620  0.0877  0.3196 -0.2378
16576SOL    HW151169   4.773   7.444   4.690 -0.6951  1.0809 -1.0757
16576SOL    HW251170   4.913   7.391   4.663  0.9474  3.6883  1.6868
16577SOL     OW51171   4.050   6.311   5.452 -0.0358  0.0132  0.2975
16577SOL    HW151172   4.102   6.347   5.380 -0.2811  0.3261  0.2750
16577SOL    HW251173   4.103   6.239   5.486 -0.4327 -0.9121 -0.9525
16578SOL     OW51174   5.301   7.625   4.222  0.1355  0.4585  0.4260
16578SOL    HW151175   5.319   7.598   4.312 -0.2869 -0.7825  0.1559
16578SOL    HW251176   5.301   7.720   4.226  0.4575  0.4310  1.6729
16579SOL     OW51177   4.310   1.632   6.685  1.1610  0.2720  0.6553
16579SOL    HW151178   4.376   1.694   6.654  0.2512  1.7440  1.5474
16579SOL    HW251179   4.267   1.601   6.605  0.8297  1.7284  0.2417
16580SOL     OW51180   6.148   6.749   6.004 -0.5954 -0.2779  0.3271
16580SOL    HW151181   6.058   6.756   6.035 -0.8884  0.2878 -0.6232
16580SOL    HW251182   6.181   6.839   6.003 -0.2641 -0.3986 -0.0337
16581SOL     OW51183   3.358   5.739   5.600  0.0026 -0.4031  0.3116
16581SOL    HW151184   3.428   5.756   5.538  0.7676 -0.7421  1.0744
16581SOL    HW251185   3.381   5.656   5.641 -2.5630 -2.3532 -1.8142
16582SOL     OW51186   4.515   6.942   3.401  0.1910 -0.0973 -0.0193
16582SOL    HW151187   4.501   6.892   3.481  1.7935 -0.6734 -0.0629
16582SOL    HW251188   4.600   6.913   3.368  0.5760  1.6875 -0.7676
16583SOL     OW51189   3.641   7.524   5.396 -0.4118  0.2349  0.2126
16583SOL    HW151190   3.684   7.546   5.478 -1.0259 -1.8048  1.1412
16583SOL    HW251191   3.551   7.502   5.421 -0.8113  0.2677 -1.1097
16584SOL     OW51192   4.496   6.265   4.125 -0.5153  0.7659  0.2411
16584SOL    HW151193   4.532   6.315   4.052 -0.8611  0.0519 -0.4314
16584SOL    HW251194   4.438   6.201   4.084  1.4682 -1.5962  0.8600
16585SOL     OW51195   7.763   6.249   4.090  0.2243 -0.9827 -0.1656
16585SOL    HW151196   7.821   6.226   4.162  0.2033  1.2714  0.6252
16585SOL    HW251197   7.812   6.312   4.038 -1.4728  1.0548  0.5699
16586SOL     OW51198   1.211   4.010   6.102 -0.1706  0.0512 -0.2753
16586SOL    HW151199   1.269   4.083   6.126  0.4543 -0.6357  0.3355
16586SOL    HW251200   1.225   3.945   6.171 -2.2811  0.1899  0.3454
16587SOL     OW51201   3.421   7.206   3.945 -0.1288 -0.4355  1.1865
16587SOL    HW151202   3.507   7.221   3.904 -0.2920  0.4920  1.1454
16587SOL    HW251203   3.390   7.124   3.908 -0.0617  0.1417 -0.2072
16588SOL     OW51204   3.740   7.217   4.132 -0.2614 -0.2468 -0.3432
16588SOL    HW151205   3.707   7.216   4.042 -2.7554  1.8031  0.3982
16588SOL    HW251206   3.663   7.199   4.186  0.9733 -0.4838  1.4382
16589SOL     OW51207   4.795   6.588   3.949 -0.0744 -0.6514 -0.1300
16589SOL    HW151208   4.783   6.646   4.024 -4.1565 -1.6746  0.2454
16589SOL    HW251209   4.836   6.510   3.986 -1.4868 -0.9116  0.9523
16590SOL     OW51210   5.037   7.714   4.820 -0.1139 -0.3612 -0.3007
16590SOL    HW151211   4.979   7.706   4.744 -0.9387 -0.0086  0.2781
16590SOL    HW251212   5.020   7.802   4.854  2.8383  0.9280 -1.7701
16591SOL     OW51213   3.664   7.652   4.115 -0.2667 -0.1028 -0.3872
16591SOL    HW151214   3.607   7.704   4.059  0.9273  1.2467 -0.3907
16591SOL    HW251215   3.683   7.708   4.191  2.0680  0.0483 -0.9949
16592SOL     OW51216   3.580   5.190   3.734  0.0030  0.8006 -0.2433
16592SOL    HW151217   3.583   5.094   3.729 -0.6994  0.7123  0.8036
16592SOL    HW251218   3.621   5.211   3.818 -0.0500  1.4078 -0.3669
16593SOL     OW51219   3.147   7.040   6.311 -0.1268 -0.1441  0.2546
16593SOL    HW151220   3.065   6.993   6.325 -0.8065  1.1292  0.7019
16593SOL    HW251221   3.121   7.126   6.277  0.8932  0.8384  1.7954
16594SOL     OW51222   2.545   5.569   4.694 -0.3695  0.1626  0.4175
16594SOL    HW151223   2.586   5.527   4.619 -1.1930  0.4064 -0.1752
16594SOL    HW251224   2.561   5.662   4.682 -0.4986  0.2033  0.5539
16595SOL     OW51225   5.701   6.189   5.478  0.6788 -0.3259 -0.1738
16595SOL    HW151226   5.668   6.135   5.406 -0.2866  0.7715 -0.5971
16595SOL    HW251227   5.752   6.258   5.435  1.4494 -0.5674  0.3202
16596SOL     OW51228   3.814   6.220   4.052  0.1497 -0.3367  0.3049
16596SOL    HW151229   3.757   6.297   4.059  0.2686 -0.1102 -0.9979
16596SOL    HW251230   3.896   6.254   4.015  0.8283 -0.8066  1.3468
16597SOL     OW51231   3.620   5.660   4.579  0.3792  0.4426 -0.1485
16597SOL    HW151232   3.534   5.669   4.539  0.5187  1.1332 -0.3127
16597SOL    HW251233   3.678   5.711   4.523  0.5955  1.3853  0.8784
16598SOL     OW51234   6.219   7.256   3.403 -0.0761 -0.0680  0.2269
16598SOL    HW151235   6.246   7.243   3.494  0.4636 -2.0913 -0.1694
16598SOL    HW251236   6.125   7.236   3.403 -0.5747  2.0494  0.6867
16599SOL     OW51237   4.015   7.165   7.527 -0.1499  0.2861  0.4704
16599SOL    HW151238   4.079   7.214   7.476 -1.2317  0.1191 -1.1050
16599SOL    HW251239   3.982   7.228   7.591  0.1315  0.9487 -0.0268
16600SOL     OW51240   4.318   7.229   5.431 -0.1148 -0.1940  0.7404
16600SOL    HW151241   4.316   7.211   5.337 -0.0484  2.7850  0.0710
16600SOL    HW251242   4.407   7.204   5.458 -0.3078 -1.5889  0.1736
16601SOL     OW51243   2.954   7.122   5.160  0.2172 -0.0400 -0.3294
16601SOL    HW151244   3.039   7.110   5.118  0.1030  1.1172 -0.9144
16601SOL    HW251245   2.893   7.135   5.088 -0.2234  0.5179  0.1316
16602SOL     OW51246   3.426   7.610   6.786  0.0503  0.0514 -0.9590
16602SOL    HW151247   3.510   7.603   6.740  0.9392  0.2261  0.5820
16602SOL    HW251248   3.416   7.703   6.803 -0.7235  0.0908 -1.5791
16603SOL     OW51249   2.507   7.211   3.096 -0.1364 -0.0051 -0.1434
16603SOL    HW151250   2.497   7.238   3.004 -0.5186  0.0646 -0.0829
16603SOL    HW251251   2.579   7.149   3.095  1.3330  1.6303 -0.1768
16604SOL     OW51252   4.565   7.632   5.214  0.2429  0.2296  0.1430
16604SOL    HW151253   4.616   7.709   5.190  0.3090  0.2253  0.2709
16604SOL    HW251254   4.474   7.663   5.216 -0.0323 -0.2460 -2.2068
16605SOL     OW51255   5.810   5.107   3.711 -0.0251 -0.5339 -0.1194
16605SOL    HW151256   5.784   5.037   3.652  1.8296 -0.7780 -0.7096
16605SOL    HW251257   5.898   5.131   3.683 -0.6019  2.0648  0.0482
16606SOL     OW51258   4.127   7.099   3.795 -0.2069  0.0858 -0.4149
16606SOL    HW151259   4.073   7.167   3.835 -0.0158  0.3942 -0.6748
16606SOL    HW251260   4.215   7.137   3.794  0.2771 -0.8809  1.1531
16607SOL     OW51261   5.823   0.400   6.964 -0.4203 -0.1572 -0.0409
16607SOL    HW151262   5.866   0.345   6.899 -2.7026  1.1159 -2.8291
16607SOL    HW251263   5.730   0.386   6.951 -1.0510  2.6088  0.6694
16608SOL     OW51264   5.414   0.030   5.206 -0.1045  0.2260 -0.0947
16608SOL    HW151265   5.323   0.043   5.234  0.1046  0.8541  0.3228
16608SOL    HW251266   5.433  -0.061   5.229 -0.5878  0.1257 -0.0750
16609SOL     OW51267   4.761   6.206   4.203 -0.2977 -0.4150 -0.6286
16609SOL    HW151268   4.785   6.270   4.269  0.5348 -3.3162  2.1309
16609SOL    HW251269   4.665   6.212   4.197 -0.5272 -0.8437  1.7817
16610SOL     OW51270   4.069   7.559   4.395  0.1220 -0.1239  0.5954
16610SOL    HW151271   4.100   7.502   4.324 -0.6148  1.1537 -0.8140
16610SOL    HW251272   4.133   7.546   4.465  0.7523 -1.6103 -0.1976
16611SOL     OW51273   2.718   5.521   4.931 -0.0169 -0.0015  0.1301
16611SOL    HW151274   2.774   5.569   4.870 -0.0712 -1.0416 -0.7847
16611SOL    HW251275   2.637   5.507   4.882 -0.7881  0.7739  1.1456
16612SOL     OW51276   7.252   7.628   4.322  0.5216  0.1558 -0.8792
16612SOL    HW151277   7.193   7.702   4.337 -2.1358 -2.3145  2.3050
16612SOL    HW251278   7.327   7.646   4.378 -0.5708  0.0868  0.6802
16613SOL     OW51279   5.862   6.156   4.249  0.0882  0.2078  0.5593
16613SOL    HW151280   5.842   6.140   4.341  1.2504  0.1124  0.8077
16613SOL    HW251281   5.777   6.150   4.205 -0.3805 -0.4461  1.5130
16614SOL     OW51282   2.644   5.954   4.296  0.1957 -0.2112  0.2926
16614SOL    HW151283   2.688   5.981   4.377  1.9822 -1.8504 -0.0590
16614SOL    HW251284   2.680   5.867   4.277 -1.2240 -0.4587 -1.5305
16615SOL     OW51285   4.499   5.705   5.215 -0.1982  0.1966  0.0249
16615SOL    HW151286   4.407   5.731   5.223 -0.2287  0.0448  0.1634
16615SOL    HW251287   4.508   5.628   5.271 -0.5854 -1.3734 -1.9612
16616SOL     OW51288   4.079   7.147   4.757 -0.0387 -0.0282 -0.6143
16616SOL    HW151289   4.064   7.222   4.814  1.4917 -0.1577  0.0251
16616SOL    HW251290   3.992   7.113   4.737 -0.6585  0.6173  0.8511
16617SOL     OW51291   5.734   5.988   5.676  0.0438 -0.8423 -0.5922
16617SOL    HW151292   5.738   6.065   5.620 -2.8954  1.6687  2.2396
16617SOL    HW251293   5.819   5.986   5.720  0.2194  0.7637 -0.8126
16618SOL     OW51294   6.448   4.445   4.273 -0.0173 -0.1111  0.1275
16618SOL    HW151295   6.501   4.523   4.257 -0.7245  0.6198  1.1979
16618SOL    HW251296   6.510   4.373   4.271  0.9636  0.6779  0.8954
16619SOL     OW51297   4.933   0.471   5.955  0.1534 -0.4521  0.5757
16619SOL    HW151298   5.026   0.448   5.960  0.2222  0.0688  2.2813
16619SOL    HW251299   4.927   0.557   5.996 -0.9836 -0.1273 -0.2322
16620SOL     OW51300   3.655   6.658   4.183  0.5531  0.7161  0.1311
16620SOL    HW151301   3.749   6.669   4.196  1.3278 -2.9920 -1.0168
16620SOL    HW251302   3.630   6.732   4.127  3.3180  0.5557 -1.4894
16621SOL     OW51303   3.391   7.663   6.239 -0.5730 -0.4254 -0.0524
16621SOL    HW151304   3.392   7.567   6.238 -0.0842 -0.4240 -1.7035
16621SOL    HW251305   3.298   7.685   6.249 -0.9918 -1.1099 -1.9916
16622SOL     OW51306   4.157   5.004   4.984  0.0127 -0.4161 -0.0740
16622SOL    HW151307   4.168   4.913   4.956 -0.8975 -0.7132  0.5059
16622SOL    HW251308   4.149   5.000   5.079 -0.2839  0.2440 -0.0621
16623SOL     OW51309   4.651   5.904   4.662 -0.3691  0.0248  0.6824
16623SOL    HW151310   4.642   5.952   4.580  2.8460 -0.8232 -0.3486
16623SOL    HW251311   4.686   5.968   4.723  0.4178 -0.0939  0.3734
16624SOL     OW51312   4.953   0.671   5.073  0.3939 -0.0146  0.6170
16624SOL    HW151313   4.869   0.716   5.063 -0.0405 -0.8284  0.5168
16624SOL    HW251314   4.930   0.582   5.097  1.2318 -0.2997  0.4111
16625SOL     OW51315   5.398   7.551   4.461 -0.3637 -0.6026  0.6498
16625SOL    HW151316   5.376   7.576   4.551  0.9372  0.1139  0.8030
16625SOL    HW251317   5.434   7.462   4.469  1.3489  0.0825  1.1359
16626SOL     OW51318   4.126   4.284   2.354 -0.1801  0.1984  0.4350
16626SOL    HW151319   4.090   4.332   2.279 -2.5738 -2.1384 -0.0473
16626SOL    HW251320   4.170   4.208   2.316  0.1880 -0.0496  1.3260
16627SOL     OW51321   4.970   6.165   3.855  0.2191 -0.1648  0.2043
16627SOL    HW151322   5.039   6.222   3.821  1.5801 -2.1128 -0.4742
16627SOL    HW251323   4.889   6.208   3.827  1.1409  1.6227  0.0702
16628SOL     OW51324   4.911   5.065   3.830 -0.0843  0.1715 -0.3400
16628SOL    HW151325   4.873   5.153   3.831 -0.0164  0.1973  0.4258
16628SOL    HW251326   4.900   5.035   3.739 -0.2759  0.8925 -0.5624
16629SOL     OW51327   3.714   5.939   4.817 -0.4464 -0.2776  0.8191
16629SOL    HW151328   3.619   5.940   4.825 -0.7094  2.8872 -1.0593
16629SOL    HW251329   3.729   5.926   4.723  1.0083 -1.0316  1.1317
16630SOL     OW51330   7.678   7.484   4.699  0.3528  0.2776 -0.2865
16630SOL    HW151331   7.615   7.418   4.671  0.1109 -0.1407  1.1214
16630SOL    HW251332   7.760   7.435   4.713  0.5385  0.5206 -0.5107
16631SOL     OW51333   4.703   6.178   5.022  0.1266  0.0404 -0.0333
16631SOL    HW151334   4.616   6.141   5.037 -0.5411  2.0559  1.7016
16631SOL    HW251335   4.685   6.266   4.989  1.2672  1.7423  3.3403
16632SOL     OW51336   3.773   6.198   5.297  0.2581  0.0927  0.2245
16632SOL    HW151337   3.770   6.230   5.207 -1.1876  0.3688  0.3419
16632SOL    HW251338   3.841   6.131   5.297 -0.7997 -1.0578 -1.4818
16633SOL     OW51339   4.573   5.559   6.894 -0.1426 -0.3708  0.1606
16633SOL    HW151340   4.527   5.482   6.927  0.7520 -0.3565  1.5460
16633SOL    HW251341   4.528   5.582   6.813 -0.9959 -1.8015  0.2024
16634SOL     OW51342   4.133   6.526   7.018  0.2208 -0.4781 -0.0270
16634SOL    HW151343   4.117   6.470   6.942  0.6710 -0.4049 -0.1779
16634SOL    HW251344   4.228   6.526   7.028  0.2273  0.2880 -0.0451
16635SOL     OW51345   5.949   6.996   7.241 -0.5961 -0.0379 -0.2654
16635SOL    HW151346   6.030   6.993   7.191 -0.2410  0.6807  0.2527
16635SOL    HW251347   5.928   6.904   7.259  0.5960 -0.2002  0.3812
16636SOL     OW51348   4.753   5.258   6.093  0.8609  0.3194  0.0020
16636SOL    HW151349   4.690   5.187   6.084 -0.3005  1.2335  0.6558
16636SOL    HW251350   4.763   5.271   6.187  3.0987 -0.6983 -0.0345
16637SOL     OW51351   4.858   4.587   7.227  0.3505  0.1313  0.8320
16637SOL    HW151352   4.819   4.673   7.241 -1.4461 -0.8821  2.5003
16637SOL    HW251353   4.936   4.605   7.173 -2.1793  2.3039 -2.5013
16638SOL     OW51354   3.917   5.426   5.931 -0.0087  0.6621 -0.1076
16638SOL    HW151355   3.955   5.401   6.015 -2.1640  0.1614  0.7860
16638SOL    HW251356   3.923   5.346   5.877 -1.5629 -0.0505  0.7251
16639SOL     OW51357   4.011   5.923   6.193 -0.9375 -0.2201  0.8925
16639SOL    HW151358   4.073   5.865   6.148 -2.7568 -2.5531  1.1880
16639SOL    HW251359   3.949   5.949   6.125  0.0731  1.8296  0.6751
16640SOL     OW51360   2.295   5.613   5.770 -0.1933 -0.5534  0.0292
16640SOL    HW151361   2.202   5.633   5.781 -0.5715  0.1052 -3.4713
16640SOL    HW251362   2.340   5.674   5.829 -1.8848  0.2735  0.5129
16641SOL     OW51363   4.165   0.468   7.720 -0.5716 -0.4916  0.2660
16641SOL    HW151364   4.074   0.480   7.748 -0.6577  0.8637 -0.5318
16641SOL    HW251365   4.206   0.553   7.736  0.3139 -0.8058 -0.2946
16642SOL     OW51366   3.871   7.640   4.979  0.4089  0.3037  0.7123
16642SOL    HW151367   3.849   7.549   4.958 -0.4792  0.0825  2.4325
16642SOL    HW251368   3.880   7.642   5.074  1.0066  1.9019  0.6587
16643SOL     OW51369   5.659   7.917   7.474 -0.1668 -0.3161  0.2156
16643SOL    HW151370   5.731   7.979   7.480 -2.1905  2.0283  2.4329
16643SOL    HW251371   5.667   7.879   7.386  1.8857  2.1900 -0.8109
16644SOL     OW51372   4.569   5.579   6.156  0.4215  0.1745  1.0104
16644SOL    HW151373   4.499   5.586   6.091  1.5864 -0.8003 -0.4018
16644SOL    HW251374   4.582   5.485   6.168  1.0870  0.3422  1.7156
16645SOL     OW51375   5.401   6.204   7.630  0.3765  0.5472  0.3496
16645SOL    HW151376   5.425   6.243   7.714 -0.3504  1.4759  0.1525
16645SOL    HW251377   5.362   6.277   7.581 -2.1871 -0.6560  0.4122
16646SOL     OW51378   4.376   1.219   5.377 -0.4759  0.0723  0.0044
16646SOL    HW151379   4.343   1.304   5.348 -0.1375  0.9244  1.9580
16646SOL    HW251380   4.463   1.212   5.336 -0.1308  1.0894  0.5298
16647SOL     OW51381   3.062   6.216   5.020 -0.3154 -0.2811 -0.1982
16647SOL    HW151382   3.031   6.290   5.072 -0.7895 -1.9618  2.0884
16647SOL    HW251383   2.981   6.171   4.993 -0.1230  1.0037 -3.2372
16648SOL     OW51384   4.345   6.051   5.896  0.2366  0.2027 -0.1383
16648SOL    HW151385   4.398   6.117   5.940  0.9628 -2.7431  4.0177
16648SOL    HW251386   4.407   5.983   5.870 -0.9175 -0.8753 -0.1984
16649SOL     OW51387   4.010   6.149   5.934  0.0739  0.6894  0.9206
16649SOL    HW151388   4.048   6.119   6.016 -0.5738  0.2634  1.0674
16649SOL    HW251389   4.023   6.244   5.935  0.5270  0.6264  1.2753
16650SOL     OW51390   3.361   7.496   8.279  0.1285 -0.1047 -0.3287
16650SOL    HW151391   3.387   7.441   8.205  0.9688 -1.1729  0.7027
16650SOL    HW251392   3.420   7.571   8.275  1.9163 -1.3609  0.6236
16651SOL     OW51393   2.734   6.110   7.141 -0.1388  0.2432 -0.3959
16651SOL    HW151394   2.805   6.154   7.188 -0.6302 -0.1481  0.7511
16651SOL    HW251395   2.727   6.157   7.058  0.4961  1.2212  0.0914
16652SOL     OW51396   4.724   4.588   6.157  0.0191  0.0294  0.2575
16652SOL    HW151397   4.641   4.550   6.130 -1.3677  3.5606 -1.0456
16652SOL    HW251398   4.716   4.599   6.252 -0.4874 -0.6695  0.3048
16653SOL     OW51399   1.500   4.033   7.187  0.2392 -0.0227 -0.4318
16653SOL    HW151400   1.557   4.007   7.115  1.5283  0.4715  0.3803
16653SOL    HW251401   1.460   3.951   7.216  3.8293 -1.2106  1.7449
16654SOL     OW51402   5.447   7.121   4.726 -0.2846  0.4395 -0.4225
16654SOL    HW151403   5.498   7.040   4.723  0.0112  0.6433 -1.0906
16654SOL    HW251404   5.356   7.092   4.725 -0.2016  0.1255 -2.0109
16655SOL     OW51405   3.569   5.929   6.396  0.8340  0.2952  0.1826
16655SOL    HW151406   3.483   5.889   6.411  0.5435  0.5009 -0.8532
16655SOL    HW251407   3.608   5.876   6.326  0.9128  1.1218 -0.4089
16656SOL     OW51408   4.651   7.002   6.518 -0.4491  0.0540 -0.1639
16656SOL    HW151409   4.704   6.994   6.439  0.1156 -0.7394  0.2751
16656SOL    HW251410   4.562   6.982   6.489 -0.2822 -0.0115 -0.6413
16657SOL     OW51411   7.911   7.100   8.396 -0.1363 -0.1579 -0.8173
16657SOL    HW151412   7.889   7.020   8.349  0.4035  0.4893 -2.2328
16657SOL    HW251413   8.003   7.090   8.420 -0.0986 -0.0199 -0.8992
16658SOL     OW51414   4.764   6.564   6.755 -0.5568 -0.3169  0.4013
16658SOL    HW151415   4.838   6.621   6.734 -0.2284 -1.2679 -1.2786
16658SOL    HW251416   4.721   6.606   6.829  1.4276  0.4819  1.1790
16659SOL     OW51417   4.899   5.762   6.783 -0.2145 -0.5307 -0.0302
16659SOL    HW151418   4.820   5.813   6.765 -0.2082 -0.8406 -1.0096
16659SOL    HW251419   4.963   5.827   6.812  0.6380  0.5594 -3.8045
16660SOL     OW51420   5.498   7.024   6.095 -0.1356 -0.4061  0.0490
16660SOL    HW151421   5.532   7.081   6.025 -3.1852  0.1940 -1.1062
16660SOL    HW251422   5.530   7.065   6.175  1.2961  0.4310 -0.8865
16661SOL     OW51423   4.362   5.803   8.054 -0.0709  0.5127  0.1878
16661SOL    HW151424   4.376   5.787   7.961 -1.0489  1.6212 -0.1696
16661SOL    HW251425   4.358   5.716   8.093  0.6288  0.0421 -0.7494
16662SOL     OW51426   3.460   6.340   5.702  0.3015 -0.5266 -0.1207
16662SOL    HW151427   3.495   6.422   5.667 -0.4914  0.2965  0.9537
16662SOL    HW251428   3.489   6.273   5.640  1.7025  0.4384 -0.5516
16663SOL     OW51429   5.937   6.074   6.184  0.1686  0.0246 -0.1812
16663SOL    HW151430   6.018   6.116   6.213  0.8065 -0.6162 -0.9600
16663SOL    HW251431   5.961   5.982   6.171 -0.3593  0.0552 -1.5720
16664SOL     OW51432   4.922   0.445   6.276 -0.8645 -0.3346 -0.1437
16664SOL    HW151433   4.844   0.408   6.236 -0.4446  0.1781 -1.5079
16664SOL    HW251434   4.935   0.528   6.231  0.2771 -0.2607  0.2844
16665SOL     OW51435   3.315   6.157   8.290 -0.2934  0.2394  0.3825
16665SOL    HW151436   3.389   6.198   8.245 -0.7585  0.9939  0.2875
16665SOL    HW251437   3.238   6.201   8.254 -0.8210 -0.8609  0.1502
16666SOL     OW51438   4.700   7.582   7.063  0.0177 -0.0122  0.0370
16666SOL    HW151439   4.699   7.591   6.968  0.3657 -2.5799 -0.2801
16666SOL    HW251440   4.723   7.669   7.095 -0.1838  0.9419 -2.1978
16667SOL     OW51441   4.313   6.883   7.034 -0.3081  0.4845  0.4791
16667SOL    HW151442   4.317   6.870   6.939  2.7993  0.8416  0.4618
16667SOL    HW251443   4.323   6.795   7.070 -1.8157  0.3067  0.5320
16668SOL     OW51444   5.016   5.491   7.121 -0.1941  0.1400  0.1113
16668SOL    HW151445   4.925   5.516   7.109  0.0239  1.2104  0.5925
16668SOL    HW251446   5.023   5.405   7.080 -1.1476  0.5436 -0.9330
16669SOL     OW51447   5.119   7.801   6.294  0.3355 -0.1256  0.2617
16669SOL    HW151448   5.089   7.835   6.210  0.8376  0.7336  0.4185
16669SOL    HW251449   5.107   7.874   6.355  0.5395 -0.5456  0.8163
16670SOL     OW51450   4.956   4.246   6.915  0.1208 -0.2113  0.4638
16670SOL    HW151451   4.967   4.151   6.906 -0.1468 -0.2278  0.3154
16670SOL    HW251452   4.885   4.256   6.978  1.0975 -0.0991  1.5906
16671SOL     OW51453   4.106   6.452   6.745  0.4352  0.5969 -0.7868
16671SOL    HW151454   4.065   6.433   6.660 -1.3440  0.6470  0.0028
16671SOL    HW251455   4.175   6.386   6.753 -2.4625 -2.7121 -0.2182
16672SOL     OW51456   6.878   7.062   6.717  0.3043  0.1848  0.1947
16672SOL    HW151457   6.969   7.089   6.708  0.9858 -1.2898  1.9828
16672SOL    HW251458   6.877   6.970   6.690 -0.8279  0.3909 -0.5439
16673SOL     OW51459   5.254   7.406   6.270 -0.3017 -0.3938 -0.3808
16673SOL    HW151460   5.276   7.313   6.257 -0.5176 -0.6363  0.8865
16673SOL    HW251461   5.334   7.453   6.248  1.4404 -1.2108  3.4236
16674SOL     OW51462   4.051   7.835   4.922 -0.0129  0.1415 -0.4222
16674SOL    HW151463   3.988   7.764   4.938  0.0755  0.0511 -0.4723
16674SOL    HW251464   4.136   7.790   4.918 -0.0287  0.1649 -1.1262
16675SOL     OW51465   4.112   6.178   7.297 -0.3811  0.5177 -0.3932
16675SOL    HW151466   4.189   6.202   7.348 -0.2280 -0.4783 -0.1354
16675SOL    HW251467   4.045   6.158   7.363  0.4986 -3.1245 -0.3936
16676SOL     OW51468   3.445   6.476   6.110  0.2260  0.0768 -0.1779
16676SOL    HW151469   3.475   6.527   6.034  1.2594 -1.1095 -0.5933
16676SOL    HW251470   3.374   6.528   6.146 -1.2878  0.0052 -2.8000
16677SOL     OW51471   5.135   5.229   6.745  0.5564 -0.3828 -0.2932
16677SOL    HW151472   5.080   5.193   6.675  1.6768  0.3698 -1.6336
16677SOL    HW251473   5.170   5.310   6.707  1.3186 -0.0316  1.1037
16678SOL     OW51474   4.376   7.261   6.688 -0.3565  0.5853 -0.6994
16678SOL    HW151475   4.352   7.224   6.603  0.8226 -0.3078 -0.6535
16678SOL    HW251476   4.301   7.240   6.745 -0.2795 -0.5968 -1.0097
16679SOL     OW51477   3.951   4.583   6.568 -0.1019  0.0802  0.3447
16679SOL    HW151478   4.041   4.603   6.595 -0.0577 -0.8257  0.9338
16679SOL    HW251479   3.958   4.499   6.523 -0.6516 -0.0225  0.4415
16680SOL     OW51480   4.006   7.773   6.401 -0.2070  0.2436 -0.5355
16680SOL    HW151481   4.078   7.804   6.346  0.3056 -1.9546 -1.1780
16680SOL    HW251482   3.950   7.723   6.342 -1.3183  0.4028  0.3409
16681SOL     OW51483   3.236   0.958   7.031  0.0766  0.5072  0.2869
16681SOL    HW151484   3.188   1.011   6.968  0.0296 -3.4201 -3.4956
16681SOL    HW251485   3.168   0.912   7.080  0.0041 -0.1221 -0.3853
16682SOL     OW51486   6.234   7.158   6.571 -0.6085  0.1681 -0.0666
16682SOL    HW151487   6.186   7.078   6.591  1.5579 -0.6611  2.4025
16682SOL    HW251488   6.214   7.217   6.644  0.9121  0.3422  0.2390
16683SOL     OW51489   3.815   7.295   7.241 -0.1100 -0.0162 -0.0321
16683SOL    HW151490   3.724   7.326   7.240  0.0730  0.5333 -0.1899
16683SOL    HW251491   3.863   7.365   7.285  0.2276 -0.3372  0.1078
16684SOL     OW51492   4.948   5.741   4.839  0.0090 -0.1033  0.3236
16684SOL    HW151493   4.870   5.688   4.855  0.3530 -1.5260 -2.1589
16684SOL    HW251494   4.914   5.822   4.801 -0.3118 -0.3516  0.0717
16685SOL     OW51495   5.364   0.141   6.402 -0.6126  0.3755  0.1641
16685SOL    HW151496   5.407   0.166   6.483 -1.4647  1.5024  0.3064
16685SOL    HW251497   5.394   0.206   6.338 -0.9701  0.3079 -0.0774
16686SOL     OW51498   4.970   5.969   8.496  0.0976 -0.5243  0.4996
16686SOL    HW151499   5.048   5.990   8.445 -0.2386  0.4639  0.3679
16686SOL    HW251500   4.992   5.889   8.543 -0.5216 -3.1042 -3.2614
16687SOL     OW51501   3.421   5.917   5.243 -0.1121 -0.5021  0.1054
16687SOL    HW151502   3.394   5.939   5.332 -1.2888 -1.6731  0.0686
16687SOL    HW251503   3.374   5.979   5.187 -1.1812 -1.2154  0.1802
16688SOL     OW51504   3.589   5.940   5.608  0.0613  0.5048 -0.3600
16688SOL    HW151505   3.607   5.860   5.559 -1.1756  0.5999 -1.0198
16688SOL    HW251506   3.581   5.911   5.699  2.8207  0.3910 -0.0792
16689SOL     OW51507   6.237   7.638   5.765  0.3412 -0.6454 -0.2020
16689SOL    HW151508   6.170   7.670   5.825  0.5731 -0.3230 -0.1141
16689SOL    HW251509   6.213   7.547   5.748  1.0671 -1.1939  1.5264
16690SOL     OW51510   3.261   7.220   5.294  0.1823  0.0875  0.2532
16690SOL    HW151511   3.177   7.240   5.336 -0.2186  1.5643 -1.1378
16690SOL    HW251512   3.280   7.130   5.320 -0.6312  0.5200  2.5428
16691SOL     OW51513   6.812   4.359   6.437 -0.3594 -0.4374  0.0520
16691SOL    HW151514   6.733   4.406   6.409  0.5464  0.6804 -0.6899
16691SOL    HW251515   6.853   4.417   6.500  0.0607 -0.8514  0.1611
16692SOL     OW51516   3.187   6.861   8.250 -0.5450 -0.5617  0.0874
16692SOL    HW151517   3.137   6.926   8.300  0.3760  0.1951  0.0509
16692SOL    HW251518   3.262   6.840   8.305  0.2513 -0.0434 -0.7780
16693SOL     OW51519   3.749   6.989   8.359 -0.3808  0.1846 -1.0154
16693SOL    HW151520   3.705   7.035   8.430  0.6124  0.5670 -0.6283
16693SOL    HW251521   3.805   7.055   8.319  0.1559 -0.3848 -1.2277
16694SOL     OW51522   3.669   5.011   5.350  0.5303  0.1816  0.5174
16694SOL    HW151523   3.697   4.920   5.363  0.8866  0.3677  1.0755
16694SOL    HW251524   3.653   5.044   5.438 -0.2889  0.4497  0.2758
16695SOL     OW51525   5.756   5.398   8.048  0.4278 -0.7434  0.3369
16695SOL    HW151526   5.767   5.446   7.966 -1.3036  0.4446  0.7433
16695SOL    HW251527   5.667   5.364   8.044 -0.5065  1.1875  2.6019
16696SOL     OW51528   5.167   6.989   7.093  0.3149 -0.2101  0.0721
16696SOL    HW151529   5.102   7.054   7.119 -0.7019 -0.0307 -2.5674
16696SOL    HW251530   5.233   7.040   7.046  0.6087 -0.8226 -0.1802
16697SOL     OW51531   6.238   5.436   9.028  0.3979  0.5500  0.4862
16697SOL    HW151532   6.296   5.361   9.044 -1.7499 -0.9745  1.6540
16697SOL    HW251533   6.268   5.503   9.089  2.2649  0.6263 -0.4677
16698SOL     OW51534   4.906   7.034   8.300  0.0989  0.5219  0.1305
16698SOL    HW151535   4.892   7.007   8.391  0.3222  0.1732  0.0673
16698SOL    HW251536   4.819   7.031   8.260  0.2241 -1.0147 -0.1066
16699SOL     OW51537   4.288   6.234   6.758  0.0250  0.4113  0.5299
16699SOL    HW151538   4.247   6.183   6.828  0.2755  0.9578  1.0815
16699SOL    HW251539   4.333   6.169   6.705  1.3166  0.1517  1.8799
16700SOL     OW51540   5.221   7.523   7.955  0.2549 -0.1151 -0.1278
16700SOL    HW151541   5.299   7.544   7.905 -1.0726  0.6198 -1.9981
16700SOL    HW251542   5.165   7.600   7.946 -0.1473 -0.0255  2.3895
16701SOL     OW51543   4.094   6.333   4.835 -0.3726  0.1398  0.1133
16701SOL    HW151544   4.150   6.262   4.866 -1.1650 -1.5737 -2.1008
16701SOL    HW251545   4.018   6.288   4.797 -1.3465  2.2313 -0.5472
16702SOL     OW51546   3.730   5.403   5.715  0.0406 -0.6045  0.0791
16702SOL    HW151547   3.794   5.469   5.690  0.2135 -0.8835 -0.2227
16702SOL    HW251548   3.783   5.329   5.747 -0.1642 -0.3982  0.9106
16703SOL     OW51549   3.475   7.064   4.533 -0.0130  0.2133  0.3747
16703SOL    HW151550   3.479   7.018   4.449  0.6806  0.1246  0.4562
16703SOL    HW251551   3.558   7.110   4.539  0.2228 -0.3228  1.3241
16704SOL     OW51552   3.241   5.339   5.813 -0.8657  0.1893 -0.7456
16704SOL    HW151553   3.238   5.248   5.783  0.4903  0.2682 -1.2122
16704SOL    HW251554   3.239   5.333   5.909  2.0091 -0.5677 -0.6343
16705SOL     OW51555   4.512   5.602   5.545 -0.1410 -0.0666 -0.4318
16705SOL    HW151556   4.513   5.507   5.540  0.1979 -0.1106  0.3510
16705SOL    HW251557   4.536   5.622   5.635  0.3011  0.7768 -0.7236
16706SOL     OW51558   5.439   7.240   7.299 -0.0262 -0.4341  0.1245
16706SOL    HW151559   5.416   7.215   7.209  0.0383 -2.8805  0.7279
16706SOL    HW251560   5.529   7.211   7.309 -0.5113 -1.5960  1.4269
16707SOL     OW51561   5.949   0.225   5.799  0.0717 -0.0148 -0.2561
16707SOL    HW151562   5.922   0.166   5.728 -1.7315  0.4451 -0.0021
16707SOL    HW251563   5.978   0.166   5.868 -0.7787 -0.5990 -0.3693
16708SOL     OW51564   3.993   7.794   7.562 -0.4648  0.1514 -0.1328
16708SOL    HW151565   3.903   7.760   7.559  0.6630 -3.0522 -0.7148
16708SOL    HW251566   4.015   7.813   7.471 -0.4046  0.6071 -0.0285
16709SOL     OW51567   4.349   7.462   6.142  0.2590  0.3940  0.3056
16709SOL    HW151568   4.254   7.468   6.155  0.1583  0.7494 -0.5342
16709SOL    HW251569   4.381   7.421   6.222 -0.2181  3.2024  2.0900
16710SOL     OW51570   4.683   6.812   8.133 -0.1206 -0.2598  0.1026
16710SOL    HW151571   4.767   6.837   8.092 -0.0740  0.5707  0.6921
16710SOL    HW251572   4.626   6.791   8.059  0.4834 -0.4455 -0.3217
16711SOL     OW51573   3.923   5.823   5.865 -0.0318 -0.3246 -0.0720
16711SOL    HW151574   3.933   5.750   5.803  3.2477 -0.4371  0.3897
16711SOL    HW251575   3.900   5.780   5.948 -3.1670 -0.2779 -0.8018
16712SOL     OW51576   5.620   6.388   7.081 -0.1994  0.0355  0.2761
16712SOL    HW151577   5.612   6.440   7.001  1.5384  0.5103  0.3791
16712SOL    HW251578   5.635   6.299   7.051 -0.1036  0.1209  0.0698
16713SOL     OW51579   4.072   4.887   6.351  0.1598 -0.2443  0.0828
16713SOL    HW151580   4.121   4.807   6.330 -0.9579 -1.2729  1.2049
16713SOL    HW251581   3.980   4.863   6.337 -0.1630  1.0074 -0.0181
16714SOL     OW51582   3.826   4.961   6.079 -0.0922 -0.3209  0.2938
16714SOL    HW151583   3.871   4.897   6.024 -0.4176 -1.0976  0.9160
16714SOL    HW251584   3.747   4.915   6.109 -0.6502  0.5845  0.2413
16715SOL     OW51585   7.321   0.365   6.466  0.2028  0.1044 -0.0826
16715SOL    HW151586   7.279   0.373   6.380  0.8060 -0.2245 -0.4200
16715SOL    HW251587   7.316   0.453   6.503 -0.7925  0.0593 -0.1012
16716SOL     OW51588   5.146   4.619   8.772 -0.2562 -0.6309 -0.2384
16716SOL    HW151589   5.074   4.667   8.731 -0.0345  1.5641  1.6811
16716SOL    HW251590   5.139   4.530   8.737 -1.9433  0.2819 -2.4838
16717SOL     OW51591   4.498   7.064   7.133 -0.4445  0.4569  0.2566
16717SOL    HW151592   4.534   7.103   7.053 -0.8341 -1.6073 -0.9954
16717SOL    HW251593   4.423   7.013   7.104  0.5848 -2.0159  1.5866
16718SOL     OW51594   4.252   0.327   7.518 -0.5016 -0.4911 -0.2684
16718SOL    HW151595   4.218   0.238   7.504 -2.2098  0.0177  0.3430
16718SOL    HW251596   4.204   0.358   7.595 -0.1224  1.0503 -0.6351
16719SOL     OW51597   6.153   6.836   6.488 -0.2225 -0.1397  0.1003
16719SOL    HW151598   6.182   6.799   6.404 -0.6043 -0.2731  0.0272
16719SOL    HW251599   6.202   6.788   6.554  0.1275  0.0081 -0.0484
16720SOL     OW51600   5.806   5.838   5.276 -0.3259  0.2233 -0.6286
16720SOL    HW151601   5.732   5.778   5.286 -0.3223  0.0799 -1.4443
16720SOL    HW251602   5.795   5.876   5.189 -0.1943  1.2366 -0.2199
16721SOL     OW51603   4.902   6.530   6.426 -0.1552 -0.0209 -0.1202
16721SOL    HW151604   4.894   6.443   6.465 -0.3099 -0.4700 -1.1334
16721SOL    HW251605   4.932   6.586   6.498  0.5302 -1.0250  0.3896
16722SOL     OW51606   5.562   6.343   7.349  0.0741  0.2124 -0.4894
16722SOL    HW151607   5.563   6.360   7.255 -1.6194  1.3256 -0.3375
16722SOL    HW251608   5.469   6.333   7.371  0.5111 -1.5174  0.8329
16723SOL     OW51609   5.248   7.087   6.274 -0.9557  0.7767 -0.0487
16723SOL    HW151610   5.327   7.054   6.231 -0.3343  1.1087  0.8261
16723SOL    HW251611   5.192   7.010   6.283 -1.3465  0.7879 -1.9247
16724SOL     OW51612   0.088   7.163   8.085 -0.7052 -0.0580  0.2326
16724SOL    HW151613   0.034   7.150   8.007  0.4908  0.3741 -0.7038
16724SOL    HW251614   0.104   7.257   8.088  2.0312 -0.3709 -1.0091
16725SOL     OW51615   3.915   6.987   7.799 -0.3602 -0.2665 -1.0202
16725SOL    HW151616   3.875   6.941   7.726  0.8310 -1.4987 -0.9383
16725SOL    HW251617   3.870   6.954   7.876  0.1529 -0.9730 -1.0053
16726SOL     OW51618   3.642   6.429   6.675 -0.1811 -0.2489 -0.0253
16726SOL    HW151619   3.736   6.420   6.693 -0.4351 -3.9868  0.2907
16726SOL    HW251620   3.600   6.406   6.757 -1.3717 -0.0406 -0.5621
16727SOL     OW51621   5.092   5.588   7.649 -0.0804 -0.3576 -0.1149
16727SOL    HW151622   5.141   5.670   7.645 -0.2435 -0.1021  1.8792
16727SOL    HW251623   5.065   5.571   7.559  0.1603  1.6595 -0.6143
16728SOL     OW51624   5.284   6.461   6.518 -0.5518 -0.2552  0.4745
16728SOL    HW151625   5.228   6.472   6.442 -1.7477  0.7137  1.4537
16728SOL    HW251626   5.350   6.397   6.490 -2.3106 -1.6986 -0.5963
16729SOL     OW51627   7.011   0.118   4.953  0.0166 -0.1190 -0.2375
16729SOL    HW151628   7.043   0.029   4.940  0.3296  0.1316 -1.2937
16729SOL    HW251629   6.933   0.108   5.007  1.7346 -0.7622  2.2779
16730SOL     OW51630   3.948   5.228   6.396  0.2049  0.2659 -0.2530
16730SOL    HW151631   4.028   5.202   6.441 -0.4389 -1.3021  0.0352
16730SOL    HW251632   3.886   5.157   6.413 -0.6885  0.5731 -1.9528
16731SOL     OW51633   6.523   7.613   7.037  0.0809 -0.1008 -0.3761
16731SOL    HW151634   6.551   7.679   7.100 -0.5930 -0.6823  0.5522
16731SOL    HW251635   6.588   7.618   6.967  0.1845  1.3651 -0.2112
16732SOL     OW51636   4.271   7.487   7.984 -0.4992 -0.4410  0.6027
16732SOL    HW151637   4.347   7.492   8.042  1.3465  2.5415 -1.7404
16732SOL    HW251638   4.290   7.414   7.925 -0.3656 -0.8773  1.1835
16733SOL     OW51639   1.875   5.599   6.189  0.3568  0.2471 -0.2755
16733SOL    HW151640   1.847   5.542   6.117  1.4369 -0.2141 -0.3511
16733SOL    HW251641   1.938   5.546   6.237 -0.6316  0.4015  1.2662
16734SOL     OW51642   4.933   6.712   5.728 -0.0442 -0.8877 -0.1927
16734SOL    HW151643   4.891   6.651   5.667  0.0171 -1.1179 -0.0077
16734SOL    HW251644   4.997   6.658   5.775  1.0502 -0.3721 -1.0315
16735SOL     OW51645   4.560   1.517   7.909 -0.0820  0.4888 -0.1513
16735SOL    HW151646   4.563   1.613   7.907 -2.4179  0.8245  3.6785
16735SOL    HW251647   4.604   1.493   7.990  0.9933 -1.8376 -1.3131
16736SOL     OW51648   6.213   7.268   7.645  0.3107 -0.1646  0.2614
16736SOL    HW151649   6.257   7.183   7.648  2.6775  0.9982  2.3602
16736SOL    HW251650   6.192   7.288   7.737  2.2056  2.5897  0.2286
16737SOL     OW51651   4.903   5.649   5.491 -0.3684  0.2552  0.0672
16737SOL    HW151652   4.864   5.628   5.576 -0.6849 -0.7075 -0.3002
16737SOL    HW251653   4.871   5.580   5.432  0.7031  0.2882 -0.5827
16738SOL     OW51654   3.754   5.246   6.142 -0.6452  0.2096 -0.0068
16738SOL    HW151655   3.677   5.208   6.186 -0.5678 -2.2511 -1.7795
16738SOL    HW251656   3.808   5.171   6.119  2.1196  1.8320  0.7001
16739SOL     OW51657   4.573   7.164   5.550  0.1044  0.0251  0.5336
16739SOL    HW151658   4.559   7.102   5.622 -1.1041 -1.8244 -1.1600
16739SOL    HW251659   4.660   7.144   5.518  0.7814  1.0842  1.6360
16740SOL     OW51660   5.546   6.518   8.486  0.6335  0.2858  0.1619
16740SOL    HW151661   5.525   6.460   8.413 -0.3304 -0.2310  0.8264
16740SOL    HW251662   5.596   6.589   8.446  0.3964 -0.1428 -0.9459
16741SOL     OW51663   5.630   6.958   7.428 -0.5196  0.2794 -0.0715
16741SOL    HW151664   5.605   6.982   7.517 -0.9639 -0.9838  0.1657
16741SOL    HW251665   5.668   7.038   7.391  0.7682  0.5028  1.6215
16742SOL     OW51666   4.642   4.794   7.670  0.5298 -0.4115  0.1921
16742SOL    HW151667   4.645   4.698   7.674  2.8101 -0.3680  0.6565
16742SOL    HW251668   4.693   4.823   7.745 -1.9125  1.2597  1.3252
16743SOL     OW51669   5.353   7.751   5.515  0.1861  0.3200 -0.9109
16743SOL    HW151670   5.384   7.662   5.532  1.3266  0.5113 -1.8834
16743SOL    HW251671   5.347   7.791   5.602  0.3755 -0.4697 -0.5262
16744SOL     OW51672   3.650   5.520   6.780  0.1914 -0.0942  0.0881
16744SOL    HW151673   3.734   5.498   6.738  0.9756  1.4510  0.7792
16744SOL    HW251674   3.631   5.445   6.836  1.1850 -0.3980  0.0410
16745SOL     OW51675   5.024   7.202   6.829  0.4598 -0.3112  0.0214
16745SOL    HW151676   5.110   7.179   6.863  0.0812 -1.1904  0.4055
16745SOL    HW251677   5.005   7.133   6.765 -0.9713 -1.4955  1.6561
16746SOL     OW51678   4.360   5.807   7.250  0.4695  0.3184  0.5301
16746SOL    HW151679   4.434   5.777   7.302  1.6827  3.1240  0.6183
16746SOL    HW251680   4.399   5.840   7.169 -1.2391 -2.7198 -1.7545
16747SOL     OW51681   5.203   6.015   9.145 -0.2528  0.2180  0.1156
16747SOL    HW151682   5.264   5.993   9.216  1.9181  2.8003 -0.7652
16747SOL    HW251683   5.158   6.094   9.177 -1.7410 -0.5427 -0.0559
16748SOL     OW51684   5.035   6.281   7.391  0.3987  0.2884  0.5272
16748SOL    HW151685   5.015   6.235   7.473 -0.3290  2.0706  1.4023
16748SOL    HW251686   5.045   6.211   7.326  0.8006 -1.1657  2.0803
16749SOL     OW51687   7.103   7.039   7.439 -0.2151  0.2220  0.0327
16749SOL    HW151688   7.082   6.987   7.362 -0.3645  0.0763  0.1721
16749SOL    HW251689   7.032   7.103   7.444 -0.4197 -0.0260  0.2834
16750SOL     OW51690   2.728   5.514   7.356  0.1034  0.1334  0.1860
16750SOL    HW151691   2.774   5.482   7.278 -0.2744 -0.6980  0.2904
16750SOL    HW251692   2.686   5.436   7.392  0.7019  0.3980  1.5262
16751SOL     OW51693   5.946   5.236   7.828 -0.0594  0.4011 -0.2252
16751SOL    HW151694   5.895   5.205   7.902  1.9869  0.9629  1.5066
16751SOL    HW251695   5.894   5.212   7.751 -2.2402 -0.2008  1.3625
16752SOL     OW51696   3.943   6.439   5.099  0.1839 -0.6166 -0.0050
16752SOL    HW151697   3.956   6.469   5.008  0.2706  0.0325  0.2165
16752SOL    HW251698   3.869   6.379   5.094 -1.5709  1.4134 -0.1151
16753SOL     OW51699   4.550   5.716   7.435  0.1390  0.0617  0.5698
16753SOL    HW151700   4.639   5.750   7.434 -0.3016  1.3496 -1.8455
16753SOL    HW251701   4.560   5.621   7.441  1.6285  0.2228  0.9064
16754SOL     OW51702   5.953   5.733   5.920 -0.2137 -0.3045  0.1241
16754SOL    HW151703   5.951   5.804   5.855 -0.6993 -0.7333 -0.3365
16754SOL    HW251704   5.966   5.778   6.004  2.5891  0.1309 -0.4521
16755SOL     OW51705   5.018   7.241   8.569 -0.0053  0.3067  0.6601
16755SOL    HW151706   4.992   7.270   8.481 -0.0652  0.0150  0.5810
16755SOL    HW251707   5.060   7.318   8.608 -0.6347  0.6601  0.6459
16756SOL     OW51708   4.857   5.139   6.665  0.0115 -0.2666  0.1759
16756SOL    HW151709   4.797   5.193   6.716 -2.1450 -0.1985 -2.2282
16756SOL    HW251710   4.801   5.093   6.602  2.4239 -0.6437 -1.8704
16757SOL     OW51711   4.902   6.123   5.197  0.2973  0.1928 -0.6938
16757SOL    HW151712   4.853   6.116   5.279  1.4418 -0.2811 -0.0271
16757SOL    HW251713   4.837   6.153   5.133 -0.7123  0.1737  0.2855
16758SOL     OW51714   3.958   7.453   7.424 -0.3200 -0.3896  0.1348
16758SOL    HW151715   3.939   7.420   7.512 -0.5310 -1.6220 -0.3495
16758SOL    HW251716   4.042   7.414   7.401 -0.5817 -0.6229 -0.4589
16759SOL     OW51717   5.265   5.888   6.237  0.0136  0.2769 -0.6121
16759SOL    HW151718   5.279   5.796   6.213 -1.5898 -0.0869 -0.2542
16759SOL    HW251719   5.261   5.888   6.332  1.9654  1.0604 -0.4747
16760SOL     OW51720   2.883   5.004   5.242  0.2437  0.4687  0.2141
16760SOL    HW151721   2.845   5.090   5.228 -0.7150  0.0968  0.4694
16760SOL    HW251722   2.834   4.945   5.185  1.2492  0.1669 -0.3655
16761SOL     OW51723   5.063   5.302   8.152  0.3955 -0.1962  0.1041
16761SOL    HW151724   5.044   5.221   8.200 -1.3855 -0.6730 -1.2985
16761SOL    HW251725   5.144   5.284   8.104  0.1205 -1.0870 -0.0366
16762SOL     OW51726   5.025   5.787   5.113 -0.0379  0.4745  0.2346
16762SOL    HW151727   5.006   5.777   5.019 -0.4733 -1.2581  0.4764
16762SOL    HW251728   4.941   5.811   5.152 -0.1830 -0.1958  0.3518
16763SOL     OW51729   4.077   7.529   6.139 -0.5909  0.5492  0.3705
16763SOL    HW151730   4.049   7.585   6.066 -0.5488 -1.7746 -1.5542
16763SOL    HW251731   3.999   7.479   6.162  0.0615 -0.5938  0.1345
16764SOL     OW51732   4.202   6.700   7.939 -0.4781 -0.3398 -0.6680
16764SOL    HW151733   4.241   6.695   7.852  0.8269  0.2971 -0.1353
16764SOL    HW251734   4.267   6.661   7.997 -2.0350 -2.3643 -0.1474
16765SOL     OW51735   5.886   7.204   6.857  0.5373  0.1533  0.4037
16765SOL    HW151736   5.845   7.237   6.777  0.6623  0.3755  0.4319
16765SOL    HW251737   5.812   7.178   6.913  0.4526 -0.1414  0.1601
16766SOL     OW51738   5.925   0.210   6.802 -0.0223 -0.4387 -0.0666
16766SOL    HW151739   5.913   0.228   6.709 -0.1259  0.0865  0.0479
16766SOL    HW251740   6.018   0.185   6.809 -0.2909 -1.6188 -0.4817
16767SOL     OW51741   2.752   4.539   5.945  0.5028 -0.5930  0.0908
16767SOL    HW151742   2.798   4.529   6.028  0.5149 -1.4150 -0.0055
16767SOL    HW251743   2.815   4.582   5.887  0.8828 -1.0315  0.1788
16768SOL     OW51744   3.822   6.239   5.673 -0.4222 -0.7093  0.1279
16768SOL    HW151745   3.857   6.328   5.675  0.2749 -0.9792  1.7492
16768SOL    HW251746   3.761   6.239   5.599  0.5116  0.7365 -0.6949
16769SOL     OW51747   5.024   5.557   6.213 -0.1834  0.0335  0.3826
16769SOL    HW151748   4.981   5.529   6.132  0.4773 -2.1237  0.7336
16769SOL    HW251749   5.108   5.591   6.185  0.2226 -1.1074  0.1650
16770SOL     OW51750   2.525   6.632   6.314 -0.3931  0.2753  0.4092
16770SOL    HW151751   2.454   6.659   6.373  0.0214  0.5007  0.8138
16770SOL    HW251752   2.553   6.547   6.348  1.0607  1.2163  1.6744
16771SOL     OW51753   6.148   5.713   7.721 -0.5090  0.0483  0.2082
16771SOL    HW151754   6.167   5.756   7.805 -1.0991  0.1521  0.2896
16771SOL    HW251755   6.196   5.630   7.726 -0.1021  0.2892  0.4231
16772SOL     OW51756   4.136   6.816   6.312 -0.3676 -0.3495 -0.4905
16772SOL    HW151757   4.202   6.747   6.321  0.3299  0.4836  1.1756
16772SOL    HW251758   4.067   6.791   6.373 -0.2933  0.2310 -0.1720
16773SOL     OW51759   4.274   6.557   6.416  0.1851 -0.0019 -0.3392
16773SOL    HW151760   4.264   6.564   6.511  1.0750 -0.3760 -0.2111
16773SOL    HW251761   4.208   6.493   6.390 -1.4534  1.5625 -0.2633
16774SOL     OW51762   5.320   7.452   6.808  0.5861  0.0314  0.8731
16774SOL    HW151763   5.303   7.402   6.729 -1.7531  0.6375  0.9308
16774SOL    HW251764   5.334   7.385   6.876 -0.1284 -0.5299  0.4811
16775SOL     OW51765   2.928   4.876   4.462  0.1875  0.6896  0.1704
16775SOL    HW151766   2.847   4.826   4.471  1.2212 -1.3982 -1.3317
16775SOL    HW251767   2.993   4.812   4.434  2.1782  2.4607  0.4949
16776SOL     OW51768   3.434   5.496   5.686 -0.0904 -0.0036  0.0589
16776SOL    HW151769   3.519   5.503   5.730  0.3153  2.4446 -0.9653
16776SOL    HW251770   3.381   5.443   5.745  0.1771  3.5725  3.9457
16777SOL     OW51771   5.308   4.841   6.676 -0.4126  0.1560  0.1374
16777SOL    HW151772   5.258   4.761   6.691  0.7629 -0.7454 -0.5290
16777SOL    HW251773   5.247   4.900   6.631 -1.0092 -0.7280 -0.2320
16778SOL     OW51774   6.080   7.371   6.701 -0.9838 -0.4027 -0.1649
16778SOL    HW151775   6.073   7.292   6.755 -0.0925 -1.0257 -0.9368
16778SOL    HW251776   6.034   7.438   6.751 -2.3075 -1.5480  0.2283
16779SOL     OW51777   4.418   7.851   7.866 -0.6783  0.5113 -0.4034
16779SOL    HW151778   4.365   7.798   7.806  1.5480 -1.7515 -0.5273
16779SOL    HW251779   4.450   7.923   7.812  0.3522 -0.8575 -1.6973
16780SOL     OW51780   4.700   6.449   7.164  0.3921 -0.2938  0.0122
16780SOL    HW151781   4.618   6.418   7.126 -0.8952  0.7478  1.8337
16780SOL    HW251782   4.759   6.457   7.088 -1.5405  0.1369 -1.5386
16781SOL     OW51783   4.499   1.552   8.723 -0.1444  0.0120  0.3620
16781SOL    HW151784   4.404   1.546   8.735  0.0636 -2.6210  1.1125
16781SOL    HW251785   4.510   1.582   8.633 -1.7321 -2.3640 -0.7103
16782SOL     OW51786   3.967   6.021   5.315  0.5110  0.3951  0.1956
16782SOL    HW151787   3.977   5.947   5.256  0.3628  2.1465 -2.1393
16782SOL    HW251788   4.056   6.057   5.325  0.3346  0.9609 -0.1815
16783SOL     OW51789   6.394   0.483   7.268 -0.2957  0.2104 -0.0556
16783SOL    HW151790   6.446   0.405   7.252 -0.1231 -0.0152  1.4635
16783SOL    HW251791   6.309   0.464   7.229  0.7764  0.7361 -2.9181
16784SOL     OW51792   5.456   0.017   8.400 -0.3790  0.2575  0.3278
16784SOL    HW151793   5.517   0.024   8.473 -0.7767  2.1324  0.5343
16784SOL    HW251794   5.475   0.093   8.345 -1.6545  0.1709 -0.2808
16785SOL     OW51795   6.104   6.168   7.468  0.2599  0.4116  0.0652
16785SOL    HW151796   6.046   6.106   7.514  0.3099 -1.0069 -1.6762
16785SOL    HW251797   6.106   6.245   7.525 -1.8150 -0.2154  1.1030
16786SOL     OW51798   4.623   7.380   7.722 -0.1754  0.5955 -0.1168
16786SOL    HW151799   4.698   7.357   7.667 -0.8481 -1.4066 -0.2488
16786SOL    HW251800   4.631   7.324   7.799 -1.4699  0.4436 -0.0765
16787SOL     OW51801   3.284   7.512   5.782  0.2877  0.6648 -0.0581
16787SOL    HW151802   3.268   7.604   5.802  1.6684  1.2402 -1.3523
16787SOL    HW251803   3.236   7.497   5.700  0.5694  0.4158 -0.1803
16788SOL     OW51804   3.061   0.347   8.735 -0.2662  0.6712 -0.2263
16788SOL    HW151805   3.107   0.430   8.750  1.3055  0.1948 -2.1131
16788SOL    HW251806   3.049   0.342   8.641 -2.3322 -0.2673  0.0268
16789SOL     OW51807   4.392   5.951   6.731  0.3898 -0.0332  0.7106
16789SOL    HW151808   4.386   5.919   6.821  2.8175 -3.5928 -0.2209
16789SOL    HW251809   4.318   5.910   6.686 -0.0846  0.7452  0.7489
16790SOL     OW51810   4.311   6.818   5.402 -0.2933  0.8510 -0.6510
16790SOL    HW151811   4.252   6.892   5.414 -0.3378  0.7270 -0.0795
16790SOL    HW251812   4.353   6.834   5.318  1.0809  2.5000  0.2835
16791SOL     OW51813   3.930   0.427   8.213  0.3183 -0.0018  0.3720
16791SOL    HW151814   3.914   0.520   8.198  0.2375  0.0911  0.9972
16791SOL    HW251815   4.014   0.410   8.172  0.6925  0.5225  0.9115
16792SOL     OW51816   3.826   6.459   5.440 -0.0955  0.1131 -0.4198
16792SOL    HW151817   3.899   6.399   5.430  0.0110 -0.1710  1.6830
16792SOL    HW251818   3.749   6.408   5.413 -0.0642 -1.1826  1.6923
16793SOL     OW51819   6.504   6.948   8.092 -0.2059  0.0285  0.1748
16793SOL    HW151820   6.455   6.866   8.093  0.3285 -0.3855  3.4361
16793SOL    HW251821   6.593   6.922   8.069 -0.1526 -0.2365  0.6680
16794SOL     OW51822   4.745   6.860   5.553 -0.1766 -0.0465  0.4202
16794SOL    HW151823   4.818   6.831   5.609 -0.7871 -1.3227  0.6010
16794SOL    HW251824   4.769   6.828   5.465 -0.1944  0.1507  0.3433
16795SOL     OW51825   3.555   5.807   7.801  0.1173 -0.1701  0.0323
16795SOL    HW151826   3.530   5.898   7.792  2.2516  0.4423 -0.1603
16795SOL    HW251827   3.478   5.758   7.772  0.4367  1.5593 -4.6305
16796SOL     OW51828   5.652   0.432   6.147 -0.5336  0.7758  0.1357
16796SOL    HW151829   5.632   0.414   6.055  0.0126 -0.0738  0.1772
16796SOL    HW251830   5.679   0.348   6.183  0.6742  1.3925  0.7178
16797SOL     OW51831   4.999   6.488   7.074  0.2565 -0.3165  0.1519
16797SOL    HW151832   4.994   6.488   7.170 -2.9469 -2.5679  0.1664
16797SOL    HW251833   5.041   6.405   7.052  0.0899 -0.2614 -0.3838
16798SOL     OW51834   5.079   4.942   5.773 -0.4270 -0.2501 -0.3665
16798SOL    HW151835   4.998   4.989   5.795 -0.6485  0.5617 -2.6119
16798SOL    HW251836   5.050   4.854   5.747 -0.5226 -0.1776 -0.5062
16799SOL     OW51837   3.616   7.974   6.290 -0.0734  0.1531 -0.0627
16799SOL    HW151838   3.628   7.896   6.344  0.8417  0.4412  0.1763
16799SOL    HW251839   3.563   8.033   6.343 -1.5868 -0.6639 -0.6242
16800SOL     OW51840   7.537   7.719   8.038 -0.4025  0.6248 -0.0567
16800SOL    HW151841   7.595   7.648   8.009 -0.1688  0.5760  0.5018
16800SOL    HW251842   7.480   7.737   7.964 -0.0480  0.2736 -0.4156
16801SOL     OW51843   3.665   6.887   6.315  0.1813  0.6913 -1.0217
16801SOL    HW151844   3.721   6.851   6.246 -0.8814  0.1878 -1.6470
16801SOL    HW251845   3.676   6.828   6.389  1.8521  1.6128 -0.4950
16802SOL     OW51846   4.339   6.540   8.144  0.0610 -0.0187 -0.5338
16802SOL    HW151847   4.272   6.480   8.109 -1.0392  1.0008 -0.2487
16802SOL    HW251848   4.421   6.491   8.137 -0.6718 -1.2134 -1.1381
16803SOL     OW51849   3.021   6.839   7.130  0.4622  0.0220 -0.1658
16803SOL    HW151850   3.106   6.878   7.147 -0.0258  1.8310 -1.4974
16803SOL    HW251851   3.038   6.771   7.065  1.0892 -0.8185  0.8504
16804SOL     OW51852   5.171   5.712   5.675  0.5232 -0.4159  0.1307
16804SOL    HW151853   5.141   5.698   5.765 -0.1150 -1.6680 -0.2556
16804SOL    HW251854   5.093   5.699   5.621  1.3623 -2.2039 -0.7723
16805SOL     OW51855   5.473   6.997   6.679  0.5938 -0.9296  0.3241
16805SOL    HW151856   5.389   6.954   6.697  0.3512 -0.0985  1.3000
16805SOL    HW251857   5.478   7.067   6.745  2.4379 -1.4988  0.8384
16806SOL     OW51858   2.931   4.992   7.127 -0.1322  0.0804 -0.5683
16806SOL    HW151859   2.908   4.941   7.049  0.6495 -2.5583  0.7932
16806SOL    HW251860   3.021   5.019   7.112 -0.1526  0.0287 -0.7900
16807SOL     OW51861   4.554   7.212   6.914 -0.2964 -0.0637  0.1864
16807SOL    HW151862   4.463   7.242   6.916 -0.9509 -1.8745 -0.6460
16807SOL    HW251863   4.584   7.235   6.825 -0.9308 -2.0865 -0.6035
16808SOL     OW51864   4.925   6.864   8.031  0.3936  0.5832  0.0233
16808SOL    HW151865   4.971   6.842   7.950  0.5292  1.3005 -0.0955
16808SOL    HW251866   4.970   6.942   8.064 -0.9540  1.5238 -0.2838
16809SOL     OW51867   4.997   6.748   6.141 -0.0608 -0.1191  0.0560
16809SOL    HW151868   5.064   6.808   6.106  0.4546 -0.2278  0.8322
16809SOL    HW251869   4.938   6.733   6.067 -0.2277  1.3740 -0.1478
16810SOL     OW51870   2.483   6.422   7.435  0.0766  0.2733  0.3950
16810SOL    HW151871   2.524   6.388   7.515 -0.1194 -0.0628  0.3499
16810SOL    HW251872   2.553   6.420   7.370 -0.1729 -0.8930  0.1483
16811SOL     OW51873   6.700   0.878   5.113 -0.3238  0.9973 -0.3186
16811SOL    HW151874   6.707   0.971   5.091  2.0853  0.3805 -2.7220
16811SOL    HW251875   6.785   0.856   5.150 -1.1683 -0.1070  1.0667
16812SOL     OW51876   5.134   7.271   7.450 -0.0519  0.0992 -0.4152
16812SOL    HW151877   5.200   7.318   7.502  0.0235 -0.6055  0.1342
16812SOL    HW251878   5.151   7.299   7.360 -0.3433  1.5301 -0.0550
16813SOL     OW51879   4.534   0.063   8.345 -0.1765 -0.6572  0.1291
16813SOL    HW151880   4.526  -0.026   8.380 -1.5304 -0.3352  0.7289
16813SOL    HW251881   4.517   0.119   8.421 -0.5603  0.0955 -0.5060
16814SOL     OW51882   4.971   6.698   6.643 -0.4015 -0.2662 -0.3497
16814SOL    HW151883   5.061   6.706   6.675 -0.5570 -0.1630  0.0654
16814SOL    HW251884   4.932   6.784   6.657 -0.6512 -0.3925 -0.2707
16815SOL     OW51885   3.986   7.018   6.183  0.1099  0.4430 -0.4197
16815SOL    HW151886   3.954   7.007   6.094 -2.8620  0.1847  0.5535
16815SOL    HW251887   4.025   6.934   6.205  1.3226  0.6654 -1.5819
16816SOL     OW51888   6.134   4.381   8.097 -0.2251  0.6130 -0.1669
16816SOL    HW151889   6.084   4.327   8.035  0.0858  0.7093 -0.5090
16816SOL    HW251890   6.079   4.386   8.175 -0.0158 -0.6549  0.0787
16817SOL     OW51891   6.209   6.696   6.255 -0.0251 -0.3962 -0.2315
16817SOL    HW151892   6.204   6.601   6.251 -1.5761 -0.3339 -0.5014
16817SOL    HW251893   6.189   6.725   6.166 -0.5083  0.1903  0.0591
16818SOL     OW51894   5.938   6.790   6.146 -0.2701 -0.0318  0.0346
16818SOL    HW151895   5.986   6.866   6.177  0.3484 -0.6647  0.6757
16818SOL    HW251896   5.879   6.768   6.218  0.3317 -0.8039  0.3034
16819SOL     OW51897   4.036   6.428   5.692  0.4362  0.0961  0.2688
16819SOL    HW151898   4.026   6.376   5.612  0.8190 -0.7352  0.7563
16819SOL    HW251899   4.094   6.500   5.667 -1.6582  1.4952 -0.9587
16820SOL     OW51900   5.253   6.470   6.828  0.1651  0.0186  0.0292
16820SOL    HW151901   5.227   6.458   6.736  1.6261 -1.7178 -0.2097
16820SOL    HW251902   5.207   6.400   6.875 -0.7890  1.0637  0.7113
16821SOL     OW51903   5.256   0.630   6.210  0.1489  0.0828 -0.5069
16821SOL    HW151904   5.347   0.646   6.234 -0.2321  0.9263  0.4450
16821SOL    HW251905   5.207   0.700   6.252 -0.8768  0.0486 -1.5828
16822SOL     OW51906   2.088   5.813   6.163 -0.2826  0.5110 -0.6037
16822SOL    HW151907   2.039   5.747   6.116 -0.9491 -1.6035  2.6985
16822SOL    HW251908   2.141   5.764   6.226 -0.3228  3.0569  1.6163
16823SOL     OW51909   4.903   6.551   7.382 -0.2132 -0.3865  0.2283
16823SOL    HW151910   4.980   6.607   7.394 -0.6228  0.5033 -1.0697
16823SOL    HW251911   4.933   6.464   7.406  0.7014  0.2286  1.4248
16824SOL     OW51912   4.140   6.091   5.669  0.0291 -0.2004  0.1444
16824SOL    HW151913   4.064   6.033   5.661 -1.3609  1.3585  1.5321
16824SOL    HW251914   4.175   6.073   5.757  0.6872 -0.1867 -0.1050
16825SOL     OW51915   5.939   4.786   7.913 -0.4760  0.1934 -0.7188
16825SOL    HW151916   5.900   4.873   7.917  0.8188  0.7910 -0.4464
16825SOL    HW251917   5.865   4.726   7.918 -1.2968  1.2598  0.4149
16826SOL     OW51918   4.306   6.505   3.361 -0.2168  0.2433 -0.0200
16826SOL    HW151919   4.250   6.447   3.310  0.4205 -0.2098 -0.2218
16826SOL    HW251920   4.294   6.476   3.451 -1.7858  1.4164  0.2008
16827SOL     OW51921   5.396   0.875   6.557  0.5784 -0.8266 -0.2885
16827SOL    HW151922   5.345   0.939   6.508  0.9086  0.6067  1.1330
16827SOL    HW251923   5.331   0.830   6.611 -0.0094 -3.4360 -2.9347
16828SOL     OW51924   5.455   5.909   6.685 -0.0768 -0.3574 -0.7567
16828SOL    HW151925   5.411   5.932   6.603  0.8646  1.5189 -0.7799
16828SOL    HW251926   5.544   5.944   6.675  0.2504 -0.6614  0.8308
16829SOL     OW51927   5.041   6.128   8.891 -0.0403 -0.0885  0.1890
16829SOL    HW151928   5.131   6.101   8.874  0.5568  2.1733 -0.6283
16829SOL    HW251929   4.990   6.089   8.821  0.0957 -2.1474  1.1725
16830SOL     OW51930   5.304   4.756   7.131 -0.5010 -0.5720  0.1086
16830SOL    HW151931   5.394   4.737   7.104  0.5128  0.3770  2.5091
16830SOL    HW251932   5.273   4.820   7.067  1.0083  0.0381 -0.0520
16831SOL     OW51933   5.765   7.268   6.619  0.2904  0.2039  0.2944
16831SOL    HW151934   5.688   7.315   6.586 -0.4471 -1.7025 -0.8313
16831SOL    HW251935   5.789   7.209   6.548  0.3890 -2.0282  2.0900
16832SOL     OW51936   6.880   6.163   7.370 -0.4297 -0.1310 -0.2230
16832SOL    HW151937   6.840   6.175   7.284  1.3756 -2.4073 -1.4788
16832SOL    HW251938   6.813   6.121   7.423 -0.9786 -0.3032 -1.0525
16833SOL     OW51939   3.467   5.756   6.676 -0.1209  0.3459 -0.2593
16833SOL    HW151940   3.416   5.799   6.607  0.0912  1.1878  0.0966
16833SOL    HW251941   3.498   5.675   6.636  0.9003  1.3247 -1.5228
16834SOL     OW51942   5.197   5.532   6.748  0.5073 -0.0699 -0.8670
16834SOL    HW151943   5.194   5.505   6.656 -0.5061 -0.9130 -0.5978
16834SOL    HW251944   5.113   5.504   6.784  0.0513  2.0180 -0.1665
16835SOL     OW51945   6.664   0.234   5.680  0.7370  0.0745  0.5653
16835SOL    HW151946   6.593   0.232   5.744 -0.2433 -1.6298 -0.5034
16835SOL    HW251947   6.621   0.257   5.598  1.2590 -1.6246 -0.2338
16836SOL     OW51948   6.072   6.990   6.761  0.5751  0.6167  0.4609
16836SOL    HW151949   6.015   6.915   6.744  0.5340  0.6744  0.3425
16836SOL    HW251950   6.013   7.057   6.794  0.8252  0.1168  1.9914
16837SOL     OW51951   3.215   5.764   4.612 -0.0226  0.2143 -0.2149
16837SOL    HW151952   3.207   5.827   4.541  1.9044  1.0686  0.2506
16837SOL    HW251953   3.180   5.810   4.689 -0.8813 -0.2162 -0.3398
16838SOL     OW51954   3.966   0.875   6.569  0.3113 -0.6441 -0.5316
16838SOL    HW151955   4.018   0.800   6.539 -0.1872 -0.8911 -0.7885
16838SOL    HW251956   3.989   0.884   6.661 -1.1869 -2.4468  0.0842
16839SOL     OW51957   5.561   5.989   8.195  0.4539 -0.3652  0.2120
16839SOL    HW151958   5.551   5.963   8.104 -1.3837 -1.2050  0.6049
16839SOL    HW251959   5.577   5.907   8.242 -0.4921 -0.2026  0.8550
16840SOL     OW51960   4.757   5.596   8.431 -0.2264  0.2000  0.5236
16840SOL    HW151961   4.735   5.539   8.505 -0.3210  1.0157  1.1307
16840SOL    HW251962   4.852   5.590   8.424 -0.2846 -0.4572  0.2343
16841SOL     OW51963   3.920   5.654   8.007 -0.0802  0.2078  0.2873
16841SOL    HW151964   3.981   5.726   8.024 -0.1622  0.9078 -2.0334
16841SOL    HW251965   3.833   5.695   8.014 -0.1402  0.2409 -0.5780
16842SOL     OW51966   6.394   5.449   8.723 -0.3760 -0.3024  0.4563
16842SOL    HW151967   6.417   5.365   8.764 -2.5743 -0.9457  0.5299
16842SOL    HW251968   6.344   5.495   8.790 -3.7006 -1.2077 -1.1812
16843SOL     OW51969   4.346   5.941   6.998  0.2763 -0.3334 -0.3444
16843SOL    HW151970   4.280   5.872   6.998 -0.8649  0.6818  1.5996
16843SOL    HW251971   4.296   6.022   6.998  1.5927  0.5554 -2.4359
16844SOL     OW51972   5.416   5.367   8.580 -0.0970  0.4459  0.0089
16844SOL    HW151973   5.418   5.276   8.611 -2.2855  1.1703  2.7075
16844SOL    HW251974   5.357   5.365   8.504 -1.4099 -0.2077  0.9980
16845SOL     OW51975   5.439   6.681   7.497 -0.0407 -0.2216 -0.3933
16845SOL    HW151976   5.432   6.585   7.492 -3.2262 -0.1525  0.2037
16845SOL    HW251977   5.443   6.699   7.591  0.1143  0.2410 -0.4905
16846SOL     OW51978   4.201   6.866   9.650  0.0868  0.8974  0.0392
16846SOL    HW151979   4.191   6.921   9.572  1.6701 -0.6422 -1.3542
16846SOL    HW251980   4.287   6.890   9.685 -0.0523  0.6626  0.5481
16847SOL     OW51981   5.396   6.718   8.620 -0.4185  0.1004  0.1248
16847SOL    HW151982   5.435   6.650   8.564 -0.1037  1.0301 -0.8089
16847SOL    HW251983   5.389   6.676   8.706  1.8338 -0.4061  0.1355
16848SOL     OW51984   4.190   0.122   8.444 -0.0591  0.8917 -0.3003
16848SOL    HW151985   4.231   0.114   8.530  0.0605  2.1349 -0.2233
16848SOL    HW251986   4.197   0.034   8.406  0.5610  0.5101  0.6513
16849SOL     OW51987   5.255   7.521   9.238  0.0995  0.6057  0.2400
16849SOL    HW151988   5.261   7.447   9.298  0.3487  1.0089  0.7221
16849SOL    HW251989   5.162   7.547   9.241  0.2390  1.0543  0.9893
16850SOL     OW51990   5.214   5.970   8.353  0.6378  0.4293 -0.1785
16850SOL    HW151991   5.298   5.928   8.333  0.8543  0.8074 -0.0821
16850SOL    HW251992   5.228   6.062   8.330  0.0967  0.4089 -0.6100
16851SOL     OW51993   3.974   5.602   8.976 -0.2091  0.1623  0.1707
16851SOL    HW151994   4.029   5.533   8.939  0.0114 -0.3487  1.3740
16851SOL    HW251995   3.933   5.560   9.053 -0.2499  1.3036  0.7900
16852SOL     OW51996   6.055   5.896  10.302 -0.0991  0.0018 -0.3276
16852SOL    HW151997   6.086   5.809  10.280 -0.0833  0.2524 -1.3706
16852SOL    HW251998   6.129   5.938  10.345  1.2462  0.7189 -3.1195
16853SOL     OW51999   5.069   0.864  10.800 -0.4467  0.0873 -0.3941
16853SOL    HW152000   4.991   0.842  10.750 -0.7880 -0.7049  0.4588
16853SOL    HW252001   5.084   0.788  10.856  2.5380 -1.0391 -2.4825
16854SOL     OW52002   3.789   0.735   8.940 -0.0315  0.4965 -0.2098
16854SOL    HW152003   3.698   0.753   8.966  0.2952  0.7491  0.7689
16854SOL    HW252004   3.828   0.821   8.927  0.2365  0.4026 -0.0365
16855SOL     OW52005   4.426   5.342   7.007 -0.2484  0.0603  0.2606
16855SOL    HW152006   4.378   5.295   6.940 -1.5685 -0.6242  1.6264
16855SOL    HW252007   4.494   5.281   7.036 -0.9780 -0.4540  0.9428
16856SOL     OW52008   2.404   0.404   9.527 -0.0300 -0.1994  0.8949
16856SOL    HW152009   2.487   0.377   9.567  0.5949 -0.8720 -0.7197
16856SOL    HW252010   2.426   0.483   9.478  0.1588 -1.3677 -1.0143
16857SOL     OW52011   5.635   7.441   7.990  0.0586 -0.5667 -0.7169
16857SOL    HW152012   5.715   7.492   7.996  0.5685 -1.4245 -0.0982
16857SOL    HW252013   5.581   7.471   8.063 -0.8992  1.1458 -2.0265
16858SOL     OW52014   3.431   5.116   7.898  0.1298 -0.1726  0.3252
16858SOL    HW152015   3.403   5.043   7.953  1.2298 -0.9003 -0.0522
16858SOL    HW252016   3.387   5.192   7.936  0.1090 -0.7986  1.6243
16859SOL     OW52017   3.869   6.473   8.752  0.6494 -0.3697 -0.1702
16859SOL    HW152018   3.890   6.492   8.844 -0.0466 -1.0342  0.1389
16859SOL    HW252019   3.904   6.385   8.738  0.9825 -0.1640 -0.6175
16860SOL     OW52020   7.170   7.008   6.393  0.5466  0.0165 -0.5372
16860SOL    HW152021   7.113   7.025   6.319 -0.0659 -1.1400 -0.3565
16860SOL    HW252022   7.242   6.957   6.356  1.0633  0.7950 -0.6194
16861SOL     OW52023   3.488   7.127   8.223  0.1007  0.6160  1.6814
16861SOL    HW152024   3.403   7.098   8.189  1.6220 -0.5766 -1.5263
16861SOL    HW252025   3.478   7.122   8.318 -3.6636  1.4416  1.5003
16862SOL     OW52026   6.277   6.663   9.186  0.1194 -0.5661  0.2442
16862SOL    HW152027   6.257   6.723   9.114  1.2237 -1.2765 -0.7010
16862SOL    HW252028   6.199   6.664   9.240 -0.2898  0.8946 -0.3252
16863SOL     OW52029   6.096   7.673   7.595  0.0806 -0.7142 -1.1205
16863SOL    HW152030   6.134   7.670   7.507  0.7129  0.5766 -0.9086
16863SOL    HW252031   6.003   7.658   7.581  0.0346  0.3433 -2.1236
16864SOL     OW52032   4.828   6.911   8.908 -0.2923  0.0030 -0.8185
16864SOL    HW152033   4.870   6.828   8.927  0.8707  0.8491  0.5123
16864SOL    HW252034   4.871   6.943   8.829  0.7160  0.2801 -0.1702
16865SOL     OW52035   5.612   0.034   8.615 -0.3367 -0.6173  0.4887
16865SOL    HW152036   5.617  -0.054   8.651 -0.0065 -1.4325 -1.4029
16865SOL    HW252037   5.681   0.083   8.660  2.3767 -2.5003 -1.3213
16866SOL     OW52038   5.314   6.237   8.695  0.0735  0.4911  0.1518
16866SOL    HW152039   5.407   6.241   8.672  0.3253 -0.3697  0.9785
16866SOL    HW252040   5.309   6.274   8.783 -0.1807 -0.5438  0.5851
16867SOL     OW52041   4.344   4.736   8.770  0.1952  0.2253  0.2424
16867SOL    HW152042   4.349   4.708   8.679  0.7399  0.7155  0.1154
16867SOL    HW252043   4.268   4.795   8.772 -0.6337 -0.8244  0.4019
16868SOL     OW52044   3.232   6.529   9.576 -0.3028  0.3072 -0.1859
16868SOL    HW152045   3.317   6.566   9.600 -0.6867  1.8036 -1.0215
16868SOL    HW252046   3.252   6.472   9.501  0.1845 -0.6965  0.6703
16869SOL     OW52047   5.378   6.693   6.913  0.3853  0.0664 -0.2324
16869SOL    HW152048   5.331   6.728   6.988  3.7178  0.0284  2.0973
16869SOL    HW252049   5.334   6.610   6.894 -1.0000  0.4326  1.1678
16870SOL     OW52050   7.592   7.359   7.555  0.2113  0.1637  0.0943
16870SOL    HW152051   7.626   7.387   7.640 -2.0334  0.5475  0.9422
16870SOL    HW252052   7.522   7.298   7.576  1.2973 -1.7748 -1.6010
16871SOL     OW52053   2.830   5.420   6.840  0.3398 -0.7005  0.4561
16871SOL    HW152054   2.918   5.391   6.865  0.8677  1.5537  1.4899
16871SOL    HW252055   2.830   5.514   6.860 -0.7433  0.4390 -3.9331
16872SOL     OW52056   5.640   6.867   7.848  0.0766 -0.5287 -0.1391
16872SOL    HW152057   5.664   6.786   7.804 -0.7460 -0.1938 -1.2490
16872SOL    HW252058   5.592   6.917   7.782  1.0987  1.1344  0.3190
16873SOL     OW52059   6.262   7.331   8.212 -0.2327  0.2145 -0.0522
16873SOL    HW152060   6.324   7.279   8.262 -0.0055  0.3203 -0.2169
16873SOL    HW252061   6.219   7.387   8.276 -0.6256 -0.3144  0.1532
16874SOL     OW52062   2.532   5.855   6.924 -0.4840  0.6337  0.4101
16874SOL    HW152063   2.496   5.815   7.003 -0.8763  2.1826  1.0629
16874SOL    HW252064   2.609   5.803   6.903 -0.2150  0.3519  1.9826
16875SOL     OW52065   4.256   5.544   7.556  0.1357 -0.4805 -0.4011
16875SOL    HW152066   4.341   5.564   7.596 -0.2427  0.3013  0.0376
16875SOL    HW252067   4.260   5.450   7.537  0.7469 -0.6407  0.4570
16876SOL     OW52068   4.701   7.247   7.375 -0.2809 -0.3244 -0.1367
16876SOL    HW152069   4.753   7.267   7.454  0.5389 -1.3310 -0.3945
16876SOL    HW252070   4.684   7.153   7.382  0.8830 -0.6865 -1.7767
16877SOL     OW52071   3.559   4.853   9.701 -0.2139  0.1207 -0.1189
16877SOL    HW152072   3.644   4.821   9.732  0.1528  1.0396 -0.1593
16877SOL    HW252073   3.548   4.810   9.616 -0.8621 -1.7878  0.8614
16878SOL     OW52074   4.815   4.342  10.096 -0.2564 -0.2977  0.5032
16878SOL    HW152075   4.897   4.328  10.144  0.8278  1.0611 -0.8562
16878SOL    HW252076   4.815   4.276  10.027 -0.0703  0.0014  0.2162
16879SOL     OW52077   4.617   5.379  10.277 -0.9529  1.2146 -0.1657
16879SOL    HW152078   4.581   5.293  10.300 -0.9734  0.9990 -0.9809
16879SOL    HW252079   4.556   5.442  10.317  0.1742  0.8941  2.2128
16880SOL     OW52080   4.198   5.588   7.266  0.0155 -0.1924  0.6444
16880SOL    HW152081   4.252   5.661   7.236 -0.0878 -0.6110 -0.6071
16880SOL    HW252082   4.131   5.578   7.199 -2.1602  0.8238  2.5523
16881SOL     OW52083   4.889   6.660   7.684 -0.1341 -0.0715  0.6342
16881SOL    HW152084   4.961   6.716   7.710 -0.1836 -0.3144  1.3028
16881SOL    HW252085   4.907   6.638   7.592 -0.2182  1.1812  0.3085
16882SOL     OW52086   5.237   7.052   7.905  0.1867  0.0116  0.3654
16882SOL    HW152087   5.325   7.080   7.928  0.7477  0.6979 -2.2836
16882SOL    HW252088   5.182   7.083   7.977  2.1504 -1.2769  2.5791
16883SOL     OW52089   3.355   1.142   8.281 -0.0772  0.2775 -0.1641
16883SOL    HW152090   3.379   1.132   8.373 -1.8328 -1.5271  0.1787
16883SOL    HW252091   3.275   1.194   8.282 -0.8014 -0.7779 -0.5110
16884SOL     OW52092   4.602   6.054   8.983 -0.1257  0.3432  0.4880
16884SOL    HW152093   4.619   6.048   8.889 -0.4088 -1.0747  0.5009
16884SOL    HW252094   4.607   5.963   9.014  0.7300  0.8708  1.9913
16885SOL     OW52095   4.332   5.543   8.120 -0.2286  0.4428 -0.2852
16885SOL    HW152096   4.390   5.481   8.076  2.1222  0.7394  2.1879
16885SOL    HW252097   4.248   5.497   8.127 -0.0721 -0.4374 -2.9464
16886SOL     OW52098   6.268   6.958   7.004  0.4294 -0.0333 -0.1588
16886SOL    HW152099   6.266   7.005   7.088  0.7469 -0.9832  0.3971
16886SOL    HW252100   6.200   7.000   6.952 -0.8856 -0.4393  1.1517
16887SOL     OW52101   3.980   6.563   8.163 -0.3357 -0.4443 -0.0253
16887SOL    HW152102   4.020   6.507   8.229  0.5597 -0.7021 -0.7707
16887SOL    HW252103   4.042   6.563   8.090 -0.5959  1.0301 -0.2860
16888SOL     OW52104   3.871   7.519   7.025 -0.6964 -0.1615 -0.0928
16888SOL    HW152105   3.843   7.557   7.108 -1.4639  1.0481 -0.8659
16888SOL    HW252106   3.887   7.427   7.044 -0.0284  0.2630  1.5772
16889SOL     OW52107   5.321   4.187   7.481  0.7505  0.0866  0.2319
16889SOL    HW152108   5.247   4.246   7.492  1.6945  1.3298  0.0800
16889SOL    HW252109   5.313   4.154   7.392  0.8017  0.8162 -0.0450
16890SOL     OW52110   5.731   6.219   9.339 -0.6901 -0.3763  0.5827
16890SOL    HW152111   5.699   6.129   9.330 -2.3292  0.0334  1.8129
16890SOL    HW252112   5.742   6.250   9.249 -0.0079 -1.8196  0.1414
16891SOL     OW52113   4.889   5.465   7.971 -0.0907 -0.0271  0.2125
16891SOL    HW152114   4.821   5.478   8.037 -0.4002  1.8049 -0.3873
16891SOL    HW252115   4.965   5.436   8.020 -1.1462 -1.6285  0.9600
16892SOL     OW52116   5.038   7.361   8.079 -0.3188 -0.2921  0.9360
16892SOL    HW152117   5.097   7.418   8.029  0.7216 -1.5467  0.6786
16892SOL    HW252118   4.953   7.404   8.073  0.3806  1.1148  0.5680
16893SOL     OW52119   1.822   5.597   8.733 -0.0700 -0.4762 -0.3216
16893SOL    HW152120   1.747   5.629   8.684  2.3746  1.8904 -2.8830
16893SOL    HW252121   1.840   5.511   8.695 -0.1774 -0.0725 -1.3275
16894SOL     OW52122   3.782   0.379   9.431 -0.6059 -0.1280  0.4121
16894SOL    HW152123   3.728   0.457   9.416 -0.9653 -0.3249  0.6686
16894SOL    HW252124   3.823   0.394   9.516  0.9283  0.6960 -0.4210
16895SOL     OW52125   3.170   4.566  11.437 -0.3040 -0.8448 -0.1015
16895SOL    HW152126   3.194   4.658  11.430  1.8275 -1.2798  0.5543
16895SOL    HW252127   3.182   4.531  11.348  1.3625 -0.9771  0.1416
16896SOL     OW52128   7.732   6.173   8.960 -0.2046 -0.1094  0.0454
16896SOL    HW152129   7.801   6.236   8.941 -0.5632 -0.2939 -2.2021
16896SOL    HW252130   7.664   6.192   8.895 -1.0405 -1.7253  0.3945
16897SOL     OW52131   4.691   7.020   7.827 -0.1379  0.1153  0.2887
16897SOL    HW152132   4.611   7.031   7.775 -0.5121  1.6786  1.1432
16897SOL    HW252133   4.682   7.083   7.898  1.5793 -0.1369  0.7663
16898SOL     OW52134   4.026   5.386   7.391  0.3242 -0.1320 -0.0031
16898SOL    HW152135   3.938   5.369   7.356 -0.3394  0.1824  1.4584
16898SOL    HW252136   4.085   5.346   7.327 -0.8741 -0.3738 -0.9985
16899SOL     OW52137   4.803   7.962   8.970 -0.2937  0.4545 -0.1352
16899SOL    HW152138   4.860   7.950   8.894 -0.0139  0.9758 -0.0146
16899SOL    HW252139   4.804   8.056   8.986 -0.5445  0.3765  0.3698
16900SOL     OW52140   4.495   0.916   8.909 -0.4824  0.2640 -0.6048
16900SOL    HW152141   4.551   0.975   8.859  0.0832  0.9350  0.7496
16900SOL    HW252142   4.513   0.830   8.873  1.8980  0.3650  0.1176
16901SOL     OW52143   3.669   6.038   6.832 -0.6164  0.2243 -0.2053
16901SOL    HW152144   3.580   6.070   6.816 -1.1281 -1.1485 -0.2297
16901SOL    HW252145   3.698   6.005   6.748 -0.9651 -1.3894  0.2784
16902SOL     OW52146   5.959   4.610   9.799 -0.2426  0.1842  0.0588
16902SOL    HW152147   5.988   4.686   9.849  0.2867 -0.6495  1.0435
16902SOL    HW252148   5.893   4.645   9.739  1.1977  1.7403 -0.7187
16903SOL     OW52149   5.418   5.266   8.290  0.7422  0.3631  0.0176
16903SOL    HW152150   5.402   5.180   8.251 -0.0278  0.8561 -0.7942
16903SOL    HW252151   5.505   5.259   8.329  0.7132 -0.7627 -0.0918
16904SOL     OW52152   5.605   4.777   8.932  0.2660  0.1549  0.2550
16904SOL    HW152153   5.516   4.780   8.896 -0.0505  3.3120  0.9874
16904SOL    HW252154   5.598   4.718   9.007 -0.9525 -0.3624 -0.2282
16905SOL     OW52155   4.529   6.919  10.491  0.3153  0.6672  0.4905
16905SOL    HW152156   4.504   6.892  10.402  1.0275 -0.9199  0.7420
16905SOL    HW252157   4.559   6.838  10.533  0.7635  1.5468  1.9167
16906SOL     OW52158   6.149   2.823   8.201  0.0692  0.3174  0.0428
16906SOL    HW152159   6.090   2.896   8.182 -0.4630 -0.0793  0.1553
16906SOL    HW252160   6.174   2.835   8.292 -0.7287 -0.1348  0.3280
16907SOL     OW52161   4.345   7.413   8.788  0.1611 -0.3990 -0.1704
16907SOL    HW152162   4.305   7.366   8.715 -0.0993 -0.8436  0.2471
16907SOL    HW252163   4.301   7.379   8.866  0.9338 -0.4660  0.2553
16908SOL     OW52164   4.107   4.948   7.794  0.1845  0.0199 -0.2952
16908SOL    HW152165   4.146   4.905   7.870 -0.8517  0.3325  0.4276
16908SOL    HW252166   4.147   4.904   7.719  0.6027 -0.8659  0.4255
16909SOL     OW52167   4.776   4.963   8.729  0.2552  0.0508  0.4588
16909SOL    HW152168   4.718   4.997   8.661 -0.2505 -0.0321  0.8334
16909SOL    HW252169   4.719   4.907   8.782  1.1167 -1.5222 -0.2393
16910SOL     OW52170   6.456   7.063   7.611  0.0728 -0.1030  0.9508
16910SOL    HW152171   6.445   6.968   7.616  2.6316 -0.4093  3.0789
16910SOL    HW252172   6.506   7.078   7.531  0.7274 -0.7241  1.2309
16911SOL     OW52173   2.105   4.904   7.127 -0.3495  0.1296 -0.0615
16911SOL    HW152174   2.061   4.871   7.205  0.6142 -1.5733 -0.1843
16911SOL    HW252175   2.196   4.876   7.136 -0.3553 -0.7585 -2.0924
16912SOL     OW52176   4.057   5.567   5.766  0.4326 -0.7130  0.3553
16912SOL    HW152177   4.091   5.482   5.740 -2.1346 -0.9597 -2.6882
16912SOL    HW252178   3.999   5.549   5.840  0.5395 -1.4856  0.2550
16913SOL     OW52179   5.603   4.859  11.731  0.7698  0.3542  0.2355
16913SOL    HW152180   5.547   4.875  11.655  0.5497 -0.8152  0.1322
16913SOL    HW252181   5.606   4.764  11.739 -0.3089  0.4307  2.4875
16914SOL     OW52182   5.316   6.682   8.293  0.2267 -0.1384 -0.1707
16914SOL    HW152183   5.298   6.706   8.384 -0.2058 -1.6680  0.1694
16914SOL    HW252184   5.311   6.765   8.245 -0.9315  0.4964  0.9833
16915SOL     OW52185   6.093   5.855   9.426 -0.0948  0.3451 -0.1643
16915SOL    HW152186   6.007   5.815   9.441  0.4062 -0.7952 -0.2260
16915SOL    HW252187   6.076   5.923   9.362 -0.6268 -1.3366 -1.9151
16916SOL     OW52188   3.191   1.201   7.663 -0.1673 -0.5407 -0.3451
16916SOL    HW152189   3.127   1.130   7.674 -0.6041 -0.0186  0.6188
16916SOL    HW252190   3.144   1.280   7.691  0.6315 -0.0196 -0.4542
16917SOL     OW52191   4.737   5.297   6.356 -0.5024 -0.0010  0.2571
16917SOL    HW152192   4.805   5.338   6.409 -2.2312  0.6624  2.0772
16917SOL    HW252193   4.730   5.208   6.392 -1.5525  0.3911  1.0570
16918SOL     OW52194   4.684   5.508   8.175 -0.2346 -0.1113  0.3797
16918SOL    HW152195   4.707   5.536   8.263 -1.1686  1.1626  0.2491
16918SOL    HW252196   4.661   5.415   8.185  3.7674 -1.2422  0.6672
16919SOL     OW52197   5.687   7.216   8.774  0.0753  0.1192  1.1321
16919SOL    HW152198   5.763   7.262   8.810  0.1959 -0.5823  1.8077
16919SOL    HW252199   5.612   7.268   8.802  0.2871  0.7109  0.6246
16920SOL     OW52200   3.417   4.954   8.320  0.0559  0.1271 -0.1908
16920SOL    HW152201   3.419   5.040   8.361  0.3231 -0.4460  1.0598
16920SOL    HW252202   3.356   4.903   8.374 -2.6189  0.3662 -2.7336
16921SOL     OW52203   3.807   5.102  10.467 -0.4682  0.0576 -0.3321
16921SOL    HW152204   3.887   5.152  10.482 -0.6923  0.2162  0.3482
16921SOL    HW252205   3.833   5.011  10.484  0.3287 -0.3008 -3.0012
16922SOL     OW52206   4.900   6.224   8.569  0.5570 -0.3330 -0.2716
16922SOL    HW152207   4.987   6.256   8.545  1.5303 -1.0300  2.1179
16922SOL    HW252208   4.901   6.131   8.549 -0.4154 -0.0144 -2.1201
16923SOL     OW52209   6.739   5.482   7.535 -0.0937  0.0223  0.2854
16923SOL    HW152210   6.680   5.543   7.580 -0.0331 -0.5279  1.1342
16923SOL    HW252211   6.686   5.404   7.520  0.2351 -0.2388  0.4739
16924SOL     OW52212   7.448   6.022   9.545  0.6576  0.3932  0.7903
16924SOL    HW152213   7.517   6.089   9.545  2.0771 -0.9275 -1.1634
16924SOL    HW252214   7.475   5.961   9.614  0.7072  0.5729  0.9324
16925SOL     OW52215   4.102   5.857   8.091 -0.2467  0.6334 -0.0617
16925SOL    HW152216   4.195   5.839   8.079 -0.4888  0.2014 -1.5210
16925SOL    HW252217   4.098   5.920   8.163  1.1681  0.7206 -0.0426
16926SOL     OW52218   7.542   7.938   7.607 -0.0328  0.5806 -0.1191
16926SOL    HW152219   7.605   8.011   7.607 -0.1531  0.7024  1.0295
16926SOL    HW252220   7.596   7.860   7.622  0.0475  0.4536 -0.9707
16927SOL     OW52221   4.245   7.708   7.672 -0.1638  0.2248 -0.2427
16927SOL    HW152222   4.291   7.710   7.588  0.5931  0.2733  0.1670
16927SOL    HW252223   4.160   7.748   7.654 -0.8505 -1.6375 -1.4737
16928SOL     OW52224   3.885   6.195   6.964 -0.5478 -0.2592  0.1068
16928SOL    HW152225   3.821   6.125   6.953 -1.2185  0.3367  0.1621
16928SOL    HW252226   3.926   6.204   6.878 -1.0796 -0.1335 -0.1384
16929SOL     OW52227   6.457   5.621   9.921 -0.3314 -0.0398 -0.5993
16929SOL    HW152228   6.530   5.615   9.983  0.5085 -1.3309 -1.6872
16929SOL    HW252229   6.491   5.673   9.849 -0.4322 -0.7588 -1.1736
16930SOL     OW52230   4.506   7.136   9.999 -0.0256 -0.2606  0.1648
16930SOL    HW152231   4.426   7.177  10.029  0.0317 -0.8533  1.1767
16930SOL    HW252232   4.484   7.043   9.990  0.7513 -0.5757  1.2866
16931SOL     OW52233   3.520   6.662   8.816  0.2154 -0.0304 -0.5821
16931SOL    HW152234   3.597   6.679   8.761 -0.2422 -1.1885 -1.6127
16931SOL    HW252235   3.448   6.653   8.755 -0.3636 -1.0731  0.2164
16932SOL     OW52236   3.618   0.006   9.654  0.5961  0.4386  0.0389
16932SOL    HW152237   3.675   0.062   9.603  2.8752 -0.5702  1.3133
16932SOL    HW252238   3.665  -0.078   9.659 -0.7805 -0.2990  1.5154
16933SOL     OW52239   6.320   5.956   8.934  0.1423 -0.1115 -0.0310
16933SOL    HW152240   6.399   5.959   8.989  1.4175 -0.3149 -1.7532
16933SOL    HW252241   6.353   5.967   8.845 -1.7857 -0.4243 -0.8289
16934SOL     OW52242   5.134   6.583   9.175 -0.2727  0.0504  0.1562
16934SOL    HW152243   5.180   6.667   9.177 -1.2218  0.6173  2.7514
16934SOL    HW252244   5.044   6.605   9.150 -0.4252 -0.2565  0.4240
16935SOL     OW52245   4.077   7.646  10.093 -0.4166  0.1758  0.0206
16935SOL    HW152246   4.122   7.584  10.035 -3.6556 -1.5549 -0.9054
16935SOL    HW252247   4.121   7.636  10.177  1.6559 -0.4268 -1.0464
16936SOL     OW52248   7.052   7.115   7.024  0.4871 -0.4244  0.3274
16936SOL    HW152249   7.130   7.139   7.074  1.0571 -0.2226 -0.6477
16936SOL    HW252250   7.000   7.196   7.022 -0.0291 -0.7035  1.4436
16937SOL     OW52251   4.497   5.881   8.285  0.1892  0.1070  0.3561
16937SOL    HW152252   4.467   5.946   8.348  0.2726 -1.1595  1.7641
16937SOL    HW252253   4.428   5.878   8.219 -0.0667  1.2207  0.5605
16938SOL     OW52254   5.462   7.310   8.854 -0.2355 -0.3833  0.3608
16938SOL    HW152255   5.427   7.392   8.889 -1.0724 -0.1630 -0.9361
16938SOL    HW252256   5.450   7.247   8.925 -0.7551  0.3162  0.9097
16939SOL     OW52257   5.806   6.906   9.389  0.3129  0.4859  0.4854
16939SOL    HW152258   5.829   6.998   9.373  2.5437 -0.1365 -0.2636
16939SOL    HW252259   5.742   6.909   9.460 -1.4188  2.7342 -1.0363
16940SOL     OW52260   5.005   7.260   9.181  0.8909 -0.1895 -0.3035
16940SOL    HW152261   5.036   7.303   9.261  0.8278 -0.1133 -0.3202
16940SOL    HW252262   4.925   7.216   9.208  1.3258 -0.8849 -0.1130
16941SOL     OW52263   4.755   5.535   7.103  0.1044 -0.2147  0.2079
16941SOL    HW152264   4.698   5.548   7.027  0.5072 -1.5522 -0.3486
16941SOL    HW252265   4.702   5.487   7.166 -0.2583  0.9723  0.8303
16942SOL     OW52266   5.771   5.378   8.994 -0.4627 -0.2626  0.0663
16942SOL    HW152267   5.755   5.285   8.980  0.9876 -0.2713 -2.0096
16942SOL    HW252268   5.861   5.392   8.963 -0.7690  1.8912 -0.0105
16943SOL     OW52269   4.648   6.941   9.322  0.0175  0.0313  0.2829
16943SOL    HW152270   4.684   6.866   9.368 -2.6144 -0.8019  1.1660
16943SOL    HW252271   4.589   6.903   9.256  1.1122  1.2840 -1.5100
16944SOL     OW52272   4.606   5.966   7.068 -0.1978 -0.0579 -0.6222
16944SOL    HW152273   4.515   5.947   7.048  0.2200  0.5365 -3.5559
16944SOL    HW252274   4.623   6.051   7.028  0.5321  2.2263  3.8353
16945SOL     OW52275   4.944   6.993   8.667 -0.0080  0.0585  0.0133
16945SOL    HW152276   5.012   6.939   8.627  0.3850  0.4870  0.0969
16945SOL    HW252277   4.974   7.083   8.654 -1.6586  0.3969 -1.9858
16946SOL     OW52278   2.677   6.091   9.089  0.8105 -0.4226 -0.4942
16946SOL    HW152279   2.703   6.090   8.997 -0.3189  1.5124 -0.8906
16946SOL    HW252280   2.605   6.028   9.095  1.2574 -0.9731 -0.7828
16947SOL     OW52281   4.235   5.504   9.169 -0.0922  0.1725  0.0712
16947SOL    HW152282   4.249   5.413   9.142  3.2991  0.0159  1.7756
16947SOL    HW252283   4.215   5.551   9.088 -0.0865 -1.7689 -1.1178
16948SOL     OW52284   3.871   4.909   9.180 -0.0743 -0.2011 -0.1511
16948SOL    HW152285   3.802   4.866   9.131 -1.7249 -1.4477  2.9682
16948SOL    HW252286   3.934   4.840   9.199  0.9020  0.4180 -1.0342
16949SOL     OW52287   4.598   6.047   9.778 -0.1402  0.3038  0.4039
16949SOL    HW152288   4.623   5.989   9.707  0.5788  1.8053 -0.6158
16949SOL    HW252289   4.527   6.001   9.823 -0.8599 -0.5319 -1.4985
16950SOL     OW52290   4.865   5.963   8.771 -0.6294  0.5453  0.4990
16950SOL    HW152291   4.805   6.031   8.740 -1.4249 -0.8126 -1.0572
16950SOL    HW252292   4.813   5.883   8.772  1.1370 -0.6970 -0.9757
16951SOL     OW52293   6.127   6.705   8.419 -0.1189  0.2327 -0.2357
16951SOL    HW152294   6.094   6.761   8.490 -1.0596  0.7718 -1.0775
16951SOL    HW252295   6.202   6.659   8.458 -0.6675  0.4514  1.1328
16952SOL     OW52296   4.896   7.178   7.181 -0.5062  0.0628 -0.0895
16952SOL    HW152297   4.843   7.184   7.260  0.8650 -0.9963  0.9731
16952SOL    HW252298   4.903   7.268   7.149 -1.9365  0.3663  0.3788
16953SOL     OW52299   4.430   3.229  10.663  0.6934 -0.2901  0.3505
16953SOL    HW152300   4.369   3.181  10.606 -1.1380  2.0003  0.2414
16953SOL    HW252301   4.505   3.249  10.606 -0.5107  0.7834 -0.9327
16954SOL     OW52302   4.601   6.045   8.714 -0.2131  0.4562  0.1433
16954SOL    HW152303   4.623   6.131   8.680 -0.1157 -0.0522 -1.1393
16954SOL    HW252304   4.560   6.000   8.640  0.7078 -0.9635  0.4592
16955SOL     OW52305   4.566   5.037   9.621 -0.0220 -0.1257 -0.0366
16955SOL    HW152306   4.513   5.091   9.563  0.0907 -0.0656 -0.0835
16955SOL    HW252307   4.545   5.068   9.709 -1.3403 -1.2237  0.0672
16956SOL     OW52308   5.744   7.206   8.505  0.3446  0.6794  0.5570
16956SOL    HW152309   5.761   7.201   8.599  0.0877  1.1174  0.6250
16956SOL    HW252310   5.678   7.274   8.495 -0.2338  0.0747  0.1329
16957SOL     OW52311   5.546   5.406   7.214  0.3242 -0.1376  0.0477
16957SOL    HW152312   5.473   5.407   7.153 -0.0184 -0.8204  0.4393
16957SOL    HW252313   5.588   5.492   7.202 -1.0110  0.5930  0.4035
16958SOL     OW52314   6.153   3.701   8.092 -0.1708 -0.1010  0.4305
16958SOL    HW152315   6.095   3.761   8.140 -1.1358 -0.4895 -0.2207
16958SOL    HW252316   6.106   3.682   8.011  1.3854  0.4822 -0.6648
16959SOL     OW52317   4.319   5.741   8.636 -0.0798  0.1173  0.1290
16959SOL    HW152318   4.362   5.775   8.557 -0.4433  1.5565  0.5164
16959SOL    HW252319   4.255   5.678   8.603  0.6101 -0.2078 -0.6256
16960SOL     OW52320   5.393   7.161   8.642  0.1014 -0.5518 -0.0413
16960SOL    HW152321   5.306   7.130   8.666 -0.0923  0.3096  0.4311
16960SOL    HW252322   5.413   7.227   8.708  0.5219  0.2446 -0.9455
16961SOL     OW52323   4.965   6.658   8.323  0.0291 -0.6286 -0.8607
16961SOL    HW152324   4.880   6.689   8.356 -0.6972 -1.0721 -2.2371
16961SOL    HW252325   4.951   6.645   8.229  1.2417 -1.9606 -0.8898
16962SOL     OW52326   2.824   6.740  10.285  0.0273  0.0261  0.0184
16962SOL    HW152327   2.766   6.664  10.286  1.8464 -1.4224  1.0913
16962SOL    HW252328   2.816   6.777  10.373  0.8426 -0.2924  0.2327
16963SOL     OW52329   6.304   6.550   7.150 -0.2000  0.2783 -0.0742
16963SOL    HW152330   6.369   6.514   7.089 -0.0823  0.5257 -0.0939
16963SOL    HW252331   6.231   6.489   7.145  0.2004 -0.2402  0.2666
16964SOL     OW52332   6.849   0.299   6.321  0.1482 -0.0877  0.0841
16964SOL    HW152333   6.889   0.324   6.237 -1.5828 -0.9591 -1.0498
16964SOL    HW252334   6.774   0.245   6.297 -2.0362  1.8628  2.0976
16965SOL     OW52335   5.425   6.463   8.163  0.1044 -0.2199 -0.2485
16965SOL    HW152336   5.477   6.533   8.125 -2.2790  0.5201 -2.4693
16965SOL    HW252337   5.338   6.501   8.174 -0.5083 -1.9207  1.5209
16966SOL     OW52338   3.847   5.689   7.344  0.0034  0.3747 -0.2507
16966SOL    HW152339   3.854   5.781   7.317 -0.9149 -0.0331 -2.0341
16966SOL    HW252340   3.764   5.659   7.306 -0.7347 -0.6624  2.0399
16967SOL     OW52341   2.406   7.251   9.443  0.2056 -0.1241  0.5197
16967SOL    HW152342   2.482   7.290   9.400  1.1554 -1.5408  0.8697
16967SOL    HW252343   2.439   7.172   9.485 -1.7642 -1.7489 -0.7789
16968SOL     OW52344   7.010   5.219   9.551 -0.1111 -0.1843  0.0785
16968SOL    HW152345   7.004   5.313   9.565  1.8355  0.4976 -2.8802
16968SOL    HW252346   7.088   5.192   9.599 -0.8310 -0.4153  1.1694
16969SOL     OW52347   4.718   7.001   8.532  0.2741 -0.3326 -0.2848
16969SOL    HW152348   4.800   6.989   8.579  1.3149  0.0347 -1.9327
16969SOL    HW252349   4.703   6.917   8.489  1.2619  0.4046 -2.1722
16970SOL     OW52350   3.985   6.069   7.507  0.1695 -0.2230  0.0238
16970SOL    HW152351   3.910   6.019   7.538 -1.0535 -0.5717 -3.1020
16970SOL    HW252352   4.051   6.002   7.486  0.1792 -0.1640 -0.1316
16971SOL     OW52353   6.406   0.090   8.222 -0.2804 -0.2290  0.4722
16971SOL    HW152354   6.433   0.177   8.253  0.4939 -0.1642 -0.3618
16971SOL    HW252355   6.413   0.095   8.127  2.0335 -1.9277  0.4898
16972SOL     OW52356   4.471   6.276   7.835 -0.4500 -0.0705  0.3665
16972SOL    HW152357   4.508   6.213   7.773 -1.4674 -0.8053  0.5017
16972SOL    HW252358   4.437   6.346   7.779 -0.7362 -0.3977  0.1251
16973SOL     OW52359   3.465   7.683   9.340 -0.5436 -0.5976 -0.1713
16973SOL    HW152360   3.555   7.692   9.371 -0.1769  0.4341 -1.4397
16973SOL    HW252361   3.422   7.629   9.407  0.4166  0.7616  1.6461
16974SOL     OW52362   5.702   6.476   9.726  0.3857 -0.4342 -0.2397
16974SOL    HW152363   5.652   6.397   9.745 -0.7722  0.6940  1.7243
16974SOL    HW252364   5.661   6.513   9.647  1.3784 -2.0760 -1.5882
16975SOL     OW52365   2.914   6.480   8.840  0.1698  0.4431 -0.1886
16975SOL    HW152366   2.864   6.421   8.784 -0.9031 -1.7550  2.7623
16975SOL    HW252367   3.004   6.471   8.809 -0.0585 -2.3052 -0.3612
16976SOL     OW52368   3.956   4.268   9.322 -0.1248  0.2773  0.0919
16976SOL    HW152369   3.925   4.267   9.231 -0.4214  0.3045  0.1918
16976SOL    HW252370   3.917   4.190   9.362 -0.2540  0.4366  0.2810
16977SOL     OW52371   4.294   5.323   7.245 -0.4158  0.1705 -0.2081
16977SOL    HW152372   4.330   5.340   7.158 -0.0743  2.3063  0.2945
16977SOL    HW252373   4.279   5.410   7.282 -2.1871 -0.6881  1.2179
16978SOL     OW52374   7.446   4.965   7.341 -0.3647  0.1644 -0.1972
16978SOL    HW152375   7.429   4.965   7.247  0.3678  0.6431 -0.3338
16978SOL    HW252376   7.498   5.043   7.356  0.1035 -0.2737  0.5061
16979SOL     OW52377   4.053   5.563   9.677  0.5770 -0.3450  0.4787
16979SOL    HW152378   3.963   5.596   9.671  0.8779  0.7970  1.6827
16979SOL    HW252379   4.052   5.482   9.627 -0.7541  0.4071 -0.7992
16980SOL     OW52380   3.600   5.012   9.336 -0.1272 -0.3051 -0.1362
16980SOL    HW152381   3.584   4.980   9.247 -0.0336 -1.4009  0.2297
16980SOL    HW252382   3.595   4.934   9.391 -2.0526  0.6054  1.0858
16981SOL     OW52383   3.955   0.369   7.881  0.2596 -0.3973 -0.1559
16981SOL    HW152384   3.930   0.279   7.861 -1.1830 -0.3757  1.3616
16981SOL    HW252385   4.028   0.360   7.943 -0.5603 -0.5512  0.8036
16982SOL     OW52386   2.392   5.074   7.641 -0.0017 -0.2105 -0.2232
16982SOL    HW152387   2.368   5.000   7.586 -1.8077  1.1751 -1.4350
16982SOL    HW252388   2.340   5.147   7.607  0.4884  1.2490  1.9323
16983SOL     OW52389   3.101   7.904   8.801 -0.2083 -0.3076 -0.6567
16983SOL    HW152390   3.169   7.969   8.785 -0.3874  0.4973  1.4402
16983SOL    HW252391   3.142   7.840   8.859 -1.3015  0.4442  1.0256
16984SOL     OW52392   4.875   7.299   7.602  0.4520 -0.1246 -0.1373
16984SOL    HW152393   4.949   7.359   7.606  0.9154 -0.7563  1.1343
16984SOL    HW252394   4.904   7.220   7.648 -0.8720 -0.5296  0.0644
16985SOL     OW52395   5.225   5.393   6.503  0.1395 -0.1195 -0.1306
16985SOL    HW152396   5.277   5.326   6.458  0.2893 -0.9006  1.1479
16985SOL    HW252397   5.137   5.383   6.468  0.4764  0.0348 -1.0427
16986SOL     OW52398   5.614   0.292   8.364  0.2163 -0.2622  0.6369
16986SOL    HW152399   5.680   0.318   8.429  2.5173  0.0680 -1.6953
16986SOL    HW252400   5.635   0.343   8.286 -2.2461 -0.8757 -0.5353
16987SOL     OW52401   5.785   6.040   7.968  0.0687 -0.3207 -0.2754
16987SOL    HW152402   5.713   5.989   8.006  0.6469 -0.9405  0.0186
16987SOL    HW252403   5.782   6.124   8.015 -1.3157  0.2143 -1.2361
16988SOL     OW52404   4.473   7.712   9.280  0.3558  0.2156  0.3765
16988SOL    HW152405   4.561   7.747   9.274  1.0528 -1.2560  1.3085
16988SOL    HW252406   4.478   7.648   9.351 -0.3129 -3.1510 -2.3479
16989SOL     OW52407   2.727   7.217   9.433 -0.2125 -0.0646  0.0726
16989SOL    HW152408   2.807   7.265   9.412 -0.6621  0.6494 -0.0529
16989SOL    HW252409   2.718   7.153   9.363 -0.2377  0.4669 -0.4111
16990SOL     OW52410   6.518   6.730   9.329  0.0033 -0.2718 -0.0733
16990SOL    HW152411   6.479   6.781   9.400 -0.5941  1.1331 -1.3714
16990SOL    HW252412   6.450   6.727   9.261  1.0574 -0.4080 -1.1476
16991SOL     OW52413   4.531   4.342   9.473  0.2515 -0.4988  0.3706
16991SOL    HW152414   4.516   4.260   9.520  1.2111 -1.5704 -1.0793
16991SOL    HW252415   4.460   4.346   9.409 -0.0261  0.0172  0.7083
16992SOL     OW52416   5.159   7.804  10.399 -0.8637 -0.7025 -0.2049
16992SOL    HW152417   5.134   7.771  10.313  0.2170  0.3631 -0.9746
16992SOL    HW252418   5.253   7.820  10.391 -0.8521 -0.0912  1.0029
16993SOL     OW52419   3.043   6.246   8.254 -0.3220  0.1767 -0.1564
16993SOL    HW152420   3.019   6.223   8.344 -1.6736  0.3755 -0.4545
16993SOL    HW252421   2.985   6.193   8.199  0.1824  0.3932 -0.9169
16994SOL     OW52422   4.238   7.083   8.865 -0.3759  0.3886 -0.1146
16994SOL    HW152423   4.169   7.021   8.845  0.6472 -0.6191 -0.6399
16994SOL    HW252424   4.298   7.078   8.790 -0.1834  1.9026 -0.1095
16995SOL     OW52425   5.172   7.392   7.176 -0.0771 -0.0737  0.4932
16995SOL    HW152426   5.228   7.391   7.098  0.4200 -0.4399  0.8435
16995SOL    HW252427   5.086   7.367   7.144 -0.7687  3.1538 -0.5760
16996SOL     OW52428   6.940   7.476   9.773  0.0806 -0.0261 -0.4975
16996SOL    HW152429   6.860   7.428   9.795  1.0768 -1.0629  1.0942
16996SOL    HW252430   6.929   7.562   9.815  0.5331 -0.8169  1.3413
16997SOL     OW52431   7.272   5.132   9.162 -0.2971  0.0427  0.3510
16997SOL    HW152432   7.181   5.161   9.171 -0.2460 -0.2447  2.1532
16997SOL    HW252433   7.285   5.121   9.068 -1.5779  1.8156 -0.0753
16998SOL     OW52434   5.802   7.799   7.845  0.5256 -0.5643  0.0043
16998SOL    HW152435   5.716   7.839   7.849  0.9569  0.5009 -0.7832
16998SOL    HW252436   5.863   7.870   7.862  1.2604 -1.3281  0.6782
16999SOL     OW52437   5.520   6.941   7.081  0.1320 -0.8086  0.0289
16999SOL    HW152438   5.463   7.007   7.042  0.4512 -1.3227 -1.3451
16999SOL    HW252439   5.565   6.901   7.007 -0.4605 -2.9663  0.7639
17000SOL     OW52440   2.579   6.653  11.234  0.1203  0.6660  0.2761
17000SOL    HW152441   2.545   6.679  11.319  1.3439  1.5482  0.5226
17000SOL    HW252442   2.532   6.572  11.213 -1.2347  1.1987  1.1202
17001SOL     OW52443   3.504   7.369   8.631 -0.0707  0.2563  0.0664
17001SOL    HW152444   3.548   7.388   8.549 -1.0921  0.8901 -0.3577
17001SOL    HW252445   3.574   7.361   8.695  0.7499 -0.4363 -0.8945
17002SOL     OW52446   3.376   7.427   7.988 -0.6168 -1.3125  0.6297
17002SOL    HW152447   3.365   7.364   7.916 -1.0926 -0.5499  0.0260
17002SOL    HW252448   3.306   7.490   7.976  0.4128 -0.1274  0.6836
17003SOL     OW52449   4.347   6.934   9.205 -0.2100 -1.1201  0.1294
17003SOL    HW152450   4.389   6.853   9.233  1.4227 -0.4537 -0.2506
17003SOL    HW252451   4.403   6.967   9.134 -1.0373  0.1368  0.0216
17004SOL     OW52452   4.839   0.589   8.578 -0.1594  0.1817  0.1311
17004SOL    HW152453   4.793   0.584   8.662 -0.0760 -0.6243  0.1366
17004SOL    HW252454   4.932   0.584   8.601 -0.0948  0.9364  0.0570
17005SOL     OW52455   5.138   6.284   8.482 -0.3021 -0.0662  0.1600
17005SOL    HW152456   5.207   6.293   8.416 -0.2385  0.3824  0.2857
17005SOL    HW252457   5.184   6.265   8.564 -0.3893 -0.7703  0.0556
17006SOL     OW52458   4.571   5.001   7.517  0.6089  0.3813 -0.1406
17006SOL    HW152459   4.482   4.975   7.491  0.9925 -0.1807 -0.9335
17006SOL    HW252460   4.604   4.927   7.567  0.9498  0.2339 -0.5903
17007SOL     OW52461   3.603   5.213   6.853 -0.1573  0.4917  0.3596
17007SOL    HW152462   3.582   5.146   6.788 -0.9427  0.9195  0.1533
17007SOL    HW252463   3.691   5.192   6.882 -0.0875 -0.1531 -0.2926
17008SOL     OW52464   6.577   6.618   7.518 -0.4326 -0.0758  0.1010
17008SOL    HW152465   6.586   6.675   7.441 -0.8130 -0.3898 -0.1771
17008SOL    HW252466   6.637   6.546   7.501 -0.3790 -0.0508  0.1865
17009SOL     OW52467   4.555   7.808   8.499  0.0888  0.4366  0.1245
17009SOL    HW152468   4.620   7.790   8.430  0.4659  1.9907  0.0456
17009SOL    HW252469   4.499   7.731   8.498  1.7013 -0.7956 -0.0576
17010SOL     OW52470   2.142   6.458   8.001 -0.3900 -0.6699 -0.0029
17010SOL    HW152471   2.210   6.394   8.021 -0.1187 -0.7047 -0.9837
17010SOL    HW252472   2.067   6.405   7.973  0.1293 -0.5658 -1.7010
17011SOL     OW52473   3.811   7.713  10.269  0.4070  0.1758 -0.6260
17011SOL    HW152474   3.857   7.775  10.326 -1.3008  0.9126  0.0165
17011SOL    HW252475   3.839   7.738  10.180  0.8104  0.9617 -0.2985
17012SOL     OW52476   2.727   6.760   6.507 -0.4716 -0.7609 -0.2975
17012SOL    HW152477   2.691   6.707   6.579  0.5575 -0.9339  0.0984
17012SOL    HW252478   2.783   6.824   6.549 -0.4058 -0.4116 -0.9030
17013SOL     OW52479   5.739   5.620  10.734 -0.3887  0.2089 -0.4395
17013SOL    HW152480   5.742   5.681  10.808 -0.2562  1.2790 -1.2895
17013SOL    HW252481   5.765   5.674  10.659 -0.5772 -0.8381 -1.2675
17014SOL     OW52482   1.376   4.740   7.391  0.0269  0.0193  0.1240
17014SOL    HW152483   1.339   4.668   7.341 -0.3150 -0.7003  1.3785
17014SOL    HW252484   1.320   4.749   7.468  0.5421  1.0860  0.4101
17015SOL     OW52485   3.960   5.740   6.639  0.8073 -0.1498  0.2171
17015SOL    HW152486   3.956   5.757   6.545  2.2152 -0.9244 -0.0034
17015SOL    HW252487   3.978   5.647   6.646  0.0926 -0.2288  1.2841
17016SOL     OW52488   4.940   4.543  10.919 -0.9973  0.0359 -0.2560
17016SOL    HW152489   5.019   4.506  10.879  0.0339 -0.0703  1.7210
17016SOL    HW252490   4.874   4.542  10.850  0.2772 -1.3696 -1.5045
17017SOL     OW52491   6.615   7.790   8.401  0.5391 -0.0988  0.4241
17017SOL    HW152492   6.626   7.884   8.416  0.8555 -0.1100  0.2731
17017SOL    HW252493   6.694   7.750   8.439  0.2389 -0.3401  0.8173
17018SOL     OW52494   5.401   5.092   8.658 -0.1786  0.0487  0.0675
17018SOL    HW152495   5.362   5.023   8.604  1.8158 -0.6988 -0.5232
17018SOL    HW252496   5.365   5.078   8.745 -2.9457  0.8449 -0.8552
17019SOL     OW52497   4.990   4.989   8.219 -0.1045  0.0313  0.1436
17019SOL    HW152498   5.024   4.927   8.284  0.3403 -0.2107 -0.3079
17019SOL    HW252499   4.922   5.038   8.265 -2.1012 -2.3213 -0.1234
17020SOL     OW52500   4.310   0.320   7.922  0.1835  0.7655  0.5439
17020SOL    HW152501   4.404   0.309   7.910 -0.1584 -2.3181  0.0547
17020SOL    HW252502   4.284   0.382   7.853  1.6692  0.8593  0.0432
17021SOL     OW52503   3.750   5.711   8.714  0.5768  0.1864 -0.1988
17021SOL    HW152504   3.678   5.754   8.667  1.1181  0.7420 -0.5377
17021SOL    HW252505   3.826   5.725   8.658  1.0285 -0.0483  0.3528
17022SOL     OW52506   5.477   4.188   8.635  0.3215 -0.0525 -0.1725
17022SOL    HW152507   5.420   4.201   8.710  1.4951  1.4130  0.5280
17022SOL    HW252508   5.418   4.172   8.562 -0.8884 -0.3994  0.8503
17023SOL     OW52509   4.607   6.089   9.357  0.1423  0.0836  0.0182
17023SOL    HW152510   4.702   6.080   9.355  0.0282 -1.1917 -0.7701
17023SOL    HW252511   4.574   5.999   9.355 -1.0883  0.3294  3.2181
17024SOL     OW52512   5.507   6.960   8.504  0.2993  0.1448  0.4342
17024SOL    HW152513   5.447   6.895   8.539 -1.0260  0.7088 -0.7040
17024SOL    HW252514   5.463   7.044   8.517  1.8368  0.8299  1.5922
17025SOL     OW52515   7.140   6.637   8.376 -0.0606  0.2129  1.0617
17025SOL    HW152516   7.157   6.568   8.440 -0.5159  1.1166  2.1868
17025SOL    HW252517   7.090   6.703   8.424 -1.5055  0.3613 -0.5710
17026SOL     OW52518   6.605   7.217   6.308 -0.0937 -0.0696 -0.1740
17026SOL    HW152519   6.590   7.180   6.221 -0.5597  0.3111 -0.2592
17026SOL    HW252520   6.666   7.289   6.294  0.8240 -0.7961 -0.0056
17027SOL     OW52521   5.860   7.818   7.008 -0.0778 -0.2519  0.5803
17027SOL    HW152522   5.863   7.914   6.999 -0.8416 -0.2769 -0.0565
17027SOL    HW252523   5.786   7.802   7.067 -0.2896 -0.4679  0.2583
17028SOL     OW52524   5.592   6.288   8.643  0.7892 -0.3434 -0.5617
17028SOL    HW152525   5.646   6.238   8.582  1.3900  1.3873 -1.5191
17028SOL    HW252526   5.586   6.376   8.604 -2.4899 -0.3332 -0.3675
17029SOL     OW52527   5.693   7.623   6.731  0.0358 -0.3439  0.4003
17029SOL    HW152528   5.694   7.696   6.793 -1.2880  0.1979 -0.1830
17029SOL    HW252529   5.675   7.546   6.785 -0.9371  0.0986  0.7251
17030SOL     OW52530   6.193   0.599   7.616 -0.3026  0.0732 -0.2866
17030SOL    HW152531   6.114   0.626   7.570 -0.6292 -0.4141 -0.0236
17030SOL    HW252532   6.162   0.570   7.702  0.0412 -0.9534 -0.4981
17031SOL     OW52533   4.798   0.436  11.222  0.2122 -0.3093  0.0129
17031SOL    HW152534   4.870   0.494  11.244  1.0471 -1.2341 -0.2247
17031SOL    HW252535   4.721   0.478  11.261  0.7411  1.0794 -0.3676
17032SOL     OW52536   5.803   6.197   8.829  0.1562  0.1863 -0.5731
17032SOL    HW152537   5.722   6.183   8.781 -0.5601 -0.8403  0.8660
17032SOL    HW252538   5.867   6.141   8.784 -0.3290 -0.2454 -0.7422
17033SOL     OW52539   5.804   0.142   7.725  0.4426  0.2287 -0.1899
17033SOL    HW152540   5.811   0.123   7.631 -1.1491 -1.3276 -0.0538
17033SOL    HW252541   5.864   0.081   7.767  0.2881  0.1085 -0.1406
17034SOL     OW52542   4.669   5.231   8.134  0.0691 -0.2562 -0.1197
17034SOL    HW152543   4.728   5.184   8.074 -1.6126 -3.4503  0.5088
17034SOL    HW252544   4.697   5.203   8.221 -0.6913  0.3168  0.3114
17035SOL     OW52545   3.568   6.782   8.237  0.2218 -0.1106 -0.1584
17035SOL    HW152546   3.620   6.849   8.193 -0.1196 -0.1196 -0.5881
17035SOL    HW252547   3.590   6.701   8.191  1.5955 -0.5365  1.1713
17036SOL     OW52548   5.692   7.174   7.064  0.4848  0.0162  0.4617
17036SOL    HW152549   5.607   7.173   7.020 -0.6395  0.7279  2.4780
17036SOL    HW252550   5.704   7.085   7.097  0.6752 -0.1632 -0.0900
17037SOL     OW52551   4.803   5.132   8.339  0.2853  0.3783 -0.2294
17037SOL    HW152552   4.865   5.175   8.397  1.4338 -1.5377  0.0297
17037SOL    HW252553   4.758   5.069   8.394 -0.8696  0.7154 -0.7544
17038SOL     OW52554   4.761   7.666   7.862  0.4382  0.5294 -0.8235
17038SOL    HW152555   4.834   7.683   7.803 -0.1852  2.7905 -1.0544
17038SOL    HW252556   4.695   7.730   7.837 -0.7991 -0.0541  0.7649
17039SOL     OW52557   5.395   3.974   9.508  0.4745  0.3270  0.1887
17039SOL    HW152558   5.334   3.907   9.478 -0.7043  1.1813  0.5832
17039SOL    HW252559   5.341   4.053   9.517  2.0410  1.6403 -1.3538
17040SOL     OW52560   5.449   5.311   8.946  0.2622  0.0010 -0.0959
17040SOL    HW152561   5.408   5.225   8.933  3.1994 -1.3959 -1.0570
17040SOL    HW252562   5.504   5.300   9.024 -0.7574  1.6641  0.9109
17041SOL     OW52563   3.638   6.013   8.516 -0.6286 -0.8763 -0.2916
17041SOL    HW152564   3.584   6.039   8.591 -1.0201 -0.1942 -0.7969
17041SOL    HW252565   3.601   5.931   8.486 -0.4476 -1.1731  0.2766
17042SOL     OW52566   2.780   6.311   8.656 -0.1160  0.2025 -0.1994
17042SOL    HW152567   2.793   6.234   8.601  0.0399  0.0172  0.0923
17042SOL    HW252568   2.694   6.345   8.632 -0.0799  0.0781 -0.5007
17043SOL     OW52569   5.750   3.481   8.089 -0.3758  0.3139  0.2522
17043SOL    HW152570   5.667   3.441   8.116 -0.3220  1.4466  2.2918
17043SOL    HW252571   5.729   3.574   8.080  0.5871  0.5556  0.4287
17044SOL     OW52572   6.298   7.656   7.397  0.1889  0.4923 -0.3497
17044SOL    HW152573   6.386   7.694   7.389  0.1193  0.5735 -0.7133
17044SOL    HW252574   6.254   7.680   7.316  0.1011 -0.2442 -0.5285
17045SOL     OW52575   5.416   6.517   9.551 -0.0544 -0.6335 -0.0827
17045SOL    HW152576   5.338   6.571   9.536 -0.9427 -1.3063  1.8346
17045SOL    HW252577   5.405   6.443   9.492 -0.1382 -0.0441 -0.8310
17046SOL     OW52578   3.502   7.619   7.823 -0.0850  0.4980  0.0083
17046SOL    HW152579   3.511   7.555   7.894  0.9913  0.1020 -0.4571
17046SOL    HW252580   3.592   7.648   7.805 -0.3144  0.4841 -1.2839
17047SOL     OW52581   6.014   7.173   7.487 -0.1758 -0.5110 -0.2266
17047SOL    HW152582   6.065   7.097   7.460 -1.5000 -1.0960 -1.1626
17047SOL    HW252583   6.078   7.231   7.528  1.1966 -1.3210 -1.1473
17048SOL     OW52584   3.673   0.305   8.473 -0.4860 -0.7332 -0.2713
17048SOL    HW152585   3.625   0.388   8.470  0.7806 -0.0026 -0.8226
17048SOL    HW252586   3.681   0.279   8.382 -0.9593 -1.5407 -0.0991
17049SOL     OW52587   3.467   6.962   9.191  0.1652  0.0947 -0.0699
17049SOL    HW152588   3.452   7.045   9.146  0.2756  0.7109  1.0131
17049SOL    HW252589   3.525   6.913   9.133  0.2918  0.8680 -0.6061
17050SOL     OW52590   3.837   7.726  10.645  0.1649 -0.3317 -0.0991
17050SOL    HW152591   3.771   7.696  10.708  2.1267 -1.0737  1.7075
17050SOL    HW252592   3.849   7.819  10.665  0.0362 -0.3147 -0.0969
17051SOL     OW52593   3.017   0.442   9.880 -0.5445  0.4016 -0.3502
17051SOL    HW152594   3.089   0.381   9.862 -1.6408 -1.2140  0.4458
17051SOL    HW252595   2.976   0.456   9.795  1.2629  2.1438 -0.9938
17052SOL     OW52596   4.611   7.565  10.640  0.0932  0.0585 -0.4745
17052SOL    HW152597   4.700   7.568  10.677 -0.2552  0.5410  0.3538
17052SOL    HW252598   4.620   7.600  10.552  0.5194  1.2879  0.0358
17053SOL     OW52599   4.085   7.876   9.484 -0.0883  0.0691 -0.8028
17053SOL    HW152600   4.082   7.782   9.469 -2.5622  0.0728 -0.7453
17053SOL    HW252601   4.138   7.910   9.412  3.1565 -1.5244  0.6453
17054SOL     OW52602   7.190   5.804   8.183 -0.1873  0.5010 -0.0461
17054SOL    HW152603   7.169   5.734   8.120 -2.5578  2.1306 -1.2562
17054SOL    HW252604   7.106   5.849   8.197  1.1394  2.8374  0.9976
17055SOL     OW52605   4.479   6.862  11.102 -0.3609 -0.0665 -0.4861
17055SOL    HW152606   4.517   6.924  11.164  2.2092  0.0953 -2.0572
17055SOL    HW252607   4.448   6.790  11.156 -1.7415  1.7387  1.2295
17056SOL     OW52608   4.327   6.381   9.604 -0.2053  0.2113 -0.1246
17056SOL    HW152609   4.315   6.300   9.554 -0.4963  1.0433 -1.4421
17056SOL    HW252610   4.269   6.371   9.680 -0.7953 -0.5116 -0.6542
17057SOL     OW52611   3.812   5.450  10.290 -0.7478  0.0048  0.2515
17057SOL    HW152612   3.746   5.390  10.326 -2.3409  0.7294 -1.2699
17057SOL    HW252613   3.760   5.523  10.255  0.9945  1.2806  0.2120
17058SOL     OW52614   5.613   7.895  11.938  0.2630  0.1642 -0.0469
17058SOL    HW152615   5.669   7.972  11.952  1.2998 -0.3277 -1.2658
17058SOL    HW252616   5.623   7.876  11.845 -0.7116 -0.9044  0.0520
17059SOL     OW52617   3.175   7.354  10.603 -0.3472 -0.3244 -0.2206
17059SOL    HW152618   3.163   7.375  10.695  2.2057 -1.1816  0.3944
17059SOL    HW252619   3.250   7.407  10.576 -0.9768 -0.1827 -1.8042
17060SOL     OW52620   5.013   0.111  10.797  0.3218  0.8577 -0.4040
17060SOL    HW152621   5.077   0.180  10.782  2.4097 -0.8617  0.1947
17060SOL    HW252622   5.049   0.034  10.754 -1.0459 -0.3252  0.4642
17061SOL     OW52623   4.883   6.116  11.350  0.4147 -0.1891  0.0375
17061SOL    HW152624   4.879   6.020  11.355 -0.4673 -0.2082 -0.8414
17061SOL    HW252625   4.893   6.134  11.256 -1.8749  0.6393 -0.0907
17062SOL     OW52626   6.594   7.630  11.078 -0.1638 -0.4277 -0.0678
17062SOL    HW152627   6.608   7.719  11.044 -3.8614  0.0026 -0.9480
17062SOL    HW252628   6.604   7.574  11.001 -1.0386 -0.3342 -0.2670
17063SOL     OW52629   4.745   7.191   9.849  0.4578 -0.2383  0.3910
17063SOL    HW152630   4.827   7.207   9.896  0.4405  1.3902 -0.0697
17063SOL    HW252631   4.680   7.177   9.918  0.7551  0.4569  0.8264
17064SOL     OW52632   5.607   6.889   0.475 -0.0476 -0.4529 -0.4004
17064SOL    HW152633   5.525   6.839   0.481  1.3689 -2.8349  0.6096
17064SOL    HW252634   5.627   6.914   0.565  0.8506 -0.8815 -0.4629
17065SOL     OW52635   3.493   0.804   8.953 -0.4251 -0.5137  0.1584
17065SOL    HW152636   3.492   0.895   8.922 -0.2119 -0.9121 -1.0634
17065SOL    HW252637   3.404   0.790   8.988 -0.2196  0.3921  1.1148
17066SOL     OW52638   2.950   6.518  11.746  0.0026  0.0953 -0.2050
17066SOL    HW152639   2.898   6.438  11.753 -0.5693  0.5568  1.3699
17066SOL    HW252640   2.906   6.570  11.678  0.7612 -1.1551 -1.7114
17067SOL     OW52641   5.105   0.674  12.200 -0.0252 -0.0046  0.2202
17067SOL    HW152642   5.154   0.747  12.161  1.0655  0.5601  2.5077
17067SOL    HW252643   5.054   0.714  12.270 -1.6307 -1.0460 -0.3032
17068SOL     OW52644   4.464   5.138   9.366 -0.0455  0.1285 -0.2497
17068SOL    HW152645   4.464   5.199   9.292  0.5379  0.1635 -0.2291
17068SOL    HW252646   4.512   5.061   9.333 -0.6567 -0.2668 -0.2308
17069SOL     OW52647   3.812   6.897  11.467 -0.5050  0.0321 -0.2587
17069SOL    HW152648   3.816   6.892  11.562 -0.8125  0.5634 -0.2124
17069SOL    HW252649   3.719   6.890  11.446 -0.6652  1.8386 -0.3809
17070SOL     OW52650   3.166   6.335  11.158 -0.1953  0.3086  0.5436
17070SOL    HW152651   3.103   6.401  11.188  0.0278  0.5337  0.5162
17070SOL    HW252652   3.112   6.257  11.141 -0.3832  0.2952  1.1566
17071SOL     OW52653   5.988   7.135   8.781  0.6477  0.0945 -0.3527
17071SOL    HW152654   5.963   7.218   8.821  0.9777 -0.0562  0.1805
17071SOL    HW252655   6.035   7.160   8.702  0.4183  0.4086 -0.3917
17072SOL     OW52656   2.873   7.386  10.172 -0.2113 -0.3146 -0.5942
17072SOL    HW152657   2.830   7.311  10.132  0.3849 -0.9501 -0.0514
17072SOL    HW252658   2.888   7.360  10.263 -0.5199  0.6779 -0.2462
17073SOL     OW52659   4.233   7.153  10.175 -0.2847  0.0001 -0.0846
17073SOL    HW152660   4.228   7.080  10.236 -0.6924 -0.1823 -0.3315
17073SOL    HW252661   4.271   7.225  10.226 -2.3813  0.4405  0.9437
17074SOL     OW52662   5.071   0.327  11.389 -0.3531 -0.1729  0.0919
17074SOL    HW152663   5.057   0.311  11.295  0.4658  0.2203 -0.1143
17074SOL    HW252664   5.137   0.263  11.414 -0.0464  0.1891  0.2241
17075SOL     OW52665   2.763   0.095  11.752  0.2313  0.4852 -0.1719
17075SOL    HW152666   2.719   0.011  11.737  1.7533  0.0673 -2.9824
17075SOL    HW252667   2.731   0.152  11.682  1.3397  1.3275 -0.0214
17076SOL     OW52668   4.579   7.292  11.104 -0.2770 -0.1924 -0.1169
17076SOL    HW152669   4.636   7.326  11.173 -0.4757  0.9319 -0.4930
17076SOL    HW252670   4.506   7.251  11.151 -0.5331  0.7685  0.3439
17077SOL     OW52671   4.999   5.705   0.261 -0.6394 -0.0701 -0.0972
17077SOL    HW152672   4.973   5.655   0.339 -2.3269  2.3011  0.9989
17077SOL    HW252673   4.917   5.720   0.214  0.2188 -0.6043 -1.8364
17078SOL     OW52674   4.724   5.229  10.850 -0.0563  0.1744  0.5786
17078SOL    HW152675   4.703   5.315  10.813  3.0641  1.0975  0.7184
17078SOL    HW252676   4.747   5.175  10.775  4.0598  1.3950  0.7424
17079SOL     OW52677   4.872   7.888  11.635  0.1365  0.0818  0.2238
17079SOL    HW152678   4.813   7.905  11.561  0.7181 -0.3060 -0.3414
17079SOL    HW252679   4.819   7.838  11.697  0.1444 -1.2050 -0.7471
17080SOL     OW52680   2.440   7.204  10.613 -0.4570 -0.0631 -0.1580
17080SOL    HW152681   2.531   7.195  10.585 -0.1871  1.0728  0.3316
17080SOL    HW252682   2.389   7.163  10.542  0.4428 -1.1505 -0.2054
17081SOL     OW52683   4.521   6.400  10.433  0.4470 -0.1988 -0.6616
17081SOL    HW152684   4.578   6.473  10.412  0.8358 -0.2468  0.1929
17081SOL    HW252685   4.456   6.436  10.494  0.4039 -0.4721 -0.5412
17082SOL     OW52686   3.503   5.937  11.420 -0.3680 -0.4963 -0.0957
17082SOL    HW152687   3.420   5.942  11.468 -0.9047  0.1875 -1.0545
17082SOL    HW252688   3.549   6.018  11.444 -0.0446 -0.7933  0.3004
17083SOL     OW52689   4.202   7.086   8.343 -0.4783  0.0540 -0.1841
17083SOL    HW152690   4.231   7.113   8.256  2.5184  0.7272  0.9201
17083SOL    HW252691   4.216   6.991   8.345 -0.2636  0.0832 -0.3277
17084SOL     OW52692   5.783   7.416   9.459 -0.1321 -0.0404 -0.4107
17084SOL    HW152693   5.786   7.403   9.364  1.8313 -0.3786 -0.3468
17084SOL    HW252694   5.696   7.452   9.476 -0.7726 -0.6059 -2.2490
17085SOL     OW52695   2.930   6.882   9.849 -0.1995  0.1146 -0.1070
17085SOL    HW152696   2.963   6.796   9.823 -1.6628 -0.2197 -0.9497
17085SOL    HW252697   2.967   6.943   9.785 -1.1554 -0.2592 -1.0462
17086SOL     OW52698   4.623   6.325   9.830  0.1701  0.2637  0.0790
17086SOL    HW152699   4.560   6.378   9.782 -0.3109  0.1694  0.6036
17086SOL    HW252700   4.596   6.234   9.815  2.1087 -0.0409 -2.4397
17087SOL     OW52701   3.809   7.584   9.033  0.1212  0.5649 -0.2929
17087SOL    HW152702   3.789   7.494   9.061 -1.0591  1.4330  1.8347
17087SOL    HW252703   3.742   7.603   8.967  0.4791 -0.1414 -0.8806
17088SOL     OW52704   5.144   6.555  10.580  0.8910 -0.0586  0.0574
17088SOL    HW152705   5.203   6.496  10.626  1.7100  0.9150  0.2988
17088SOL    HW252706   5.064   6.554  10.632  0.2236 -2.2951 -0.9172
17089SOL     OW52707   4.394   5.490   9.599  0.0181 -0.2761 -0.2190
17089SOL    HW152708   4.346   5.432   9.657  0.1846  0.6355  0.8654
17089SOL    HW252709   4.455   5.536   9.656  1.2849 -0.4677 -1.3598
17090SOL     OW52710   5.013   6.641   8.834 -0.3034 -0.0719 -0.2792
17090SOL    HW152711   5.006   6.616   8.742  1.1698 -0.3978 -0.3165
17090SOL    HW252712   4.986   6.563   8.883 -0.5136 -0.0889 -0.4200
17091SOL     OW52713   7.443   6.052   8.306  0.7475  0.2027  0.1404
17091SOL    HW152714   7.421   6.086   8.219 -0.3293 -0.6421  0.0620
17091SOL    HW252715   7.405   6.116   8.367  0.9782  0.4790 -0.0023
17092SOL     OW52716   4.827   0.329  10.321  0.0313  0.1866  0.4271
17092SOL    HW152717   4.827   0.339  10.226  1.0193 -0.4739  0.3458
17092SOL    HW252718   4.906   0.375  10.350  0.4634 -0.7728  0.7929
17093SOL     OW52719   3.658   6.201  11.348 -0.0106 -0.7565 -0.3251
17093SOL    HW152720   3.638   6.191  11.255  0.9171  2.3731 -0.9769
17093SOL    HW252721   3.740   6.152  11.361  0.2604 -0.5920 -1.3448
17094SOL     OW52722   2.996   0.732   9.387  0.8771 -0.3045  0.5325
17094SOL    HW152723   3.089   0.738   9.412  0.7745  0.2324  0.8185
17094SOL    HW252724   2.987   0.646   9.347  2.1447  0.7020 -2.1238
17095SOL     OW52725   3.973   6.775   9.805 -0.1660  0.1226 -0.1642
17095SOL    HW152726   3.935   6.859   9.830  1.7595  0.7593  0.8417
17095SOL    HW252727   4.050   6.799   9.752  1.1801 -0.9043  1.2301
17096SOL     OW52728   7.371   7.722   0.803  0.8993  0.1851  0.1462
17096SOL    HW152729   7.362   7.643   0.751 -0.7897  0.2750  0.2405
17096SOL    HW252730   7.347   7.695   0.892 -0.8780  1.0104 -0.0374
17097SOL     OW52731   3.795   7.803   9.688  0.6396 -0.2893  0.5794
17097SOL    HW152732   3.786   7.731   9.626 -0.1888 -0.6619  1.1102
17097SOL    HW252733   3.888   7.809   9.706  1.0586  0.5378 -1.5156
17098SOL     OW52734   4.462   6.817  10.236 -0.2593 -0.3492  0.4802
17098SOL    HW152735   4.476   6.728  10.202 -1.8478 -0.0936 -0.9675
17098SOL    HW252736   4.433   6.867  10.161  1.4037  1.6664  1.0816
17099SOL     OW52737   4.871   0.021   9.408  0.0645 -0.6709 -1.0683
17099SOL    HW152738   4.942   0.074   9.372  0.2271  0.9990  1.4749
17099SOL    HW252739   4.795   0.040   9.353 -0.0752  2.9101  0.1251
17100SOL     OW52740   5.143   0.917  10.414 -0.1210  0.4692 -0.0813
17100SOL    HW152741   5.059   0.916  10.461  0.2849  0.1764  0.6493
17100SOL    HW252742   5.158   1.010  10.395 -0.3035  0.5860  0.3397
17101SOL     OW52743   4.305   7.799   9.862  0.1043  0.0979 -0.5048
17101SOL    HW152744   4.383   7.846   9.891  1.3580 -0.0564 -3.2496
17101SOL    HW252745   4.337   7.712   9.839 -1.1040 -0.3263 -0.6294
17102SOL     OW52746   5.530   7.303   9.290  0.2507 -0.0523 -0.6126
17102SOL    HW152747   5.499   7.265   9.207 -0.5626 -0.4405 -0.1401
17102SOL    HW252748   5.465   7.277   9.354  0.8908  0.2303  0.1649
17103SOL     OW52749   3.341   7.095  10.134  0.3874 -0.1926  0.0354
17103SOL    HW152750   3.432   7.069  10.147  0.6683 -0.4727 -2.1577
17103SOL    HW252751   3.293   7.014  10.120 -0.4642 -0.1445  2.1188
17104SOL     OW52752   3.770   0.161  10.527  0.2498 -0.8612 -0.1252
17104SOL    HW152753   3.676   0.170  10.541  0.4252 -1.3828  1.6813
17104SOL    HW252754   3.806   0.246  10.553  0.2974 -0.7667 -0.5066
17105SOL     OW52755   3.578   7.546   0.451 -0.1894 -0.0818 -0.7603
17105SOL    HW152756   3.506   7.496   0.412  1.5554 -1.5234 -2.3035
17105SOL    HW252757   3.644   7.481   0.473  0.3835  1.1105  1.3891
17106SOL     OW52758   6.008   6.051   9.271  0.0535  0.2194 -0.1832
17106SOL    HW152759   6.070   6.120   9.247 -1.0214  1.4574  0.4929
17106SOL    HW252760   5.950   6.044   9.196  0.3890 -0.2335 -0.4062
17107SOL     OW52761   4.065   7.130  12.044  0.8923 -0.3556 -0.0538
17107SOL    HW152762   4.098   7.053  11.998 -0.3848 -0.4388 -0.8947
17107SOL    HW252763   4.109   7.128  12.129  1.4945 -1.5547 -0.3676
17108SOL     OW52764   3.932   5.307   8.369 -0.6303  0.3604  0.3958
17108SOL    HW152765   3.947   5.304   8.463 -1.1397  0.5152  0.4867
17108SOL    HW252766   3.854   5.253   8.356  0.5794 -1.3202 -0.1925
17109SOL     OW52767   5.241   7.964   8.229 -0.5799 -0.2799  0.1736
17109SOL    HW152768   5.328   7.991   8.259  0.3100 -1.6966 -0.9918
17109SOL    HW252769   5.252   7.873   8.203 -2.2147 -0.2255 -0.8457
17110SOL     OW52770   4.119   5.354  11.613 -0.1293 -0.4690 -0.0280
17110SOL    HW152771   4.066   5.430  11.593  0.4647  0.1218  0.5955
17110SOL    HW252772   4.096   5.290  11.545 -1.8179 -0.3351  0.3761
17111SOL     OW52773   5.472   0.957  10.148 -0.1139  0.0450  0.6079
17111SOL    HW152774   5.467   0.890  10.080  2.5870 -1.4161  1.7025
17111SOL    HW252775   5.419   1.030  10.114  0.2317 -1.0266 -2.5454
17112SOL     OW52776   4.846   6.176   9.081  0.3370 -0.0517  0.2529
17112SOL    HW152777   4.768   6.131   9.048  0.2873 -0.4931  0.9486
17112SOL    HW252778   4.911   6.164   9.012 -0.0561 -0.1131 -0.1134
17113SOL     OW52779   4.851   6.567   9.131 -0.0063  0.3005 -0.2678
17113SOL    HW152780   4.830   6.491   9.185  0.3449  1.0039  0.8826
17113SOL    HW252781   4.771   6.582   9.080 -1.1232  0.8792  1.5703
17114SOL     OW52782   5.136   5.114  12.155 -0.2854 -0.1538 -0.4081
17114SOL    HW152783   5.132   5.037  12.212  1.2312 -1.5043 -1.9771
17114SOL    HW252784   5.153   5.187  12.214 -0.1191 -1.2722  0.9883
17115SOL     OW52785   2.804   5.509  10.596 -0.2777  0.7020  0.3207
17115SOL    HW152786   2.730   5.524  10.656 -1.0030  0.4825 -0.4927
17115SOL    HW252787   2.832   5.596  10.570 -1.2466  0.7820 -0.5314
17116SOL     OW52788   7.279   5.130  11.085  0.1463 -0.7096 -0.1392
17116SOL    HW152789   7.219   5.167  11.149  1.0787 -1.3679  1.1789
17116SOL    HW252790   7.285   5.037  11.108  1.6371 -0.6675 -0.2259
17117SOL     OW52791   3.831   6.865  10.113 -0.4411  0.1739 -0.4275
17117SOL    HW152792   3.923   6.840  10.119 -1.0639 -2.2674  0.2910
17117SOL    HW252793   3.825   6.917  10.033  1.6181  0.7814 -0.2407
17118SOL     OW52794   3.950   6.013  10.788  0.5363 -0.1886  0.1563
17118SOL    HW152795   3.928   6.097  10.828 -0.4158  0.1665 -1.0424
17118SOL    HW252796   4.040   5.996  10.814  1.0189  1.6103 -0.2511
17119SOL     OW52797   3.470   6.634   9.602  0.5991  0.1030  0.5052
17119SOL    HW152798   3.540   6.603   9.659 -0.8018 -1.3257  1.5523
17119SOL    HW252799   3.512   6.698   9.544  2.6985 -0.5967  1.1741
17120SOL     OW52800   3.586   6.828   9.401 -0.2917  0.3575  0.0571
17120SOL    HW152801   3.650   6.778   9.351 -0.0782 -0.3188  0.9844
17120SOL    HW252802   3.539   6.880   9.335 -1.2073 -1.7826 -1.0884
17121SOL     OW52803   3.806   6.814  10.678  0.0199 -0.3758 -0.2137
17121SOL    HW152804   3.715   6.786  10.688  0.2117 -0.2773  2.1508
17121SOL    HW252805   3.849   6.741  10.634 -1.3580 -0.0099 -2.3255
17122SOL     OW52806   5.574   7.051   8.235  0.2714 -0.4192  0.0793
17122SOL    HW152807   5.667   7.071   8.231  0.6991 -2.2597 -0.1198
17122SOL    HW252808   5.555   7.042   8.328 -0.5324  3.1666  0.4121
17123SOL     OW52809   3.396   5.362  10.100 -0.3545 -0.4301 -0.6322
17123SOL    HW152810   3.392   5.456  10.118  1.1837 -0.2905 -0.8964
17123SOL    HW252811   3.359   5.352  10.012 -0.5538 -0.0798 -0.5878
17124SOL     OW52812   4.216   5.993   9.786  0.5121  0.4989  0.6650
17124SOL    HW152813   4.175   5.929   9.843  1.1348 -0.5019  0.0160
17124SOL    HW252814   4.195   5.964   9.698  3.3438 -0.6058  0.2726
17125SOL     OW52815   4.596   5.120   9.888 -0.1642  0.4804 -0.2555
17125SOL    HW152816   4.565   5.092   9.974  2.6558  1.5585  1.2576
17125SOL    HW252817   4.616   5.213   9.899  2.3122  0.1507 -1.3608
17126SOL     OW52818   5.234   7.136  10.743 -0.0102 -1.0665 -0.6334
17126SOL    HW152819   5.198   7.163  10.658 -1.6605 -1.2834 -0.0314
17126SOL    HW252820   5.266   7.047  10.729 -0.7499 -1.2949 -0.9027
17127SOL     OW52821   3.983   6.320   9.182 -0.2192  0.0261 -0.3151
17127SOL    HW152822   4.027   6.310   9.266 -0.0071 -0.8215 -0.5192
17127SOL    HW252823   3.990   6.234   9.140  0.1168  0.5642 -1.4149
17128SOL     OW52824   5.168   0.141   8.436  0.1896 -0.0550 -0.3057
17128SOL    HW152825   5.222   0.207   8.392 -2.6905  1.8678 -1.3186
17128SOL    HW252826   5.159   0.071   8.372  0.8252 -0.0316 -0.4289
17129SOL     OW52827   3.221   6.947   9.846  0.4930 -0.3107 -0.0515
17129SOL    HW152828   3.193   6.956   9.755 -0.9081  1.9674  0.5235
17129SOL    HW252829   3.300   7.000   9.851 -0.0436  0.4736  0.2787
17130SOL     OW52830   3.969   6.182   9.616  0.8326 -0.7507  0.4514
17130SOL    HW152831   4.051   6.181   9.565 -0.0834 -0.6606 -1.1058
17130SOL    HW252832   3.935   6.093   9.608 -0.9067  0.0161 -1.8942
17131SOL     OW52833   3.033   7.251  11.525 -0.0925  0.2216 -0.1113
17131SOL    HW152834   2.945   7.283  11.509 -0.6313 -1.2128 -0.1741
17131SOL    HW252835   3.036   7.229  11.618 -0.3788 -1.2878 -0.4213
17132SOL     OW52836   5.799   6.550   7.498 -0.2364  0.0116  0.1633
17132SOL    HW152837   5.875   6.607   7.492  0.2960 -0.5952  0.9432
17132SOL    HW252838   5.740   6.582   7.429  0.2873  1.1199  0.1960
17133SOL     OW52839   5.681   5.076   8.703  0.8176  0.1406  0.3026
17133SOL    HW152840   5.723   5.019   8.638  1.7170  2.5621 -1.3849
17133SOL    HW252841   5.587   5.063   8.689  0.9958  0.1738 -1.1038
17134SOL     OW52842   6.176   6.915  10.992 -0.3192 -0.0577 -0.0043
17134SOL    HW152843   6.241   6.985  10.987  0.3152 -0.6815 -0.6804
17134SOL    HW252844   6.103   6.946  10.939 -0.3533  0.4052  0.3042
17135SOL     OW52845   5.686   4.771  11.301 -0.0558 -0.0187 -0.4244
17135SOL    HW152846   5.619   4.788  11.366  0.5312 -0.2569  0.2528
17135SOL    HW252847   5.723   4.857  11.281 -1.4131  0.3002 -1.7697
17136SOL     OW52848   5.608   6.717   8.865 -0.3134  0.3111  0.2239
17136SOL    HW152849   5.515   6.692   8.873  0.0318 -0.8019  1.0821
17136SOL    HW252850   5.655   6.646   8.909  0.8933  1.3332  0.6273
17137SOL     OW52851   3.023   7.455   9.294 -0.4565  0.3682  0.4059
17137SOL    HW152852   3.000   7.502   9.214 -1.9959 -0.2914  0.4180
17137SOL    HW252853   3.088   7.390   9.266 -1.4723 -0.3070 -0.4668
17138SOL     OW52854   3.673   7.265   9.105 -0.0493  0.3746 -0.1890
17138SOL    HW152855   3.608   7.243   9.171 -0.2827  0.9529 -0.2114
17138SOL    HW252856   3.755   7.230   9.138  0.2008  2.2464  1.3300
17139SOL     OW52857   4.686   5.362   9.989  0.8562 -0.1541  0.2587
17139SOL    HW152858   4.751   5.430   9.971  1.2044 -0.4529  0.3816
17139SOL    HW252859   4.659   5.378  10.079  0.5900  0.1097  0.1335
17140SOL     OW52860   4.170   0.468   9.196 -0.3916  0.2011  0.5102
17140SOL    HW152861   4.165   0.470   9.291  0.4108  1.8728  0.5438
17140SOL    HW252862   4.087   0.428   9.169  0.1396 -2.0815  1.9159
17141SOL     OW52863   4.690   7.251  12.476 -0.7274  0.4394  0.1336
17141SOL    HW152864   4.733   7.247  12.561 -0.4083  0.9959  0.0100
17141SOL    HW252865   4.735   7.323  12.431 -2.1280  1.4019  0.1942
17142SOL     OW52866   4.430   1.210   0.080 -0.1036  0.5028 -0.3312
17142SOL    HW152867   4.340   1.178   0.080 -0.1296  0.5214  0.7369
17142SOL    HW252868   4.424   1.297   0.040 -0.7044  0.8287  0.4209
17143SOL     OW52869   4.893   7.920  10.279 -0.8237  0.3673  0.1853
17143SOL    HW152870   4.910   7.955  10.366  3.0903  0.5496 -0.4436
17143SOL    HW252871   4.971   7.868  10.259 -1.9584 -0.3449 -2.8651
17144SOL     OW52872   4.254   7.115  11.075 -0.9048 -0.0016  0.3098
17144SOL    HW152873   4.291   7.028  11.057 -0.9688  0.5616 -3.2146
17144SOL    HW252874   4.297   7.173  11.012 -1.7225  2.3455  1.7817
17145SOL     OW52875   5.366   0.008  12.042  0.1755  0.7604 -0.1402
17145SOL    HW152876   5.459  -0.010  12.032  0.2262  1.4558 -1.0772
17145SOL    HW252877   5.330  -0.002  11.954 -0.5050  1.1634  0.0826
17146SOL     OW52878   5.118   5.784   8.991 -0.3240 -0.1284 -0.2267
17146SOL    HW152879   5.144   5.847   9.059 -0.1899 -0.1801 -0.2305
17146SOL    HW252880   5.190   5.784   8.929  0.7650 -2.0207  0.9625
17147SOL     OW52881   4.595   6.511  11.095  0.2326 -0.1720  0.0584
17147SOL    HW152882   4.512   6.495  11.049 -0.4912  0.7187  1.0244
17147SOL    HW252883   4.589   6.458  11.174 -0.7045  2.0238  1.5690
17148SOL     OW52884   3.408   5.630   9.479 -0.4676  0.3200 -0.1342
17148SOL    HW152885   3.491   5.670   9.452 -0.5237 -0.1767 -1.0883
17148SOL    HW252886   3.425   5.536   9.476 -0.8084  0.2344  0.5371
17149SOL     OW52887   5.178   5.055  10.730 -0.6067 -0.6332  0.0162
17149SOL    HW152888   5.253   5.078  10.675 -1.3094  0.6118 -0.4549
17149SOL    HW252889   5.143   4.975  10.691 -2.2353  1.2053 -2.6117
17150SOL     OW52890   5.152   5.871   9.466  0.0576  0.3863  0.1991
17150SOL    HW152891   5.212   5.877   9.391 -0.5293  2.1284 -0.1660
17150SOL    HW252892   5.149   5.777   9.486 -0.1812 -0.2015 -2.2870
17151SOL     OW52893   2.904   6.305  10.838 -0.0514  0.0191  0.1756
17151SOL    HW152894   2.906   6.363  10.762 -2.2060  0.9356  0.7522
17151SOL    HW252895   2.974   6.337  10.894  1.6857 -0.7741 -1.4168
17152SOL     OW52896   2.898   7.720   9.838  0.6773  0.6277  0.2171
17152SOL    HW152897   2.934   7.631   9.838 -0.1162  0.2957 -0.3287
17152SOL    HW252898   2.820   7.714   9.893 -0.2704  0.6030 -1.0971
17153SOL     OW52899   3.108   5.250  11.120  0.0952  0.0308 -0.1083
17153SOL    HW152900   3.145   5.331  11.153  0.8536 -0.5716  0.5654
17153SOL    HW252901   3.144   5.240  11.032  0.3000  0.2343 -0.0461
17154SOL     OW52902   5.606   0.287   9.144  0.0050  0.1871 -0.3133
17154SOL    HW152903   5.559   0.291   9.061 -0.2998  0.3592 -0.1335
17154SOL    HW252904   5.649   0.372   9.152  1.0616 -0.2763 -0.8890
17155SOL     OW52905   3.661   7.253  10.386  0.1522 -0.2257  0.1122
17155SOL    HW152906   3.694   7.334  10.424 -0.4830 -0.3947  1.0427
17155SOL    HW252907   3.662   7.269  10.291 -3.4779  2.3286  0.3024
17156SOL     OW52908   4.502   6.822   9.704 -0.0415 -0.4048 -0.6671
17156SOL    HW152909   4.595   6.809   9.720 -0.2089 -0.7187  0.1105
17156SOL    HW252910   4.476   6.748   9.651 -0.3912 -1.8394  1.3684
17157SOL     OW52911   4.507   7.869   9.564 -0.1324 -0.0871 -0.1339
17157SOL    HW152912   4.528   7.962   9.557  1.2670 -0.4303 -0.8429
17157SOL    HW252913   4.433   7.857   9.503 -0.2620  0.5397 -0.1051
17158SOL     OW52914   4.162   5.792   9.018 -0.4816 -0.4416  0.4079
17158SOL    HW152915   4.195   5.856   8.954  0.4156 -0.8519  0.4442
17158SOL    HW252916   4.079   5.762   8.981 -0.5995  0.2735  0.0779
17159SOL     OW52917   6.182   0.208   1.845 -0.0390 -0.0489  0.4075
17159SOL    HW152918   6.133   0.216   1.763  0.8299  0.7029 -0.0596
17159SOL    HW252919   6.214   0.118   1.846 -0.0071 -0.0431 -0.1060
17160SOL     OW52920   5.570   6.288  10.092  0.3312  0.7768 -0.3550
17160SOL    HW152921   5.619   6.218  10.135  1.1795  1.6017  0.0682
17160SOL    HW252922   5.566   6.260  10.000 -0.7248 -0.5686  0.0659
17161SOL     OW52923   3.087   5.914  10.913 -0.4196 -0.2700 -0.2799
17161SOL    HW152924   3.039   5.840  10.949  0.4995  0.3775  2.5682
17161SOL    HW252925   3.025   5.987  10.916 -1.0287 -0.6750 -2.1891
17162SOL     OW52926   4.514   0.498  11.244  0.2799 -0.1119  0.0434
17162SOL    HW152927   4.494   0.553  11.168 -0.2635  1.2672  1.1264
17162SOL    HW252928   4.434   0.501  11.297  0.7193 -0.8684  0.7690
17163SOL     OW52929   3.733   7.690  11.098 -0.0811 -0.3164  0.1755
17163SOL    HW152930   3.712   7.660  11.009 -2.1639  0.7675  0.2624
17163SOL    HW252931   3.701   7.620  11.155 -1.4525  0.3106  0.1950
17164SOL     OW52932   3.890   6.204   8.659  0.3855 -0.0867 -0.1337
17164SOL    HW152933   3.980   6.183   8.633  1.1125  1.2488  1.1956
17164SOL    HW252934   3.836   6.154   8.597  2.0062 -1.6696 -0.3642
17165SOL     OW52935   3.673   7.278  10.112  0.5365 -0.0633  0.4265
17165SOL    HW152936   3.673   7.209  10.045 -0.7791 -1.8302  2.1175
17165SOL    HW252937   3.590   7.324  10.101  0.8623  0.4471  0.0819
17166SOL     OW52938   3.779   5.583  10.695 -0.6625 -0.3647  0.2949
17166SOL    HW152939   3.857   5.543  10.657 -0.7116 -1.9398  1.7434
17166SOL    HW252940   3.705   5.536  10.656 -0.8489  0.2292 -0.0824
17167SOL     OW52941   4.068   5.794   9.894 -0.3329 -0.6515 -0.6475
17167SOL    HW152942   4.029   5.740   9.825  1.2120 -0.7730 -1.4673
17167SOL    HW252943   4.139   5.741   9.930 -0.7771 -0.3783  0.6993
17168SOL     OW52944   6.123   7.007   0.668  0.4359  0.2500  0.2343
17168SOL    HW152945   6.070   7.079   0.635 -0.3854 -0.9681 -1.2204
17168SOL    HW252946   6.129   6.946   0.594 -0.0028 -1.7957  1.8077
17169SOL     OW52947   5.718   5.809   8.651  0.5459 -0.3287 -0.3786
17169SOL    HW152948   5.735   5.768   8.566  1.2666  0.5207 -0.6645
17169SOL    HW252949   5.625   5.793   8.668  0.9377 -2.6719 -0.1354
17170SOL     OW52950   5.968   6.307  10.028 -0.5006 -0.1925  0.1024
17170SOL    HW152951   6.054   6.295   9.988  0.4652 -0.4398  2.1143
17170SOL    HW252952   5.977   6.385  10.083 -1.6575 -0.0677  0.1479
17171SOL     OW52953   3.902   5.891   8.896  1.0622 -0.3100  0.0695
17171SOL    HW152954   3.927   5.914   8.807 -0.0746 -1.7545 -0.6550
17171SOL    HW252955   3.892   5.796   8.895 -0.2835 -0.2254  1.3907
17172SOL     OW52956   5.836   7.299  10.553  0.0860 -0.2152 -0.0150
17172SOL    HW152957   5.787   7.364  10.503 -2.2793 -0.8182  1.3481
17172SOL    HW252958   5.870   7.238  10.488 -0.6621  0.4623 -1.0596
17173SOL     OW52959   4.935   6.757  10.783 -0.1387  0.5935 -0.0599
17173SOL    HW152960   4.924   6.671  10.743  1.0546  0.5898 -0.4404
17173SOL    HW252961   4.973   6.739  10.869  0.1379  0.7302 -0.1507
17174SOL     OW52962   4.180   6.928   0.136 -0.4072  0.3530 -0.0220
17174SOL    HW152963   4.160   6.875   0.213 -0.2621 -1.9531 -1.4868
17174SOL    HW252964   4.269   6.903   0.111 -0.7186  0.4858 -1.3614
17175SOL     OW52965   5.061   7.364  10.505  0.5805 -0.0168  0.0889
17175SOL    HW152966   5.104   7.280  10.487  0.3300 -0.3861  1.1173
17175SOL    HW252967   5.094   7.423  10.438  2.9351 -0.2053  0.9961
17176SOL     OW52968   5.270   5.491   8.264  0.2006  0.2564 -0.7325
17176SOL    HW152969   5.182   5.457   8.252  0.4239 -0.5879 -0.0766
17176SOL    HW252970   5.324   5.413   8.280  1.0872  0.7420 -1.2503
17177SOL     OW52971   4.168   6.323   8.033  0.4734 -0.0989  0.1256
17177SOL    HW152972   4.183   6.254   8.097 -0.1422  1.1866  1.7182
17177SOL    HW252973   4.082   6.303   7.996  0.4223 -0.3417  0.3758
17178SOL     OW52974   4.430   7.136  10.658 -0.2733 -0.1151 -0.3171
17178SOL    HW152975   4.440   7.218  10.611 -0.8685  0.7265  0.9843
17178SOL    HW252976   4.466   7.070  10.599  0.9980  1.1705 -1.0244
17179SOL     OW52977   4.069   6.437   9.428 -0.1933  0.5283  0.2424
17179SOL    HW152978   4.091   6.529   9.441  2.8035 -0.2414  1.5333
17179SOL    HW252979   3.996   6.421   9.488 -1.4589  2.2233 -0.7433
17180SOL     OW52980   4.218   7.505   9.712  0.5904  0.6753 -0.3405
17180SOL    HW152981   4.298   7.495   9.660 -0.2113 -2.3365 -1.1631
17180SOL    HW252982   4.230   7.446   9.787 -0.0600  1.7208  0.6232
17181SOL     OW52983   5.930   5.604  11.296 -0.6084 -0.3486  0.2114
17181SOL    HW152984   5.877   5.526  11.308 -0.3587 -0.6476 -0.5474
17181SOL    HW252985   5.933   5.617  11.201  0.8777 -0.5001  0.2050
17182SOL     OW52986   2.028   0.067  10.450  0.3400  0.4444 -0.7495
17182SOL    HW152987   2.122   0.071  10.468  0.8594  0.2187 -3.1033
17182SOL    HW252988   1.988   0.121  10.518  2.2316  1.0873 -0.0948
17183SOL     OW52989   4.489   6.875  10.817 -0.0785 -0.2261 -0.3849
17183SOL    HW152990   4.494   6.883  10.912  0.1638 -0.6500 -0.3600
17183SOL    HW252991   4.571   6.914  10.785  0.4039 -1.1823 -0.3460
17184SOL     OW52992   3.811   6.414   9.572  0.1457 -0.2512  0.2066
17184SOL    HW152993   3.834   6.328   9.607 -0.5884  0.1318  1.7070
17184SOL    HW252994   3.769   6.460   9.645  0.9488  1.5685 -0.3936
17185SOL     OW52995   4.402   7.835  10.436 -0.7322 -0.0641  0.3253
17185SOL    HW152996   4.486   7.874  10.408 -0.1284 -0.2008  1.8364
17185SOL    HW252997   4.337   7.877  10.380  0.3971 -0.4621 -1.3731
17186SOL     OW52998   3.554   5.829   9.965 -0.1603  0.1359  0.0615
17186SOL    HW152999   3.564   5.886  10.041 -0.1183  0.1477  0.0475
17186SOL    HW253000   3.504   5.881   9.902  1.1422  0.7378 -0.5403
17187SOL     OW53001   3.361   5.093  11.023 -0.3598  0.5723 -0.1520
17187SOL    HW153002   3.287   5.060  10.972 -0.0015 -2.9125  1.2990
17187SOL    HW253003   3.426   5.117  10.957 -1.5949  0.6469 -1.3952
17188SOL     OW53004   4.321   5.848  11.546 -0.3343 -0.2744 -0.1277
17188SOL    HW153005   4.327   5.936  11.582  0.4910 -0.8949  1.2955
17188SOL    HW253006   4.391   5.844  11.480  1.1530 -0.5672  1.4050
17189SOL     OW53007   4.792   6.563   9.909  0.2923 -0.1817  0.2592
17189SOL    HW153008   4.748   6.478   9.897 -1.4371  0.8965 -1.7746
17189SOL    HW253009   4.847   6.573   9.831  0.1556  0.7293  0.2655
17190SOL     OW53010   4.391   7.287  10.885 -0.2375 -0.2608 -0.6138
17190SOL    HW153011   4.405   7.225  10.814 -0.7870 -0.9537 -0.1204
17190SOL    HW253012   4.468   7.277  10.941 -1.0792 -1.6850  0.3310
17191SOL     OW53013   4.230   6.952  11.845 -0.4063  0.3607 -0.4836
17191SOL    HW153014   4.239   6.890  11.772 -1.5410  0.7569 -0.9778
17191SOL    HW253015   4.283   7.027  11.819 -1.0199  0.6147 -1.0515
17192SOL     OW53016   6.233   6.283   9.916 -0.2517 -0.1739  0.1116
17192SOL    HW153017   6.303   6.267   9.979  0.2997 -1.3491 -0.7607
17192SOL    HW253018   6.211   6.197   9.882 -0.7108  0.3989 -1.1169
17193SOL     OW53019   4.492   7.141   9.450  0.2225  0.7338  0.3184
17193SOL    HW153020   4.538   7.059   9.471 -1.4077 -0.3222 -0.0024
17193SOL    HW253021   4.497   7.147   9.355 -1.5593 -0.2428  0.1111
17194SOL     OW53022   4.693   6.191  10.459  0.1468 -0.0650 -0.2967
17194SOL    HW153023   4.639   6.270  10.459 -0.6432 -0.5938 -0.7673
17194SOL    HW253024   4.783   6.224  10.448 -0.2205  0.7362 -1.0845
17195SOL     OW53025   2.877   7.746  11.291  0.1523 -0.0761 -0.7184
17195SOL    HW153026   2.935   7.695  11.348  1.2346  1.5015 -0.3412
17195SOL    HW253027   2.934   7.782  11.224 -0.5940  0.5581 -1.0311
17196SOL     OW53028   5.708   7.996  10.140 -0.5495  0.0000  0.3986
17196SOL    HW153029   5.647   7.974  10.070 -1.7742 -0.5544  1.6038
17196SOL    HW253030   5.710   8.091  10.142  0.5581  0.0717 -1.2407
17197SOL     OW53031   7.009   6.839   8.549 -0.4193 -0.2281  0.0144
17197SOL    HW153032   6.982   6.922   8.510 -0.9583 -0.4593 -0.1168
17197SOL    HW253033   6.938   6.816   8.608 -0.9866 -1.3265 -1.0517
17198SOL     OW53034   3.806   7.771   9.986  0.2804  0.2424 -0.0373
17198SOL    HW153035   3.829   7.682   9.958 -1.4281 -0.1200 -0.4692
17198SOL    HW253036   3.789   7.818   9.904 -2.1628 -0.0605  0.2023
17199SOL     OW53037   3.983   7.709   0.088 -0.1089  0.2048  0.3820
17199SOL    HW153038   3.889   7.708   0.103  0.3303  0.0923  4.4986
17199SOL    HW253039   4.017   7.638   0.143  2.5666  2.6942  2.2721
17200SOL     OW53040   0.850   0.422  10.203 -0.0766 -0.2951 -0.4949
17200SOL    HW153041   0.833   0.402  10.111 -0.1820 -0.4839 -0.4347
17200SOL    HW253042   0.834   0.339  10.249  1.4476 -0.6170 -0.4800
17201SOL     OW53043   5.046   1.188  11.790 -0.2408  0.3392  0.1606
17201SOL    HW153044   5.067   1.233  11.871 -0.1664 -0.2508  0.4788
17201SOL    HW253045   4.977   1.240  11.750  0.4757  1.2380  0.0625
17202SOL     OW53046   5.037   4.804  10.253 -0.7501  0.0674 -0.0813
17202SOL    HW153047   5.075   4.771  10.171 -1.6320  0.2781 -0.5928
17202SOL    HW253048   4.957   4.752  10.265  1.0234 -2.3387  2.4454
17203SOL     OW53049   6.464   0.514   8.650  0.3805  0.4038 -0.1165
17203SOL    HW153050   6.395   0.452   8.673  0.0225  1.0343  0.5524
17203SOL    HW253051   6.539   0.460   8.628 -0.7696 -0.3820 -2.4560
17204SOL     OW53052   6.044   7.217  11.256 -0.2593 -0.5659 -0.4905
17204SOL    HW153053   6.135   7.221  11.285 -0.6425  0.9102  0.6655
17204SOL    HW253054   6.021   7.309  11.237 -1.6848 -0.8255 -0.1612
17205SOL     OW53055   6.012   7.721   6.560 -0.0755 -0.3112  0.1586
17205SOL    HW153056   6.048   7.687   6.642  1.2504  2.4053  0.8152
17205SOL    HW253057   5.931   7.672   6.547 -0.0907 -1.1387  2.8439
17206SOL     OW53058   5.686   0.076  12.299 -0.3248 -0.2444 -0.2979
17206SOL    HW153059   5.689   0.150  12.358 -1.2679  0.5517 -1.1935
17206SOL    HW253060   5.598   0.039  12.311 -0.9827  0.6423 -1.9747
17207SOL     OW53061   5.908   7.492  11.215  0.2791  0.2085  0.2518
17207SOL    HW153062   5.912   7.562  11.280  0.3474  0.0612  0.4106
17207SOL    HW253063   5.923   7.535  11.131  0.7018  0.3302  0.3852
17208SOL     OW53064   6.011   7.184   9.294  0.2281  0.5288 -0.7683
17208SOL    HW153065   6.046   7.177   9.383  1.4211 -1.6972 -1.3546
17208SOL    HW253066   6.060   7.257   9.255  0.4409  0.8427  0.0556
17209SOL     OW53067   5.356   0.018  10.111 -0.4251  0.5479 -0.4953
17209SOL    HW153068   5.263   0.033  10.095 -0.8870 -0.1261  1.3329
17209SOL    HW253069   5.384  -0.036  10.037 -2.1346 -1.3986  0.1834
17210SOL     OW53070   2.972   6.746   8.958 -0.2840 -0.6298 -0.1498
17210SOL    HW153071   2.936   6.665   8.921  0.3887 -0.6794 -0.7177
17210SOL    HW253072   2.904   6.811   8.943 -0.8761 -1.1024  0.4040
17211SOL     OW53073   5.240   7.873   9.153 -0.1942  0.2323 -0.2979
17211SOL    HW153074   5.192   7.809   9.102  0.4471 -0.9962  0.5857
17211SOL    HW253075   5.302   7.911   9.091 -0.1650 -0.4498 -0.7010
17212SOL     OW53076   5.934   6.915   8.908  0.2470 -0.0403 -0.0888
17212SOL    HW153077   5.964   6.991   8.859 -0.5995  0.7197  0.5293
17212SOL    HW253078   5.839   6.925   8.912  0.2504 -0.3164  1.2750
17213SOL     OW53079   4.711   4.344   9.789  0.1804 -0.0010  0.4339
17213SOL    HW153080   4.615   4.346   9.785  0.1121 -0.2044  1.6247
17213SOL    HW253081   4.737   4.284   9.719 -0.5348  0.3737 -0.1664
17214SOL     OW53082   3.710   7.563  10.844 -0.6641 -1.0848 -0.3581
17214SOL    HW153083   3.617   7.543  10.848 -0.7145 -1.8807 -3.3612
17214SOL    HW253084   3.751   7.481  10.815  0.9803 -0.7058  0.7543
17215SOL     OW53085   4.747   0.266  11.456  0.3639  0.6638  0.0284
17215SOL    HW153086   4.815   0.267  11.523 -0.3192 -1.5585  0.8217
17215SOL    HW253087   4.792   0.294  11.376  1.8424  0.7022  0.8453
17216SOL     OW53088   7.699   6.768  12.483 -0.0423 -0.1205  0.1501
17216SOL    HW153089   7.775   6.714  12.458 -0.2858 -0.5261  0.2788
17216SOL    HW253090   7.734   6.831  12.546 -0.0395 -1.0677  1.1246
17217SOL     OW53091   4.110   7.903  10.005 -0.0372  0.2268 -0.7248
17217SOL    HW153092   4.184   7.872   9.952  1.0461  0.3480  0.6831
17217SOL    HW253093   4.067   7.823  10.035  0.3191  0.1352 -0.4541
17218SOL     OW53094   5.314   5.466   9.265  0.3637  0.1232  0.3491
17218SOL    HW153095   5.229   5.510   9.269  1.1577  1.6411  1.8090
17218SOL    HW253096   5.292   5.373   9.261 -1.3739  0.5544 -2.2429
17219SOL     OW53097   4.817   7.078  11.375 -0.1981  0.3695 -0.4822
17219SOL    HW153098   4.893   7.088  11.433 -0.2252 -0.7377 -0.2381
17219SOL    HW253099   4.849   7.103  11.289  0.4617 -0.1212 -0.3883
17220SOL     OW53100   5.470   6.329  10.436  0.1137  0.0628 -0.0111
17220SOL    HW153101   5.561   6.302  10.425  0.0634 -0.1913  0.1869
17220SOL    HW253102   5.455   6.392  10.366  1.1719  1.9687  1.3527
17221SOL     OW53103   5.781   4.876   8.517 -0.0626 -0.2409 -0.8772
17221SOL    HW153104   5.852   4.856   8.456 -0.8347 -0.7628 -1.6244
17221SOL    HW253105   5.778   4.800   8.576 -0.3662 -0.4847 -1.2029
17222SOL     OW53106   6.736   4.655  12.473 -0.0951 -0.0060 -0.1047
17222SOL    HW153107   6.673   4.718  12.508 -0.5678  1.2719 -2.9691
17222SOL    HW253108   6.748   4.591  12.543 -2.8109  0.9746  1.3830
17223SOL     OW53109   4.215   6.332  11.396  0.1746 -0.2987  0.1709
17223SOL    HW153110   4.265   6.254  11.371 -0.1051 -0.5176  0.2874
17223SOL    HW253111   4.141   6.333  11.335  0.6480  0.3721 -0.4154
17224SOL     OW53112   3.548   5.210   7.128  0.5515 -0.3494 -0.0724
17224SOL    HW153113   3.565   5.116   7.124 -0.6116 -0.5776 -0.0295
17224SOL    HW253114   3.598   5.247   7.055  2.4675 -0.7374  0.9733
17225SOL     OW53115   5.236   5.928  12.071  0.2800  0.3034 -0.0322
17225SOL    HW153116   5.272   5.893  12.153  1.4111  1.6668  0.0993
17225SOL    HW253117   5.258   5.863  12.005  1.5980  0.3266  0.3443
17226SOL     OW53118   3.725   5.501   9.838  0.2242 -0.3790 -0.0111
17226SOL    HW153119   3.762   5.443   9.904  0.9252  0.1685  0.0834
17226SOL    HW253120   3.652   5.451   9.801 -1.3552 -0.0302  2.4121
17227SOL     OW53121   5.022   7.974   8.047 -0.3560 -0.5708 -0.1163
17227SOL    HW153122   5.088   7.957   8.114 -1.3027  0.2901  1.0854
17227SOL    HW253123   4.939   7.952   8.089 -0.9726 -0.0537 -1.0178
17228SOL     OW53124   2.947   5.968  11.575  0.0178 -0.2254 -0.4968
17228SOL    HW153125   2.992   5.897  11.530 -1.8697 -1.1680 -1.0106
17228SOL    HW253126   2.943   5.940  11.667 -0.5324 -0.7104 -0.6616
17229SOL     OW53127   7.440   5.791   8.299  0.5122 -0.6967 -0.0689
17229SOL    HW153128   7.348   5.794   8.275  0.6897 -0.2266 -0.7066
17229SOL    HW253129   7.464   5.882   8.313  0.3775 -0.9356  2.0959
17230SOL     OW53130   4.584   5.683  12.293 -0.0019 -0.4623  0.5582
17230SOL    HW153131   4.596   5.749  12.225 -0.4003  0.2846  1.1845
17230SOL    HW253132   4.592   5.599  12.248 -0.8748  0.0093 -0.5323
17231SOL     OW53133   6.066   7.995  11.456 -0.1146 -0.0876  0.3107
17231SOL    HW153134   6.111   8.048  11.521  0.4027  0.1985 -0.2727
17231SOL    HW253135   6.134   7.936  11.422 -1.1034 -2.7554  2.5319
17232SOL     OW53136   4.082   7.195   9.955 -0.1486 -0.3057 -0.0242
17232SOL    HW153137   4.125   7.153  10.030 -0.9276 -2.3178 -0.6434
17232SOL    HW253138   4.047   7.276   9.990  0.1431 -0.8485  1.6129
17233SOL     OW53139   2.801   5.879  12.260 -0.5525  0.1710 -0.1073
17233SOL    HW153140   2.873   5.918  12.309 -0.2868 -1.1953  0.6487
17233SOL    HW253141   2.755   5.824  12.324 -1.0579 -0.5424 -1.0446
17234SOL     OW53142   4.230   5.303   9.732 -0.4981 -0.7961 -0.2667
17234SOL    HW153143   4.225   5.260   9.646 -2.1436 -0.0556 -0.5987
17234SOL    HW253144   4.167   5.256   9.786 -0.5044 -0.3637  0.1050
17235SOL     OW53145   1.913   0.172  10.713  0.2885  0.2525  0.5586
17235SOL    HW153146   1.950   0.211  10.792  1.7931 -1.4356  0.7507
17235SOL    HW253147   1.925   0.078  10.724 -2.1030 -0.2522 -0.4213
17236SOL     OW53148   6.170   5.779  10.626  0.3696 -0.5400  0.6073
17236SOL    HW153149   6.179   5.690  10.658  1.9577 -1.3890 -1.9046
17236SOL    HW253150   6.075   5.795  10.626 -0.0150 -2.5856  0.2450
17237SOL     OW53151   3.719   4.425  10.099 -0.0726  0.5152 -0.1934
17237SOL    HW153152   3.652   4.399  10.162  0.3644 -0.0709  0.0513
17237SOL    HW253153   3.673   4.474  10.032 -1.1549 -1.7605 -1.2137
17238SOL     OW53154   4.875   7.163  10.099  0.0528  0.1851 -0.4736
17238SOL    HW153155   4.815   7.146  10.172  1.6121 -2.4913  0.3188
17238SOL    HW253156   4.958   7.185  10.141  0.4350  0.8213 -1.5190
17239SOL     OW53157   4.818   0.737   9.181 -0.1045  0.3757 -0.3856
17239SOL    HW153158   4.881   0.675   9.217  0.1671  1.2395  0.6682
17239SOL    HW253159   4.760   0.684   9.127  0.9844 -0.5721 -0.6595
17240SOL     OW53160   3.296   5.426  11.471  0.5930  0.1919  0.5027
17240SOL    HW153161   3.244   5.417  11.551  0.5882  0.2561  0.5065
17240SOL    HW253162   3.349   5.347  11.468  0.8208  0.3322  0.7312
17241SOL     OW53163   4.741   5.646   7.773 -0.0930 -0.0385 -0.3810
17241SOL    HW153164   4.748   5.630   7.867 -1.2937 -0.0599 -0.2689
17241SOL    HW253165   4.828   5.628   7.738  0.1574 -0.8581  0.6145
17242SOL     OW53166   4.772   6.811  10.053  0.1529 -0.1657  0.1702
17242SOL    HW153167   4.693   6.817  10.107  0.1771 -1.0755  0.3202
17242SOL    HW253168   4.767   6.724  10.013  1.1791 -0.3149  0.3417
17243SOL     OW53169   4.469   7.004  11.575 -0.3132  0.0418  0.6498
17243SOL    HW153170   4.400   6.939  11.591  0.4027 -1.0648 -0.5337
17243SOL    HW253171   4.550   6.958  11.593  0.1686  1.0012  0.9825
17244SOL     OW53172   4.747   5.807   9.995  0.0987  0.4968  0.0504
17244SOL    HW153173   4.793   5.846   9.921  0.3569 -0.2122 -0.1665
17244SOL    HW253174   4.774   5.716   9.995 -0.1582  0.4150  0.8238
17245SOL     OW53175   3.435   7.544  10.792 -0.3293  0.2742  0.0218
17245SOL    HW153176   3.348   7.584  10.793 -0.1947  0.5644  1.1784
17245SOL    HW253177   3.451   7.525  10.699 -1.0629  1.4317 -0.3659
17246SOL     OW53178   5.239   4.745  10.704 -0.3284 -0.4816  0.5445
17246SOL    HW153179   5.164   4.728  10.647 -0.7404 -1.2339  1.2924
17246SOL    HW253180   5.312   4.761  10.644 -1.0963  0.3281 -0.1889
17247SOL     OW53181   6.498   5.511   9.522 -0.5248 -0.6416  0.2403
17247SOL    HW153182   6.486   5.417   9.534  0.4319 -0.7446  0.4882
17247SOL    HW253183   6.488   5.549   9.609 -0.8751 -0.5180  0.1463
17248SOL     OW53184   6.024   6.775   9.315 -0.3395  0.1077  0.0515
17248SOL    HW153185   5.938   6.783   9.356 -1.0869 -1.0207 -1.2180
17248SOL    HW253186   6.006   6.779   9.221  0.9974 -0.1683 -0.2340
17249SOL     OW53187   4.543   6.605  10.109  0.2242 -0.0304  0.1580
17249SOL    HW153188   4.565   6.601  10.016 -1.1540  0.6060 -0.2202
17249SOL    HW253189   4.533   6.513  10.135  0.7376 -0.2197 -0.2783
17250SOL     OW53190   5.162   7.123  10.462  0.0825 -0.2092 -0.0325
17250SOL    HW153191   5.200   7.072  10.391  1.9643 -0.5455  1.1294
17250SOL    HW253192   5.081   7.077  10.484 -0.5929 -0.0300 -1.9689
17251SOL     OW53193   4.666   5.120  11.088 -0.4739  0.7431  0.0773
17251SOL    HW153194   4.702   5.190  11.142 -1.0714  2.4892 -1.6722
17251SOL    HW253195   4.661   5.158  11.000  0.2434 -1.8864 -1.1859
17252SOL     OW53196   4.791   5.619   9.323  0.0019 -0.1710  0.4061
17252SOL    HW153197   4.801   5.526   9.303 -0.0044 -0.7878  2.9887
17252SOL    HW253198   4.710   5.623   9.374 -0.7928  1.5025 -0.8956
17253SOL     OW53199   5.692   7.237  10.042  0.4372  0.3271 -0.5644
17253SOL    HW153200   5.784   7.225  10.066  0.7213  1.1951 -1.1527
17253SOL    HW253201   5.644   7.227  10.124  1.0955  0.2119 -0.1865
17254SOL     OW53202   4.044   0.714  12.138  0.0473 -0.1288  0.3207
17254SOL    HW153203   4.118   0.683  12.086  0.5308  0.4968  0.6234
17254SOL    HW253204   4.083   0.745  12.219 -0.1949  2.6613 -0.5135
17255SOL     OW53205   4.727   5.455   8.682 -0.4310 -0.1252 -0.3894
17255SOL    HW153206   4.685   5.369   8.685  0.6418 -0.6262  1.7064
17255SOL    HW253207   4.815   5.441   8.716  0.4339  1.4808 -1.7793
17256SOL     OW53208   4.706   6.498   9.469  0.3972  0.6157  0.0367
17256SOL    HW153209   4.694   6.467   9.379 -0.6842  1.1506 -0.0207
17256SOL    HW253210   4.729   6.419   9.518  0.2943  0.1896 -0.5837
17257SOL     OW53211   4.707   6.148  10.774  1.0376  0.0225  0.3275
17257SOL    HW153212   4.723   6.053  10.777  0.4800 -0.2070 -1.9258
17257SOL    HW253213   4.750   6.177  10.693  0.5378  1.5490  0.5710
17258SOL     OW53214   3.799   6.667   9.213 -0.1227  0.1825 -0.9050
17258SOL    HW153215   3.815   6.573   9.202 -0.2076  0.0266  0.1237
17258SOL    HW253216   3.881   6.709   9.189  0.3006 -0.2513 -0.2363
17259SOL     OW53217   5.299   0.557   8.149  0.4132 -0.0334  0.1039
17259SOL    HW153218   5.338   0.577   8.064 -0.1375  0.5279 -0.0239
17259SOL    HW253219   5.209   0.590   8.143 -0.0343 -1.1333  0.4552
17260SOL     OW53220   3.824   6.621  12.152 -0.3352  0.4176 -0.2566
17260SOL    HW153221   3.851   6.628  12.060  0.9416  0.0747  0.0755
17260SOL    HW253222   3.890   6.565  12.192  0.0222  1.8358  1.2268
17261SOL     OW53223   5.702   6.819   1.211 -0.2625  0.6198  0.7070
17261SOL    HW153224   5.638   6.750   1.199 -0.2297  0.4158  1.6193
17261SOL    HW253225   5.650   6.899   1.222 -0.3046  1.3831 -3.3909
17262SOL     OW53226   3.124   4.861  11.417  0.1308 -0.0716 -0.4369
17262SOL    HW153227   3.165   4.876  11.502  0.4355  0.1045 -0.6080
17262SOL    HW253228   3.151   4.937  11.364  0.6417 -0.5949 -0.9443
17263SOL     OW53229   3.638   6.198  12.434 -0.1942 -0.6131 -0.3290
17263SOL    HW153230   3.588   6.202  12.516 -1.6759  2.4641 -1.2579
17263SOL    HW253231   3.588   6.138  12.378 -1.2554  0.1572 -0.2304
17264SOL     OW53232   3.974   7.881  11.345  0.4894 -0.5242 -0.3914
17264SOL    HW153233   4.021   7.833  11.276  1.6710 -0.7772  0.5674
17264SOL    HW253234   3.885   7.891  11.310  0.8332 -1.3890 -1.5913
17265SOL     OW53235   5.361   4.796  12.078 -0.4530  0.2244 -0.1225
17265SOL    HW153236   5.391   4.882  12.047 -0.2758 -0.1300 -0.9809
17265SOL    HW253237   5.429   4.769  12.139 -0.5414  0.7212  0.2042
17266SOL     OW53238   7.688   0.304  10.880  0.9172  0.0199  0.1878
17266SOL    HW153239   7.631   0.380  10.888 -0.0427 -0.1304 -3.4537
17266SOL    HW253240   7.777   0.339  10.884  0.5513  1.9073 -3.9078
17267SOL     OW53241   3.320   6.118  11.539 -0.6961 -0.0327 -0.0900
17267SOL    HW153242   3.271   6.197  11.561 -0.1660 -0.0981  1.4982
17267SOL    HW253243   3.342   6.128  11.447 -2.7214  0.5059 -0.5746
17268SOL     OW53244   4.019   5.920  11.679 -0.3389  0.2756 -0.2738
17268SOL    HW153245   4.070   5.947  11.603  0.2031 -0.6603 -0.2583
17268SOL    HW253246   3.999   5.828  11.664  1.7614 -0.6047  1.7334
17269SOL     OW53247   3.270   7.465  12.143 -0.1751 -0.7194 -0.3289
17269SOL    HW153248   3.300   7.509  12.064  1.9746 -2.9515 -0.9067
17269SOL    HW253249   3.177   7.449  12.129 -0.9160  2.8734 -0.3379
17270SOL     OW53250   6.040   5.274  11.377 -0.0977 -0.5655  0.1500
17270SOL    HW153251   6.090   5.252  11.456 -2.7382 -1.2634  1.7582
17270SOL    HW253252   6.037   5.193  11.327 -0.2361 -0.7326  0.4251
17271SOL     OW53253   5.635   7.833   0.464 -0.0287  0.0719 -0.7440
17271SOL    HW153254   5.554   7.824   0.513 -0.8717  1.5520 -1.8140
17271SOL    HW253255   5.655   7.926   0.466  2.4454 -0.3852  0.6781
17272SOL     OW53256   4.188   7.161  11.325  0.1541  0.0551  0.5638
17272SOL    HW153257   4.097   7.131  11.325  0.6227 -1.6170 -1.5778
17272SOL    HW253258   4.219   7.142  11.236  2.9224 -0.4795  1.5563
17273SOL     OW53259   3.384   6.538  12.054  1.1186 -0.7195  0.1340
17273SOL    HW153260   3.370   6.450  12.091 -0.7859 -0.0854  1.0198
17273SOL    HW253261   3.375   6.526  11.960  0.1571 -1.3733  0.2903
17274SOL     OW53262   4.834   6.398  11.326 -0.6831 -0.3874  0.2434
17274SOL    HW153263   4.743   6.425  11.317 -0.4987  0.2404  0.2647
17274SOL    HW253264   4.829   6.311  11.367 -1.3275 -1.0352 -1.1340
17275SOL     OW53265   4.092   6.749  12.403 -0.1713 -0.1438 -0.4229
17275SOL    HW153266   4.146   6.801  12.344  0.2252 -1.1157 -0.9507
17275SOL    HW253267   4.066   6.673  12.350 -0.5954 -0.5619  0.3631
17276SOL     OW53268   5.440   7.054  10.959 -0.4293  0.1271  0.0992
17276SOL    HW153269   5.354   7.015  10.945 -0.6372  0.4264  0.5028
17276SOL    HW253270   5.501   6.980  10.957 -0.6466 -0.0380 -0.5828
17277SOL     OW53271   3.671   7.296   8.829  0.6172  0.2549 -0.1915
17277SOL    HW153272   3.694   7.306   8.921  3.2678  0.8392 -0.8364
17277SOL    HW253273   3.662   7.202   8.815 -2.2017  0.2187  1.0875
17278SOL     OW53274   6.608   4.858   9.986 -0.1057  0.1598 -0.1984
17278SOL    HW153275   6.561   4.797   9.929  1.3022 -1.3911  0.2574
17278SOL    HW253276   6.591   4.944   9.947 -0.7566 -0.6716 -1.8418
17279SOL     OW53277   5.749   0.659  11.309  0.3107  0.0494 -0.0991
17279SOL    HW153278   5.801   0.580  11.318 -0.6983 -0.7127 -0.7688
17279SOL    HW253279   5.760   0.685  11.218 -0.7358 -0.3306 -0.3543
17280SOL     OW53280   4.402   5.351   0.396  0.4215 -0.3935 -0.0309
17280SOL    HW153281   4.435   5.415   0.332 -0.2158 -1.2246 -1.2255
17280SOL    HW253282   4.321   5.390   0.429  0.7944  0.0753  0.3490
17281SOL     OW53283   3.811   6.672  12.477  0.2849  0.0216 -0.5103
17281SOL    HW153284   3.798   6.716  12.394  1.0603 -1.5491 -1.5047
17281SOL    HW253285   3.892   6.622  12.466 -0.6365 -1.7982  0.4477
17282SOL     OW53286   5.088   4.753  12.079  0.2922  0.2524 -0.0670
17282SOL    HW153287   5.176   4.790  12.091  0.1757  0.4451  0.1997
17282SOL    HW253288   5.078   4.747  11.984  0.3146  0.9143 -0.1206
17283SOL     OW53289   4.618   6.219   0.806 -0.1391 -0.0195  0.5809
17283SOL    HW153290   4.709   6.237   0.828  0.7930 -1.4579 -1.7505
17283SOL    HW253291   4.609   6.124   0.813 -1.1375 -0.0124 -0.3082
17284SOL     OW53292   4.376   6.411  10.957  0.1507  0.5406 -0.1451
17284SOL    HW153293   4.288   6.439  10.983 -0.7549 -1.8523 -0.4022
17284SOL    HW253294   4.378   6.422  10.862 -0.4305 -0.7859 -0.3239
17285SOL     OW53295   4.369   6.436   0.401  0.2961 -0.1312  0.6546
17285SOL    HW153296   4.392   6.521   0.438 -0.8739  1.3788 -1.8322
17285SOL    HW253297   4.302   6.402   0.461 -0.8073  1.7446  0.5822
17286SOL     OW53298   5.615   1.024   1.063 -1.1395 -0.2729 -0.1256
17286SOL    HW153299   5.591   1.116   1.074  0.0746  0.4457 -2.7420
17286SOL    HW253300   5.676   1.007   1.135 -1.0419  1.0998  0.1455
17287SOL     OW53301   3.664   5.715  11.281 -0.1771  0.1862 -0.3880
17287SOL    HW153302   3.615   5.679  11.208 -1.0361 -0.0493  0.2915
17287SOL    HW253303   3.611   5.788  11.313 -0.7872 -0.8749  1.1697
17288SOL     OW53304   5.288   5.788  12.306 -0.3794  0.7607 -0.4340
17288SOL    HW153305   5.269   5.702  12.270 -0.0482  0.2554  0.5681
17288SOL    HW253306   5.382   5.788  12.322 -0.4481  1.1339 -0.0041
17289SOL     OW53307   5.447   7.384  10.426 -0.1295  0.7323  0.0844
17289SOL    HW153308   5.522   7.444  10.431 -0.2885  1.0620 -1.1073
17289SOL    HW253309   5.482   7.307  10.382  0.0707 -0.0653  1.6042
17290SOL     OW53310   3.096   6.997  10.479 -0.0358 -0.1552 -0.1772
17290SOL    HW153311   3.187   7.022  10.496 -0.2033  1.1947 -1.0973
17290SOL    HW253312   3.102   6.926  10.416  0.3994 -0.6486  0.4120
17291SOL     OW53313   6.054   5.841  11.446 -0.2732  0.0774 -0.3967
17291SOL    HW153314   5.997   5.791  11.388 -0.2254 -0.8220  0.2933
17291SOL    HW253315   6.135   5.789  11.449 -0.1796  0.2484  0.2445
17292SOL     OW53316   3.553   6.160   0.478  0.5712  0.1311  0.5818
17292SOL    HW153317   3.531   6.217   0.552 -1.6030 -0.9570  0.8572
17292SOL    HW253318   3.522   6.209   0.401 -1.6898 -0.7484  0.8501
17293SOL     OW53319   5.537   4.197  10.841 -0.5268 -0.0412 -0.2773
17293SOL    HW153320   5.509   4.283  10.873  1.1126  0.7767 -0.9045
17293SOL    HW253321   5.577   4.156  10.917 -0.4108  0.1693 -0.2234
17294SOL     OW53322   6.052   5.612   0.036  0.2634 -0.0359 -0.7203
17294SOL    HW153323   6.090   5.682  -0.017  1.1327 -0.9337 -1.3285
17294SOL    HW253324   6.007   5.556  -0.027 -2.9196  1.4521  0.0715
17295SOL     OW53325   3.396   6.514  11.080  0.1284  0.1910 -0.8934
17295SOL    HW153326   3.384   6.508  10.986  0.8956 -1.6911 -0.9212
17295SOL    HW253327   3.350   6.437  11.115  1.0614  0.0724  0.1288
17296SOL     OW53328   5.140   7.746  12.029  0.9444 -0.1532  0.1113
17296SOL    HW153329   5.219   7.800  12.036  0.4556  0.6850 -0.6946
17296SOL    HW253330   5.135   7.722  11.936  0.0312  0.1398  0.0775
17297SOL     OW53331   4.645   7.570  11.642  0.0806  0.7892 -1.0094
17297SOL    HW153332   4.709   7.591  11.574  1.4241  1.8465  0.5087
17297SOL    HW253333   4.633   7.652  11.690  0.1296 -0.2132  0.7929
17298SOL     OW53334   5.055   5.263   9.885 -0.6183 -0.5380 -0.6856
17298SOL    HW153335   4.983   5.202   9.870 -0.4538 -1.1885  0.9466
17298SOL    HW253336   5.054   5.279   9.980  1.5205 -0.7520 -0.5824
17299SOL     OW53337   3.787   4.416  11.870  0.1570  0.4712  0.0230
17299SOL    HW153338   3.876   4.397  11.901 -0.0108  1.2438  1.0528
17299SOL    HW253339   3.765   4.344  11.812  1.1934 -0.0975  0.3238
17300SOL     OW53340   5.161   6.509  12.064  0.0903  0.1489  0.2721
17300SOL    HW153341   5.106   6.455  12.007  0.7406 -0.0832 -0.1532
17300SOL    HW253342   5.142   6.479  12.152  0.5698 -0.9043  0.0296
17301SOL     OW53343   3.646   1.038  11.687 -0.0797  0.6105  0.6250
17301SOL    HW153344   3.723   1.096  11.693  1.6908 -1.5305  0.0808
17301SOL    HW253345   3.639   0.999  11.775 -0.0614  0.2504  0.4687
17302SOL     OW53346   5.417   7.698  10.567 -0.0740 -0.0242  0.2374
17302SOL    HW153347   5.428   7.728  10.477  2.0067  3.0488  1.3677
17302SOL    HW253348   5.500   7.656  10.589 -0.1886  0.1330  1.0197
17303SOL     OW53349   3.990   7.832  12.341 -0.3236 -0.0150 -0.0903
17303SOL    HW153350   3.974   7.786  12.423 -0.5728  1.3787  0.6729
17303SOL    HW253351   4.040   7.909  12.366  1.4833 -0.6427 -1.5506
17304SOL     OW53352   6.186   5.502  11.333  0.0056  0.2202 -0.5074
17304SOL    HW153353   6.110   5.556  11.313  0.0158  0.1464 -0.7369
17304SOL    HW253354   6.151   5.414  11.347 -0.3622  0.7112  2.3186
17305SOL     OW53355   3.072   0.943   0.212  0.0692 -0.0687 -0.1455
17305SOL    HW153356   2.993   0.933   0.265  0.2022  0.0904  0.0856
17305SOL    HW253357   3.048   1.008   0.145  0.3952  0.9537  0.7065
17306SOL     OW53358   5.618   5.927  12.069 -0.1966 -0.2389  0.3399
17306SOL    HW153359   5.676   5.923  11.993  0.8058  1.5634  0.9370
17306SOL    HW253360   5.583   6.016  12.068 -0.5647 -0.3405  1.6894
17307SOL     OW53361   4.835   5.386   0.470  0.1809 -0.6991 -0.2384
17307SOL    HW153362   4.823   5.481   0.479 -0.1168 -0.6224 -1.2449
17307SOL    HW253363   4.787   5.349   0.544  1.7947 -0.0160  1.2015
17308SOL     OW53364   4.958   4.564  11.627 -0.5885 -0.1351  0.0814
17308SOL    HW153365   4.900   4.501  11.583  0.4870 -2.3248  1.5793
17308SOL    HW253366   5.014   4.598  11.557 -2.1773  0.3221 -1.0133
17309SOL     OW53367   5.786   5.034  11.608  1.0247  0.0169 -0.1168
17309SOL    HW153368   5.713   4.991  11.652  0.4873  2.7681  1.9348
17309SOL    HW253369   5.755   5.047  11.518 -1.3003  1.5401  0.8138
17310SOL     OW53370   3.436   5.460  11.877 -0.3384  0.3962  0.5662
17310SOL    HW153371   3.355   5.449  11.926 -0.8310  0.8366 -0.1248
17310SOL    HW253372   3.427   5.402  11.802  0.7567 -0.8875  1.3828
17311SOL     OW53373   2.905   7.437   1.385 -0.0462 -0.0114  0.2137
17311SOL    HW153374   2.932   7.498   1.316  0.1146  1.7708  1.7837
17311SOL    HW253375   2.957   7.463   1.461 -1.0470 -1.1941  1.3407
17312SOL     OW53376   5.226   5.421  10.945  0.2331  0.0874 -0.1071
17312SOL    HW153377   5.318   5.396  10.949  0.1806 -0.8204 -2.7674
17312SOL    HW253378   5.197   5.393  10.858 -2.1453  1.7732  0.0482
17313SOL     OW53379   3.936   5.697  11.226  0.0603 -0.2779  0.0788
17313SOL    HW153380   3.974   5.666  11.308 -2.6229 -0.0951  1.5002
17313SOL    HW253381   3.844   5.712  11.246 -0.4922  0.7570 -2.7303
17314SOL     OW53382   4.265   7.539  11.982 -0.2246 -0.2952  0.0494
17314SOL    HW153383   4.212   7.481  11.927  0.6599 -0.3512 -0.7757
17314SOL    HW253384   4.221   7.538  12.067 -1.9563  0.2355 -0.7949
17315SOL     OW53385   5.056   0.765   9.657  0.1213  0.1490 -0.6210
17315SOL    HW153386   5.085   0.813   9.579  0.9834  0.0162 -0.3959
17315SOL    HW253387   5.124   0.699   9.670  0.0777  0.2945  0.3601
17316SOL     OW53388   0.900   6.782  12.431  0.0993 -0.0389  0.1647
17316SOL    HW153389   0.957   6.705  12.441 -0.8137 -0.9961 -1.4468
17316SOL    HW253390   0.812   6.746  12.431 -0.5214  1.3463  1.9669
17317SOL     OW53391   5.298   1.553  12.454  0.2567  0.7261 -0.4583
17317SOL    HW153392   5.279   1.604  12.376 -1.1861  1.4877  0.3489
17317SOL    HW253393   5.216   1.552  12.503  1.3814  1.1910  1.5827
17318SOL     OW53394   6.102   0.206   0.500  0.3542 -0.2126 -0.2029
17318SOL    HW153395   6.144   0.248   0.424 -0.0838  2.0310  0.7218
17318SOL    HW253396   6.169   0.207   0.568  0.5886 -1.8012 -0.3555
17319SOL     OW53397   5.049   6.341  11.899  0.4744 -0.0282 -0.2588
17319SOL    HW153398   5.091   6.315  11.817  0.9179 -1.2454  0.3379
17319SOL    HW253399   5.031   6.259  11.944 -0.8426  0.5698  0.3549
17320SOL     OW53400   5.721   5.689  10.077 -0.0620 -0.0037  0.3517
17320SOL    HW153401   5.696   5.763  10.132 -0.3603  1.1464 -1.2757
17320SOL    HW253402   5.803   5.715  10.035  0.9496 -1.4598  1.3030
17321SOL     OW53403   3.671   5.669   1.410 -0.0141 -0.0712  0.0019
17321SOL    HW153404   3.754   5.654   1.365  1.2573  0.4103  2.0828
17321SOL    HW253405   3.692   5.731   1.480 -1.9577 -0.5443  1.0682
17322SOL     OW53406   5.421   7.991  12.386  0.0922  0.7608 -0.4837
17322SOL    HW153407   5.400   8.044  12.463  0.5547  1.3330 -0.7411
17322SOL    HW253408   5.339   7.987  12.336  0.2171  1.7875 -0.7850
17323SOL     OW53409   4.902   4.283  11.503  0.0563  0.2593  0.1651
17323SOL    HW153410   4.842   4.211  11.483  0.9772 -0.1724 -1.1425
17323SOL    HW253411   4.965   4.283  11.431 -0.4022  2.9140 -0.3562
17324SOL     OW53412   6.568   6.891  10.960  0.4411  0.2081  1.0359
17324SOL    HW153413   6.491   6.931  10.918 -0.2903 -1.8599  0.2486
17324SOL    HW253414   6.642   6.922  10.908 -0.1547  0.1420  0.1093
17325SOL     OW53415   4.497   6.717   0.248  0.1534 -0.7716  0.0419
17325SOL    HW153416   4.477   6.626   0.267  0.7604 -1.1905 -1.2522
17325SOL    HW253417   4.426   6.745   0.190  0.4624 -0.6845 -0.2905
17326SOL     OW53418   6.550   0.135   0.261  0.4199  0.4867  0.2530
17326SOL    HW153419   6.461   0.115   0.232  0.3632  0.2752  0.5775
17326SOL    HW253420   6.606   0.087   0.200  0.2857 -0.7663  1.0947
17327SOL     OW53421   7.484   6.935  10.965  0.2196  0.2170  0.0512
17327SOL    HW153422   7.505   7.023  10.997 -0.6420  0.5553 -0.2762
17327SOL    HW253423   7.420   6.902  11.028  1.0080 -0.4348  0.5280
17328SOL     OW53424   4.253   5.438  11.372 -0.1247  0.1388  0.2426
17328SOL    HW153425   4.191   5.510  11.382  1.1021  0.9971  2.2251
17328SOL    HW253426   4.204   5.360  11.400 -0.6155  0.6477  0.8204
17329SOL     OW53427   3.591   7.546  12.018 -0.3340  0.3659  1.1457
17329SOL    HW153428   3.624   7.574  11.933 -2.5656 -2.1412 -0.7054
17329SOL    HW253429   3.511   7.597  12.031  0.9122  2.0318  2.6829
17330SOL     OW53430   4.381   5.956  11.934  0.5245 -0.0145  1.0021
17330SOL    HW153431   4.437   5.926  11.863 -0.2709 -0.3207  0.4918
17330SOL    HW253432   4.438   5.957  12.011  0.9503 -1.4240  0.7316
17331SOL     OW53433   1.326   5.929  11.942  0.3551  0.0956 -0.2599
17331SOL    HW153434   1.320   5.912  12.036  1.5792  0.7605 -0.0342
17331SOL    HW253435   1.384   5.861  11.908  0.6858  0.4152 -0.3504
17332SOL     OW53436   2.705   6.965  12.055 -0.3656 -0.0687  0.2834
17332SOL    HW153437   2.627   7.004  12.094  0.5481 -0.5147  2.7485
17332SOL    HW253438   2.689   6.870  12.057 -0.2275 -0.1086 -0.2686
17333SOL     OW53439   4.629   4.949   1.041  0.3184  0.1059  0.5704
17333SOL    HW153440   4.538   4.966   1.068 -0.9443 -3.0615 -1.0779
17333SOL    HW253441   4.672   4.917   1.119 -1.0209 -1.5287  0.7053
17334SOL     OW53442   5.408   5.077  10.545 -0.0531 -0.5901 -0.1739
17334SOL    HW153443   5.480   5.113  10.596 -0.5973  0.4464 -0.1088
17334SOL    HW253444   5.431   4.985  10.533  1.0185 -0.4019  0.2896
17335SOL     OW53445   3.832   1.264  12.167 -0.2259 -0.1926  0.4230
17335SOL    HW153446   3.772   1.190  12.175  0.2353 -0.5502  0.5404
17335SOL    HW253447   3.901   1.247  12.231 -0.1863  0.3996  0.5421
17336SOL     OW53448   4.495   6.388   0.154 -0.0792  0.8149  0.7382
17336SOL    HW153449   4.441   6.379   0.233  0.0098  0.2236  0.7336
17336SOL    HW253450   4.436   6.365   0.083  0.6418 -1.6521  0.8621
17337SOL     OW53451   4.889   0.290   0.605 -0.0626  0.6472  0.0640
17337SOL    HW153452   4.928   0.215   0.559  0.0709  0.8214 -0.1048
17337SOL    HW253453   4.960   0.325   0.658 -0.2037  0.4758  0.3713
17338SOL     OW53454   3.498   6.939   2.435 -0.5665  0.3313  0.1182
17338SOL    HW153455   3.527   7.030   2.439  1.4171 -0.1622 -1.2281
17338SOL    HW253456   3.480   6.915   2.526 -0.9676  2.0077  0.5066
17339SOL     OW53457   4.903   7.143   0.152  0.0093 -0.3335  0.3720
17339SOL    HW153458   4.944   7.092   0.222  0.3104  0.4891  0.8053
17339SOL    HW253459   4.975   7.170   0.096 -0.3016 -1.5791 -0.6792
17340SOL     OW53460   5.212   7.467   1.416  0.6270 -0.6738  0.4324
17340SOL    HW153461   5.126   7.483   1.379  1.9308  1.9824 -1.7983
17340SOL    HW253462   5.244   7.389   1.370  0.5376  0.1040 -1.0132
17341SOL     OW53463   5.570   7.094  10.540 -0.0488  0.1989 -0.0965
17341SOL    HW153464   5.483   7.124  10.563 -0.1663 -0.5728  0.5188
17341SOL    HW253465   5.630   7.156  10.581 -0.2990  0.8335 -0.6717
17342SOL     OW53466   2.960   7.515   0.226  0.1014 -0.4915  0.4717
17342SOL    HW153467   2.941   7.451   0.294 -0.1159  0.1941  1.0708
17342SOL    HW253468   2.976   7.463   0.148  2.2997 -1.4118  1.4522
17343SOL     OW53469   4.957   0.048   0.454 -0.3434 -0.5277 -0.3763
17343SOL    HW153470   5.000  -0.017   0.508 -1.1298  0.6448  1.7624
17343SOL    HW253471   4.964   0.014   0.365 -0.7952 -3.5565  0.6519
17344SOL     OW53472   4.115   6.223  10.607 -0.7224 -0.5050  0.0738
17344SOL    HW153473   4.095   6.271  10.527 -0.3052 -1.1866 -0.4434
17344SOL    HW253474   4.162   6.145  10.578  0.2642 -0.2985  1.0484
17345SOL     OW53475   5.251   3.841  10.160  0.3469  0.1393  0.5515
17345SOL    HW153476   5.251   3.909  10.093 -2.3948  0.6409  0.9316
17345SOL    HW253477   5.161   3.807  10.159  1.1630 -2.2427  1.6188
17346SOL     OW53478   4.622   5.622  10.818  0.1489  0.2037  0.7721
17346SOL    HW153479   4.684   5.691  10.795 -0.7601  0.4012 -1.2203
17346SOL    HW253480   4.659   5.543  10.779 -0.7856  0.3094 -0.3701
17347SOL     OW53481   5.405   0.711  11.935  0.1553 -0.2360  0.3808
17347SOL    HW153482   5.467   0.759  11.879 -0.1853  1.8470  1.6564
17347SOL    HW253483   5.327   0.700  11.881  0.6445 -0.3481 -0.3162
17348SOL     OW53484   4.698   0.450  11.806 -0.5037  0.1137  0.1661
17348SOL    HW153485   4.766   0.409  11.753 -0.9843  0.1211 -0.4552
17348SOL    HW253486   4.734   0.536  11.829 -0.7230  0.5497 -1.0492
17349SOL     OW53487   5.017   6.282  11.610  0.4302  0.3128  0.2391
17349SOL    HW153488   5.034   6.188  11.616 -1.1654  0.0094  0.3721
17349SOL    HW253489   4.949   6.291  11.543 -0.6818  1.1670  1.4205
17350SOL     OW53490   7.029   7.806  12.164 -0.2106 -0.2361  0.1195
17350SOL    HW153491   7.123   7.790  12.153 -0.6066 -1.6624 -1.6888
17350SOL    HW253492   6.994   7.801  12.075 -1.8538  1.4364  0.6333
17351SOL     OW53493   4.888   5.706  12.112  0.3860 -0.1538  0.2827
17351SOL    HW153494   4.886   5.611  12.126 -0.4330 -0.2199 -0.2539
17351SOL    HW253495   4.824   5.722  12.044  0.5742  0.7877  0.3113
17352SOL     OW53496   2.775   6.893   0.742  0.5320 -0.0390 -0.4240
17352SOL    HW153497   2.817   6.842   0.811  0.4869  0.9801  0.3749
17352SOL    HW253498   2.814   6.980   0.749  0.3261  0.1554 -1.5115
17353SOL     OW53499   6.122   4.205   1.328 -0.3671 -0.0961 -0.0969
17353SOL    HW153500   6.040   4.207   1.377 -0.2376  1.2172  0.0942
17353SOL    HW253501   6.186   4.246   1.386  0.4553 -1.1058 -0.2400
17354SOL     OW53502   3.515   5.334  12.116 -0.0496 -0.4487 -0.0102
17354SOL    HW153503   3.446   5.269  12.124 -0.6562  0.1628 -0.1550
17354SOL    HW253504   3.484   5.394  12.048  1.5893 -1.3555 -1.6538
17355SOL     OW53505   2.816   7.032  11.800  0.3553  0.0834 -0.3411
17355SOL    HW153506   2.789   7.045  11.891  1.3643  1.9430 -0.2398
17355SOL    HW253507   2.909   7.011  11.806  0.4122  0.1585 -0.9419
17356SOL     OW53508   3.718   4.547  11.031 -0.7563 -0.1174 -0.1795
17356SOL    HW153509   3.784   4.596  11.080  0.0091  0.9987 -2.1995
17356SOL    HW253510   3.634   4.578  11.065 -0.2589  0.4528  0.5560
17357SOL     OW53511   3.472   6.317   0.942  0.1627  0.1291  0.3329
17357SOL    HW153512   3.438   6.242   0.892  0.8815 -1.0459  1.5244
17357SOL    HW253513   3.550   6.345   0.894 -0.8392  1.0095 -0.8498
17358SOL     OW53514   2.026   6.271   1.796 -0.3425 -0.2994 -0.1579
17358SOL    HW153515   2.020   6.337   1.865 -0.9589 -1.8672  1.3630
17358SOL    HW253516   1.947   6.284   1.743  0.4030  1.2620 -0.9454
17359SOL     OW53517   3.918   5.935  12.159  0.7990  0.1979  0.0028
17359SOL    HW153518   3.837   5.952  12.112  0.8523  3.0358  0.7681
17359SOL    HW253519   3.982   5.917  12.090  0.1288  0.6835 -0.7631
17360SOL     OW53520   5.102   6.799   0.559  0.5841 -0.0949 -0.7171
17360SOL    HW153521   5.093   6.756   0.644 -0.3051  0.5876 -0.4423
17360SOL    HW253522   5.158   6.875   0.577 -0.6325  0.7843 -0.4152
17361SOL     OW53523   5.011   7.549  12.164 -0.9137  0.2398 -0.2445
17361SOL    HW153524   5.028   7.473  12.109 -3.1884  0.8276 -1.8549
17361SOL    HW253525   5.053   7.622  12.118 -2.7150  0.7106 -1.2114
17362SOL     OW53526   3.699   6.403   0.805 -0.1828  0.3089 -0.5367
17362SOL    HW153527   3.662   6.459   0.736  1.0933 -0.2693 -1.7256
17362SOL    HW253528   3.753   6.339   0.758  1.0073  0.1191  1.0134
17363SOL     OW53529   6.179   4.846  10.125  0.3950 -0.0595 -0.5717
17363SOL    HW153530   6.147   4.936  10.126  0.1118 -0.1248 -1.7714
17363SOL    HW253531   6.124   4.802  10.060  0.6814 -1.0401 -0.1626
17364SOL     OW53532   5.171   6.725  10.945  0.0330  0.5738 -0.0490
17364SOL    HW153533   5.211   6.801  10.988  2.0652 -0.0332 -0.7710
17364SOL    HW253534   5.155   6.664  11.016  0.1606  0.9380  0.2983
17365SOL     OW53535   4.573   7.020  11.307 -0.6705  0.1123  0.3998
17365SOL    HW153536   4.521   6.994  11.383 -0.4998 -0.3029  0.3776
17365SOL    HW253537   4.655   7.053  11.345 -0.1713 -1.0505  0.3631
17366SOL     OW53538   5.471   7.728  12.070  0.3643 -0.6445  0.1761
17366SOL    HW153539   5.539   7.693  12.128  0.0147  0.3397  1.1928
17366SOL    HW253540   5.515   7.798  12.021 -0.1483  0.6680  1.5485
17367SOL     OW53541   4.658   7.325  11.370  0.0246  0.3917 -0.2961
17367SOL    HW153542   4.575   7.301  11.411 -1.2764  2.1605 -1.7214
17367SOL    HW253543   4.725   7.279  11.421 -1.8164 -1.1125  0.8744
17368SOL     OW53544   5.028   6.100  12.038 -0.2694 -0.2117 -0.0885
17368SOL    HW153545   4.965   6.084  12.107 -0.1421  1.2660  0.4113
17368SOL    HW253546   5.102   6.043  12.059 -0.8403 -0.8820  0.1319
17369SOL     OW53547   5.530   4.929   1.329  0.4361  0.3463 -0.7520
17369SOL    HW153548   5.532   4.877   1.248 -3.2677  1.8979 -2.0658
17369SOL    HW253549   5.565   5.015   1.303  0.4032  0.4870 -0.3349
17370SOL     OW53550   5.561   6.124  11.468 -0.6663 -0.6362  0.0311
17370SOL    HW153551   5.574   6.029  11.466  0.1693 -0.5421  0.6670
17370SOL    HW253552   5.467   6.135  11.453 -1.5014 -1.7643  3.5695
17371SOL     OW53553   4.979   5.986  10.627  0.4236 -0.3767  0.4734
17371SOL    HW153554   4.991   6.056  10.691  2.0895 -0.1654 -0.0327
17371SOL    HW253555   4.985   6.029  10.542  0.6194 -1.0027  0.1618
17372SOL     OW53556   4.637   5.788  10.491 -0.1694  0.2745 -0.5149
17372SOL    HW153557   4.677   5.793  10.578 -3.4114 -0.4020  1.1800
17372SOL    HW253558   4.702   5.745  10.436  2.4646  1.8030  1.2202
17373SOL     OW53559   4.180   0.815  12.360 -0.6053  0.0844 -0.3394
17373SOL    HW153560   4.266   0.824  12.320 -0.2268  0.9921  0.6370
17373SOL    HW253561   4.198   0.767  12.442 -0.7999  1.4996  0.5561
17374SOL     OW53562   7.073   5.263   0.379  0.3216  0.2835  0.1258
17374SOL    HW153563   7.060   5.299   0.466 -0.8339 -0.8238  0.4367
17374SOL    HW253564   7.154   5.214   0.385 -0.8807 -1.6794  1.2618
17375SOL     OW53565   5.824   5.525  11.928  0.1762 -0.1306  0.3880
17375SOL    HW153566   5.814   5.431  11.919 -1.2149  0.0522 -0.2308
17375SOL    HW253567   5.887   5.549  11.859 -2.6305 -0.1111 -2.4027
17376SOL     OW53568   5.609   7.101   9.578 -0.0674  0.2812 -0.1772
17376SOL    HW153569   5.621   7.195   9.563  1.7220 -0.0173 -0.9262
17376SOL    HW253570   5.565   7.069   9.499 -0.7365  0.4797  0.1062
17377SOL     OW53571   1.981   5.231   0.243  0.3093  0.4006 -0.0227
17377SOL    HW153572   1.989   5.209   0.336  1.0289  2.1086  0.3591
17377SOL    HW253573   1.888   5.226   0.225 -0.0845  1.9110  1.3332
17378SOL     OW53574   5.114   7.890  10.679  0.2253 -0.3074  0.1430
17378SOL    HW153575   5.145   7.855  10.596  1.4312 -1.5243  1.0745
17378SOL    HW253576   5.179   7.862  10.743 -1.1601 -0.2030  1.6643
17379SOL     OW53577   5.474   5.919  10.332  0.0331  0.0105  0.4957
17379SOL    HW153578   5.402   5.865  10.299 -0.5883  0.8376  0.4713
17379SOL    HW253579   5.458   5.924  10.427 -0.4826  0.9565  0.3688
17380SOL     OW53580   4.592   6.472  12.010  0.3622  0.3878 -0.5373
17380SOL    HW153581   4.498   6.458  12.002  0.3274 -2.4167  2.5427
17380SOL    HW253582   4.600   6.558  12.052 -0.7034  1.0850 -1.6886
17381SOL     OW53583   5.856   5.143   0.309 -0.1032 -0.1916 -1.0874
17381SOL    HW153584   5.891   5.148   0.398  1.0787  0.1406 -1.5484
17381SOL    HW253585   5.924   5.097   0.259 -1.1861 -1.2949 -1.6227
17382SOL     OW53586   3.913   6.413  11.228  0.6714 -0.1668  0.5283
17382SOL    HW153587   3.987   6.389  11.173  1.7132  2.2458  0.7967
17382SOL    HW253588   3.837   6.409  11.169  1.3083 -0.6075 -0.2806
17383SOL     OW53589   5.695   0.412   1.068 -0.5387  0.1626 -0.0880
17383SOL    HW153590   5.633   0.480   1.040 -2.1374 -1.0151  0.5061
17383SOL    HW253591   5.646   0.358   1.130  0.3027 -2.2403 -1.4056
17384SOL     OW53592   3.487   7.491   0.196  0.7038 -0.1857 -0.4764
17384SOL    HW153593   3.444   7.554   0.140 -0.2313 -0.6983 -0.3544
17384SOL    HW253594   3.567   7.466   0.149  0.2554 -0.1296 -1.2725
17385SOL     OW53595   4.160   6.745  10.981  0.1157 -0.5043 -0.4637
17385SOL    HW153596   4.240   6.760  11.031  0.3198  1.0711 -1.1944
17385SOL    HW253597   4.190   6.735  10.890 -0.3921 -1.5401 -0.5254
17386SOL     OW53598   3.465   4.386  11.443 -0.1956  0.3222  0.0290
17386SOL    HW153599   3.389   4.340  11.477 -0.7995  0.9383 -0.4663
17386SOL    HW253600   3.484   4.343  11.359 -0.3093  0.4972 -0.0871
17387SOL     OW53601   5.068   7.304  12.044  0.3943  0.0184 -0.0685
17387SOL    HW153602   5.003   7.274  11.981 -0.8047  2.5613 -0.1717
17387SOL    HW253603   5.146   7.323  11.991  0.4837 -0.8786 -0.2764
17388SOL     OW53604   6.004   2.163   1.043  0.1784 -0.0877 -0.6823
17388SOL    HW153605   6.043   2.121   1.119 -0.4002  0.8922  0.1900
17388SOL    HW253606   6.075   2.212   1.003  0.4513 -0.4913 -0.6976
17389SOL     OW53607   6.268   5.668  11.928  0.0645 -0.1536 -0.2085
17389SOL    HW153608   6.346   5.693  11.879 -0.4035 -1.3585 -1.6630
17389SOL    HW253609   6.291   5.584  11.969  0.2229  0.5187  1.1447
17390SOL     OW53610   4.220   5.694   0.231 -0.2562  0.2772  0.0290
17390SOL    HW153611   4.228   5.690   0.326  0.0344  2.9822  0.2057
17390SOL    HW253612   4.301   5.654   0.199 -0.1024 -0.1537  0.9233
17391SOL     OW53613   5.190   4.829  10.989 -0.2161 -0.0085 -0.0863
17391SOL    HW153614   5.215   4.782  10.909  0.7146 -0.9694  0.7312
17391SOL    HW253615   5.148   4.909  10.958  2.2149  0.8033 -1.5905
17392SOL     OW53616   6.878   7.593  11.223  0.7708  0.7995 -0.7962
17392SOL    HW153617   6.809   7.546  11.175 -1.7961  1.5327  1.8967
17392SOL    HW253618   6.933   7.524  11.259 -0.6238  0.0060 -0.1361
17393SOL     OW53619   4.737   6.967  10.759  0.1955 -0.4250  0.2883
17393SOL    HW153620   4.750   7.037  10.823 -0.5007  0.0735 -0.0989
17393SOL    HW253621   4.809   6.905  10.776  0.4376  0.0516  1.0666
17394SOL     OW53622   5.699   6.915  12.181  0.0020  0.4134 -0.1074
17394SOL    HW153623   5.691   6.981  12.112 -0.6600  1.1217  0.6303
17394SOL    HW253624   5.777   6.865  12.157 -0.8635 -0.1432 -2.0298
17395SOL     OW53625   5.588   5.036  12.245  0.0672  0.9218 -0.1933
17395SOL    HW153626   5.672   5.006  12.277 -1.0123 -1.5753  0.5328
17395SOL    HW253627   5.531   5.036  12.322 -1.3689 -0.5705 -1.1721
17396SOL     OW53628   4.415   6.571  11.773 -0.4053 -0.4892 -0.1595
17396SOL    HW153629   4.336   6.529  11.739  0.4803 -2.0365 -0.3705
17396SOL    HW253630   4.389   6.605  11.859 -0.9358 -2.2825  0.4252
17397SOL     OW53631   5.401   0.261  11.141 -0.3374  0.5114 -0.0366
17397SOL    HW153632   5.452   0.199  11.089 -0.5962  0.7827 -0.6234
17397SOL    HW253633   5.462   0.292  11.208 -0.2879 -0.5881  0.4520
17398SOL     OW53634   3.389   6.097  10.343  0.2948  0.3853 -0.3617
17398SOL    HW153635   3.401   6.047  10.423 -0.1450 -0.3121 -0.7278
17398SOL    HW253636   3.478   6.110  10.309  0.4854  0.7198  0.2494
17399SOL     OW53637   7.115   6.955  11.882 -0.4211 -0.3231 -0.2538
17399SOL    HW153638   7.133   6.880  11.939 -0.4754 -0.6490 -0.6659
17399SOL    HW253639   7.187   6.955  11.819 -0.6688 -0.3011 -0.5369
17400SOL     OW53640   4.899   5.415  12.129 -0.4131  0.1415  0.0961
17400SOL    HW153641   4.969   5.392  12.191 -0.0534  1.6777  0.3210
17400SOL    HW253642   4.903   5.348  12.061  0.1796 -0.7304  0.9727
17401SOL     OW53643   5.800   6.201  11.322 -0.0335  0.5322  0.2228
17401SOL    HW153644   5.707   6.225  11.317 -0.2817 -0.4790 -0.4538
17401SOL    HW253645   5.838   6.238  11.243 -1.0118 -3.4479 -2.4450
17402SOL     OW53646   5.496   7.808  10.837  0.1998  0.2444  0.2827
17402SOL    HW153647   5.417   7.847  10.874  0.6163  1.7681 -0.3649
17402SOL    HW253648   5.477   7.799  10.743  0.3664 -0.5160  0.3088
17403SOL     OW53649   4.703   5.572  11.443 -0.2083 -0.1329 -0.2504
17403SOL    HW153650   4.769   5.528  11.497 -0.6751  0.4366  0.8251
17403SOL    HW253651   4.744   5.654  11.418 -0.5304  0.2730  0.5151
17404SOL     OW53652   5.338   6.328  10.687  0.1038  0.4543 -0.1364
17404SOL    HW153653   5.351   6.246  10.734 -2.4309 -0.5754 -1.0564
17404SOL    HW253654   5.373   6.312  10.600  0.2588  0.6055 -0.1031
17405SOL     OW53655   4.545   5.953  12.184  1.2130  0.1545 -0.2402
17405SOL    HW153656   4.481   6.018  12.212  0.1122 -0.0631 -2.0585
17405SOL    HW253657   4.619   5.964  12.243 -0.6294  0.1575  2.1868
17406SOL     OW53658   5.344   5.614   9.700  0.1423  0.0436  0.2961
17406SOL    HW153659   5.267   5.614   9.644  0.7594 -2.1925 -0.6703
17406SOL    HW253660   5.399   5.684   9.665 -1.3814  1.6444  0.9858
17407SOL     OW53661   5.046   5.240  10.438  0.0596  0.2484  0.5242
17407SOL    HW153662   5.000   5.322  10.418  0.2218  0.2458  0.1326
17407SOL    HW253663   5.042   5.190  10.357 -0.0655 -0.1464  0.7757
17408SOL     OW53664   4.862   6.609  11.858  0.4479 -0.6636  0.1260
17408SOL    HW153665   4.883   6.667  11.931  1.2327 -1.1789  0.3174
17408SOL    HW253666   4.828   6.668  11.790 -1.0908 -0.2677  1.1810
17409SOL     OW53667   4.162   5.381  12.294  0.3400 -0.3266 -0.0862
17409SOL    HW153668   4.202   5.460  12.260 -1.6619  0.5187 -0.6587
17409SOL    HW253669   4.124   5.338  12.217  1.9834 -2.2603  0.0933
17410SOL     OW53670   4.452   0.919   9.170  0.0306  0.0240  0.2387
17410SOL    HW153671   4.409   0.834   9.181 -1.3829  0.6134 -0.4605
17410SOL    HW253672   4.489   0.917   9.082  1.0755 -0.2971  0.6631
17411SOL     OW53673   3.298   0.208   1.143  0.1340  0.5414  0.1634
17411SOL    HW153674   3.299   0.117   1.173  0.3105  0.4602 -0.0889
17411SOL    HW253675   3.384   0.243   1.167  0.4779  0.3221 -0.7080
17412SOL     OW53676   3.796   0.832   1.078 -0.0798 -0.0636  0.2165
17412SOL    HW153677   3.830   0.752   1.038 -0.5757  0.7703 -2.0198
17412SOL    HW253678   3.791   0.813   1.172  1.1492 -2.1350 -0.1027
17413SOL     OW53679   3.637   1.359   0.165 -0.4265 -0.0166 -0.0612
17413SOL    HW153680   3.666   1.358   0.256 -1.4750  0.5541  0.2998
17413SOL    HW253681   3.580   1.436   0.159 -0.8914 -0.4240 -1.0334
17414SOL     OW53682   3.092   5.878   3.154  0.1319  0.1228 -0.7795
17414SOL    HW153683   3.066   5.804   3.209  1.8210 -0.2590 -0.4479
17414SOL    HW253684   3.084   5.955   3.210  0.9922 -0.1601 -0.2477
17415SOL     OW53685   5.202   1.277   1.310 -0.1447 -0.0021 -0.7123
17415SOL    HW153686   5.226   1.338   1.241  0.6709 -0.2077 -0.6257
17415SOL    HW253687   5.213   1.326   1.391  0.9924 -0.3954 -0.6134
17416SOL     OW53688   3.756   7.274   1.726  0.0441  0.4921 -0.2388
17416SOL    HW153689   3.683   7.308   1.778  0.6561 -0.4417  1.2998
17416SOL    HW253690   3.831   7.327   1.751  0.6727 -0.9239  1.0437
17417SOL     OW53691   3.488   0.203  12.176 -0.1397  0.1270 -0.2485
17417SOL    HW153692   3.567   0.201  12.229  0.1829 -1.4053 -0.7479
17417SOL    HW253693   3.515   0.170  12.090 -1.7949 -3.0453  0.3116
17418SOL     OW53694   3.989   7.157   0.941  0.1812  0.1327 -0.8320
17418SOL    HW153695   4.037   7.176   0.861 -0.6155 -0.1483 -1.3891
17418SOL    HW253696   4.045   7.191   1.011  1.0491  0.0621 -1.4765
17419SOL     OW53697   5.869   6.878   1.964  0.2587 -0.5360  0.0805
17419SOL    HW153698   5.941   6.825   1.999  0.2355  0.0063  0.9863
17419SOL    HW253699   5.816   6.816   1.915  1.6139 -0.8575 -1.0586
17420SOL     OW53700   5.377   5.120   1.087  0.4006  0.5399  0.0214
17420SOL    HW153701   5.392   5.066   1.010  0.0421  1.0815 -0.4442
17420SOL    HW253702   5.284   5.109   1.106  0.3889  0.7531  0.0994
17421SOL     OW53703   6.416   7.522   2.715  0.2499  0.1919  0.1081
17421SOL    HW153704   6.326   7.533   2.746  0.0756  1.3485 -0.7250
17421SOL    HW253705   6.429   7.596   2.655  0.9516 -1.3030 -1.6538
17422SOL     OW53706   4.644   6.837   4.061  0.0426 -0.0666  0.7227
17422SOL    HW153707   4.586   6.909   4.034 -2.0214 -0.8414  2.7619
17422SOL    HW253708   4.712   6.835   3.994 -2.5769  0.5654 -2.2036
17423SOL     OW53709   4.696   0.478   2.718 -0.1240 -0.2033 -0.5196
17423SOL    HW153710   4.690   0.573   2.706  1.0160 -0.2668 -1.8146
17423SOL    HW253711   4.790   0.459   2.711 -0.3613 -1.4578 -0.5097
17424SOL     OW53712   5.633   7.911   0.925  0.1065  0.0758 -0.0096
17424SOL    HW153713   5.715   7.959   0.914 -0.4470  1.7709  2.4205
17424SOL    HW253714   5.659   7.825   0.959  0.9198  0.4391  0.2986
17425SOL     OW53715   5.255   7.500   2.657 -0.1753 -0.4026 -0.0935
17425SOL    HW153716   5.350   7.515   2.650 -0.2366 -0.2544 -0.5768
17425SOL    HW253717   5.247   7.442   2.733  0.1203  1.4316  1.4199
17426SOL     OW53718   3.709   7.615   1.270  0.0470  0.4410  0.0362
17426SOL    HW153719   3.637   7.580   1.217 -0.4074  1.4319 -0.0260
17426SOL    HW253720   3.695   7.578   1.357 -0.6655  0.7792  0.0729
17427SOL     OW53721   2.419   7.170   1.526 -0.8793  0.2398 -0.3626
17427SOL    HW153722   2.356   7.242   1.526 -0.4081  0.6638 -0.7471
17427SOL    HW253723   2.485   7.196   1.461 -0.7902 -0.6150 -0.6269
17428SOL     OW53724   6.401   7.429   2.156  0.4412 -0.2803  0.2065
17428SOL    HW153725   6.372   7.428   2.247  0.1096 -1.0849  0.0991
17428SOL    HW253726   6.411   7.522   2.135 -0.4931 -0.0493  0.7499
17429SOL     OW53727   5.347   6.810   1.723 -0.3374 -0.2983  0.2299
17429SOL    HW153728   5.429   6.769   1.694 -0.2572  0.3721 -0.5270
17429SOL    HW253729   5.370   6.851   1.807 -0.0593 -0.6176  0.3162
17430SOL     OW53730   4.370   6.700   0.520  0.1941  0.5185  0.6335
17430SOL    HW153731   4.376   6.794   0.502 -1.0370  0.4177 -0.5001
17430SOL    HW253732   4.402   6.691   0.609 -1.0171  2.2371  1.3028
17431SOL     OW53733   4.876   1.254   1.860 -0.6553 -0.1816  0.4096
17431SOL    HW153734   4.830   1.170   1.860  0.0635 -0.5918  0.1301
17431SOL    HW253735   4.818   1.314   1.906 -1.4519 -0.6866  0.0790
17432SOL     OW53736   4.490   7.720   2.420 -0.2900  0.1740  0.0604
17432SOL    HW153737   4.451   7.633   2.406 -1.1766  0.6331 -0.4166
17432SOL    HW253738   4.415   7.776   2.442 -0.1982  1.4637 -2.5436
17433SOL     OW53739   3.613   7.853   2.702  0.0583 -0.0760 -0.2073
17433SOL    HW153740   3.688   7.820   2.654  1.1978  0.7186  0.9727
17433SOL    HW253741   3.604   7.944   2.672  1.5656  0.8422  1.8944
17434SOL     OW53742   4.732   7.803  11.848 -0.3165  0.3815  0.0110
17434SOL    HW153743   4.726   7.781  11.941  0.8408  0.9643  0.2427
17434SOL    HW253744   4.714   7.897  11.844  1.4305  0.7328 -0.1104
17435SOL     OW53745   5.340   7.535  11.925  0.0613 -0.4821 -0.2916
17435SOL    HW153746   5.386   7.617  11.943 -0.4770 -0.3136  0.3452
17435SOL    HW253747   5.369   7.475  11.995  0.0045 -0.6518 -0.4120
17436SOL     OW53748   4.346   6.838   2.785 -0.3098 -0.4785  0.1480
17436SOL    HW153749   4.283   6.859   2.716 -0.0213  0.4666  0.1553
17436SOL    HW253750   4.410   6.781   2.743  0.7304  1.3211 -0.8276
17437SOL     OW53751   3.444   1.027   1.487  0.0499  0.1753 -0.2519
17437SOL    HW153752   3.405   1.114   1.485  0.8353  0.5232 -1.4377
17437SOL    HW253753   3.530   1.039   1.528  0.5129  0.1267 -1.1827
17438SOL     OW53754   4.610   1.041  12.466  0.3074  0.4680  0.4815
17438SOL    HW153755   4.663   1.096  12.409  1.6090 -0.9982  0.2007
17438SOL    HW253756   4.551   1.102  12.510  0.1532  1.7988 -1.4331
17439SOL     OW53757   6.952   0.484  12.486 -0.1129 -0.1826  0.2171
17439SOL    HW153758   6.970   0.496  12.579 -0.3806 -1.8381  0.5057
17439SOL    HW253759   6.975   0.393  12.468  0.9365  0.3799 -1.5843
17440SOL     OW53760   4.645   7.736   0.335  0.2097 -0.9328  0.2154
17440SOL    HW153761   4.642   7.832   0.343 -0.1397 -1.0681  1.9189
17440SOL    HW253762   4.732   7.712   0.364  0.0033 -1.2029  0.6128
17441SOL     OW53763   5.335   6.650   1.423  0.0779 -0.0636 -0.5861
17441SOL    HW153764   5.265   6.689   1.475 -0.5752  0.6249 -1.9417
17441SOL    HW253765   5.415   6.670   1.471 -0.5501  0.0504  0.4387
17442SOL     OW53766   6.121   7.454   0.527 -0.2379  0.4288 -0.0712
17442SOL    HW153767   6.169   7.513   0.585  0.0858 -0.4956  0.6131
17442SOL    HW253768   6.155   7.474   0.440  0.9412  0.2237  0.3287
17443SOL     OW53769   4.426   1.586   0.922  0.2738  0.1968 -0.4743
17443SOL    HW153770   4.420   1.598   1.016  1.2191  0.3136 -0.4196
17443SOL    HW253771   4.445   1.493   0.910 -0.0405  0.1415 -0.5656
17444SOL     OW53772   2.574   7.601  11.990 -0.5202  0.0016 -0.5085
17444SOL    HW153773   2.560   7.679  11.936  1.9567  1.1601  0.3491
17444SOL    HW253774   2.624   7.633  12.065  1.7904 -2.6324 -0.7878
17445SOL     OW53775   4.439   0.417   2.874 -0.7250  0.2202 -0.1072
17445SOL    HW153776   4.380   0.462   2.813 -0.0496  0.3036 -0.7130
17445SOL    HW253777   4.514   0.477   2.883 -0.6064 -0.0064  0.4325
17446SOL     OW53778   5.365   0.318   1.886 -0.0675 -0.3306  0.3009
17446SOL    HW153779   5.270   0.326   1.882  0.0239  0.3874 -1.9073
17446SOL    HW253780   5.380   0.226   1.908 -1.2202 -0.0532  2.5171
17447SOL     OW53781   4.831   6.545   1.456 -0.6602 -0.7718 -0.0312
17447SOL    HW153782   4.765   6.532   1.387 -0.1865  2.1072 -1.1897
17447SOL    HW253783   4.911   6.564   1.408  0.2495 -1.0262  1.3527
17448SOL     OW53784   6.059   7.720   0.016  0.4589 -0.3473 -0.0080
17448SOL    HW153785   6.135   7.778   0.026  0.0139  0.0370  1.3493
17448SOL    HW253786   5.989   7.765   0.062 -0.2975 -1.2672 -0.2347
17449SOL     OW53787   4.257   6.023   1.137  0.3344 -0.0733  0.0295
17449SOL    HW153788   4.245   6.117   1.144 -0.1142 -0.2028  1.3198
17449SOL    HW253789   4.207   5.987   1.210 -1.7099 -1.5007 -1.9666
17450SOL     OW53790   6.732   0.602   0.698 -0.0747 -0.0329 -0.4817
17450SOL    HW153791   6.649   0.554   0.703  0.1855 -0.4120  0.3852
17450SOL    HW253792   6.762   0.607   0.789  0.4994  0.7259 -0.7088
17451SOL     OW53793   5.049   7.081   3.186  0.9992  0.4449  0.0531
17451SOL    HW153794   5.061   6.986   3.188  0.3405  0.2727 -1.9012
17451SOL    HW253795   5.019   7.100   3.097  1.7179  2.5710  0.1962
17452SOL     OW53796   5.087   6.572   2.142  0.2578 -0.1646 -0.0291
17452SOL    HW153797   5.105   6.488   2.182  2.3356  0.2149 -0.0015
17452SOL    HW253798   5.105   6.558   2.049 -0.9889 -0.1477 -0.2788
17453SOL     OW53799   4.630   0.925   2.286  0.0022 -0.0769  0.0476
17453SOL    HW153800   4.610   0.832   2.297  0.8741 -0.2525  0.2178
17453SOL    HW253801   4.696   0.944   2.353  1.2438  0.1857 -1.2047
17454SOL     OW53802   4.752   2.375   1.054 -0.2076  0.5489  0.4959
17454SOL    HW153803   4.813   2.408   1.120 -1.6556  0.5148  1.9182
17454SOL    HW253804   4.733   2.451   0.999  2.1668  0.2257 -0.8885
17455SOL     OW53805   2.502   7.399  12.220  0.1160  0.5104 -0.4850
17455SOL    HW153806   2.481   7.477  12.169  1.0684 -0.0287 -1.7550
17455SOL    HW253807   2.473   7.326  12.165  0.1275 -0.0584  0.2556
17456SOL     OW53808   6.006   0.722  12.105  0.1824  0.0815  0.1084
17456SOL    HW153809   6.075   0.783  12.080 -0.4887  0.3363 -1.2445
17456SOL    HW253810   6.046   0.665  12.170  1.3570  0.8432  0.0811
17457SOL     OW53811   5.495   0.340   0.454  1.0760  0.9378 -0.0391
17457SOL    HW153812   5.429   0.295   0.507  0.6772  0.0517 -1.2463
17457SOL    HW253813   5.528   0.410   0.511 -0.9138  1.4254  0.5943
17458SOL     OW53814   4.818   0.151   1.907 -0.1926  0.6686 -0.6262
17458SOL    HW153815   4.871   0.229   1.890  0.0497  0.4025 -1.1027
17458SOL    HW253816   4.869   0.101   1.970  0.6005 -0.0558 -1.8091
17459SOL     OW53817   3.257   7.585   1.354 -0.5629  0.3524 -0.2741
17459SOL    HW153818   3.328   7.647   1.369  1.7508 -2.3306  0.7411
17459SOL    HW253819   3.245   7.584   1.259 -1.2881  2.8942 -0.2615
17460SOL     OW53820   5.571   7.915   2.873 -0.6763  0.2135 -0.0812
17460SOL    HW153821   5.567   7.961   2.789 -4.1662  2.8519  1.2866
17460SOL    HW253822   5.598   7.982   2.936  0.7268 -1.4038  1.1078
17461SOL     OW53823   6.733   7.260   0.698 -0.5362  0.1361 -0.3209
17461SOL    HW153824   6.815   7.213   0.712 -0.1755  1.4196  2.4707
17461SOL    HW253825   6.759   7.350   0.679 -1.2752  0.3633 -0.3160
17462SOL     OW53826   3.887   0.849   2.943  0.0898  0.1473  0.7648
17462SOL    HW153827   3.896   0.889   3.030  1.2273 -0.3199  0.8830
17462SOL    HW253828   3.797   0.817   2.940  0.0964 -0.0005  1.8483
17463SOL     OW53829   6.520   7.590   1.026  0.2818  0.4404 -0.4162
17463SOL    HW153830   6.567   7.548   1.098 -1.1978  2.8440  2.1669
17463SOL    HW253831   6.433   7.550   1.028 -0.3249  1.7266  0.3823
17464SOL     OW53832   5.858   0.696   0.207  0.4045 -0.3002 -0.5884
17464SOL    HW153833   5.902   0.756   0.268 -1.3390 -0.7904  1.2710
17464SOL    HW253834   5.769   0.728   0.201 -0.4398 -2.3555  0.0389
17465SOL     OW53835   4.291   1.688   1.462  0.3649  0.2772  0.1523
17465SOL    HW153836   4.223   1.626   1.435 -0.0209  1.3303 -1.4307
17465SOL    HW253837   4.338   1.643   1.532 -2.6913 -0.0098  2.1558
17466SOL     OW53838   3.804   7.235  12.044  0.6558  0.2522  0.3129
17466SOL    HW153839   3.824   7.324  12.016 -0.9860 -0.2466 -3.0615
17466SOL    HW253840   3.871   7.181  12.003 -0.8877 -0.3617 -1.6103
17467SOL     OW53841   5.011   1.285   0.887  0.3310  0.1397  0.1208
17467SOL    HW153842   5.089   1.233   0.905 -0.5905 -0.8425  1.5028
17467SOL    HW253843   5.038   1.347   0.820  2.5789  0.5220  1.3066
17468SOL     OW53844   6.124   6.435   1.245 -0.2598 -0.1288 -0.3614
17468SOL    HW153845   6.039   6.464   1.276 -0.3279 -1.2503  0.5998
17468SOL    HW253846   6.180   6.437   1.323  0.6006  0.5980 -0.9788
17469SOL     OW53847   5.338   0.671   0.844 -0.1728 -0.4625 -0.2636
17469SOL    HW153848   5.337   0.716   0.760 -1.6455 -1.0487 -0.5719
17469SOL    HW253849   5.248   0.644   0.859  0.1429 -0.7510  1.3037
17470SOL     OW53850   5.154   6.254   1.231  0.4882  0.5073 -0.0147
17470SOL    HW153851   5.239   6.290   1.259  1.0247  0.0877 -1.0556
17470SOL    HW253852   5.121   6.318   1.169  0.1901  0.5020  0.1383
17471SOL     OW53853   6.492   6.499   2.240  0.5336  0.0939 -0.2014
17471SOL    HW153854   6.406   6.515   2.279  0.7324  1.2195 -0.1966
17471SOL    HW253855   6.553   6.513   2.312  0.6616 -2.5065  0.2895
17472SOL     OW53856   4.684   6.742   0.446 -0.4903  0.0434  0.0878
17472SOL    HW153857   4.724   6.829   0.445 -1.8263  0.7489  2.2177
17472SOL    HW253858   4.621   6.745   0.374  0.6304  0.1962 -0.9321
17473SOL     OW53859   4.300   0.564   1.335  0.6140  0.0875  0.6402
17473SOL    HW153860   4.252   0.542   1.414 -2.3697 -0.2858 -1.1111
17473SOL    HW253861   4.282   0.658   1.321  0.6604  0.0253  0.1398
17474SOL     OW53862   4.982   6.491   1.672 -0.3233 -0.1178  0.6078
17474SOL    HW153863   5.049   6.558   1.656  0.5473 -1.5659 -2.3919
17474SOL    HW253864   4.919   6.504   1.602 -1.3118 -1.0563  1.3087
17475SOL     OW53865   5.284   0.203  11.458  0.8532  0.3869 -0.8378
17475SOL    HW153866   5.256   0.141  11.525 -0.3411 -2.4341 -3.6822
17475SOL    HW253867   5.378   0.214  11.473  0.6795 -0.3981  1.0613
17476SOL     OW53868   4.486   0.172  12.452  0.5791 -0.0114  0.0972
17476SOL    HW153869   4.559   0.181  12.391  0.2526 -0.4769 -0.3667
17476SOL    HW253870   4.523   0.127  12.528  0.6399 -0.8243 -0.4001
17477SOL     OW53871   7.674   7.661   1.324  0.2769  0.6259 -0.6308
17477SOL    HW153872   7.597   7.611   1.297  0.4591  0.5257 -0.9686
17477SOL    HW253873   7.658   7.749   1.290  0.0603  0.7440 -0.2293
17478SOL     OW53874   3.001   0.749   5.214 -0.1593  0.0031 -0.3698
17478SOL    HW153875   3.062   0.688   5.172  1.9946  1.4366  0.5018
17478SOL    HW253876   3.020   0.741   5.308 -2.3796 -0.5350  0.0932
17479SOL     OW53877   2.334   6.582   2.946 -0.1069  0.0195 -0.1520
17479SOL    HW153878   2.393   6.653   2.968 -0.0567  0.1884 -0.8045
17479SOL    HW253879   2.247   6.622   2.942  0.0031  0.1824 -1.1299
17480SOL     OW53880   4.249   7.934   3.087  0.2870 -0.5877  0.3028
17480SOL    HW153881   4.176   7.904   3.141 -0.2829 -0.1636 -0.2199
17480SOL    HW253882   4.235   8.028   3.077  0.6996 -0.5658 -0.1112
17481SOL     OW53883   2.042   1.017   4.106 -0.3623  0.3819 -0.5860
17481SOL    HW153884   2.025   0.970   4.024  0.5886  2.2230 -1.9069
17481SOL    HW253885   1.990   0.971   4.171  0.4225 -2.4168 -1.7873
17482SOL     OW53886   6.075   6.109   3.950  0.0098 -0.4249  0.1267
17482SOL    HW153887   6.002   6.074   3.899 -0.4991  0.3242  0.3265
17482SOL    HW253888   6.151   6.095   3.895 -0.6830  1.5336 -1.4631
17483SOL     OW53889   4.083   1.019   3.589 -0.8037  0.4157  0.1914
17483SOL    HW153890   4.038   1.043   3.508 -0.6610 -1.1469 -0.3790
17483SOL    HW253891   4.053   0.930   3.608  0.3198  0.1994  1.0363
17484SOL     OW53892   2.217   7.977   2.270  0.0174  0.5358 -0.4872
17484SOL    HW153893   2.254   7.898   2.309 -1.1825  0.7006  1.1152
17484SOL    HW253894   2.289   8.017   2.222  2.1440  1.1976  2.9596
17485SOL     OW53895   4.614   7.602   2.133 -0.6363  0.0882 -0.2984
17485SOL    HW153896   4.575   7.581   2.218 -0.1505 -0.8377 -0.2868
17485SOL    HW253897   4.585   7.531   2.075 -0.3369  0.2962 -0.7098
17486SOL     OW53898   3.882   7.732   5.769  0.0938 -0.4165  0.0927
17486SOL    HW153899   3.827   7.703   5.841 -0.6147  1.0984  0.2161
17486SOL    HW253900   3.829   7.716   5.690  0.0742 -0.3046  0.0827
17487SOL     OW53901   4.413   5.692   2.227 -0.0769 -0.1559  0.1270
17487SOL    HW153902   4.371   5.608   2.246 -1.1075  0.2653 -0.1907
17487SOL    HW253903   4.425   5.692   2.132 -1.5872  0.6939 -0.1089
17488SOL     OW53904   4.947   0.473   3.446 -0.1909 -0.0351  0.0669
17488SOL    HW153905   4.941   0.563   3.479 -2.4869  0.1390 -0.6025
17488SOL    HW253906   5.005   0.479   3.370  1.1363  0.5023  1.0893
17489SOL     OW53907   4.294   0.868   4.469  0.3344  0.8074  0.3558
17489SOL    HW153908   4.204   0.873   4.502  0.0428  3.3012 -0.6025
17489SOL    HW253909   4.340   0.938   4.515  1.8645 -0.4741  0.8800
17490SOL     OW53910   4.846   0.080   1.642  0.0088 -0.1347  0.1519
17490SOL    HW153911   4.804  -0.006   1.647  0.7162 -0.4423  1.2559
17490SOL    HW253912   4.840   0.115   1.731  0.2876  0.6851 -0.1390
17491SOL     OW53913   3.164   0.658   1.992  0.6606 -0.2164  0.0314
17491SOL    HW153914   3.124   0.693   1.912  0.5996  1.0321  0.5901
17491SOL    HW253915   3.151   0.727   2.057  1.0568 -1.0612  1.0202
17492SOL     OW53916   6.773   0.108   3.680  0.2686 -0.1609 -0.0807
17492SOL    HW153917   6.792   0.025   3.723  3.1604  0.3869 -0.1412
17492SOL    HW253918   6.738   0.164   3.751 -0.4961 -1.0066  0.2255
17493SOL     OW53919   4.454   5.476   3.171 -0.6949 -0.6996  0.1356
17493SOL    HW153920   4.479   5.401   3.117 -0.6749 -1.4688  1.1698
17493SOL    HW253921   4.528   5.536   3.165 -1.1174 -0.2940 -1.4786
17494SOL     OW53922   2.529   0.933   2.981 -0.1030  0.2300 -0.2928
17494SOL    HW153923   2.483   0.855   3.010  0.9748 -0.3097  0.0400
17494SOL    HW253924   2.609   0.900   2.939  0.6060  1.1536  0.2832
17495SOL     OW53925   4.028   0.133   1.295 -0.1913  0.4056 -0.3320
17495SOL    HW153926   4.011   0.205   1.234  0.0315 -0.3187 -1.2744
17495SOL    HW253927   4.107   0.091   1.262 -1.2373 -1.3144 -0.8302
17496SOL     OW53928   3.389   7.555   3.444  0.2906 -0.5062 -0.0178
17496SOL    HW153929   3.355   7.524   3.528  0.6019 -0.0836  0.2654
17496SOL    HW253930   3.469   7.603   3.466  1.6696 -2.3545 -0.7668
17497SOL     OW53931   3.484   6.359   1.886  0.1178 -0.3877  0.4884
17497SOL    HW153932   3.452   6.373   1.796 -1.4201 -0.9994  0.9123
17497SOL    HW253933   3.549   6.290   1.877  0.2590 -0.1782 -0.2055
17498SOL     OW53934   6.159   0.598   3.373  0.1121 -0.2130 -0.0405
17498SOL    HW153935   6.198   0.668   3.320  0.7327 -1.0984 -0.7959
17498SOL    HW253936   6.234   0.560   3.420  0.3419 -2.3072 -1.9411
17499SOL     OW53937   5.034   0.172   3.924 -0.2529  0.0179  0.0587
17499SOL    HW153938   5.031   0.268   3.920 -0.8735 -0.0237 -1.4902
17499SOL    HW253939   4.966   0.149   3.987 -0.5618  0.5849 -0.0558
17500SOL     OW53940   4.442   6.774   3.040  0.0842  0.5606 -0.2982
17500SOL    HW153941   4.419   6.802   2.952 -1.7760  0.4043  0.0855
17500SOL    HW253942   4.410   6.845   3.096  0.2799  0.1701  0.3139
17501SOL     OW53943   4.575   6.545   3.115 -0.5494 -0.4648 -0.3380
17501SOL    HW153944   4.540   6.509   3.196 -0.9564  1.5708  0.4467
17501SOL    HW253945   4.529   6.628   3.103  3.0000  1.7963  0.0878
17502SOL     OW53946   2.419   6.572   3.322  0.3674 -0.4241 -0.5751
17502SOL    HW153947   2.480   6.533   3.259 -0.0063 -1.9554 -0.0275
17502SOL    HW253948   2.475   6.622   3.382  0.8218  0.2286 -1.5069
17503SOL     OW53949   3.361   6.160   3.098  0.9126  0.2347 -0.4250
17503SOL    HW153950   3.401   6.120   3.021  1.1784  0.4641 -0.4055
17503SOL    HW253951   3.292   6.216   3.063  1.9253  1.4122 -0.5933
17504SOL     OW53952   3.731   7.224   3.080 -0.0921 -0.2232  0.6036
17504SOL    HW153953   3.819   7.252   3.056  0.3907 -1.3775  0.9386
17504SOL    HW253954   3.675   7.255   3.008  0.7731 -0.5020 -0.2090
17505SOL     OW53955   5.293   7.266   3.861 -0.2624 -0.5083  0.4012
17505SOL    HW153956   5.291   7.351   3.818  1.2179 -0.6188  0.0586
17505SOL    HW253957   5.222   7.217   3.820  1.4804 -0.8373 -2.4939
17506SOL     OW53958   4.068   7.712   2.709 -0.2187  0.3819 -0.2869
17506SOL    HW153959   3.978   7.720   2.680 -0.2469 -0.7848 -0.5952
17506SOL    HW253960   4.109   7.655   2.644  0.5289  0.2676  0.2666
17507SOL     OW53961   4.711   0.643   3.213 -0.1119  0.2530 -0.2462
17507SOL    HW153962   4.629   0.692   3.199 -1.3073 -1.8546 -1.1113
17507SOL    HW253963   4.682   0.554   3.233  1.9815 -0.1426  1.3168
17508SOL     OW53964   5.903   5.670   3.137  0.1146  0.0849  0.3560
17508SOL    HW153965   5.932   5.619   3.061 -1.4893 -0.7149  0.2376
17508SOL    HW253966   5.931   5.618   3.212  1.0871  0.5323  0.3240
17509SOL     OW53967   5.819   7.371   4.597  0.5378  0.0143 -0.2642
17509SOL    HW153968   5.829   7.341   4.688 -2.5816 -1.0606 -0.1380
17509SOL    HW253969   5.824   7.290   4.545 -1.0192  0.1429 -0.6545
17510SOL     OW53970   4.101   6.598   4.208  0.1533 -0.1143  0.1556
17510SOL    HW153971   4.177   6.583   4.151  1.1177 -0.9885  1.6070
17510SOL    HW253972   4.118   6.683   4.249 -0.9820  0.9526 -1.4545
17511SOL     OW53973   3.376   7.612   3.742 -0.0652 -0.0984  0.4329
17511SOL    HW153974   3.415   7.639   3.825  0.3202  0.4935  0.0655
17511SOL    HW253975   3.284   7.594   3.763  0.4766 -1.9908  1.4073
17512SOL     OW53976   5.915   0.453   3.317  0.0025 -0.2478 -0.1018
17512SOL    HW153977   5.981   0.517   3.343  0.1513 -0.2246 -0.5379
17512SOL    HW253978   5.953   0.368   3.339  0.6553 -0.3058 -1.3751
17513SOL     OW53979   4.796   5.879   3.254  0.0867  0.0245 -0.6378
17513SOL    HW153980   4.797   5.858   3.347  0.1354 -0.6094 -0.7776
17513SOL    HW253981   4.793   5.975   3.251 -1.1052  0.0219  0.0138
17514SOL     OW53982   6.323   7.436   3.230 -0.2521 -0.3707 -0.2741
17514SOL    HW153983   6.269   7.370   3.273 -2.1262 -0.3029 -2.3242
17514SOL    HW253984   6.343   7.499   3.299  1.2324 -2.7783  1.6464
17515SOL     OW53985   3.852   7.894   2.138  1.0311  0.2292 -0.2212
17515SOL    HW153986   3.844   7.939   2.222 -1.0043  0.6774 -0.6031
17515SOL    HW253987   3.916   7.947   2.089  2.6982 -0.3751  1.1958
17516SOL     OW53988   4.929   7.973   0.816 -0.8784  0.3839  0.5142
17516SOL    HW153989   4.857   8.037   0.822 -0.2418  1.0387  1.3186
17516SOL    HW253990   4.983   7.990   0.893  2.2803  2.5164 -1.9001
17517SOL     OW53991   3.711   7.944   2.946  0.1748  0.3474 -0.1388
17517SOL    HW153992   3.806   7.928   2.952 -0.0650 -1.3040 -0.2769
17517SOL    HW253993   3.696   7.963   2.853  0.3432  0.3215 -0.1727
17518SOL     OW53994   4.123   7.340   1.493  0.5497 -0.2194 -0.0462
17518SOL    HW153995   4.075   7.261   1.469  0.1092 -0.3508  1.1799
17518SOL    HW253996   4.097   7.405   1.428  0.7004 -0.9963 -0.9013
17519SOL     OW53997   5.980   7.177   2.837  0.0921 -0.0173  0.1005
17519SOL    HW153998   6.070   7.148   2.823  0.2930  1.1557 -1.2743
17519SOL    HW253999   5.940   7.175   2.750 -1.7184 -1.9729  0.8760
17520SOL     OW54000   4.197   1.024   2.227  0.3082 -0.0958  0.2841
17520SOL    HW154001   4.132   0.979   2.173  1.5347 -0.4970 -0.9040
17520SOL    HW254002   4.232   0.955   2.285 -0.4432  0.1628  1.0633
17521SOL     OW54003   2.387   0.409   1.725  0.1671  0.4811  0.0326
17521SOL    HW154004   2.369   0.355   1.648 -0.6238  0.9129 -0.0920
17521SOL    HW254005   2.469   0.454   1.704  0.7262 -0.4899  0.0493
17522SOL     OW54006   4.026   7.605   1.443 -0.0462  0.2975  0.5954
17522SOL    HW154007   4.116   7.636   1.428 -0.0562  0.1737  0.2671
17522SOL    HW254008   3.973   7.655   1.381 -0.1856  0.2688  0.6927
17523SOL     OW54009   5.085   1.329   3.103 -0.2719  0.5311 -0.2166
17523SOL    HW154010   5.029   1.325   3.025  1.1193 -1.1815 -1.2057
17523SOL    HW254011   5.077   1.242   3.143  0.2883  0.8549  0.6306
17524SOL     OW54012   4.353   5.387   1.577  0.2724 -0.1025  0.0537
17524SOL    HW154013   4.289   5.322   1.606 -0.5075  0.3486 -0.6067
17524SOL    HW254014   4.396   5.347   1.502 -0.5653  0.3404 -0.6674
17525SOL     OW54015   2.943   7.558   0.664 -0.0966  0.6400  0.2848
17525SOL    HW154016   3.010   7.623   0.641 -0.4106  1.1820  0.8930
17525SOL    HW254017   2.971   7.524   0.749 -0.9537  1.3811  0.8868
17526SOL     OW54018   4.340   7.504   2.007 -0.1577  0.3639  0.0879
17526SOL    HW154019   4.356   7.503   2.101 -0.1041  1.3156  0.1046
17526SOL    HW254020   4.278   7.576   1.994 -1.1024 -0.5161 -0.4734
17527SOL     OW54021   3.417   7.744   3.988 -0.0497 -0.4730 -0.1407
17527SOL    HW154022   3.411   7.839   3.998 -0.4599 -0.3852 -1.1555
17527SOL    HW254023   3.335   7.710   4.024 -0.2729 -0.3749 -0.5524
17528SOL     OW54024   4.651   7.427   2.709 -0.5796  0.3019  0.4039
17528SOL    HW154025   4.577   7.486   2.726 -1.0088  0.1312 -0.7528
17528SOL    HW254026   4.610   7.348   2.675 -0.0129 -0.7089  1.9652
17529SOL     OW54027   5.479   1.135   3.924  0.1047 -0.2125 -0.0834
17529SOL    HW154028   5.407   1.135   3.861 -0.6990 -2.7132  0.6903
17529SOL    HW254029   5.449   1.194   3.994 -2.2250 -2.5899  1.1374
17530SOL     OW54030   2.252   7.687   3.700  0.1430 -0.3608  0.8993
17530SOL    HW154031   2.219   7.777   3.698  1.0719 -0.0044  1.2505
17530SOL    HW254032   2.290   7.677   3.788  2.0418 -0.3533  0.1218
17531SOL     OW54033   2.029   1.765   3.902 -0.4511  0.1496 -0.2839
17531SOL    HW154034   2.043   1.670   3.911 -1.3380  0.1811  2.2876
17531SOL    HW254035   2.106   1.804   3.943  0.6140  0.6576 -2.5770
17532SOL     OW54036   2.027   6.490   2.621 -0.4980 -0.0208 -0.2320
17532SOL    HW154037   1.933   6.479   2.611 -0.4443 -0.6688 -0.1155
17532SOL    HW254038   2.059   6.509   2.532 -0.5877 -1.1303 -0.5234
17533SOL     OW54039   6.043   6.981   3.229 -0.6256 -0.4677  0.6138
17533SOL    HW154040   5.955   6.945   3.241 -0.8928  0.5882  2.0055
17533SOL    HW254041   6.101   6.906   3.240 -1.3452 -1.3027 -0.9236
17534SOL     OW54042   4.471   7.625   2.782  0.1276  0.3090  0.2341
17534SOL    HW154043   4.433   7.566   2.847  1.4621 -0.7244  0.1302
17534SOL    HW254044   4.420   7.705   2.789 -1.6052 -0.7769  0.5371
17535SOL     OW54045   4.204   7.544   1.049 -0.4316  0.6578 -0.0862
17535SOL    HW154046   4.112   7.569   1.046 -0.7892 -0.6443 -1.3215
17535SOL    HW254047   4.203   7.454   1.081  0.3839  0.5334 -0.3726
17536SOL     OW54048   5.312   1.218   3.342  0.4373 -0.1081  0.5066
17536SOL    HW154049   5.232   1.187   3.300  1.8205 -4.0216  0.4191
17536SOL    HW254050   5.286   1.240   3.431 -0.5291 -2.9682  1.0113
17537SOL     OW54051   6.371   6.394   4.480  0.1122  0.0334  0.6146
17537SOL    HW154052   6.280   6.377   4.455  0.3847 -0.5960 -0.0059
17537SOL    HW254053   6.367   6.472   4.535 -0.6303  1.0289 -0.7677
17538SOL     OW54054   4.119   6.298   2.659 -0.6259  0.3641 -0.3340
17538SOL    HW154055   4.193   6.240   2.677 -1.6636 -1.4118 -1.4188
17538SOL    HW254056   4.137   6.333   2.572 -0.5369  0.8481 -0.1275
17539SOL     OW54057   5.552   0.246   3.536 -0.0901 -0.4982 -0.4333
17539SOL    HW154058   5.595   0.279   3.457 -0.7094 -0.8404 -0.9272
17539SOL    HW254059   5.469   0.294   3.540 -0.3965 -1.0222 -0.4133
17540SOL     OW54060   5.301   6.645   3.344 -0.2675  0.3813 -0.0250
17540SOL    HW154061   5.386   6.677   3.376  0.5323  0.6437 -2.2258
17540SOL    HW254062   5.304   6.551   3.356  0.5756  0.3316 -0.5341
17541SOL     OW54063   3.978   6.590   3.350  0.2546 -0.5405 -0.7239
17541SOL    HW154064   4.047   6.648   3.317 -0.7126  0.7940 -0.4754
17541SOL    HW254065   3.903   6.647   3.364 -0.0861 -1.4463  1.6309
17542SOL     OW54066   6.126   0.796   1.829  0.0859  0.5301  0.0873
17542SOL    HW154067   6.188   0.834   1.891 -1.1657  1.9272  0.5309
17542SOL    HW254068   6.157   0.706   1.816  0.2528  0.0663  2.9851
17543SOL     OW54069   5.972   7.974   3.517  0.2612  0.6847 -0.2049
17543SOL    HW154070   5.974   7.880   3.534  0.9579  0.4520 -1.4762
17543SOL    HW254071   5.887   8.002   3.550  0.4607 -0.1887  1.1352
17544SOL     OW54072   4.170   6.386   5.229 -0.2363  0.3377  0.2508
17544SOL    HW154073   4.236   6.429   5.174 -0.2893 -0.0196 -0.0996
17544SOL    HW254074   4.089   6.392   5.178 -0.5267  0.9453  0.7641
17545SOL     OW54075   1.849   6.015   4.093 -0.0434  0.1218  0.8042
17545SOL    HW154076   1.917   6.001   4.028 -0.5510  0.1436  0.2683
17545SOL    HW254077   1.773   5.968   4.060 -0.8712  1.6512  0.4418
17546SOL     OW54078   1.579   0.069   4.421  0.0889  0.1113 -0.0636
17546SOL    HW154079   1.592   0.027   4.507  0.9334 -0.5114 -0.4834
17546SOL    HW254080   1.604   0.160   4.436 -1.5913  0.4826  0.8107
17547SOL     OW54081   4.289   1.511   5.831 -0.2137  0.3359  0.2141
17547SOL    HW154082   4.309   1.523   5.738 -0.7471  1.0352  0.1802
17547SOL    HW254083   4.194   1.513   5.836 -0.2831 -1.5597  0.5500
17548SOL     OW54084   2.457   7.255   2.838  0.4450 -0.4655  0.2424
17548SOL    HW154085   2.522   7.220   2.777 -1.0598 -0.3718 -1.5157
17548SOL    HW254086   2.458   7.350   2.822  0.2415 -0.4085  0.5610
17549SOL     OW54087   4.324   7.563   5.815 -0.0008 -0.1285  0.2626
17549SOL    HW154088   4.306   7.471   5.833 -0.9353  0.0948  0.4978
17549SOL    HW254089   4.419   7.566   5.799 -0.2601 -1.4837 -1.9799
17550SOL     OW54090   4.052   0.247   4.928  0.0823  0.0153  0.3838
17550SOL    HW154091   4.052   0.181   4.997 -0.5982 -0.2097  0.1840
17550SOL    HW254092   4.139   0.286   4.931 -0.0693  0.3238  1.6701
17551SOL     OW54093   3.282   7.056   4.140 -0.1807 -0.4238 -0.0168
17551SOL    HW154094   3.230   7.096   4.210  1.0866  0.7616  0.3003
17551SOL    HW254095   3.300   7.129   4.080 -0.9628 -1.3481 -1.4232
17552SOL     OW54096   2.601   7.214   3.523 -0.1081 -0.0242  0.2759
17552SOL    HW154097   2.689   7.207   3.560  0.1148 -1.5059 -0.4767
17552SOL    HW254098   2.595   7.304   3.491  1.1351  0.0813  0.3167
17553SOL     OW54099   3.881   7.315   4.427  0.6137 -0.3224 -0.1157
17553SOL    HW154100   3.846   7.373   4.359  2.0359 -0.6280 -1.1422
17553SOL    HW254101   3.828   7.235   4.420 -1.2389  0.7073  1.1861
17554SOL     OW54102   5.144   1.427   3.897 -0.0245  0.4700  0.2971
17554SOL    HW154103   5.095   1.461   3.972  0.8920  0.3717  0.9522
17554SOL    HW254104   5.233   1.416   3.930  0.4484  0.6931 -0.8970
17555SOL     OW54105   5.694   1.946   4.244  0.0470  0.3608 -0.1734
17555SOL    HW154106   5.633   1.975   4.176  1.0224 -0.6565 -1.5544
17555SOL    HW254107   5.639   1.908   4.312 -0.8983 -1.4976 -1.8543
17556SOL     OW54108   5.040   7.896   6.061 -0.7229  0.3047 -0.5317
17556SOL    HW154109   5.093   7.870   5.985  0.9599  1.0211  0.3394
17556SOL    HW254110   5.009   7.984   6.038  0.2759  0.7690 -0.1938
17557SOL     OW54111   3.467   6.634   3.601  0.1121  0.1313  0.0850
17557SOL    HW154112   3.379   6.653   3.568  0.3773 -0.9338 -1.3241
17557SOL    HW254113   3.515   6.603   3.524  1.4663 -0.1523  1.0184
17558SOL     OW54114   6.746   0.404   4.851  0.0296  0.5148  0.2635
17558SOL    HW154115   6.808   0.334   4.829  0.5969  0.9010  0.5893
17558SOL    HW254116   6.793   0.459   4.914 -1.9627 -1.2836  3.5877
17559SOL     OW54117   3.324   6.946   5.225  0.6726  0.4949 -0.0884
17559SOL    HW154118   3.410   6.908   5.206 -0.3383 -1.6715 -0.5849
17559SOL    HW254119   3.297   6.905   5.307  1.5700  3.8977  2.1393
17560SOL     OW54120   4.859   6.341   6.621 -0.2287  0.2642  0.3345
17560SOL    HW154121   4.832   6.412   6.679 -0.2663  0.1956  0.4003
17560SOL    HW254122   4.778   6.296   6.599  0.0737 -1.7119  2.8061
17561SOL     OW54123   3.780   6.836   3.959  0.4725 -0.0667 -0.3435
17561SOL    HW154124   3.824   6.751   3.949  1.3296  0.3946 -0.6327
17561SOL    HW254125   3.850   6.895   3.987 -0.4575  0.1849  1.5820
17562SOL     OW54126   4.672   7.974   6.490 -0.0276  0.0403 -0.0076
17562SOL    HW154127   4.622   8.053   6.469 -1.6700 -1.1930 -0.9551
17562SOL    HW254128   4.660   7.917   6.414 -2.1063 -2.6666  2.1558
17563SOL     OW54129   6.081   1.370   4.818  0.1741 -0.6322 -0.8626
17563SOL    HW154130   6.136   1.391   4.894 -0.3537  0.3856 -0.7530
17563SOL    HW254131   5.998   1.342   4.856 -0.3027  0.4730 -1.0616
17564SOL     OW54132   4.396   7.211   6.277  0.4513 -0.3338  0.0207
17564SOL    HW154133   4.351   7.154   6.339 -0.7691  0.2200 -0.3317
17564SOL    HW254134   4.489   7.191   6.290  0.2534 -0.0974  2.1638
17565SOL     OW54135   5.204   0.856   5.857 -0.0149 -0.2381 -0.6439
17565SOL    HW154136   5.198   0.900   5.942  0.8403  0.5712 -0.9769
17565SOL    HW254137   5.124   0.881   5.811 -0.6841 -1.0342  0.0820
17566SOL     OW54138   2.445   0.564   4.567  0.0223 -0.0898 -0.5691
17566SOL    HW154139   2.481   0.483   4.529 -0.7075 -0.9429  0.5025
17566SOL    HW254140   2.520   0.624   4.572  0.9083 -1.2026 -0.0401
17567SOL     OW54141   5.108   6.444   5.341  0.0354  0.0390  0.4113
17567SOL    HW154142   5.187   6.418   5.294 -0.1826 -0.6612  0.4209
17567SOL    HW254143   5.100   6.380   5.412 -1.7023 -1.2374 -0.8500
17568SOL     OW54144   6.594   0.253   3.127 -0.8046 -0.5770 -0.2123
17568SOL    HW154145   6.507   0.274   3.162 -0.7225 -0.5012 -0.0541
17568SOL    HW254146   6.598   0.157   3.131 -0.6392 -0.5482  0.3645
17569SOL     OW54147   2.197   5.589   2.316  0.5169  0.4680 -0.0216
17569SOL    HW154148   2.181   5.505   2.274  0.0056  0.2362  0.6241
17569SOL    HW254149   2.289   5.608   2.298  0.6226 -0.2094 -0.2102
17570SOL     OW54150   2.272   6.242   3.697  0.3518  0.2545  0.0978
17570SOL    HW154151   2.328   6.240   3.774 -1.5427  0.6695  1.5664
17570SOL    HW254152   2.298   6.321   3.650 -1.3753  2.5635  2.7191
17571SOL     OW54153   3.192   7.141   4.397 -0.0174 -0.2139  0.5839
17571SOL    HW154154   3.174   7.228   4.432  0.5019  0.5444 -0.9635
17571SOL    HW254155   3.261   7.106   4.454  2.6543  2.0064 -1.0353
17572SOL     OW54156   2.962   7.780   3.358  0.6202  0.0221  0.0624
17572SOL    HW154157   3.050   7.815   3.371  0.3979  1.1285 -1.1656
17572SOL    HW254158   2.967   7.689   3.388  1.8975  0.3548  0.9522
17573SOL     OW54159   4.445   7.037   4.060 -0.2438  0.1709 -0.1356
17573SOL    HW154160   4.375   7.017   3.997 -1.4040  0.2640  1.0887
17573SOL    HW254161   4.400   7.075   4.135  0.7992 -1.9869  1.7085
17574SOL     OW54162   5.155   7.243   5.857 -0.7549  0.1326 -0.1266
17574SOL    HW154163   5.069   7.212   5.884 -0.4551 -1.1844 -0.6225
17574SOL    HW254164   5.192   7.172   5.805  1.2205  0.0637  1.2629
17575SOL     OW54165   5.125   0.048   5.278 -0.0534  0.5374 -0.5185
17575SOL    HW154166   5.103   0.084   5.363 -0.7559  0.3821 -0.6265
17575SOL    HW254167   5.117  -0.047   5.288  0.2576  0.4952 -0.6500
17576SOL     OW54168   4.520   0.133   5.290 -0.1921  0.0351 -0.4149
17576SOL    HW154169   4.497   0.058   5.236 -0.0974 -0.3695  0.0949
17576SOL    HW254170   4.616   0.127   5.299 -0.4473 -1.8729  2.5361
17577SOL     OW54171   2.503   7.568   3.654 -0.1855 -0.4779 -0.1474
17577SOL    HW154172   2.520   7.540   3.564  1.1146 -0.1996 -0.0043
17577SOL    HW254173   2.409   7.588   3.655 -0.5370 -1.9690 -1.0226
17578SOL     OW54174   4.170   5.797   4.544  0.3730 -0.8270  0.0681
17578SOL    HW154175   4.137   5.819   4.631  0.5537  1.2983 -0.3390
17578SOL    HW254176   4.261   5.770   4.559  1.1175  1.6184  0.4021
17579SOL     OW54177   5.105   0.898   4.665 -0.3595  0.0440  0.8027
17579SOL    HW154178   5.070   0.906   4.754 -1.9547  1.4512  0.0956
17579SOL    HW254179   5.172   0.830   4.672 -1.6410 -1.1141  2.7008
17580SOL     OW54180   4.297   7.817   7.415  0.0059 -0.2333  0.2314
17580SOL    HW154181   4.217   7.802   7.365  0.3232  1.5185 -0.9272
17580SOL    HW254182   4.364   7.769   7.368 -0.1688 -0.8010  0.5594
17581SOL     OW54183   2.412   0.186   2.924 -0.2067  0.0070 -0.0818
17581SOL    HW154184   2.455   0.123   2.866 -1.1978 -0.5734 -0.2216
17581SOL    HW254185   2.459   0.179   3.007  1.8339  1.5144 -1.0236
17582SOL     OW54186   6.163   5.467   4.019 -0.4333  0.7305 -0.0534
17582SOL    HW154187   6.070   5.486   4.013 -0.6580 -0.2749  0.0169
17582SOL    HW254188   6.177   5.443   4.111 -0.4552 -0.7979 -0.4320
17583SOL     OW54189   3.516   0.065   3.443 -0.6579  0.4405  0.0006
17583SOL    HW154190   3.467   0.133   3.397 -1.1631  0.2298  0.2254
17583SOL    HW254191   3.495  -0.016   3.396 -1.5445  0.1475  0.8637
17584SOL     OW54192   3.112   7.622   3.483 -0.2363  0.2232 -0.2842
17584SOL    HW154193   3.181   7.564   3.451  0.4891  1.6554 -1.3973
17584SOL    HW254194   3.111   7.607   3.578  1.9149  0.4848 -0.1799
17585SOL     OW54195   3.058   6.715   4.403  0.4417 -0.4961  0.0704
17585SOL    HW154196   2.997   6.687   4.472  0.4783  0.7723  0.6566
17585SOL    HW254197   3.034   6.806   4.387  1.7884 -0.1554 -0.1222
17586SOL     OW54198   6.231   0.053   4.629 -0.4452  0.4288 -0.5198
17586SOL    HW154199   6.242   0.131   4.684 -0.1062 -0.2469  0.4042
17586SOL    HW254200   6.136   0.048   4.614 -0.4247  1.2721 -0.9810
17587SOL     OW54201   4.460   7.313   4.359 -0.1940 -0.2407 -0.1688
17587SOL    HW154202   4.539   7.349   4.319 -0.8941  0.1808 -1.2139
17587SOL    HW254203   4.390   7.371   4.330 -0.9256 -0.7393  0.5617
17588SOL     OW54204   2.622   7.433   2.549  0.0320  0.0888 -0.2269
17588SOL    HW154205   2.617   7.344   2.584 -1.6900  0.0401 -0.4940
17588SOL    HW254206   2.632   7.422   2.455 -0.7233  0.1632 -0.3196
17589SOL     OW54207   0.785   5.933   4.979 -0.6380 -0.3154 -0.4957
17589SOL    HW154208   0.696   5.952   4.952 -0.8404 -1.6343 -0.8155
17589SOL    HW254209   0.784   5.841   5.004  0.2545  0.0638  1.1129
17590SOL     OW54210   5.313   6.323   4.472  0.4894  0.8056  0.0974
17590SOL    HW154211   5.278   6.267   4.402 -0.2842  0.1639  0.9781
17590SOL    HW254212   5.399   6.286   4.491 -0.0622 -0.1837  0.7538
17591SOL     OW54213   5.688   0.403   4.280 -0.4061  0.2174  0.0443
17591SOL    HW154214   5.603   0.429   4.244  0.0699  0.4555 -0.9338
17591SOL    HW254215   5.668   0.374   4.369 -1.4201  0.8788  0.0520
17592SOL     OW54216   3.501   7.849   6.071  0.5172  0.1966  0.0163
17592SOL    HW154217   3.547   7.907   6.131  0.5799 -0.1995  0.3543
17592SOL    HW254218   3.464   7.781   6.126 -0.2789  0.3777 -0.2799
17593SOL     OW54219   3.063   0.932   5.035  0.8329  0.4208  0.0904
17593SOL    HW154220   3.128   0.988   5.078  0.7306  0.2401  0.4848
17593SOL    HW254221   3.038   0.868   5.102  1.1211 -0.2465 -0.4209
17594SOL     OW54222   5.019   6.105   6.560  0.4706  0.0220  0.3540
17594SOL    HW154223   4.972   6.187   6.543  0.7463  0.2777  0.8196
17594SOL    HW254224   4.964   6.037   6.520  0.8568  0.5535 -1.1278
17595SOL     OW54225   3.140   0.163   4.545  0.3830 -0.1106 -0.0602
17595SOL    HW154226   3.189   0.167   4.627 -0.6551  0.2760  0.5572
17595SOL    HW254227   3.116   0.254   4.527 -1.1879 -0.4227  0.3298
17596SOL     OW54228   3.864   0.364   2.025 -0.1338  0.2757  0.2484
17596SOL    HW154229   3.954   0.331   2.015 -0.5679 -1.6905  2.0493
17596SOL    HW254230   3.871   0.433   2.090  0.2222  0.9112 -0.4590
17597SOL     OW54231   4.139   0.608   5.667  0.3189  0.4900 -0.3880
17597SOL    HW154232   4.188   0.537   5.710  1.1013  0.1937 -1.7058
17597SOL    HW254233   4.177   0.614   5.580  0.0020  2.2844 -0.4538
17598SOL     OW54234   3.906   5.952   5.591 -0.0189 -0.5078  0.1870
17598SOL    HW154235   3.890   6.009   5.515 -2.5282  1.0226  1.7066
17598SOL    HW254236   3.921   5.866   5.554 -0.3277  0.3415 -2.0812
17599SOL     OW54237   2.937   1.311   3.330 -0.3840 -0.1575  0.0057
17599SOL    HW154238   2.976   1.226   3.309 -0.0237 -0.4130  1.5929
17599SOL    HW254239   2.845   1.302   3.305 -0.7462 -1.6304  1.7072
17600SOL     OW54240   2.644   7.214   3.976 -0.2075  0.3353  0.2573
17600SOL    HW154241   2.655   7.135   3.924 -0.3703  0.7106 -0.3530
17600SOL    HW254242   2.652   7.184   4.067 -1.3433 -0.5518  0.0842
17601SOL     OW54243   6.339   1.113   5.004 -0.0406  0.6627  0.9256
17601SOL    HW154244   6.372   1.026   4.982  2.4219  0.6148  4.0842
17601SOL    HW254245   6.246   1.110   4.981  0.5524 -1.7251 -1.7508
17602SOL     OW54246   5.139   0.117   4.984  0.4289 -0.1358  0.0187
17602SOL    HW154247   5.064   0.075   4.941 -2.3742  3.2117  1.1607
17602SOL    HW254248   5.113   0.123   5.076  1.4039  2.3757  0.1998
17603SOL     OW54249   2.563   7.038   4.217 -0.3114  0.1895 -0.9196
17603SOL    HW154250   2.505   6.966   4.193  0.0630 -0.8331  1.0442
17603SOL    HW254251   2.649   7.012   4.185 -0.5362  0.7479 -2.0158
17604SOL     OW54252   5.301   7.305   6.552 -0.3163 -0.1237 -0.2891
17604SOL    HW154253   5.301   7.209   6.558 -0.4903 -0.2134 -1.4340
17604SOL    HW254254   5.220   7.326   6.506  0.4665  0.4558 -1.4520
17605SOL     OW54255   5.938   7.244   5.270 -0.9402 -0.1483  0.3937
17605SOL    HW154256   5.870   7.241   5.203 -0.5168  2.3313 -0.2308
17605SOL    HW254257   5.899   7.200   5.346 -2.9095  0.4248 -0.2367
17606SOL     OW54258   3.169   7.716   4.358 -0.2700 -0.2020  0.1820
17606SOL    HW154259   3.216   7.793   4.390  0.3861 -1.2554  1.9487
17606SOL    HW254260   3.158   7.731   4.264  0.7055  1.5740  0.3096
17607SOL     OW54261   4.749   7.611   6.758 -0.3165 -0.1335  0.0443
17607SOL    HW154262   4.818   7.550   6.731 -0.4995  0.1735 -1.2116
17607SOL    HW254263   4.682   7.601   6.690 -0.8968  0.5675  0.5037
17608SOL     OW54264   2.631   7.183   6.532 -0.0837  0.0479 -0.3716
17608SOL    HW154265   2.606   7.105   6.482 -0.9548  1.3351 -2.0428
17608SOL    HW254266   2.577   7.253   6.496  3.3899  2.2861 -1.7592
17609SOL     OW54267   4.721   0.828   3.521 -0.0118 -0.0792 -0.1774
17609SOL    HW154268   4.774   0.767   3.470  0.1165 -1.3860  1.4369
17609SOL    HW254269   4.638   0.783   3.535  0.1011  0.0632  1.0760
17610SOL     OW54270   2.921   7.136   3.527  0.2239 -0.1701 -0.5656
17610SOL    HW154271   2.957   7.159   3.613 -1.0201 -1.8253  0.4528
17610SOL    HW254272   2.954   7.204   3.469  1.5335  0.7123  1.1110
17611SOL     OW54273   2.786   6.876   3.536  0.2308  0.6482 -0.4254
17611SOL    HW154274   2.837   6.956   3.519  1.3343  0.0775  0.0723
17611SOL    HW254275   2.839   6.806   3.498  0.2774 -0.0718  0.9123
17612SOL     OW54276   2.954   0.192   5.964  0.0958 -1.0821  0.9388
17612SOL    HW154277   2.971   0.166   5.874 -1.4962  0.4994  0.0995
17612SOL    HW254278   2.877   0.142   5.990 -2.4521  1.8335 -0.3872
17613SOL     OW54279   3.619   0.400   6.274  0.6880  0.4498  0.4925
17613SOL    HW154280   3.580   0.318   6.302  2.5292 -0.3811  0.6957
17613SOL    HW254281   3.643   0.445   6.355  0.1301  0.9824  0.3706
17614SOL     OW54282   5.924   7.238   6.124 -0.4131 -0.0243 -0.5729
17614SOL    HW154283   5.999   7.280   6.165  0.4623 -0.6823 -1.4580
17614SOL    HW254284   5.849   7.264   6.178  0.6188 -0.5496  1.1918
17615SOL     OW54285   5.384   7.700   6.284 -0.0745  0.2680 -0.3812
17615SOL    HW154286   5.415   7.688   6.374  0.0448 -2.4760 -0.7079
17615SOL    HW254287   5.297   7.739   6.293 -0.6351 -1.2023  1.0252
17616SOL     OW54288   3.412   0.671   6.047  0.0886  0.4946  0.2965
17616SOL    HW154289   3.358   0.595   6.026  0.2840  0.5434 -0.4098
17616SOL    HW254290   3.428   0.714   5.963 -0.8048  1.8571  0.7927
17617SOL     OW54291   4.750   7.792   7.555 -0.0895  0.3016 -0.1632
17617SOL    HW154292   4.680   7.738   7.591 -0.1580  1.1367  0.9954
17617SOL    HW254293   4.720   7.814   7.467 -1.2490  0.5778  0.2877
17618SOL     OW54294   3.546   7.370   7.210 -0.3778  0.0593 -0.1835
17618SOL    HW154295   3.484   7.433   7.245 -0.0163  0.9938 -1.1430
17618SOL    HW254296   3.506   7.340   7.128  0.4296  0.7196 -0.8425
17619SOL     OW54297   4.346   6.181   7.533  0.0772 -0.3969 -0.3367
17619SOL    HW154298   4.433   6.180   7.572 -0.2701 -0.3596  0.4482
17619SOL    HW254299   4.291   6.132   7.594 -1.0315  1.8114  0.5683
17620SOL     OW54300   3.986   6.824   8.095  0.4373 -0.0653 -0.2722
17620SOL    HW154301   4.073   6.818   8.055  1.7097 -0.8339  2.3364
17620SOL    HW254302   3.968   6.736   8.127 -0.9833  0.2553 -0.1078
17621SOL     OW54303   5.292   0.671   6.859 -0.5315 -0.2281 -0.2719
17621SOL    HW154304   5.379   0.695   6.825 -1.0188  1.5527 -0.4006
17621SOL    HW254305   5.297   0.690   6.952 -1.1033  1.0024 -0.4711
17622SOL     OW54306   6.232   7.092   7.217  0.2052  0.2407  0.2344
17622SOL    HW154307   6.190   7.147   7.283  1.5478  0.3059  1.0663
17622SOL    HW254308   6.306   7.144   7.186  0.5236 -0.4400 -0.1632
17623SOL     OW54309   7.175   0.364   7.911  0.3652 -0.1333 -0.0460
17623SOL    HW154310   7.194   0.330   7.999  0.7252  3.0663  1.2530
17623SOL    HW254311   7.260   0.392   7.877 -0.1109  1.2733 -0.1631
17624SOL     OW54312   4.752   7.882   6.858  0.3768 -0.1990 -1.1907
17624SOL    HW154313   4.805   7.811   6.821 -0.3298 -0.8696 -0.9374
17624SOL    HW254314   4.664   7.865   6.826 -0.0239 -0.1275 -0.1403
17625SOL     OW54315   3.585   7.639   4.862  0.1091  0.0988  0.1631
17625SOL    HW154316   3.576   7.655   4.956 -0.2281  1.0751 -0.0278
17625SOL    HW254317   3.651   7.703   4.833  0.9080 -0.8149 -0.1100
17626SOL     OW54318   6.864   7.228   9.100 -0.0188 -0.2762  0.3965
17626SOL    HW154319   6.797   7.170   9.135 -0.4953 -1.2535 -1.9181
17626SOL    HW254320   6.816   7.307   9.073 -0.1155 -0.6122 -0.4421
17627SOL     OW54321   3.532   7.333   6.559 -0.1726  0.2243 -0.3906
17627SOL    HW154322   3.448   7.319   6.516 -0.2785  0.8981 -0.4138
17627SOL    HW254323   3.583   7.255   6.539 -1.1215 -0.6255  0.4037
17628SOL     OW54324   5.870   6.584   8.495 -0.0879  0.0343 -0.2103
17628SOL    HW154325   5.808   6.656   8.507  0.5838  0.3747  1.5471
17628SOL    HW254326   5.954   6.628   8.478  0.3058 -0.3284  0.7602
17629SOL     OW54327   4.577   1.159   6.299 -0.2850  0.3363  0.5565
17629SOL    HW154328   4.631   1.081   6.305  0.4536  0.5496 -2.0582
17629SOL    HW254329   4.593   1.207   6.381  1.1860 -1.0201  1.1013
17630SOL     OW54330   5.154   7.419   8.717  0.5664  0.0145 -0.4356
17630SOL    HW154331   5.078   7.476   8.722 -0.1401 -0.9131 -0.3000
17630SOL    HW254332   5.174   7.396   8.808 -0.8603 -2.1106 -0.5996
17631SOL     OW54333   3.087   7.379   4.864  0.0656 -0.2883 -0.0535
17631SOL    HW154334   3.056   7.303   4.814  0.4340 -0.1377 -0.5087
17631SOL    HW254335   3.161   7.345   4.914  0.7436 -0.0370 -0.8720
17632SOL     OW54336   4.321   7.181   8.057 -0.7035 -0.5259 -0.3622
17632SOL    HW154337   4.373   7.104   8.034  0.0027 -0.3866  0.6993
17632SOL    HW254338   4.236   7.166   8.016 -0.8253 -2.2371  0.4301
17633SOL     OW54339   6.198   7.954   6.604  0.0818 -0.0260  0.1476
17633SOL    HW154340   6.288   7.923   6.592  0.0747  0.5435 -1.5932
17633SOL    HW254341   6.144   7.878   6.583  0.1366 -0.1404  0.4147
17634SOL     OW54342   5.875   7.742   5.640  0.1288  0.2652  0.3734
17634SOL    HW154343   5.813   7.809   5.669 -0.2770 -0.9052  2.3864
17634SOL    HW254344   5.838   7.708   5.559  0.4300  2.5138 -0.7924
17635SOL     OW54345   3.801   6.567   7.475 -0.1052 -0.0785 -0.4944
17635SOL    HW154346   3.828   6.557   7.384 -0.2808  1.7638 -0.7868
17635SOL    HW254347   3.849   6.643   7.506  2.1270 -2.2478  1.8810
17636SOL     OW54348   3.205   7.557   6.596 -0.3297  0.4478 -0.0610
17636SOL    HW154349   3.209   7.480   6.539 -0.0404  0.0011  0.5484
17636SOL    HW254350   3.297   7.576   6.616 -0.3177  1.7834 -1.2956
17637SOL     OW54351   3.749   6.388   6.057  0.2745 -0.3314 -0.3275
17637SOL    HW154352   3.693   6.427   5.990  0.4577  0.8020  0.1559
17637SOL    HW254353   3.838   6.406   6.026  0.3795 -1.2264 -0.5775
17638SOL     OW54354   1.749   0.288   4.439  0.1397  0.3697 -0.2190
17638SOL    HW154355   1.778   0.234   4.366 -0.1685  2.2485 -1.7818
17638SOL    HW254356   1.824   0.343   4.461  0.2532 -0.2077  0.9703
17639SOL     OW54357   2.357   6.536   5.091  0.1588  0.1912 -0.2500
17639SOL    HW154358   2.427   6.500   5.146 -0.4719 -0.0739  0.3973
17639SOL    HW254359   2.322   6.459   5.045  1.0554  0.4826 -1.4977
17640SOL     OW54360   3.467   7.009   5.933 -0.2528 -0.1337 -0.2025
17640SOL    HW154361   3.477   6.950   5.858  3.1801 -0.5702  0.4076
17640SOL    HW254362   3.374   7.007   5.953 -1.0831 -1.0797 -3.5550
17641SOL     OW54363   3.933   7.555   6.678 -0.1104 -0.1661  0.5916
17641SOL    HW154364   3.917   7.485   6.614  0.0844 -1.5125  1.9599
17641SOL    HW254365   4.011   7.599   6.644 -0.9810  0.2699 -0.9813
17642SOL     OW54366   5.705   6.679   9.216  0.9775  0.0508 -0.2380
17642SOL    HW154367   5.756   6.755   9.244  1.6907  0.1373 -1.6918
17642SOL    HW254368   5.763   6.632   9.156  0.2375 -1.1954 -0.0157
17643SOL     OW54369   4.026   0.117   7.233  0.1174  0.2530 -0.0385
17643SOL    HW154370   4.091   0.107   7.164 -0.4065  1.3923 -0.7299
17643SOL    HW254371   3.981   0.199   7.212 -0.5770  0.2243  1.2256
17644SOL     OW54372   2.109   0.410   7.575  0.3324 -0.1771  0.2955
17644SOL    HW154373   2.176   0.422   7.642  1.3909 -0.3727 -0.6852
17644SOL    HW254374   2.135   0.330   7.529 -1.4177 -1.1071  0.8334
17645SOL     OW54375   2.329   2.302   9.001 -0.2858 -0.4748  0.2857
17645SOL    HW154376   2.247   2.303   9.050  0.0265  1.9457  0.8796
17645SOL    HW254377   2.305   2.273   8.913 -1.4101 -1.7412  0.9896
17646SOL     OW54378   2.280   6.313   5.740 -0.2570  0.3220 -0.7055
17646SOL    HW154379   2.250   6.224   5.758  0.9367  0.5697  3.9681
17646SOL    HW254380   2.202   6.368   5.753 -0.8386  0.1075 -2.9329
17647SOL     OW54381   4.933   0.260   6.949 -0.5385  0.0282  0.1720
17647SOL    HW154382   4.851   0.250   6.997 -0.9742  0.3937 -0.4829
17647SOL    HW254383   4.909   0.249   6.857  0.4269 -1.5669  0.0628
17648SOL     OW54384   4.001   5.915   7.210 -0.6587  0.0033 -0.2316
17648SOL    HW154385   4.008   6.010   7.225  1.5296 -0.1624  0.1619
17648SOL    HW254386   3.990   5.907   7.116  1.0922  0.6543 -0.5435
17649SOL     OW54387   5.955   2.008   4.274 -0.3331  0.4100  0.4899
17649SOL    HW154388   5.929   2.073   4.339 -1.1880  0.8173 -0.2471
17649SOL    HW254389   5.873   1.966   4.248 -0.0536  0.5162 -0.6038
17650SOL     OW54390   4.164   7.940   6.723 -0.2291  0.3890  0.0696
17650SOL    HW154391   4.125   7.868   6.772  0.3558  0.2887  0.3954
17650SOL    HW254392   4.093   7.974   6.669 -0.6019 -0.1920  0.1900
17651SOL     OW54393   3.946   7.999   5.850  0.0984 -0.0558 -0.1645
17651SOL    HW154394   3.934   7.914   5.808  2.4606 -0.7421  0.3823
17651SOL    HW254395   4.011   8.044   5.796 -1.7471  1.8059 -0.9279
17652SOL     OW54396   3.054   7.220   5.471  0.2463 -0.7198 -1.2350
17652SOL    HW154397   3.052   7.154   5.541  0.7220  0.4937 -0.0436
17652SOL    HW254398   2.964   7.221   5.438 -0.6801  0.3917  1.0514
17653SOL     OW54399   3.861   7.619   5.237 -0.4737  0.0894  0.7702
17653SOL    HW154400   3.910   7.537   5.248 -0.5849 -0.3475 -1.6188
17653SOL    HW254401   3.770   7.595   5.257 -0.4168 -0.2356  0.6576
17654SOL     OW54402   4.781   6.919   6.287 -0.0954 -1.0811  0.0202
17654SOL    HW154403   4.718   6.857   6.250  0.1940 -1.0688 -0.4934
17654SOL    HW254404   4.867   6.880   6.270  0.1221 -0.2269 -0.9051
17655SOL     OW54405   3.111   7.739   3.994  0.0457 -0.1122 -0.1731
17655SOL    HW154406   3.095   7.818   3.942  0.9450  0.6286  0.6464
17655SOL    HW254407   3.037   7.682   3.974 -1.7528  1.7567  0.8338
17656SOL     OW54408   3.370   0.787   6.299  0.4102 -0.0335  0.1162
17656SOL    HW154409   3.402   0.734   6.227  1.0715 -0.8249  0.9801
17656SOL    HW254410   3.388   0.877   6.272 -0.2731 -0.2473 -1.1356
17657SOL     OW54411   3.666   1.218   4.892 -0.8352  0.6768  0.6214
17657SOL    HW154412   3.635   1.176   4.811  0.8728 -0.4463  0.5109
17657SOL    HW254413   3.586   1.235   4.942 -1.9825  1.7956 -1.4606
17658SOL     OW54414   5.969   0.986   5.676 -0.3057 -0.5083  0.5859
17658SOL    HW154415   5.975   0.959   5.768 -1.1836 -0.7359  0.5857
17658SOL    HW254416   5.883   1.028   5.668  0.8095  1.8496  0.4488
17659SOL     OW54417   3.713   0.808   6.467 -0.7050  0.0236 -0.2147
17659SOL    HW154418   3.724   0.853   6.383  2.0600 -1.5266 -0.7810
17659SOL    HW254419   3.794   0.826   6.515 -1.8470  0.1000  1.7891
17660SOL     OW54420   5.384   6.700   7.797  0.2659 -0.3202 -0.2549
17660SOL    HW154421   5.470   6.728   7.827  0.6353 -0.8749 -0.7817
17660SOL    HW254422   5.334   6.687   7.877  0.8838 -0.6678  0.0809
17661SOL     OW54423   5.786   0.212   6.234  0.0952  0.2882 -0.5968
17661SOL    HW154424   5.780   0.129   6.281 -1.1233  0.2786 -0.7428
17661SOL    HW254425   5.879   0.235   6.237  0.3564 -0.7977 -0.0758
17662SOL     OW54426   1.776   7.934   6.973  0.7857  0.8014 -0.8204
17662SOL    HW154427   1.833   7.972   7.040  0.3702 -0.0066  0.0158
17662SOL    HW254428   1.822   7.949   6.891  0.0745  4.2650 -0.7468
17663SOL     OW54429   3.132   6.989   9.573 -0.1002 -0.0826  0.1047
17663SOL    HW154430   3.141   7.084   9.583 -0.2444 -0.1681  1.1255
17663SOL    HW254431   3.125   6.976   9.478 -0.8747  0.9931 -0.0122
17664SOL     OW54432   7.743   0.347   6.578 -0.1238 -0.0906 -0.0940
17664SOL    HW154433   7.736   0.437   6.546  2.1030  0.8099  1.6073
17664SOL    HW254434   7.673   0.300   6.534  0.2423  1.8630 -3.0923
17665SOL     OW54435   3.662   0.551   6.485  0.2729 -0.2361 -0.1709
17665SOL    HW154436   3.661   0.644   6.461 -3.7518 -0.4829 -1.5722
17665SOL    HW254437   3.629   0.549   6.574 -0.4989 -0.3549 -0.4548
17666SOL     OW54438   3.709   0.848   4.719 -0.0077 -0.4595 -0.4981
17666SOL    HW154439   3.803   0.852   4.702  0.1650 -0.8764  0.3581
17666SOL    HW254440   3.687   0.755   4.715 -0.1374 -0.4838  0.6195
17667SOL     OW54441   4.301   7.828   6.528 -0.5588 -0.3328  0.2609
17667SOL    HW154442   4.254   7.863   6.604  1.1396  0.1670  1.1406
17667SOL    HW254443   4.248   7.754   6.499 -2.8756  1.3094 -0.0034
17668SOL     OW54444   4.661   6.313   8.637 -0.0324 -0.0797  0.2419
17668SOL    HW154445   4.752   6.290   8.618 -0.3839 -0.7847 -0.6169
17668SOL    HW254446   4.630   6.356   8.557 -0.7305 -0.6780  0.1842
17669SOL     OW54447   3.864   0.313   7.100  0.4858 -0.2377  0.3056
17669SOL    HW154448   3.803   0.328   7.028  0.6762 -1.2340 -0.0881
17669SOL    HW254449   3.946   0.354   7.071  1.2307 -2.5110 -1.0992
17670SOL     OW54450   4.281   1.144   7.419 -0.0748  0.4203  0.1546
17670SOL    HW154451   4.234   1.065   7.394  1.9778 -0.4968 -1.0680
17670SOL    HW254452   4.262   1.207   7.349 -0.6359  0.5739  0.4375
17671SOL     OW54453   3.275   7.412   7.242 -0.4886 -0.0433  0.6215
17671SOL    HW154454   3.228   7.460   7.311  1.4403  1.0217  1.2863
17671SOL    HW254455   3.236   7.443   7.160 -2.3821 -0.8461  1.1628
17672SOL     OW54456   5.071   0.204   5.999 -1.1513  0.2501 -0.2609
17672SOL    HW154457   5.105   0.195   5.910 -1.4552  2.1463 -0.6246
17672SOL    HW254458   5.128   0.269   6.040  0.1719 -1.9479  1.6260
17673SOL     OW54459   4.170   7.203   6.869 -0.1269  0.3836  0.1019
17673SOL    HW154460   4.208   7.255   6.940 -0.2005  2.3434 -1.2179
17673SOL    HW254461   4.076   7.219   6.874 -0.4993 -1.6931  1.1967
17674SOL     OW54462   3.381   0.135   7.376  0.0616  0.5834  0.5402
17674SOL    HW154463   3.325   0.060   7.354  0.0504  0.7631 -0.0456
17674SOL    HW254464   3.468   0.097   7.388  0.1661  0.5586 -0.3035
17675SOL     OW54465   6.494   7.660   6.622  0.0560 -0.0692 -0.4237
17675SOL    HW154466   6.565   7.639   6.684 -0.2089 -1.3580 -0.5383
17675SOL    HW254467   6.414   7.634   6.667 -0.4900  2.2494  0.0896
17676SOL     OW54468   2.695   7.613   4.600  0.1843  0.2450 -0.7054
17676SOL    HW154469   2.765   7.676   4.616  0.7196 -0.3092 -0.8334
17676SOL    HW254470   2.730   7.555   4.533 -0.1803 -0.3836 -0.3546
17677SOL     OW54471   3.454   7.391   7.492  0.5916 -0.5988  0.6132
17677SOL    HW154472   3.368   7.428   7.470  0.5614 -0.0753  1.5894
17677SOL    HW254473   3.461   7.314   7.435 -0.4915 -0.6041  0.4526
17678SOL     OW54474   7.055   6.282   5.451  0.0534  0.0802  0.1272
17678SOL    HW154475   6.989   6.303   5.516 -0.8623  1.0047 -1.0626
17678SOL    HW254476   7.105   6.210   5.490 -0.0665  1.0051  2.0949
17679SOL     OW54477   2.243   0.545  10.030  0.4318 -0.1050 -1.0038
17679SOL    HW154478   2.264   0.585   9.946  1.2023  1.7958  0.0216
17679SOL    HW254479   2.175   0.602  10.067  1.1317 -0.0559  0.2568
17680SOL     OW54480   4.241   7.803   8.622 -0.4938 -0.1576 -0.2246
17680SOL    HW154481   4.230   7.854   8.542 -0.9196  0.3060  0.1249
17680SOL    HW254482   4.242   7.868   8.693  0.8579 -0.4697  0.0833
17681SOL     OW54483   4.422   1.515   8.275 -0.0121  0.3788  0.3434
17681SOL    HW154484   4.344   1.538   8.225  0.3992  3.0210  0.7997
17681SOL    HW254485   4.397   1.434   8.320 -3.1858  1.9372  1.7774
17682SOL     OW54486   4.874   7.573  10.611 -0.0923 -0.0443 -0.1984
17682SOL    HW154487   4.903   7.524  10.688 -2.1841  0.7168  1.1602
17682SOL    HW254488   4.939   7.552  10.543  1.0497 -1.8279  1.3474
17683SOL     OW54489   4.945   7.825   8.446 -0.5253 -0.4376 -0.4603
17683SOL    HW154490   4.910   7.851   8.531  0.9290  0.4782 -0.1016
17683SOL    HW254491   4.897   7.879   8.383  1.9915  2.9220  0.2283
17684SOL     OW54492   6.395   7.647   8.481 -0.0544 -0.1400  0.3734
17684SOL    HW154493   6.428   7.629   8.569  0.8163  0.2958  0.1423
17684SOL    HW254494   6.470   7.683   8.433 -1.1377  2.0102  0.1650
17685SOL     OW54495   4.159   0.035   9.692 -0.0515  0.4490  0.0650
17685SOL    HW154496   4.204  -0.012   9.762 -0.0971  0.6160  0.2067
17685SOL    HW254497   4.145  -0.031   9.624 -1.2902 -0.0723  0.7979
17686SOL     OW54498   3.787   0.292   8.735  0.3788  0.2883  0.8043
17686SOL    HW154499   3.777   0.291   8.640  0.4050 -1.2802  0.8009
17686SOL    HW254500   3.817   0.381   8.755  2.4113  0.0367 -0.8583
17687SOL     OW54501   4.696   7.968  10.861 -0.1743  0.0239  0.2389
17687SOL    HW154502   4.707   7.941  10.770  3.0131  1.7893 -0.0782
17687SOL    HW254503   4.763   7.918  10.909  1.2099  2.2014  0.7488
17688SOL     OW54504   4.197   7.875   8.348  0.2936  0.4432  0.2125
17688SOL    HW154505   4.220   7.900   8.259  1.2163 -0.8378  0.0621
17688SOL    HW254506   4.181   7.781   8.344 -0.2156  0.4613  1.2898
17689SOL     OW54507   7.134   7.965   8.394  0.5631  0.3811 -0.4189
17689SOL    HW154508   7.053   8.011   8.372  1.7603  2.5023 -0.7659
17689SOL    HW254509   7.132   7.885   8.342 -1.2310  0.4475 -0.5022
17690SOL     OW54510   4.347   0.512   9.751 -0.1735 -0.1834  0.3058
17690SOL    HW154511   4.397   0.504   9.833 -1.0024 -0.4349  0.7979
17690SOL    HW254512   4.413   0.535   9.685  0.6109 -0.6318  0.9139
17691SOL     OW54513   3.176   6.411   8.741  0.3371 -0.2923 -0.1691
17691SOL    HW154514   3.230   6.349   8.692 -0.8877 -0.1993 -1.7315
17691SOL    HW254515   3.227   6.491   8.744 -0.2902  0.3309 -3.0945
17692SOL     OW54516   2.695   1.191   5.811  0.1391 -0.4896 -0.2552
17692SOL    HW154517   2.722   1.263   5.868  0.2737 -1.2731  0.6992
17692SOL    HW254518   2.724   1.112   5.857 -0.4201 -1.1764 -1.0537
17693SOL     OW54519   6.623   6.977   8.663  0.1413  0.0992  0.2430
17693SOL    HW154520   6.563   7.048   8.686  0.1496 -0.7908  3.4211
17693SOL    HW254521   6.710   7.013   8.681  0.3182  0.0406 -0.4589
17694SOL     OW54522   3.766   1.391   8.857  0.3112 -0.1952 -1.1973
17694SOL    HW154523   3.693   1.390   8.918  0.5831 -0.6961 -0.8776
17694SOL    HW254524   3.735   1.339   8.782  0.1089  0.1297 -1.3460
17695SOL     OW54525   4.027   7.339   8.353  0.3308 -0.1593 -0.2188
17695SOL    HW154526   3.946   7.297   8.325  0.1307 -0.3528  0.6253
17695SOL    HW254527   4.083   7.266   8.379  0.6936 -0.0106 -0.5690
17696SOL     OW54528   4.169   0.056   7.528 -0.2519 -0.1907  0.5691
17696SOL    HW154529   4.207  -0.015   7.580 -0.5092 -0.6386  0.1538
17696SOL    HW254530   4.195   0.037   7.438  1.7771  1.5998  0.7012
17697SOL     OW54531   4.176   6.792   8.466 -0.3869  0.2617 -0.0567
17697SOL    HW154532   4.092   6.826   8.496 -0.9826  0.0472 -1.4047
17697SOL    HW254533   4.217   6.754   8.545 -0.9504  1.5453  0.8738
17698SOL     OW54534   3.594   0.499   9.167 -0.4188 -0.2217  0.3390
17698SOL    HW154535   3.524   0.449   9.209 -2.4084  2.0785  0.0122
17698SOL    HW254536   3.585   0.478   9.074 -1.0777  0.4544  0.2341
17699SOL     OW54537   4.989   0.303   8.846 -0.1105 -0.0558 -0.3699
17699SOL    HW154538   4.982   0.262   8.932 -0.1281  0.1416 -0.2775
17699SOL    HW254539   4.998   0.229   8.785  0.8159 -0.1572 -0.1156
17700SOL     OW54540   5.140   0.150   9.671  0.4375 -0.4993  0.1752
17700SOL    HW154541   5.191   0.082   9.627  0.5824 -0.3166  0.0591
17700SOL    HW254542   5.205   0.216   9.697  0.2311 -0.1343 -0.2213
17701SOL     OW54543   3.128   1.169   9.332  0.0228  0.0762  0.3024
17701SOL    HW154544   3.091   1.217   9.406 -1.5133 -2.2588  1.1864
17701SOL    HW254545   3.218   1.150   9.357  0.1257  1.0121  0.6602
17702SOL     OW54546   6.006   6.879   8.590  0.1452 -0.1585  0.8344
17702SOL    HW154547   6.004   6.973   8.574 -0.9471  0.1227  2.4066
17702SOL    HW254548   5.915   6.855   8.607  0.3956 -1.5258  0.4131
17703SOL     OW54549   4.956   7.640   8.659  0.1505  0.8293  0.1140
17703SOL    HW154550   4.877   7.587   8.648  2.1057 -2.2033 -0.6438
17703SOL    HW254551   4.946   7.711   8.595 -1.9454  0.6007  0.1065
17704SOL     OW54552   4.649   0.033   9.282  0.3407  0.2936  0.2409
17704SOL    HW154553   4.603   0.039   9.198  0.3318 -0.3650  0.1957
17704SOL    HW254554   4.592   0.077   9.345  0.5614  1.2183 -0.1754
17705SOL     OW54555   3.561   0.528   8.850 -0.0682 -0.2613 -0.4937
17705SOL    HW154556   3.648   0.508   8.816  0.6989 -0.8938  1.6545
17705SOL    HW254557   3.560   0.623   8.858 -0.5408 -0.0113 -2.7874
17706SOL     OW54558   5.136   7.629   8.407  0.5593 -0.6536 -0.2496
17706SOL    HW154559   5.074   7.702   8.416  0.5656 -0.4531 -1.5440
17706SOL    HW254560   5.186   7.629   8.488 -1.2102 -0.9044  0.9025
17707SOL     OW54561   7.190   7.378   8.850 -0.0561  0.0426  0.3997
17707SOL    HW154562   7.127   7.332   8.796 -0.7000  1.6777 -0.3138
17707SOL    HW254563   7.185   7.336   8.936 -1.6646 -0.2519  0.1733
17708SOL     OW54564   4.994   0.606   7.830  0.6356 -0.0321  0.3392
17708SOL    HW154565   4.989   0.694   7.793 -1.2743 -0.0543  0.4339
17708SOL    HW254566   5.079   0.572   7.801  1.2046  1.6595 -0.0757
17709SOL     OW54567   3.240   0.047   8.477  0.3076  0.1854 -0.3035
17709SOL    HW154568   3.257   0.032   8.570 -0.1850 -1.5439 -0.4543
17709SOL    HW254569   3.256   0.140   8.464 -1.1598  0.8021  1.8581
17710SOL     OW54570   3.508   7.286   9.376 -0.3125  0.3035 -0.7480
17710SOL    HW154571   3.469   7.359   9.425  0.7074  1.1511 -1.1641
17710SOL    HW254572   3.472   7.207   9.417 -0.2291  1.0129  0.7322
17711SOL     OW54573   3.009   1.467   7.285 -0.1383 -0.0961  0.3278
17711SOL    HW154574   3.053   1.402   7.231  0.7442 -0.2350  1.1725
17711SOL    HW254575   2.960   1.416   7.349 -0.3832  0.0645  0.2672
17712SOL     OW54576   4.272   7.876   9.281 -0.0559 -0.5684 -0.1647
17712SOL    HW154577   4.237   7.877   9.192  0.3569 -1.8635 -0.3609
17712SOL    HW254578   4.342   7.810   9.279  1.6025  1.0579  0.5142
17713SOL     OW54579   4.788   6.881   9.777  0.0176  0.4765  0.0588
17713SOL    HW154580   4.858   6.932   9.736  1.8003 -2.0909 -0.3426
17713SOL    HW254581   4.807   6.886   9.871 -0.3747  1.2641  0.1062
17714SOL     OW54582   3.301   0.698   8.425  0.0189  0.3764  0.0876
17714SOL    HW154583   3.236   0.650   8.373  0.0538  1.0915 -0.6354
17714SOL    HW254584   3.345   0.755   8.362  1.0888  0.1937  0.6384
17715SOL     OW54585   5.842   7.960   6.692  0.4455  0.6337 -0.4365
17715SOL    HW154586   5.912   7.895   6.691  1.2737  1.4869  0.7035
17715SOL    HW254587   5.865   8.020   6.762 -1.4728  0.9044  0.0181
17716SOL     OW54588   4.059   0.545   8.502 -0.0972 -0.2795  0.6347
17716SOL    HW154589   4.136   0.578   8.457 -0.8884  0.4285 -0.2429
17716SOL    HW254590   4.005   0.507   8.433 -0.6213 -0.6048  1.2095
17717SOL     OW54591   3.746   7.185   8.562 -0.2642 -0.0103  0.7109
17717SOL    HW154592   3.734   7.258   8.502  0.9216 -0.0571  0.3897
17717SOL    HW254593   3.797   7.220   8.635  0.6175 -0.5820  0.3867
17718SOL     OW54594   5.267   6.740   7.170 -0.1532 -0.1690 -0.2653
17718SOL    HW154595   5.240   6.830   7.149 -0.3443 -0.5203 -1.5814
17718SOL    HW254596   5.229   6.724   7.256  0.3044  1.1850  0.2152
17719SOL     OW54597   3.868   0.069   9.450  0.2005 -0.6113  0.2506
17719SOL    HW154598   3.936   0.001   9.446  2.3887  1.5122 -2.2235
17719SOL    HW254599   3.846   0.086   9.359  1.2590  3.3240  0.5509
17720SOL     OW54600   5.623   7.449   7.695  0.6155 -0.1323  0.2227
17720SOL    HW154601   5.594   7.362   7.668 -1.6418  0.9767 -1.2190
17720SOL    HW254602   5.580   7.464   7.779 -0.0876  0.0668 -0.1608
17721SOL     OW54603   4.653   6.627  10.398 -0.0018 -0.4563 -0.5074
17721SOL    HW154604   4.613   6.666  10.476 -0.1188 -0.7103 -0.4418
17721SOL    HW254605   4.630   6.689  10.327  1.3421  0.5505 -0.1027
17722SOL     OW54606   3.727   7.644   9.427 -0.4907 -0.0554  0.3490
17722SOL    HW154607   3.764   7.570   9.378 -1.0413 -2.3397  3.1410
17722SOL    HW254608   3.797   7.710   9.426  0.5165 -1.0718 -1.1789
17723SOL     OW54609   3.251   1.212   9.767 -0.0084  0.2267 -0.4369
17723SOL    HW154610   3.263   1.153   9.841 -0.4925  0.5828 -0.0656
17723SOL    HW254611   3.332   1.264   9.765 -1.1608  2.3321  1.7943
17724SOL     OW54612   3.706   0.107  10.912  0.4278 -0.3824  0.2192
17724SOL    HW154613   3.788   0.066  10.883  0.4460  0.7052 -1.4024
17724SOL    HW254614   3.719   0.121  11.006  1.3412 -1.9024  0.3609
17725SOL     OW54615   4.436   7.021   7.701  0.4370  0.1151  0.0395
17725SOL    HW154616   4.448   7.071   7.621  1.7611 -1.9123 -1.1277
17725SOL    HW254617   4.343   7.001   7.704  0.0444  1.7960  0.0645
17726SOL     OW54618   6.063   7.165   5.888 -0.1462  0.1810 -0.1971
17726SOL    HW154619   6.024   7.202   5.967  0.3215  0.0387  0.1086
17726SOL    HW254620   6.010   7.199   5.816  0.8563  2.2402 -0.0231
17727SOL     OW54621   1.765   7.591   9.854 -0.0030 -0.2452 -0.0026
17727SOL    HW154622   1.818   7.563   9.928  0.5374 -0.0245 -0.3020
17727SOL    HW254623   1.698   7.523   9.845  0.4536 -0.7185  0.1492
17728SOL     OW54624   5.729   0.679   8.700  0.1038  0.5961  0.0025
17728SOL    HW154625   5.639   0.660   8.726 -0.0092  0.7908 -0.2377
17728SOL    HW254626   5.731   0.658   8.606  0.5484 -0.2668  0.1910
17729SOL     OW54627   5.111   6.389   8.158  0.1313  0.3026 -0.1695
17729SOL    HW154628   5.086   6.302   8.188  0.6328  0.5999  1.1688
17729SOL    HW254629   5.029   6.439   8.156 -0.3886 -0.5158 -2.2326
17730SOL     OW54630   3.764   7.917   8.437 -0.1706  0.5059 -0.5984
17730SOL    HW154631   3.816   7.997   8.432  1.0427 -0.3027 -1.7251
17730SOL    HW254632   3.783   7.871   8.355  0.4126 -1.6603  0.6689
17731SOL     OW54633   5.725   7.832   9.713 -0.4944 -0.5068  0.3247
17731SOL    HW154634   5.813   7.867   9.699 -0.1076 -1.4926  0.2179
17731SOL    HW254635   5.737   7.737   9.714 -1.4885 -0.6376  0.7903
17732SOL     OW54636   3.908   0.152   7.513 -0.6268  0.5420 -0.1958
17732SOL    HW154637   3.925   0.237   7.473  1.7776  0.2220  0.0053
17732SOL    HW254638   3.990   0.103   7.503 -1.0671 -0.8183  2.0030
17733SOL     OW54639   4.407   0.216   9.887 -0.3840 -0.1912 -0.1441
17733SOL    HW154640   4.439   0.304   9.904  0.3308 -0.6342  0.9580
17733SOL    HW254641   4.331   0.206   9.944  0.8682 -1.0122  1.5110
17734SOL     OW54642   3.238   7.924   7.301  0.3459  0.5076 -0.4468
17734SOL    HW154643   3.290   7.885   7.230  0.5679  0.2372 -0.1358
17734SOL    HW254644   3.176   7.855   7.326  1.3532 -0.0169  0.7416
17735SOL     OW54645   4.512   0.520   9.239 -0.0134  0.3785  0.3257
17735SOL    HW154646   4.551   0.548   9.157 -1.2373  0.5836 -0.2215
17735SOL    HW254647   4.436   0.468   9.213 -0.0113 -0.1719  1.3306
17736SOL     OW54648   5.179   1.269   9.812  0.9012 -0.5074  0.9307
17736SOL    HW154649   5.199   1.192   9.865  2.0996 -1.7288 -1.1881
17736SOL    HW254650   5.218   1.251   9.727 -2.7316  0.3943 -1.1453
17737SOL     OW54651   2.392   0.968   8.394  0.3343  0.3963  0.2600
17737SOL    HW154652   2.403   1.000   8.304  1.3456  0.9410  0.5700
17737SOL    HW254653   2.300   0.986   8.414  0.6455  2.4500  0.1374
17738SOL     OW54654   4.221   7.009   7.286  0.0475 -0.8614  0.2409
17738SOL    HW154655   4.133   7.007   7.248 -0.5746 -1.6068  1.6293
17738SOL    HW254656   4.267   6.936   7.245  1.0398  1.2006 -2.6332
17739SOL     OW54657   5.559   0.384   6.911 -0.5163 -0.1307 -0.1695
17739SOL    HW154658   5.469   0.364   6.936 -0.2955 -0.5624  0.2856
17739SOL    HW254659   5.554   0.403   6.817 -0.7245 -2.3271 -0.6378
17740SOL     OW54660   4.518   6.367   8.849  0.2360 -0.3633 -0.0132
17740SOL    HW154661   4.508   6.281   8.889  0.3519 -0.6413 -0.5680
17740SOL    HW254662   4.557   6.349   8.763 -0.8189  0.1505 -0.6124
17741SOL     OW54663   5.402   1.197   6.777 -0.0708  0.8954 -0.3522
17741SOL    HW154664   5.448   1.173   6.696  0.9554  2.7429 -0.3778
17741SOL    HW254665   5.311   1.206   6.750 -0.1745 -0.9542 -0.7303
17742SOL     OW54666   3.890   0.118   7.801 -0.5555 -0.1102  0.9577
17742SOL    HW154667   3.930   0.141   7.717 -0.9273  0.6685  0.9875
17742SOL    HW254668   3.902   0.024   7.808  2.7846  0.2216  1.7191
17743SOL     OW54669   3.262   7.694   9.785  0.4235 -0.1758 -0.3755
17743SOL    HW154670   3.251   7.788   9.769  3.0357  0.4437  0.8861
17743SOL    HW254671   3.232   7.681   9.875 -0.8026 -0.7839 -0.8459
17744SOL     OW54672   4.405   7.650   8.228 -0.2876  0.0354 -0.3779
17744SOL    HW154673   4.425   7.556   8.227 -0.5636 -0.0566  0.7568
17744SOL    HW254674   4.489   7.693   8.213  0.1199 -0.3833  0.6258
17745SOL     OW54675   5.057   7.746   9.468  0.1184 -0.7181 -0.1888
17745SOL    HW154676   5.055   7.705   9.382  0.1022  0.7853 -0.9338
17745SOL    HW254677   4.973   7.792   9.474  0.1156 -0.8186  0.6321
17746SOL     OW54678   4.944   0.375   8.286 -0.2523  0.4545 -0.2030
17746SOL    HW154679   4.923   0.284   8.305  2.9066 -0.0757  1.2481
17746SOL    HW254680   5.002   0.372   8.211  1.2331  1.0691  0.8705
17747SOL     OW54681   5.931   1.611  10.210  0.2174 -0.0316  0.0568
17747SOL    HW154682   5.858   1.549  10.205  2.7529 -3.2623  0.4558
17747SOL    HW254683   5.950   1.633  10.118  0.0989 -0.8738 -0.1744
17748SOL     OW54684   4.729   7.729   9.097  0.4664  0.3914 -0.0649
17748SOL    HW154685   4.767   7.810   9.061  0.1047  1.3912  1.7024
17748SOL    HW254686   4.653   7.712   9.041  0.7550  1.0722 -0.6859
17749SOL     OW54687   3.502   0.035   9.940 -0.2269  0.1181  0.2982
17749SOL    HW154688   3.586   0.032   9.986  0.1378  0.7007 -0.3118
17749SOL    HW254689   3.513  -0.024   9.866 -0.7989 -0.7850  0.9193
17750SOL     OW54690   4.276   7.798  11.948 -0.4111 -0.2321 -0.5547
17750SOL    HW154691   4.229   7.717  11.964 -2.9076  1.2418  0.1784
17750SOL    HW254692   4.311   7.823  12.033  1.8547 -1.3280 -1.1004
17751SOL     OW54693   5.220   1.082  10.085  0.3693  0.3118 -0.6003
17751SOL    HW154694   5.138   1.038  10.061 -0.2477  2.5910 -3.2861
17751SOL    HW254695   5.202   1.119  10.172 -1.0699 -0.1308 -0.6744
17752SOL     OW54696   4.821   0.080   9.950  0.2442  0.3897  0.1036
17752SOL    HW154697   4.844   0.061   9.859 -2.3115 -0.8971 -0.3540
17752SOL    HW254698   4.743   0.027   9.967  0.1522  1.2395  2.7972
17753SOL     OW54699   2.519   6.434   8.336  0.4687  0.6364 -0.4925
17753SOL    HW154700   2.584   6.384   8.287 -0.1638  0.7496 -1.4743
17753SOL    HW254701   2.570   6.493   8.391  1.2778 -1.5142  1.2322
17754SOL     OW54702   5.150   7.342   8.976 -0.2138  0.1502 -0.2652
17754SOL    HW154703   5.097   7.308   9.049 -0.4373 -1.4640 -1.1190
17754SOL    HW254704   5.191   7.421   9.010 -0.9320 -0.1413  1.3567
17755SOL     OW54705   3.887   7.672   0.413 -0.1716 -0.2204  0.5331
17755SOL    HW154706   3.831   7.596   0.428 -0.3634 -0.4306 -1.1021
17755SOL    HW254707   3.840   7.724   0.348  0.3287  0.9222  1.0519
17756SOL     OW54708   6.211   1.088  11.103 -0.1995 -0.2270 -0.2864
17756SOL    HW154709   6.267   1.025  11.057  1.2131  0.4895  0.3814
17756SOL    HW254710   6.149   1.035  11.152  1.5929 -1.1811  1.0595
17757SOL     OW54711   4.839   1.506  11.221  0.2021 -0.5401 -0.1103
17757SOL    HW154712   4.877   1.458  11.148 -0.9262 -0.3024 -0.8775
17757SOL    HW254713   4.834   1.597  11.190 -0.0648 -0.3976  0.3416
17758SOL     OW54714   3.430   6.705  11.501 -0.0342 -0.0127  0.8443
17758SOL    HW154715   3.407   6.624  11.456  2.2328  0.3436 -1.1623
17758SOL    HW254716   3.501   6.680  11.561 -0.1126  0.2741  1.0565
17759SOL     OW54717   5.597   0.343   8.874  0.3392  0.1116  0.1605
17759SOL    HW154718   5.692   0.340   8.863  0.3801  1.5703 -0.0498
17759SOL    HW254719   5.570   0.422   8.828 -1.1039 -0.7788 -0.5926
17760SOL     OW54720   4.921   0.538   9.328 -0.0149 -0.3618  0.2180
17760SOL    HW154721   4.857   0.470   9.351  0.2511 -0.9490 -0.7203
17760SOL    HW254722   5.005   0.503   9.360 -0.2679  0.9996  2.6812
17761SOL     OW54723   5.756   1.488  11.340  0.5603  0.0033 -0.1713
17761SOL    HW154724   5.800   1.555  11.391  0.8344 -0.7668  0.6271
17761SOL    HW254725   5.664   1.491  11.369  1.0059 -1.4842  1.5794
17762SOL     OW54726   5.337   7.898   9.823  0.2499 -0.3643  0.5699
17762SOL    HW154727   5.365   7.817   9.782  1.7009 -0.0659  0.8907
17762SOL    HW254728   5.247   7.910   9.795  0.7757 -0.8419 -1.4558
17763SOL     OW54729   2.946   6.444  11.431 -0.2315  0.4986  0.0109
17763SOL    HW154730   2.921   6.530  11.400  0.1798  0.3933 -0.6242
17763SOL    HW254731   2.947   6.389  11.353  0.8360  0.2433  0.1831
17764SOL     OW54732   5.228   0.326  10.197 -0.0951 -0.3854  0.3034
17764SOL    HW154733   5.205   0.300  10.108 -2.3913  3.0519 -0.3214
17764SOL    HW254734   5.314   0.368  10.188 -0.6547  0.6408 -0.5166
17765SOL     OW54735   4.116   1.044  12.049 -0.1001  0.2694 -0.8570
17765SOL    HW154736   4.028   1.022  12.079  0.1486 -0.0752 -0.3808
17765SOL    HW254737   4.104   1.124  11.997 -0.8066 -0.2320 -1.4822
17766SOL     OW54738   4.265   0.734   9.558 -0.2298 -0.2400 -0.0919
17766SOL    HW154739   4.258   0.814   9.505 -0.5451  1.3224  2.1546
17766SOL    HW254740   4.359   0.717   9.563  0.0144  1.2363  1.0543
17767SOL     OW54741   4.769   0.060  11.891 -0.5170  0.3975 -0.6376
17767SOL    HW154742   4.702   0.129  11.891 -2.5935 -1.5166 -0.1100
17767SOL    HW254743   4.830   0.087  11.960 -0.7918  2.1072 -1.0031
17768SOL     OW54744   5.921   0.111   1.158 -0.0911  0.0930  0.4576
17768SOL    HW154745   5.923   0.088   1.065 -0.9963  0.6262  0.2989
17768SOL    HW254746   5.922   0.206   1.160  2.8661  0.1446  1.1019
17769SOL     OW54747   5.514   7.164  10.271  0.3366  0.1743  0.7250
17769SOL    HW154748   5.427   7.128  10.257 -0.0820  0.9517  1.2510
17769SOL    HW254749   5.546   7.122  10.350  0.9144 -0.9498 -0.0783
17770SOL     OW54750   3.867   0.693   8.138 -0.0005 -0.0380 -0.7231
17770SOL    HW154751   3.780   0.662   8.115 -0.6198 -0.2236  1.6748
17770SOL    HW254752   3.881   0.769   8.082 -2.4141  1.0320  0.0172
17771SOL     OW54753   4.117   0.364  10.433  0.0817 -0.3705 -0.3913
17771SOL    HW154754   4.030   0.335  10.462 -0.2792 -0.1687 -1.2261
17771SOL    HW254755   4.115   0.459  10.441 -0.0301 -0.3094 -1.0542
17772SOL     OW54756   4.643   7.349  11.798 -0.0648  0.3505  0.5976
17772SOL    HW154757   4.632   7.422  11.736 -0.2943  0.4666  0.7749
17772SOL    HW254758   4.589   7.373  11.873  1.3549  0.9141  1.4766
17773SOL     OW54759   5.070   5.604   9.265 -0.2205 -0.0090  0.5281
17773SOL    HW154760   5.082   5.617   9.171  0.1860  1.1435  0.7253
17773SOL    HW254761   4.975   5.610   9.278 -0.3099 -0.5051  0.1594
17774SOL     OW54762   5.576   7.980   9.890  0.0472  0.6179  0.2197
17774SOL    HW154763   5.496   7.942   9.856  0.3943 -0.4549  0.5679
17774SOL    HW254764   5.646   7.941   9.836  0.4381  0.4713  0.8262
17775SOL     OW54765   5.810   1.257   7.784 -0.4267  0.3648 -0.6037
17775SOL    HW154766   5.883   1.253   7.723  0.5569 -0.0891  0.5653
17775SOL    HW254767   5.779   1.348   7.779  0.1502  0.5300 -1.1813
17776SOL     OW54768   4.136   1.792   8.289  0.1552  0.3158 -0.4132
17776SOL    HW154769   4.201   1.769   8.355  1.6282  0.2040 -1.8645
17776SOL    HW254770   4.139   1.888   8.284  0.1302  0.3170 -0.4046
17777SOL     OW54771   4.708   1.050  11.432 -0.4610 -0.0109 -0.6692
17777SOL    HW154772   4.760   1.021  11.507  0.6332  1.4341 -0.8284
17777SOL    HW254773   4.758   1.019  11.356 -0.3392  0.5387 -0.8148
17778SOL     OW54774   4.466   7.848   0.014  0.0334  0.0508 -0.8582
17778SOL    HW154775   4.438   7.915   0.077  0.0080 -1.3209  0.6631
17778SOL    HW254776   4.527   7.894  -0.044 -0.2825  1.4783 -0.1169
17779SOL     OW54777   4.081   0.507  10.757  0.4279  0.3340  0.6497
17779SOL    HW154778   4.163   0.469  10.725 -0.6490 -1.9925  0.3935
17779SOL    HW254779   4.062   0.457  10.837 -1.0485  0.3701  0.3466
17780SOL     OW54780   3.593   7.086  10.602 -0.3461  0.4961  0.0550
17780SOL    HW154781   3.675   7.054  10.641 -0.0844  1.6018  0.4349
17780SOL    HW254782   3.620   7.143  10.530 -0.8253 -0.7319 -1.1458
17781SOL     OW54783   4.870   6.541  10.651  0.5043  0.4159 -0.0197
17781SOL    HW154784   4.853   6.487  10.574 -0.6355 -0.5356  0.8597
17781SOL    HW254785   4.820   6.500  10.722 -0.1368  2.4130  0.7775
17782SOL     OW54786   4.329   0.343  11.573  0.3309  0.0206 -0.1617
17782SOL    HW154787   4.361   0.421  11.619 -2.6069  1.6907 -0.6720
17782SOL    HW254788   4.242   0.328  11.609 -0.2977 -1.2985 -2.0743
17783SOL     OW54789   3.853   7.341  10.709  0.0098  0.3521 -0.5085
17783SOL    HW154790   3.858   7.247  10.721 -0.4114  0.4185  0.2328
17783SOL    HW254791   3.941   7.372  10.730  0.2189  0.0982 -1.0091
17784SOL     OW54792   3.343   7.957   9.672 -0.3177  0.1265 -0.3603
17784SOL    HW154793   3.426   8.005   9.671 -0.5809  0.6707  1.1912
17784SOL    HW254794   3.321   7.944   9.580  1.6467 -0.3229 -0.8042
17785SOL     OW54795   4.144   6.495   7.448  0.1790  0.5127 -0.0081
17785SOL    HW154796   4.137   6.421   7.508 -1.8443  1.9441  1.6869
17785SOL    HW254797   4.140   6.572   7.504 -0.4239  1.9340 -1.8910
17786SOL     OW54798   6.100   7.599   8.149 -0.3152  0.6970  0.0739
17786SOL    HW154799   6.023   7.600   8.092 -0.1892  2.0748 -0.1164
17786SOL    HW254800   6.174   7.616   8.090 -0.2048  2.3697  0.6264
17787SOL     OW54801   3.605   0.554   7.639 -0.3135  0.1233 -0.1954
17787SOL    HW154802   3.552   0.494   7.587  1.1782 -1.4233 -0.0179
17787SOL    HW254803   3.619   0.508   7.722  0.7470  0.7624  0.0022
17788SOL     OW54804   6.090   1.243  11.855 -0.1608  0.6914 -0.5280
17788SOL    HW154805   6.184   1.226  11.844  0.1332  1.0141  1.2257
17788SOL    HW254806   6.072   1.319  11.799  0.3896  0.0509 -1.6159
17789SOL     OW54807   6.306   0.300  12.253  0.5171  0.0034 -0.3030
17789SOL    HW154808   6.312   0.249  12.334 -0.1294  1.7471  0.9085
17789SOL    HW254809   6.397   0.319  12.230  0.7026  0.6284  0.8259
17790SOL     OW54810   4.692   6.444  10.846 -0.8708  0.0842 -0.2283
17790SOL    HW154811   4.670   6.458  10.938 -1.3793 -1.0056 -0.1637
17790SOL    HW254812   4.711   6.350  10.841 -0.5445  0.1971 -1.1773
17791SOL     OW54813   4.378   0.962  11.994 -0.0273 -0.0840 -0.3950
17791SOL    HW154814   4.296   0.992  12.034 -0.6250 -0.0075 -1.6320
17791SOL    HW254815   4.405   0.888  12.048  2.6756  3.6941  4.1773
17792SOL     OW54816   4.069   7.544  12.206  0.9688  0.2172 -0.1349
17792SOL    HW154817   4.004   7.510  12.144  1.2160 -2.0141  0.7372
17792SOL    HW254818   4.025   7.616  12.250 -0.7403 -0.8640  0.0291
17793SOL     OW54819   6.541   0.389   7.612 -0.1452  0.9626  0.1798
17793SOL    HW154820   6.454   0.392   7.652 -0.0790  2.1608  0.2859
17793SOL    HW254821   6.547   0.473   7.565  0.8764  0.7983  0.0114
17794SOL     OW54822   6.442   7.543  10.468 -0.2440 -0.3198  0.2636
17794SOL    HW154823   6.434   7.617  10.407 -1.2927 -1.0336 -0.5019
17794SOL    HW254824   6.416   7.467  10.416 -0.2347 -1.0825  1.3535
17795SOL     OW54825   4.279   7.437   9.966  0.5846  0.0174 -0.3694
17795SOL    HW154826   4.261   7.393  10.050 -1.0877 -0.8411 -1.1350
17795SOL    HW254827   4.375   7.437   9.959  0.9792  2.3276  2.6688
17796SOL     OW54828   6.383   7.747  10.246  0.0038  0.7235 -0.0298
17796SOL    HW154829   6.400   7.768  10.154 -0.3182  1.2954  0.0382
17796SOL    HW254830   6.463   7.772  10.292  0.7861 -1.0511 -0.3618
17797SOL     OW54831   3.714   7.893  11.273 -0.3782  0.2523  0.1895
17797SOL    HW154832   3.712   7.821  11.209  1.3539  1.1235 -0.9232
17797SOL    HW254833   3.727   7.971  11.221 -0.2221  1.1623  1.5425
17798SOL     OW54834   4.939   0.613  10.963 -0.2447 -0.5066  0.2201
17798SOL    HW154835   5.005   0.630  11.031 -0.0248  0.8895 -0.3161
17798SOL    HW254836   4.876   0.684  10.971  1.1747  1.2925 -2.6643
17799SOL     OW54837   5.113   6.607   0.365  0.2106  0.0674 -0.2565
17799SOL    HW154838   5.182   6.555   0.406 -0.1618 -1.1030 -1.0557
17799SOL    HW254839   5.099   6.680   0.425 -0.6486 -1.7970  1.9577
17800SOL     OW54840   5.297   6.871  10.708  0.0009  0.6223 -0.3102
17800SOL    HW154841   5.242   6.796  10.729  1.1660 -0.6460 -1.6068
17800SOL    HW254842   5.362   6.837  10.646  0.4258  2.7497 -1.1160
17801SOL     OW54843   4.886   0.661   0.240  0.6136  0.4740 -0.3757
17801SOL    HW154844   4.855   0.637   0.327  1.9605  1.2506  0.3494
17801SOL    HW254845   4.810   0.700   0.197  0.0405  0.4464  0.5862
17802SOL     OW54846   3.891   7.975  10.363 -0.3352 -0.2584  0.8086
17802SOL    HW154847   3.973   8.024  10.356  1.2644 -2.8105  0.8041
17802SOL    HW254848   3.846   8.014  10.438  1.8292 -0.1455  2.1005
17803SOL     OW54849   4.303   7.456   9.299  0.2283  0.4604 -0.1523
17803SOL    HW154850   4.292   7.362   9.287 -0.0803  0.4470  0.2263
17803SOL    HW254851   4.374   7.464   9.362 -1.3297  0.4136  1.6769
17804SOL     OW54852   5.080   7.751  11.763  0.3415 -0.2685 -0.3136
17804SOL    HW154853   5.036   7.666  11.754 -1.2833  0.3848  0.9911
17804SOL    HW254854   5.014   7.816  11.739  1.2887  0.6679 -0.4509
17805SOL     OW54855   4.216   7.312   9.003 -0.5240 -0.1808 -0.5314
17805SOL    HW154856   4.230   7.285   9.093  0.7228 -0.4594 -0.7901
17805SOL    HW254857   4.225   7.232   8.951 -2.0835 -0.1816 -0.8518
17806SOL     OW54858   3.211   0.317  11.314  0.1336  0.3621  0.6232
17806SOL    HW154859   3.249   0.393  11.270  0.4878  0.5252  1.1976
17806SOL    HW254860   3.186   0.349  11.400  2.2137 -0.6195  1.6784
17807SOL     OW54861   5.911   0.697  11.647 -0.0547  0.2224  0.1184
17807SOL    HW154862   5.962   0.771  11.615  1.8383 -0.9313  0.3147
17807SOL    HW254863   5.859   0.669  11.572  0.2981  0.8656 -0.3687
17808SOL     OW54864   5.839   6.981  11.560  0.7234  0.1496  0.0124
17808SOL    HW154865   5.846   7.076  11.567 -0.7536  0.2588  0.3818
17808SOL    HW254866   5.745   6.964  11.559  0.9608 -1.3090 -0.1326
17809SOL     OW54867   5.315   7.606  12.286  0.0553 -0.0519 -0.3212
17809SOL    HW154868   5.360   7.530  12.248  0.0246  0.3224 -1.1220
17809SOL    HW254869   5.325   7.675  12.221 -0.2111  0.5373  0.2531
17810SOL     OW54870   6.150   7.171   9.552 -0.0532  0.4615  0.3111
17810SOL    HW154871   6.166   7.135   9.639 -0.6530  1.1788  0.7214
17810SOL    HW254872   6.114   7.258   9.567  0.6144  0.9335 -0.6653
17811SOL     OW54873   4.296   7.410  10.275 -0.5165 -0.0136 -0.1526
17811SOL    HW154874   4.338   7.480  10.226 -1.3088  0.0692 -0.7210
17811SOL    HW254875   4.208   7.443  10.295 -1.0991 -1.0522 -0.9131
17812SOL     OW54876   4.511   7.520   9.503 -0.3874  0.2691 -0.0394
17812SOL    HW154877   4.520   7.544   9.596  0.1615 -0.0772 -0.0004
17812SOL    HW254878   4.550   7.434   9.497 -1.7199 -0.3441 -0.3288
17813SOL     OW54879   4.283   0.007   8.808  0.5106 -0.0317  0.4395
17813SOL    HW154880   4.357   0.064   8.830 -0.1330  0.5695  1.0858
17813SOL    HW254881   4.249  -0.021   8.893 -0.9330  0.9111  0.2106
17814SOL     OW54882   4.560   0.242  11.924 -0.3301  0.1532 -0.5716
17814SOL    HW154883   4.506   0.199  11.857  0.3162 -0.7670 -0.5165
17814SOL    HW254884   4.605   0.312  11.876 -0.1367 -0.2785 -1.0386
17815SOL     OW54885   4.797   7.699   1.094  0.1812  0.3123  0.5124
17815SOL    HW154886   4.776   7.752   1.017  1.0477 -0.8730 -0.5810
17815SOL    HW254887   4.726   7.718   1.157 -2.9367 -1.7015 -2.0544
17816SOL     OW54888   5.535   0.629  12.479 -0.3224  0.0129  0.2261
17816SOL    HW154889   5.499   0.714  12.456 -0.5260 -0.6133 -1.9775
17816SOL    HW254890   5.583   0.601  12.401  0.8193 -1.3415  1.3534
17817SOL     OW54891   6.067   0.284  10.154  0.2071 -0.1625 -0.1344
17817SOL    HW154892   6.053   0.357  10.213  0.3431  1.1422 -1.6673
17817SOL    HW254893   6.021   0.211  10.195 -0.3381  0.8804  1.1777
17818SOL     OW54894   5.959   1.665   1.010  0.0079  0.3447 -0.3015
17818SOL    HW154895   5.930   1.637   0.924  0.0848  0.1567 -0.2662
17818SOL    HW254896   5.902   1.619   1.071  0.9528 -0.7309 -0.2004
17819SOL     OW54897   2.721   1.373   1.036  0.2122 -0.0055  0.2409
17819SOL    HW154898   2.764   1.417   1.109 -1.6755  0.9853  0.8427
17819SOL    HW254899   2.750   1.421   0.958 -1.1956  1.9273  0.8086
17820SOL     OW54900   3.568   7.824   0.471  0.4551  0.2213 -0.0748
17820SOL    HW154901   3.499   7.840   0.407 -0.0637  1.6718  0.8068
17820SOL    HW254902   3.570   7.728   0.481 -0.1980  0.0559 -1.4191
17821SOL     OW54903   6.787   0.344  11.004  0.2110  0.1966 -0.3732
17821SOL    HW154904   6.842   0.271  10.977  0.5174  0.7465 -1.2535
17821SOL    HW254905   6.736   0.367  10.927 -0.6491  0.2415  0.1919
17822SOL     OW54906   4.963   6.896  10.543  0.0551 -0.2126 -0.1071
17822SOL    HW154907   4.989   6.875  10.633 -1.9700  0.2560  0.6485
17822SOL    HW254908   4.962   6.811  10.498  0.1395 -0.5927  0.5897
17823SOL     OW54909   6.796   0.904   9.339  0.4241 -0.6839 -0.2539
17823SOL    HW154910   6.855   0.901   9.414  2.3335  1.3170 -1.5475
17823SOL    HW254911   6.777   0.998   9.328 -1.2121 -1.0867 -1.2536
17824SOL     OW54912   5.616   1.756   1.291 -0.0500 -0.2115  0.0394
17824SOL    HW154913   5.570   1.718   1.366 -0.1467 -1.2504 -0.5250
17824SOL    HW254914   5.548   1.779   1.228  0.1363 -1.1190 -0.5143
17825SOL     OW54915   5.789   1.143   0.819  0.3092 -0.0151 -0.2636
17825SOL    HW154916   5.745   1.193   0.888 -1.6204 -4.1473  1.8423
17825SOL    HW254917   5.866   1.106   0.862  0.6707 -0.3738 -1.2071
17826SOL     OW54918   4.561   7.252   0.313  0.4512 -0.1684 -0.3462
17826SOL    HW154919   4.521   7.335   0.287 -0.1046 -0.8025 -1.6283
17826SOL    HW254920   4.495   7.208   0.366 -0.0529 -0.6237 -1.3213
17827SOL     OW54921   3.184   6.516   0.651 -0.2318  0.1476  0.7656
17827SOL    HW154922   3.176   6.577   0.724  3.4441 -0.1705  1.6032
17827SOL    HW254923   3.145   6.563   0.576  3.1776  4.0907  1.1215
17828SOL     OW54924   3.202   0.900  11.092 -0.0690  0.1579 -0.2635
17828SOL    HW154925   3.204   0.992  11.068  1.4186  0.1727 -0.1970
17828SOL    HW254926   3.278   0.889  11.149 -0.1866 -1.1217 -0.3273
17829SOL     OW54927   5.215   7.769  10.901  0.2183  0.0159 -0.5763
17829SOL    HW154928   5.177   7.751  10.987 -0.2672 -0.5363 -0.8974
17829SOL    HW254929   5.255   7.686  10.874 -0.0325  0.0496 -1.0751
17830SOL     OW54930   5.437   7.742   0.235 -0.2845  0.3141  0.4948
17830SOL    HW154931   5.462   7.767   0.146  0.1133 -0.6762  0.3204
17830SOL    HW254932   5.506   7.780   0.290  0.5307 -0.6889  0.1965
17831SOL     OW54933   4.426   7.566  10.848 -0.4891  0.2388  0.4783
17831SOL    HW154934   4.418   7.475  10.877 -2.8368 -0.5176 -2.0930
17831SOL    HW254935   4.495   7.564  10.781 -0.9136  0.1840  0.0289
17832SOL     OW54936   4.872   6.515  12.163 -0.1487  0.0292  0.0231
17832SOL    HW154937   4.796   6.556  12.205 -0.6152  0.4109 -1.1418
17832SOL    HW254938   4.930   6.491  12.236 -1.9283 -1.4262  1.0415
17833SOL     OW54939   3.928   0.263  12.070  0.2682  0.4030  0.5515
17833SOL    HW154940   4.004   0.301  12.026 -0.4138  0.3640 -0.7287
17833SOL    HW254941   3.876   0.339  12.097 -1.4498  0.5359 -2.6394
17834SOL     OW54942   2.390   5.373   0.104  0.0117 -0.0802 -0.4819
17834SOL    HW154943   2.349   5.293   0.136 -0.1307 -0.2417 -1.0625
17834SOL    HW254944   2.453   5.343   0.039 -0.3036  0.3075 -0.9697
17835SOL     OW54945   4.437   7.948  11.041 -0.1335 -0.1297 -0.1118
17835SOL    HW154946   4.451   8.030  11.088 -0.3722  0.0617 -0.3741
17835SOL    HW254947   4.514   7.939  10.985  0.3065 -0.5186  0.5398
17836SOL     OW54948   3.521   5.769  12.211  0.1656 -0.2873  0.4339
17836SOL    HW154949   3.557   5.685  12.241 -4.4924 -2.2196  1.5360
17836SOL    HW254950   3.478   5.749  12.128 -2.2034  0.4803  1.3623
17837SOL     OW54951   2.635   7.586  11.264  0.0170  0.2562  0.0231
17837SOL    HW154952   2.717   7.624  11.293 -1.5759  1.9444  2.7308
17837SOL    HW254953   2.607   7.530  11.336 -1.3237 -0.0729 -0.7067
17838SOL     OW54954   4.101   7.474   0.234  0.6072  0.1286  0.0434
17838SOL    HW154955   4.030   7.410   0.232 -0.9701  1.8061 -1.9419
17838SOL    HW254956   4.174   7.430   0.190  0.8948 -1.6258  2.1331
17839SOL     OW54957   3.737   7.096   1.219  0.2144 -1.0746 -0.1274
17839SOL    HW154958   3.708   7.036   1.287  2.7231 -1.7324  0.4961
17839SOL    HW254959   3.818   7.056   1.185 -0.3775 -0.2436 -2.7903
17840SOL     OW54960   5.411   1.043   9.718 -0.1327 -0.4675  0.0956
17840SOL    HW154961   5.342   1.077   9.662  0.7092  0.5235 -0.3771
17840SOL    HW254962   5.462   0.984   9.661 -0.4342 -1.0062  0.3755
17841SOL     OW54963   3.642   6.370  12.005  0.2231  0.1673  0.5031
17841SOL    HW154964   3.588   6.319  11.945 -0.5237  2.7581 -1.1770
17841SOL    HW254965   3.731   6.361  11.972  0.0251  0.3487 -0.0912
17842SOL     OW54966   5.185   2.789  10.812  0.2695 -0.2858 -0.6200
17842SOL    HW154967   5.105   2.781  10.760  0.3410 -0.9366 -0.6411
17842SOL    HW254968   5.156   2.784  10.902  0.1476  0.8173 -0.5855
17843SOL     OW54969   3.188   1.066  10.810 -0.2950 -0.3074  0.0339
17843SOL    HW154970   3.099   1.077  10.776 -0.6684 -1.3643  0.6266
17843SOL    HW254971   3.193   1.125  10.885  0.3560  1.6292 -1.4497
17844SOL     OW54972   6.938   7.524   0.223  0.3734  0.4185 -0.3932
17844SOL    HW154973   6.999   7.525   0.150  0.2565  0.7724 -0.4895
17844SOL    HW254974   6.857   7.487   0.186  0.2144  0.8946 -0.5275
17845SOL     OW54975   4.877   0.256  12.082  0.4015  0.6082 -0.6300
17845SOL    HW154976   4.858   0.347  12.062 -1.0582  0.0025 -2.2157
17845SOL    HW254977   4.885   0.253  12.178  1.3373  2.5148 -0.6002
17846SOL     OW54978   3.935   0.412   0.387  0.6004  0.2098  0.6075
17846SOL    HW154979   3.904   0.365   0.464 -0.5773 -0.4921 -0.2609
17846SOL    HW254980   3.986   0.348   0.338 -1.7018 -0.5147 -0.9999
17847SOL     OW54981   5.332   6.509   0.008  0.6708 -0.3818  0.5388
17847SOL    HW154982   5.243   6.533   0.033 -0.5408 -1.2731 -2.4069
17847SOL    HW254983   5.350   6.429   0.058 -0.3820 -0.4506  0.8343
17848SOL     OW54984   6.316   0.169   0.846  0.1857  0.1065 -0.0839
17848SOL    HW154985   6.317   0.232   0.774 -0.9854  0.6712  0.3814
17848SOL    HW254986   6.348   0.087   0.806  1.4116  0.8900 -0.7666
17849SOL     OW54987   4.673   0.609  12.256  0.4110  0.2817 -0.5197
17849SOL    HW154988   4.709   0.598  12.168 -0.5567  1.5857 -1.1294
17849SOL    HW254989   4.728   0.555  12.312  1.7607  0.3017 -1.7571
17850SOL     OW54990   5.859   0.099   0.076 -0.1011 -0.1059 -0.4306
17850SOL    HW154991   5.809   0.025   0.110 -0.8088  0.4311 -0.2880
17850SOL    HW254992   5.794   0.167   0.059  0.6667  0.9724  0.6951
17851SOL     OW54993   3.999   0.375  10.968  0.3044 -0.3574  0.0434
17851SOL    HW154994   4.012   0.289  11.008 -1.5076 -0.5175  0.3905
17851SOL    HW254995   3.911   0.370  10.929  1.5677  0.1089 -3.1744
17852SOL     OW54996   5.159   0.557  11.511 -0.3461 -0.1531  0.2122
17852SOL    HW154997   5.129   0.497  11.443  1.2251  1.2809 -1.8730
17852SOL    HW254998   5.129   0.643  11.481 -0.2142  0.4410  1.7163
17853SOL     OW54999   6.298   6.673  12.215  0.0023  0.0504 -0.1559
17853SOL    HW155000   6.309   6.680  12.120 -1.3918 -1.8462 -0.5159
17853SOL    HW255001   6.221   6.727  12.235  0.5601  0.8104 -0.0093
17854SOL     OW55002   4.589   0.394  10.499 -0.0303 -0.3271  0.4475
17854SOL    HW155003   4.610   0.471  10.553 -0.4745  0.6148 -0.6662
17854SOL    HW255004   4.674   0.365  10.467  0.0730  0.2477  0.1768
17855SOL     OW55005   4.010   7.053   9.356  0.4196  0.8052  0.5329
17855SOL    HW155006   3.941   7.069   9.420  0.1238  0.7854  0.2248
17855SOL    HW255007   3.964   7.050   9.272  0.5897 -0.6658  0.4621
17856SOL     OW55008   4.493   6.702  11.428  0.0181  0.1347 -0.1434
17856SOL    HW155009   4.436   6.775  11.404  0.4235  0.7764  0.7792
17856SOL    HW255010   4.582   6.739  11.423  0.1576  0.1082  1.5925
17857SOL     OW55011   5.095   0.060  11.631 -0.2607 -0.4550  0.3792
17857SOL    HW155012   5.104   0.073  11.725  1.6552  0.6842  0.1004
17857SOL    HW255013   5.001   0.049  11.617 -0.6793  0.2084  2.3051
17858SOL     OW55014   5.488   7.788   1.228  0.6081 -0.2376 -0.6232
17858SOL    HW155015   5.436   7.840   1.290  0.6534 -0.3183 -0.5167
17858SOL    HW255016   5.560   7.846   1.202  0.7104 -0.2784 -0.4333
17859SOL     OW55017   3.024   7.510  11.917  0.0818  0.4665 -0.4033
17859SOL    HW155018   3.019   7.603  11.940  1.7009  0.6745 -0.7231
17859SOL    HW255019   2.985   7.464  11.991 -1.1035  1.4119 -0.4217
17860SOL     OW55020   5.151   1.661  11.972 -0.0720 -0.6339 -0.1512
17860SOL    HW155021   5.218   1.600  12.003  0.9041  0.2087 -0.5310
17860SOL    HW255022   5.109   1.615  11.899 -0.2903 -1.3946  0.4408
17861SOL     OW55023   3.907   6.925   1.077 -0.0817 -0.3299 -0.0617
17861SOL    HW155024   3.846   6.870   1.027  0.9391  0.2779 -2.0672
17861SOL    HW255025   3.907   7.009   1.032  1.5532 -0.0336  0.4156
17862SOL     OW55026   5.369   0.101  10.793 -0.1513 -0.2779  0.0309
17862SOL    HW155027   5.304   0.172  10.799  1.7315  1.6898 -1.3999
17862SOL    HW255028   5.435   0.124  10.859  0.0636 -1.1774  0.1318
17863SOL     OW55029   5.737   7.647   0.988  0.4074 -0.6217 -0.4000
17863SOL    HW155030   5.796   7.656   1.063 -1.6104  0.4301  1.1671
17863SOL    HW255031   5.760   7.562   0.950  1.6105 -1.1208  1.3056
17864SOL     OW55032   6.397   7.944   0.669  0.2215  0.2521  0.6952
17864SOL    HW155033   6.323   7.893   0.703 -0.1173  0.7189  0.6656
17864SOL    HW255034   6.475   7.896   0.699 -0.0929 -0.5641  0.2361
17865SOL     OW55035   7.622   2.276  11.930 -0.1256  0.6534  0.9297
17865SOL    HW155036   7.545   2.225  11.957 -0.3506  0.4839  0.0024
17865SOL    HW255037   7.606   2.296  11.838  2.8082 -2.9740 -0.6139
17866SOL     OW55038   7.497   0.475   2.215  0.1779 -0.0168  0.9314
17866SOL    HW155039   7.450   0.396   2.241 -1.2720  0.6761  0.5426
17866SOL    HW255040   7.553   0.496   2.290  1.0784 -1.7286  0.7936
17867SOL     OW55041   4.764   6.976   2.121 -0.0809  0.1889  0.8540
17867SOL    HW155042   4.689   7.032   2.140 -0.7866 -0.6743  0.6988
17867SOL    HW255043   4.785   6.995   2.029 -1.1034 -0.6622  0.4162
17868SOL     OW55044   6.976   1.952   0.787 -0.5459 -0.4955  0.6708
17868SOL    HW155045   6.915   1.885   0.819  0.0254 -0.8784  0.9741
17868SOL    HW255046   7.053   1.943   0.843  0.8204 -1.7300 -1.2698
17869SOL     OW55047   6.971   2.590   0.990 -0.2764 -0.1709 -0.2898
17869SOL    HW155048   6.993   2.593   1.083  0.7156 -1.9756 -0.4176
17869SOL    HW255049   7.047   2.626   0.946  0.5216 -2.0516 -0.5130
17870SOL     OW55050   7.990   2.697  12.320  0.5323  0.2918 -0.2714
17870SOL    HW155051   7.930   2.767  12.295 -1.2033 -0.9976  0.0442
17870SOL    HW255052   7.992   2.699  12.415  1.8843  0.9973 -0.2899
17871SOL     OW55053   0.382   1.337   0.394  0.1588  0.0639  0.0716
17871SOL    HW155054   0.477   1.339   0.409  0.0596  1.7385  0.7184
17871SOL    HW255055   0.346   1.395   0.461 -1.4438 -1.2906  0.4620
17872SOL     OW55056   6.091   1.165   2.187  0.0818  0.5931  0.4379
17872SOL    HW155057   6.114   1.252   2.221 -0.8647  1.0542 -0.0656
17872SOL    HW255058   5.997   1.157   2.204  0.0590 -0.1097 -0.0040
17873SOL     OW55059   5.514   7.770   2.169  0.2664  0.6436  0.1687
17873SOL    HW155060   5.549   7.745   2.083  1.1071 -0.0597  0.7138
17873SOL    HW255061   5.588   7.810   2.215 -0.4804  2.1444  0.1440
17874SOL     OW55062   7.226   2.100  12.049  0.9883 -0.3641  0.3266
17874SOL    HW155063   7.321   2.087  12.051  0.8972 -1.1521  2.7245
17874SOL    HW255064   7.195   2.063  12.131 -0.7450  4.4842  2.2667
17875SOL     OW55065   5.623   0.712   2.314  0.4633 -0.0008 -0.3240
17875SOL    HW155066   5.658   0.766   2.385 -0.1117 -0.6613  0.4789
17875SOL    HW255067   5.662   0.749   2.235 -0.9302  2.4218  0.0397
17876SOL     OW55068   7.519   0.531   1.915  0.4749  0.1381  0.2910
17876SOL    HW155069   7.530   0.494   2.003  0.1912  0.6102  0.5272
17876SOL    HW255070   7.424   0.532   1.901  0.5046  0.3297  0.0980
17877SOL     OW55071   7.685   1.454   0.587  0.2995  0.2190  0.0523
17877SOL    HW155072   7.655   1.499   0.508  0.7874 -0.8609 -0.7624
17877SOL    HW255073   7.742   1.519   0.630  0.0052  0.8328 -0.4574
17878SOL     OW55074   7.259   0.892   1.458  0.0199 -0.0374 -0.1226
17878SOL    HW155075   7.349   0.860   1.450  0.4743  1.3841 -1.3661
17878SOL    HW255076   7.212   0.849   1.387 -0.6773 -1.8489  1.3630
17879SOL     OW55077   6.628   7.182   0.179  0.2407  0.2723 -0.0442
17879SOL    HW155078   6.576   7.126   0.237  2.2094 -1.3296  0.2965
17879SOL    HW255079   6.575   7.260   0.167 -1.2114 -0.2931  2.1140
17880SOL     OW55080   5.554   2.551   0.678  0.3243 -0.0380 -0.0256
17880SOL    HW155081   5.645   2.520   0.684  0.5663  0.7191  0.2856
17880SOL    HW255082   5.516   2.531   0.763  0.1621 -0.4450 -0.1893
17881SOL     OW55083   6.713   1.177   2.178 -0.0263 -0.0728  0.3095
17881SOL    HW155084   6.685   1.171   2.087 -1.2812 -0.4032  0.7072
17881SOL    HW255085   6.809   1.184   2.173  0.0087 -1.1441 -0.9824
17882SOL     OW55086   5.239   2.377   0.875  0.2602  0.3605 -0.0262
17882SOL    HW155087   5.302   2.306   0.867 -0.9755 -1.0267  1.7533
17882SOL    HW255088   5.281   2.441   0.932  0.3201 -0.2346  0.5970
17883SOL     OW55089   6.672   1.131   0.721  0.1826  0.0935  0.0567
17883SOL    HW155090   6.637   1.104   0.637  1.0236 -0.8450 -0.0091
17883SOL    HW255091   6.751   1.079   0.732  0.8052  1.1594  0.8234
17884SOL     OW55092   6.237   3.533   1.960  0.2683  0.2720 -0.2630
17884SOL    HW155093   6.326   3.520   1.993 -0.0827  0.8224  0.9569
17884SOL    HW255094   6.208   3.615   2.001 -1.1521 -0.4040  0.1438
17885SOL     OW55095   7.219   0.547   1.143 -0.8146  0.3791  0.1802
17885SOL    HW155096   7.195   0.466   1.187  1.1286 -0.1704  0.3397
17885SOL    HW255097   7.165   0.549   1.064  1.3629 -2.8770 -1.6577
17886SOL     OW55098   7.918   7.580   0.199  0.3973 -0.1995 -0.1961
17886SOL    HW155099   7.973   7.623   0.134  0.7773 -2.5431 -1.5296
17886SOL    HW255100   7.980   7.544   0.263  0.4327 -1.8484 -1.0862
17887SOL     OW55101   7.855   7.689   0.649  0.5074  0.2985 -0.4559
17887SOL    HW155102   7.900   7.636   0.583 -1.3355 -0.0449 -1.5135
17887SOL    HW255103   7.825   7.766   0.601  0.6538  0.9169  0.4158
17888SOL     OW55104   7.576   1.577  12.362  0.0719 -0.5871 -0.8287
17888SOL    HW155105   7.667   1.553  12.381  0.1089  1.8952  3.2947
17888SOL    HW255106   7.524   1.518  12.416 -0.2725  1.7980  1.6915
17889SOL     OW55107   4.968   7.607   0.907 -0.0384 -0.0327  0.4349
17889SOL    HW155108   4.909   7.640   0.975 -0.1774 -0.4719  0.5289
17889SOL    HW255109   4.911   7.581   0.835  0.0938  0.2207  0.2323
17890SOL     OW55110   0.378   0.683   1.402 -0.6190 -0.1538 -0.5573
17890SOL    HW155111   0.331   0.723   1.329 -0.9560  3.5300  1.4123
17890SOL    HW255112   0.458   0.735   1.410 -1.6087  1.1080  2.9002
17891SOL     OW55113   6.566   0.204   1.071  0.0071 -0.1145 -0.0276
17891SOL    HW155114   6.560   0.151   0.991  0.3067 -0.0826 -0.0713
17891SOL    HW255115   6.655   0.191   1.102  0.1318  0.4848 -0.1218
17892SOL     OW55116   7.054   7.520   0.481 -0.2026 -0.2629 -0.6319
17892SOL    HW155117   7.033   7.514   0.388  1.0696  1.1760 -1.0379
17892SOL    HW255118   7.113   7.446   0.497 -1.6607 -1.4800 -0.5484
17893SOL     OW55119   6.657   2.019   0.096 -0.0939 -0.1519  0.3325
17893SOL    HW155120   6.618   1.932   0.106 -0.6161  0.0102 -0.2139
17893SOL    HW255121   6.629   2.067   0.174 -0.3506 -0.2721  0.3138
17894SOL     OW55122   6.783   0.249   0.848  0.2235  0.3350 -0.4949
17894SOL    HW155123   6.782   0.285   0.759 -2.0305  0.4115 -0.4924
17894SOL    HW255124   6.839   0.172   0.842  0.2459  0.4379 -1.9435
17895SOL     OW55125   6.311   7.758   0.410  0.1771  0.0240 -0.2012
17895SOL    HW155126   6.291   7.682   0.355  1.8220 -1.7773  1.5329
17895SOL    HW255127   6.231   7.772   0.461 -1.0123  1.0923 -2.2132
17896SOL     OW55128   7.586   0.815   1.988 -0.3664  0.0782 -0.3962
17896SOL    HW155129   7.622   0.857   1.910  0.3139  1.3272  0.5375
17896SOL    HW255130   7.555   0.730   1.958  1.2681 -0.1000 -1.7236
17897SOL     OW55131   0.694   2.925  11.038  0.3738  0.1198  0.3849
17897SOL    HW155132   0.735   2.853  11.086  0.5428  1.2515  2.0173
17897SOL    HW255133   0.624   2.956  11.095 -0.9393  0.0825 -1.1136
17898SOL     OW55134   7.511   0.383   1.637  0.1066  0.8072 -0.5348
17898SOL    HW155135   7.444   0.318   1.660 -0.4272  1.3171 -0.6265
17898SOL    HW255136   7.543   0.415   1.721  0.9029 -0.1090 -0.4825
17899SOL     OW55137   6.321   2.136   2.795  0.4938  0.3554  0.5064
17899SOL    HW155138   6.337   2.188   2.717 -1.1309 -1.5915 -1.2425
17899SOL    HW255139   6.232   2.159   2.822 -0.3776 -1.5517 -0.4779
17900SOL     OW55140   7.314   0.293   1.267 -0.4432  0.3414 -0.2360
17900SOL    HW155141   7.360   0.222   1.312  0.9433  1.2835 -0.1113
17900SOL    HW255142   7.240   0.313   1.324  0.6526  0.7549  1.1014
17901SOL     OW55143   0.082   1.717   0.210  0.2905 -0.2185  0.0495
17901SOL    HW155144   0.135   1.668   0.146 -2.4703 -0.4745 -2.2107
17901SOL    HW255145   0.122   1.804   0.212  1.5757 -0.7563 -0.5383
17902SOL     OW55146   6.822   7.744   0.405 -0.1514  0.0154  0.3440
17902SOL    HW155147   6.733   7.748   0.371 -1.0028 -0.4848  2.4078
17902SOL    HW255148   6.875   7.716   0.330 -2.1494 -2.6294 -0.2142
17903SOL     OW55149   0.006   1.477   0.788  0.9413 -0.7494  0.0653
17903SOL    HW155150  -0.053   1.497   0.861  0.9282 -1.7745  0.3412
17903SOL    HW255151   0.091   1.511   0.817  0.8710 -0.8754  0.4239
17904SOL     OW55152   2.337   7.204   0.706 -0.1387 -0.0692 -0.0266
17904SOL    HW155153   2.419   7.251   0.691 -0.3022  0.1772 -0.1511
17904SOL    HW255154   2.304   7.185   0.619  0.5737 -1.5753 -0.0082
17905SOL     OW55155   0.171   7.735   1.840  0.1538  0.0045  0.4124
17905SOL    HW155156   0.240   7.786   1.882  1.3639 -1.6619  0.5940
17905SOL    HW255157   0.198   7.644   1.853 -1.1882 -0.6573 -1.0368
17906SOL     OW55158   7.064   0.946   0.226 -0.3458  0.3583  0.4721
17906SOL    HW155159   7.073   0.863   0.274  1.1179  0.2259  0.0221
17906SOL    HW255160   6.971   0.967   0.233 -0.7630 -1.3254  0.6024
17907SOL     OW55161   7.326   7.196   0.436  0.2771  0.3093 -0.3261
17907SOL    HW155162   7.235   7.194   0.467 -0.0225 -0.9941 -1.1857
17907SOL    HW255163   7.346   7.289   0.428 -0.4816  0.6509  1.2496
17908SOL     OW55164   7.131   7.994   1.296 -0.2001  0.7487 -0.3665
17908SOL    HW155165   7.116   8.003   1.202 -0.0008  3.3193 -0.2363
17908SOL    HW255166   7.224   8.014   1.308 -0.1540  0.1465  0.3450
17909SOL     OW55167   0.292   7.626  12.487  0.4095 -0.6306 -0.0797
17909SOL    HW155168   0.280   7.538  12.451  1.4279 -0.5053 -0.7641
17909SOL    HW255169   0.357   7.614  12.557  0.8495 -0.3715 -0.4375
17910SOL     OW55170   7.687   5.662   0.905  0.0461 -0.1396  0.2430
17910SOL    HW155171   7.708   5.640   0.814  2.1076 -0.1870  0.6834
17910SOL    HW255172   7.645   5.748   0.900 -1.1268 -0.7428 -0.8454
17911SOL     OW55173   5.417   2.782   0.197 -0.3012 -0.2825 -0.2868
17911SOL    HW155174   5.332   2.751   0.228 -0.5855  0.4143 -0.3319
17911SOL    HW255175   5.395   2.842   0.125  0.2195 -0.0471 -0.2522
17912SOL     OW55176   0.025   1.979  12.220 -0.0867 -0.3390 -0.4872
17912SOL    HW155177  -0.061   2.017  12.237 -0.4707 -0.7310 -1.4787
17912SOL    HW255178   0.009   1.908  12.158  1.0652  0.3144 -1.6057
17913SOL     OW55179   7.718   0.362   0.122  0.1423  0.2884 -0.2351
17913SOL    HW155180   7.708   0.431   0.056 -0.0547  0.9295  0.4493
17913SOL    HW255181   7.809   0.370   0.151 -0.4094  1.5956  1.2626
17914SOL     OW55182   6.807   2.234  11.422  0.1882 -0.3406  0.1056
17914SOL    HW155183   6.776   2.323  11.408  1.8984  0.4102  0.7757
17914SOL    HW255184   6.823   2.199  11.334  0.2620  0.3088 -0.1429
17915SOL     OW55185   6.596   0.625  10.995  0.2508 -0.2621 -0.0107
17915SOL    HW155186   6.567   0.683  10.924  1.9702 -0.8332 -1.2273
17915SOL    HW255187   6.536   0.551  10.992  0.2042 -0.1937 -0.7518
17916SOL     OW55188   6.882   1.078  11.051  0.1395  0.6866  0.5736
17916SOL    HW155189   6.933   1.102  11.129 -0.5509 -0.4721  1.4155
17916SOL    HW255190   6.948   1.070  10.982  0.7806  1.6477  1.0502
17917SOL     OW55191   6.533   0.053   1.731 -0.0622  0.6931  0.0694
17917SOL    HW155192   6.494  -0.018   1.780 -0.0058  0.7126  0.1426
17917SOL    HW255193   6.583   0.010   1.661 -1.0949  0.6982 -0.6869
17918SOL     OW55194   7.319   0.509   1.449 -0.2253 -0.0672 -0.5388
17918SOL    HW155195   7.373   0.484   1.524 -0.7716  0.6083  0.1067
17918SOL    HW255196   7.359   0.466   1.374  0.4811 -0.5597  0.1084
17919SOL     OW55197   7.075   1.782   1.785  0.0779 -0.5018 -0.4882
17919SOL    HW155198   7.032   1.701   1.812 -0.8612  0.1516  0.0196
17919SOL    HW255199   7.167   1.771   1.812 -0.1849 -1.1246  0.1711
17920SOL     OW55200   2.942   2.153   1.317 -0.3042 -0.5350 -0.1297
17920SOL    HW155201   2.967   2.077   1.265 -0.6733 -0.9305  0.2598
17920SOL    HW255202   3.022   2.205   1.325 -0.4809  0.1200 -2.0511
17921SOL     OW55203   7.772   7.172  12.383  0.5517  0.5147 -1.0497
17921SOL    HW155204   7.841   7.174  12.450  1.2844  1.8549 -1.8024
17921SOL    HW255205   7.779   7.256  12.338 -0.9433  0.2739 -1.8091
17922SOL     OW55206   6.300   1.991   3.014 -0.0678  0.3251 -0.4814
17922SOL    HW155207   6.296   2.040   2.932 -0.1649 -0.3048 -0.8645
17922SOL    HW255208   6.294   1.899   2.987  1.9332 -0.0144  0.0708
17923SOL     OW55209   0.062   0.215   0.415 -0.0974  0.3903  0.0679
17923SOL    HW155210   0.148   0.217   0.456 -0.3448  1.9189  0.5765
17923SOL    HW255211   0.001   0.232   0.487 -0.5266  3.5627 -0.8752
17924SOL     OW55212   6.596   7.314   1.503 -0.2298 -0.2103 -0.5322
17924SOL    HW155213   6.688   7.317   1.529 -0.7219 -0.8151  1.4982
17924SOL    HW255214   6.595   7.344   1.412  1.8232  0.9615 -0.2267
17925SOL     OW55215   6.747   2.889  12.462 -0.3664  0.1477  0.4976
17925SOL    HW155216   6.756   2.983  12.444  1.1020  0.3734  2.1251
17925SOL    HW255217   6.781   2.847  12.383  0.2620  1.0226  0.2804
17926SOL     OW55218   4.995   2.637   0.909 -0.0145 -0.1736 -0.0885
17926SOL    HW155219   4.907   2.627   0.874  0.1974 -0.2791 -0.6102
17926SOL    HW255220   5.002   2.569   0.976 -0.4656  0.1047  0.2401
17927SOL     OW55221   7.822   7.183   0.300  0.0252 -0.7201 -0.0000
17927SOL    HW155222   7.889   7.145   0.244  1.2083 -0.2442  1.0430
17927SOL    HW255223   7.742   7.182   0.247  1.0745 -0.3635 -1.6340
17928SOL     OW55224   5.334   4.424   0.882 -0.8247  0.5107 -0.6207
17928SOL    HW155225   5.342   4.401   0.789 -1.2800 -1.0753 -0.3074
17928SOL    HW255226   5.263   4.369   0.913  1.8369 -2.0434  1.5504
17929SOL     OW55227   5.216   2.036   2.440 -1.0383 -0.0771 -0.3073
17929SOL    HW155228   5.259   2.113   2.403  0.6365 -0.3797  0.9168
17929SOL    HW255229   5.278   1.965   2.428 -1.6125 -0.7581  0.6054
17930SOL     OW55230   7.647   7.663   0.998 -1.0587 -0.0830  0.0782
17930SOL    HW155231   7.678   7.604   1.067  0.5865 -0.1052 -0.6300
17930SOL    HW255232   7.655   7.750   1.036  1.3630  0.0457 -0.5309
17931SOL     OW55233   6.736   6.490   1.288 -0.3392  0.0361 -0.2417
17931SOL    HW155234   6.829   6.471   1.299 -0.4198 -1.4497 -1.7183
17931SOL    HW255235   6.733   6.582   1.263  0.7565  0.0445 -0.3918
17932SOL     OW55236   7.068   7.917  11.523  0.8055  0.0073 -0.2412
17932SOL    HW155237   7.075   8.007  11.492  3.6592 -0.1889 -0.5021
17932SOL    HW255238   6.994   7.880  11.476  0.6886  1.7213 -1.4904
17933SOL     OW55239   1.274   0.443   0.960 -0.5735  0.0307 -0.0047
17933SOL    HW155240   1.306   0.474   1.044  0.8390  2.7947 -1.4076
17933SOL    HW255241   1.182   0.471   0.957 -0.8295 -0.6695  0.8236
17934SOL     OW55242   6.215   0.517   1.529 -0.3971 -0.1371 -0.3150
17934SOL    HW155243   6.274   0.442   1.537  1.1311  0.9638 -0.8782
17934SOL    HW255244   6.207   0.531   1.434  0.5395  1.3038 -0.2077
17935SOL     OW55245   0.576   1.630   0.871 -0.7753  0.5883  0.0772
17935SOL    HW155246   0.601   1.584   0.951 -0.8651 -0.1699 -0.3179
17935SOL    HW255247   0.649   1.615   0.811 -1.4740 -0.3704 -0.5738
17936SOL     OW55248   6.205   3.228   1.552  0.5219 -0.3182  0.1698
17936SOL    HW155249   6.277   3.286   1.532  1.0812 -1.0182  0.1094
17936SOL    HW255250   6.204   3.222   1.648 -0.3078  0.7288  0.2490
17937SOL     OW55251   7.582   7.676  12.154  0.0008  0.2588 -0.7473
17937SOL    HW155252   7.488   7.680  12.169 -0.0148 -1.1109 -0.3483
17937SOL    HW255253   7.594   7.706  12.063 -0.6596  1.7367 -0.3612
17938SOL     OW55254   6.627   7.598  11.581 -0.0453  0.1939 -0.4996
17938SOL    HW155255   6.677   7.674  11.552  0.0709  0.6491  0.8209
17938SOL    HW255256   6.661   7.579  11.668 -0.5460 -0.9613 -0.5412
17939SOL     OW55257   5.689   1.177  12.077  0.5084 -0.0473  0.0271
17939SOL    HW155258   5.702   1.192  11.983  0.4299  1.7485  0.2725
17939SOL    HW255259   5.775   1.150  12.108  0.9936  1.0917 -0.2692
17940SOL     OW55260   4.918   1.022  10.994 -0.0733  0.3281  0.3879
17940SOL    HW155261   4.945   0.960  10.927 -1.4882 -0.8102  0.7956
17940SOL    HW255262   4.986   1.089  10.994 -0.6195  1.0674 -3.0229
17941SOL     OW55263   6.141   1.484   1.734 -0.2649 -0.0333 -0.2553
17941SOL    HW155264   6.150   1.561   1.791 -0.2752 -1.1895  1.3745
17941SOL    HW255265   6.222   1.483   1.683  0.3063  0.3640  0.6081
17942SOL     OW55266   0.379   0.122   1.324 -0.5192 -0.1269 -0.1129
17942SOL    HW155267   0.363   0.189   1.390 -0.5738 -0.4591  0.2167
17942SOL    HW255268   0.468   0.090   1.344 -0.3118  0.1738 -0.5574
17943SOL     OW55269   7.776   2.767   0.793  0.4998 -0.6183  0.5543
17943SOL    HW155270   7.774   2.818   0.713 -0.1641 -0.8422  0.4183
17943SOL    HW255271   7.807   2.828   0.860  1.6802 -0.6080  0.0204
17944SOL     OW55272   5.384   0.549  11.358  0.0106 -0.1209  0.0139
17944SOL    HW155273   5.307   0.524  11.410  1.1031 -0.1372  1.7325
17944SOL    HW255274   5.430   0.466  11.344 -0.3511 -0.1364 -1.1624
17945SOL     OW55275   7.011   2.547   0.214  0.2885  0.1350 -0.1896
17945SOL    HW155276   7.075   2.587   0.272  0.3715  0.9658 -0.8285
17945SOL    HW255277   6.969   2.479   0.267  0.4233  0.8021  0.7989
17946SOL     OW55278   6.783   7.738  10.749 -0.3253 -0.1342 -0.6627
17946SOL    HW155279   6.690   7.757  10.762 -0.2154 -0.8213  1.7300
17946SOL    HW255280   6.793   7.648  10.782  1.4033  0.4381  0.4980
17947SOL     OW55281   6.037   1.274   2.812  0.6429  0.4228  0.5968
17947SOL    HW155282   6.011   1.303   2.899  1.0039  1.6748  0.3146
17947SOL    HW255283   6.084   1.349   2.775  0.2145  0.0345 -0.7991
17948SOL     OW55284   5.584   0.421   1.711  0.1167 -0.3657 -0.2818
17948SOL    HW155285   5.499   0.387   1.739 -0.4274  0.1561 -1.2196
17948SOL    HW255286   5.618   0.354   1.652  0.6174 -0.8210  0.5064
17949SOL     OW55287   6.947   1.256   1.053 -0.1823 -0.0410  0.6352
17949SOL    HW155288   6.999   1.176   1.058 -1.0013 -0.7072 -0.8513
17949SOL    HW255289   6.912   1.257   0.964  1.4697  3.0552 -0.1488
17950SOL     OW55290   5.933   6.052   1.697  0.4248  0.0115 -0.3638
17950SOL    HW155291   5.869   6.028   1.764 -1.0023  0.9575 -1.3437
17950SOL    HW255292   6.018   6.042   1.741 -0.4699  1.5448  1.8973
17951SOL     OW55293   7.132   2.794   1.401  0.0330  0.1507  0.0331
17951SOL    HW155294   7.062   2.857   1.416 -1.1061 -1.5335  2.7572
17951SOL    HW255295   7.208   2.846   1.377 -1.7176  2.1869 -1.3654
17952SOL     OW55296   6.386   0.035   3.209  0.3287 -0.5505 -0.0869
17952SOL    HW155297   6.343  -0.009   3.283  0.5934  1.1251  1.1236
17952SOL    HW255298   6.374   0.129   3.227 -0.0236 -0.0757 -2.4478
17953SOL     OW55299   7.782   1.384   9.904 -0.4785  0.4303 -0.1523
17953SOL    HW155300   7.720   1.338   9.962  0.7754  0.2855  1.1318
17953SOL    HW255301   7.735   1.392   9.821 -2.0907  0.0327  0.6703
17954SOL     OW55302   6.750   0.983  12.177  0.1458  0.2325 -0.1651
17954SOL    HW155303   6.789   0.901  12.207 -1.2588 -0.7414 -0.8553
17954SOL    HW255304   6.672   0.993  12.232 -0.0682  0.7303 -0.5573
17955SOL     OW55305   0.601   0.111  11.966  0.5080  0.2842 -0.8194
17955SOL    HW155306   0.603   0.104  12.062  0.7957 -1.3860 -0.9306
17955SOL    HW255307   0.515   0.076  11.942  1.0544 -0.7967 -1.2604
17956SOL     OW55308   6.979   0.171  12.473 -0.0472 -0.3035  0.0156
17956SOL    HW155309   6.956   0.093  12.422  2.7049 -0.5304 -1.0627
17956SOL    HW255310   7.018   0.137  12.553 -0.6285  0.0180  0.4457
17957SOL     OW55311   6.475   7.966  12.268 -0.2480  0.3616 -0.2751
17957SOL    HW155312   6.499   8.045  12.316  0.9304 -1.5464  2.5537
17957SOL    HW255313   6.520   7.895  12.314 -1.8221 -2.0879 -2.2071
17958SOL     OW55314   1.202   7.797   1.452  0.8360 -0.1550  0.0580
17958SOL    HW155315   1.203   7.888   1.481 -4.4103  0.4480 -0.5045
17958SOL    HW255316   1.219   7.802   1.358 -2.0088  0.8561 -0.5262
17959SOL     OW55317   5.668   0.687   1.724  0.0223 -0.4025  0.5846
17959SOL    HW155318   5.631   0.605   1.690  0.7821 -0.5335  0.0552
17959SOL    HW255319   5.615   0.707   1.801  0.2303 -1.7295  1.0947
17960SOL     OW55320   7.041   1.467   1.174 -0.1652 -0.4160  0.2296
17960SOL    HW155321   7.087   1.508   1.100  1.0023 -2.1901 -0.0751
17960SOL    HW255322   6.986   1.400   1.134  0.0538 -1.0261  0.9335
17961SOL     OW55323   6.451   0.692   0.285 -0.2963 -0.2277 -0.0363
17961SOL    HW155324   6.398   0.771   0.294  0.7912  0.5109  0.1069
17961SOL    HW255325   6.536   0.723   0.254  1.6207 -0.7297  4.0703
17962SOL     OW55326   1.853   1.002   0.405  0.2311 -0.5221 -0.2711
17962SOL    HW155327   1.794   1.077   0.416  0.9252 -0.0250  0.0586
17962SOL    HW255328   1.796   0.926   0.419 -0.1470 -0.0352  0.9441
17963SOL     OW55329   6.005   0.668   2.497 -0.1887  0.5737 -0.2729
17963SOL    HW155330   5.962   0.728   2.435  0.5851  0.6355 -0.7714
17963SOL    HW255331   6.093   0.704   2.507  0.8229 -1.2763 -1.7614
17964SOL     OW55332   6.333   0.759   1.153 -0.6213  0.3372  0.2503
17964SOL    HW155333   6.299   0.751   1.242  1.9436 -1.7389  1.1528
17964SOL    HW255334   6.342   0.669   1.122  3.0756  0.7390 -0.2146
17965SOL     OW55335   6.359   0.296   1.580  0.3475 -0.5513  0.1888
17965SOL    HW155336   6.332   0.211   1.615  2.1054 -2.3011 -2.3599
17965SOL    HW255337   6.434   0.321   1.634 -1.8175  0.8931  2.7520
17966SOL     OW55338   6.927   7.332   1.186 -0.0913  0.0949  0.1896
17966SOL    HW155339   6.986   7.260   1.166 -0.7670 -0.6477  0.7849
17966SOL    HW255340   6.948   7.399   1.122  2.4616  0.4981  1.3187
17967SOL     OW55341   7.050   2.190   1.163 -0.1526 -0.0352  0.0892
17967SOL    HW155342   7.116   2.159   1.225  0.4940  0.0086 -0.5673
17967SOL    HW255343   6.974   2.209   1.218  0.1371 -0.7523  0.7688
17968SOL     OW55344   7.175   7.535   1.273  0.2258  1.0119  0.3287
17968SOL    HW155345   7.127   7.611   1.307 -0.2995  0.4085  0.9586
17968SOL    HW255346   7.137   7.460   1.318  0.1341  0.2711 -0.9266
17969SOL     OW55347   7.480   7.976  12.020 -0.2827 -0.5324  0.1240
17969SOL    HW155348   7.567   8.005  12.048  0.4677 -1.4257 -1.1388
17969SOL    HW255349   7.425   7.987  12.097  1.0994 -0.5472  1.1619
17970SOL     OW55350   7.564   1.595   0.317 -0.4202  0.2830  0.0810
17970SOL    HW155351   7.595   1.686   0.316  1.0910 -0.1597 -2.1769
17970SOL    HW255352   7.474   1.600   0.286  0.3701  0.9055 -2.3826
17971SOL     OW55353   0.583   2.694   0.490  0.0097  0.1363 -0.1020
17971SOL    HW155354   0.575   2.599   0.497 -0.5853  0.3175  2.6429
17971SOL    HW255355   0.503   2.722   0.447 -1.5832 -0.3617  2.3713
17972SOL     OW55356   7.502   7.673  11.162  0.6252  0.1646 -0.1312
17972SOL    HW155357   7.439   7.601  11.173  0.9423  0.0635  1.2069
17972SOL    HW255358   7.448   7.751  11.152  0.2272  0.1894  1.7470
17973SOL     OW55359   5.897   0.709   1.305  0.3530 -0.0727  0.4116
17973SOL    HW155360   5.888   0.718   1.400  2.4119 -0.1125  0.6657
17973SOL    HW255361   5.808   0.704   1.272 -0.4007 -0.2059  2.3634
17974SOL     OW55362   5.142   1.272   1.755 -0.4810  0.6750  0.0464
17974SOL    HW155363   5.061   1.271   1.804 -0.5002 -0.8245  0.0324
17974SOL    HW255364   5.200   1.212   1.802  0.8252  2.0974  0.3495
17975SOL     OW55365   6.689   1.421   1.302 -0.5252 -0.4546  0.4078
17975SOL    HW155366   6.670   1.433   1.209  0.0219 -1.3703  0.1670
17975SOL    HW255367   6.620   1.362   1.333 -0.5732 -0.3349  0.5292
17976SOL     OW55368   6.475   7.118   2.295 -0.2244 -0.3688  0.0114
17976SOL    HW155369   6.457   7.212   2.305 -1.4695 -0.7252  1.7226
17976SOL    HW255370   6.508   7.109   2.206 -0.4323  1.6438 -0.3195
17977SOL     OW55371   6.476   1.292   2.141  0.0444 -0.4037  0.5159
17977SOL    HW155372   6.437   1.209   2.116  0.0118 -0.1454 -0.3084
17977SOL    HW255373   6.558   1.268   2.184  1.0595 -0.8276 -1.5184
17978SOL     OW55374   7.242   0.320  12.219 -0.0399 -0.3496 -0.5137
17978SOL    HW155375   7.313   0.280  12.270  0.4537  1.3275  0.1746
17978SOL    HW255376   7.176   0.250  12.212  0.6357 -1.1872  0.9104
17979SOL     OW55377   5.391   1.048   2.517 -0.1239  0.1977  0.1757
17979SOL    HW155378   5.339   0.986   2.568 -2.2832  0.7387 -1.2536
17979SOL    HW255379   5.405   1.003   2.433  1.4502  0.2198  0.3984
17980SOL     OW55380   7.097   0.162  11.445 -0.5085  0.4197 -0.6575
17980SOL    HW155381   7.125   0.151  11.355 -0.4775  1.6557 -0.8163
17980SOL    HW255382   7.175   0.193  11.491 -0.5757 -0.0090 -0.2408
17981SOL     OW55383   6.534   7.665   0.758  0.1380  0.0353 -0.0578
17981SOL    HW155384   6.440   7.678   0.746  0.1439  3.9566  2.2301
17981SOL    HW255385   6.542   7.635   0.849  1.0933  1.7165  0.4580
17982SOL     OW55386   5.800   1.836   2.264 -0.1449  0.5649 -0.7402
17982SOL    HW155387   5.826   1.852   2.354 -0.2416 -3.1242  0.1003
17982SOL    HW255388   5.704   1.844   2.265 -0.1830  0.1015 -0.3900
17983SOL     OW55389   7.410   0.648   0.852 -0.1140  0.2902 -0.4019
17983SOL    HW155390   7.338   0.618   0.907 -0.5811  0.3611 -0.9604
17983SOL    HW255391   7.478   0.581   0.862  0.0491  0.6109  0.7219
17984SOL     OW55392   7.901   7.201   1.060 -0.4601 -0.2547  0.1849
17984SOL    HW155393   7.915   7.261   0.987 -1.4549 -0.5087 -0.2211
17984SOL    HW255394   7.974   7.140   1.054  0.8640  1.1820  0.9096
17985SOL     OW55395   5.124   0.722   0.639 -0.0921 -0.3528  0.7069
17985SOL    HW155396   5.110   0.803   0.591  1.6042 -1.3569 -1.6468
17985SOL    HW255397   5.133   0.654   0.572 -3.2742 -2.9322  2.5716
17986SOL     OW55398   6.379   1.219  11.871  0.1960  0.1154 -0.2427
17986SOL    HW155399   6.393   1.305  11.911  2.2333 -0.4443  0.3830
17986SOL    HW255400   6.465   1.178  11.872 -0.3006 -1.1434 -2.4531
17987SOL     OW55401   7.355   7.775  12.477 -0.1336 -0.3007  0.2630
17987SOL    HW155402   7.382   7.754  12.566  2.8689 -0.3973 -0.5342
17987SOL    HW255403   7.263   7.800  12.484 -0.6183 -2.3930  3.0091
17988SOL     OW55404   6.149   2.324   0.888 -0.6517  0.5937 -0.0034
17988SOL    HW155405   6.097   2.275   0.824 -0.7650  1.2125 -0.3937
17988SOL    HW255406   6.240   2.299   0.869 -0.6864  0.7469 -0.3901
17989SOL     OW55407   7.647   1.626  12.098 -0.9607 -0.3462  0.9284
17989SOL    HW155408   7.606   1.626  12.185 -1.1334  0.4031  0.8553
17989SOL    HW255409   7.582   1.668  12.042  0.4884  2.3629  1.1112
17990SOL     OW55410   6.065   2.220   2.021  0.1966  0.2209  0.5289
17990SOL    HW155411   6.130   2.154   2.044  0.5799  0.2100 -0.5551
17990SOL    HW255412   6.050   2.208   1.927 -2.2052 -0.5096  0.9519
17991SOL     OW55413   1.154   1.519  10.815  0.2391  0.0522 -0.0555
17991SOL    HW155414   1.116   1.594  10.860  0.0828 -0.3023  0.4053
17991SOL    HW255415   1.201   1.557  10.740  1.8807  0.8246  1.2889
17992SOL     OW55416   7.163   2.081   1.804 -0.1610 -0.2161  0.1675
17992SOL    HW155417   7.133   1.991   1.790  0.0128 -0.1984 -0.3110
17992SOL    HW255418   7.219   2.075   1.882  0.6425 -0.7009 -0.4344
17993SOL     OW55419   6.923   1.422  11.685  0.1572 -0.1376  0.0664
17993SOL    HW155420   6.964   1.467  11.611  0.8959  0.0920  0.6105
17993SOL    HW255421   6.914   1.331  11.656  0.2983 -0.0159 -0.3634
17994SOL     OW55422   7.482   0.267  12.355  0.4742  0.6418 -0.1105
17994SOL    HW155423   7.483   0.362  12.362  0.7174  0.7302 -1.1258
17994SOL    HW255424   7.574   0.242  12.355  0.4554  0.5314 -1.1122
17995SOL     OW55425   6.692   0.509   1.782 -1.0879  0.4536  0.5762
17995SOL    HW155426   6.646   0.587   1.815  0.2811  1.4520  0.2213
17995SOL    HW255427   6.689   0.447   1.855  0.1863  1.8935  1.9220
17996SOL     OW55428   6.951   1.990   2.239 -0.1902 -0.3552  0.2543
17996SOL    HW155429   7.003   1.910   2.241  0.7725  0.2610  0.6896
17996SOL    HW255430   6.884   1.977   2.305  1.4620  0.1474  2.1337
17997SOL     OW55431   0.190   6.445   0.202 -0.4290 -0.3788 -0.0575
17997SOL    HW155432   0.218   6.422   0.291  1.6384 -0.5848 -0.7149
17997SOL    HW255433   0.176   6.361   0.159  1.0418 -0.3698 -0.6247
17998SOL     OW55434   7.670   2.187   0.551  0.9329  0.5941  0.3371
17998SOL    HW155435   7.607   2.256   0.527 -0.1211 -0.4428  0.0583
17998SOL    HW255436   7.731   2.184   0.477 -1.2542 -1.3539 -1.5507
17999SOL     OW55437   5.471   0.499   2.281  0.2412 -0.6132 -0.0042
17999SOL    HW155438   5.391   0.549   2.298 -1.4337 -3.2056  0.2172
17999SOL    HW255439   5.542   0.561   2.299 -1.6606  1.2363  1.6767
18000SOL     OW55440   6.386   7.190   1.787 -0.3944 -0.0051 -0.0781
18000SOL    HW155441   6.378   7.146   1.702  1.9974  0.8688 -0.8361
18000SOL    HW255442   6.418   7.278   1.765 -0.3111  0.4392  1.7101
18001SOL     OW55443   5.116   6.728   2.354 -0.0495  0.3197  0.2530
18001SOL    HW155444   5.025   6.750   2.333  0.8637  2.7072 -1.6246
18001SOL    HW255445   5.139   6.659   2.292 -0.4298 -0.0242  0.4837
18002SOL     OW55446   5.619   3.047   2.642  0.5604  0.6691  1.0092
18002SOL    HW155447   5.660   3.080   2.722  0.5300  0.8900  0.9335
18002SOL    HW255448   5.543   3.104   2.629 -0.4484 -0.4423  1.7832
18003SOL     OW55449   0.406   0.107   2.747 -0.2715  0.2967  0.1660
18003SOL    HW155450   0.434   0.065   2.828  0.3319  0.2050 -0.0786
18003SOL    HW255451   0.358   0.185   2.775  0.4108  0.5698  0.6162
18004SOL     OW55452   7.103   0.078  12.202 -0.0824  0.1725 -0.2451
18004SOL    HW155453   7.195   0.057  12.221 -0.0587 -0.7214 -1.2579
18004SOL    HW255454   7.064  -0.006  12.177 -1.1257  0.5864 -0.0574
18005SOL     OW55455   6.172   1.460  12.386 -0.3887 -0.2495  0.4078
18005SOL    HW155456   6.153   1.390  12.323 -1.3401 -0.4544  0.9081
18005SOL    HW255457   6.261   1.489  12.364 -0.4954 -0.7012 -0.6606
18006SOL     OW55458   5.071   0.276   0.820  0.0348 -0.2350  0.4085
18006SOL    HW155459   5.046   0.368   0.828  0.7633 -0.0683  0.7706
18006SOL    HW255460   5.069   0.243   0.910  1.3545 -0.1519  0.4879
18007SOL     OW55461   6.461   0.871   1.547 -0.2228  0.0996  0.0978
18007SOL    HW155462   6.524   0.911   1.487 -0.2548  0.0615  0.0397
18007SOL    HW255463   6.395   0.831   1.490 -0.5514  0.5406  0.1663
18008SOL     OW55464   6.857   2.485   2.450  0.2744 -0.1896 -0.0348
18008SOL    HW155465   6.874   2.472   2.356  0.0723 -0.1508 -0.0768
18008SOL    HW255466   6.941   2.512   2.486  0.6565 -1.3832  0.0064
18009SOL     OW55467   5.927   0.382   0.188 -0.0659  0.0837  0.2370
18009SOL    HW155468   5.861   0.346   0.128 -0.2793 -0.5473  0.8413
18009SOL    HW255469   5.876   0.420   0.260  0.1504  1.7349 -0.4428
18010SOL     OW55470   6.107   1.824   1.887  0.4784  0.8575  0.3901
18010SOL    HW155471   6.089   1.842   1.979 -0.9766 -0.7472  0.4768
18010SOL    HW255472   6.035   1.866   1.839  0.4389  0.5021  0.1257
18011SOL     OW55473   7.259   2.377   0.993  0.0483  0.0502 -0.0614
18011SOL    HW155474   7.213   2.320   1.055 -2.3025  0.6582 -1.1123
18011SOL    HW255475   7.223   2.353   0.907  1.3556  0.9319 -0.8921
18012SOL     OW55476   7.820   7.054  11.148  0.6276 -0.3005 -0.0661
18012SOL    HW155477   7.882   7.107  11.199  0.8546 -1.0130  0.4094
18012SOL    HW255478   7.869   6.975  11.126 -0.2959 -1.1382  0.8244
18013SOL     OW55479   7.389   0.885   1.738  0.3415 -0.4783  0.3221
18013SOL    HW155480   7.337   0.870   1.658  0.8384  0.3992 -0.1869
18013SOL    HW255481   7.476   0.852   1.717  0.5749  0.0969  0.3537
18014SOL     OW55482   6.103   1.930   2.363 -0.0105 -0.1732 -0.5390
18014SOL    HW155483   6.189   1.972   2.353 -1.3051  2.3866 -1.7567
18014SOL    HW255484   6.053   1.991   2.418 -0.8965 -1.9594  0.7361
18015SOL     OW55485   6.305   2.049   2.109 -0.0442 -0.5415 -0.0412
18015SOL    HW155486   6.357   2.001   2.044  0.8612  1.0310 -0.5231
18015SOL    HW255487   6.340   2.020   2.193  0.9492 -0.2464 -0.3389
18016SOL     OW55488   6.237   2.689   1.992  0.0170  0.2113  0.0309
18016SOL    HW155489   6.324   2.664   1.961 -0.0115  0.8763 -0.5972
18016SOL    HW255490   6.177   2.633   1.943  0.1399 -1.3840  1.6036
18017SOL     OW55491   7.203   1.981   0.943 -0.1424  0.2028 -0.0360
18017SOL    HW155492   7.288   1.956   0.980  0.0450  0.0957 -0.5323
18017SOL    HW255493   7.144   1.981   1.018  0.2219 -0.0673  0.2576
18018SOL     OW55494   7.771   1.226  10.484 -0.5774 -0.0306  0.1575
18018SOL    HW155495   7.791   1.299  10.542  1.5564 -0.2743 -0.1933
18018SOL    HW255496   7.700   1.258  10.428  0.2375  1.7503  0.0751
18019SOL     OW55497   7.644   1.325   0.287  0.3122 -0.2451 -0.2110
18019SOL    HW155498   7.715   1.300   0.228  0.2641  0.9667 -0.8010
18019SOL    HW255499   7.633   1.419   0.274  0.1220  0.0181  1.5474
18020SOL     OW55500   1.347   2.478   0.790  0.0028 -0.0826  0.3388
18020SOL    HW155501   1.273   2.516   0.742  0.0924 -0.0185  0.2511
18020SOL    HW255502   1.378   2.549   0.846 -0.1651 -0.1882  0.5655
18021SOL     OW55503   0.089   7.420  12.401 -0.3207 -0.7297 -0.1026
18021SOL    HW155504   0.016   7.477  12.374  0.1242 -0.7585 -1.4512
18021SOL    HW255505   0.049   7.355  12.458 -1.1039  0.0569  0.2685
18022SOL     OW55506   7.463   0.971   1.102  0.2313  0.3998 -0.3692
18022SOL    HW155507   7.476   0.879   1.126 -0.3650  0.5225  0.4510
18022SOL    HW255508   7.499   1.020   1.176 -1.4042  0.7925  0.1937
18023SOL     OW55509   6.213   2.153  11.889  0.5019  0.3230 -1.0528
18023SOL    HW155510   6.254   2.192  11.966  2.2571 -0.0710 -1.7269
18023SOL    HW255511   6.239   2.061  11.892 -1.5930 -0.3013 -0.7562
18024SOL     OW55512   6.452   3.240  11.848 -0.3214  0.1352 -0.3240
18024SOL    HW155513   6.433   3.239  11.942 -1.1457 -0.8188 -0.4872
18024SOL    HW255514   6.542   3.274  11.843  0.6162 -1.8888  0.9977
18025SOL     OW55515   6.731   0.475   1.512  0.2455  0.6551 -0.0249
18025SOL    HW155516   6.819   0.505   1.536 -0.1351  2.1688 -0.4087
18025SOL    HW255517   6.682   0.477   1.595  0.2721  0.9267 -0.0151
18026SOL     OW55518   6.033   0.717   0.513 -0.4801  0.1295  0.0758
18026SOL    HW155519   5.972   0.733   0.585 -1.0972  0.8791 -0.5914
18026SOL    HW255520   6.052   0.804   0.478  2.0081  0.0550  1.0728
18027SOL     OW55521   6.523   1.126   0.183 -0.0922  0.0146 -0.3481
18027SOL    HW155522   6.527   1.082   0.268  0.0942  1.1359  0.2399
18027SOL    HW255523   6.430   1.141   0.168 -0.1443 -0.4038 -0.4709
18028SOL     OW55524   7.255   1.099   0.303  0.3790  0.0373  0.0324
18028SOL    HW155525   7.322   1.037   0.332  1.5207  0.8927 -0.6770
18028SOL    HW255526   7.179   1.045   0.282  0.6915 -0.9139  1.2803
18029SOL     OW55527   0.939   1.121   0.301  0.2796  0.1150  0.3679
18029SOL    HW155528   0.971   1.067   0.229 -1.4457 -0.9369  0.3217
18029SOL    HW255529   1.003   1.108   0.371  0.1158 -1.7759  0.2333
18030SOL     OW55530   6.676   1.851   0.624  0.3514 -0.6500  0.2619
18030SOL    HW155531   6.689   1.863   0.718 -1.5493 -0.5051  0.5552
18030SOL    HW255532   6.655   1.758   0.615 -0.0869 -0.5349  0.0779
18031SOL     OW55533   5.039   0.296   4.274  0.5117  0.5498 -0.0636
18031SOL    HW155534   4.992   0.215   4.257 -1.1527  0.9692  2.1236
18031SOL    HW255535   5.048   0.299   4.369 -1.2697  3.8268  0.1431
18032SOL     OW55536   6.069   1.592   1.299 -0.3099  0.3471 -0.3857
18032SOL    HW155537   5.976   1.573   1.314 -0.2406 -0.6812 -1.1045
18032SOL    HW255538   6.076   1.599   1.204  0.4974 -0.5153 -0.4051
18033SOL     OW55539   0.857   0.794   0.047 -0.5522 -0.1261  0.4827
18033SOL    HW155540   0.839   0.831   0.133 -0.9962  1.6894 -0.3560
18033SOL    HW255541   0.771   0.781   0.008 -0.3251  0.3022 -0.1807
18034SOL     OW55542   7.790   7.390   0.473  0.1849 -0.1746 -0.1452
18034SOL    HW155543   7.820   7.336   0.399  0.0461 -1.1248  0.4784
18034SOL    HW255544   7.854   7.461   0.478  0.3612 -0.2573 -0.9953
18035SOL     OW55545   5.036   2.421  11.009  0.7937 -0.0455 -0.2525
18035SOL    HW155546   4.958   2.431  11.065 -0.5203  0.7114 -2.1164
18035SOL    HW255547   5.067   2.332  11.028 -1.2714 -0.8545 -0.3141
18036SOL     OW55548   6.482   1.288   1.370  0.1920  0.1091  0.2996
18036SOL    HW155549   6.395   1.325   1.383 -0.0622 -0.0921 -0.7693
18036SOL    HW255550   6.498   1.236   1.449  0.1776  1.7289  1.4062
18037SOL     OW55551   6.724   0.428   1.084  0.1302 -0.1760 -0.6399
18037SOL    HW155552   6.639   0.390   1.104 -0.1600  0.5217 -0.5066
18037SOL    HW255553   6.766   0.365   1.025 -0.0246 -1.0499  0.1625
18038SOL     OW55554   6.232   1.420   1.432 -0.3839 -0.1726  0.3362
18038SOL    HW155555   6.159   1.370   1.469  0.8571 -1.3419  1.2728
18038SOL    HW255556   6.191   1.500   1.400 -1.9776 -0.4782  1.4626
18039SOL     OW55557   5.686   7.446   3.465  0.1830 -0.1065 -0.1114
18039SOL    HW155558   5.767   7.449   3.515 -0.5400 -0.1183  1.1007
18039SOL    HW255559   5.641   7.368   3.497 -2.0632  1.9466  2.1293
18040SOL     OW55560   7.809   0.714   0.741 -0.3423 -0.7646 -0.1453
18040SOL    HW155561   7.850   0.646   0.687  0.1455  1.3421 -2.5738
18040SOL    HW255562   7.718   0.714   0.714  0.3024  1.7037 -2.7093
18041SOL     OW55563   7.704   7.880  12.328  0.2077  0.4585 -0.0381
18041SOL    HW155564   7.703   7.952  12.265 -2.3596  2.6492  2.2158
18041SOL    HW255565   7.658   7.808  12.284  0.3075  1.1839 -1.3774
18042SOL     OW55566   6.400   0.565  11.389 -0.1984  0.2123 -0.2361
18042SOL    HW155567   6.480   0.606  11.355 -0.4030  0.5570 -0.3068
18042SOL    HW255568   6.428   0.525  11.471  0.6135 -1.7818 -1.4098
18043SOL     OW55569   6.555   2.472   2.011 -0.1472 -0.5018 -0.0292
18043SOL    HW155570   6.628   2.410   2.013  1.1515  0.9707  1.1460
18043SOL    HW255571   6.478   2.420   2.033  0.8205 -1.7839  0.4351
18044SOL     OW55572   6.827   2.866   0.448  0.1893  0.0850  0.7654
18044SOL    HW155573   6.758   2.917   0.406 -0.5321 -2.0361 -0.8303
18044SOL    HW255574   6.782   2.809   0.510  0.5205 -0.8521  0.1847
18045SOL     OW55575   6.584   1.017   1.326 -0.0382 -0.6272 -0.7417
18045SOL    HW155576   6.665   1.067   1.315 -0.4656  0.2012 -0.2505
18045SOL    HW255577   6.520   1.060   1.269 -0.4019 -0.6382 -0.3500
18046SOL     OW55578   0.416   0.788   0.831 -0.7086 -0.3488 -0.1022
18046SOL    HW155579   0.455   0.794   0.744 -0.6120  1.2793  0.0209
18046SOL    HW255580   0.486   0.814   0.891 -0.7985 -1.3700  0.4800
18047SOL     OW55581   5.456   2.613   1.528  0.5663  0.4824 -0.0832
18047SOL    HW155582   5.536   2.662   1.510  3.2094 -3.3244  0.0661
18047SOL    HW255583   5.444   2.621   1.622  1.8050 -0.1810  0.1622
18048SOL     OW55584   0.112   0.004   1.637  0.1454  0.1900 -0.1329
18048SOL    HW155585   0.058   0.030   1.563 -0.9981 -0.2656  0.5167
18048SOL    HW255586   0.050  -0.023   1.705  1.1793 -0.2502  0.6826
18049SOL     OW55587   0.345   0.166  11.756 -0.1219 -0.3414  0.4457
18049SOL    HW155588   0.270   0.140  11.703 -0.9765  0.1437  1.3739
18049SOL    HW255589   0.414   0.185  11.692 -1.4603  1.3630 -0.5879
18050SOL     OW55590   6.667   0.308   0.018  0.2751 -0.0455  0.1683
18050SOL    HW155591   6.685   0.216   0.001 -0.2697 -0.0240 -0.5660
18050SOL    HW255592   6.748   0.341   0.058  0.9562 -0.5276 -0.7701
18051SOL     OW55593   0.379   0.959   1.968  0.1351  0.0753  0.4958
18051SOL    HW155594   0.411   0.875   1.936  0.1058  0.2053  0.1192
18051SOL    HW255595   0.420   1.024   1.911  1.6414  0.4604  1.9215
18052SOL     OW55596   7.750   0.182  12.382  0.5745 -0.2320  0.7010
18052SOL    HW155597   7.811   0.252  12.405 -0.0598  0.1695  1.2098
18052SOL    HW255598   7.748   0.125  12.459 -1.2407  0.8900  1.5522
18053SOL     OW55599   7.513   1.265  12.293 -0.0377 -0.0046 -0.4718
18053SOL    HW155600   7.499   1.224  12.379 -0.8028  1.1966  0.0150
18053SOL    HW255601   7.538   1.355  12.314  1.3268 -0.1219 -1.5080
18054SOL     OW55602   5.168   1.077   1.563 -0.3981  0.1304 -0.0094
18054SOL    HW155603   5.191   1.137   1.634 -0.0268 -2.2385  2.0054
18054SOL    HW255604   5.081   1.106   1.534 -1.0289  0.5771  2.1521
18055SOL     OW55605   0.178   1.388   2.172  0.1171  0.4107 -0.6900
18055SOL    HW155606   0.262   1.344   2.185  0.4324  1.1531 -0.1589
18055SOL    HW255607   0.118   1.344   2.233  0.1366 -0.0459 -0.9938
18056SOL     OW55608   7.171   2.251   0.775  0.6838  0.0643 -0.0675
18056SOL    HW155609   7.180   2.162   0.809 -0.3059 -0.2812 -0.6819
18056SOL    HW255610   7.081   2.255   0.742  0.0376  1.8926  1.6912
18057SOL     OW55611   7.654   0.952   2.224 -0.0716  0.5657  0.0198
18057SOL    HW155612   7.618   0.909   2.302  0.2392  1.1623  0.4963
18057SOL    HW255613   7.595   0.925   2.153 -0.1617 -0.2562  0.3949
18058SOL     OW55614   5.861   2.698   1.017  0.3939  0.1539 -0.1127
18058SOL    HW155615   5.927   2.752   0.972  1.1852  0.2567  1.1288
18058SOL    HW255616   5.911   2.646   1.080 -0.6845  0.1006  0.7301
18059SOL     OW55617   5.400   0.904   2.257 -0.0575  0.1419 -0.1835
18059SOL    HW155618   5.440   0.821   2.229 -0.2790 -0.1981  0.4835
18059SOL    HW255619   5.386   0.953   2.176 -1.0297 -0.9730 -0.7154
18060SOL     OW55620   5.890   6.698   0.168  0.0193  0.1695 -0.1255
18060SOL    HW155621   5.964   6.670   0.113  0.3839 -0.3133  0.5765
18060SOL    HW255622   5.824   6.729   0.107  0.8812  0.7946 -0.7645
18061SOL     OW55623   6.806   0.064   1.125  0.1470  0.6593 -0.5109
18061SOL    HW155624   6.757   0.015   1.059  0.2866  1.0572 -0.9186
18061SOL    HW255625   6.890   0.082   1.083  0.0729  1.3057 -0.3925
18062SOL     OW55626   6.550   0.662  12.229  0.2239  0.2255  0.0193
18062SOL    HW155627   6.605   0.659  12.307 -0.2337 -0.5262  0.3283
18062SOL    HW255628   6.472   0.711  12.257  1.3278  2.6192 -0.8374
18063SOL     OW55629   0.156   6.711   0.253  0.6242  0.3218  0.1979
18063SOL    HW155630   0.131   6.715   0.345 -0.6644  0.6970 -0.1511
18063SOL    HW255631   0.146   6.619   0.229 -1.7521  0.6429 -0.2560
18064SOL     OW55632   6.985   0.864   2.685  0.2696 -0.6487  0.3426
18064SOL    HW155633   6.911   0.864   2.624 -0.0301 -1.7250  0.6914
18064SOL    HW255634   6.976   0.782   2.734  0.9316 -0.1642  1.3142
18065SOL     OW55635   0.032   1.482  12.059 -0.2269 -0.5685  0.1102
18065SOL    HW155636   0.041   1.446  11.971 -1.1935 -0.2895 -0.1163
18065SOL    HW255637  -0.001   1.410  12.112 -0.7135 -0.4413 -0.0111
18066SOL     OW55638   0.367   7.421  12.313  0.0306  0.3661 -0.3655
18066SOL    HW155639   0.277   7.452  12.298  0.4804  1.5900 -0.6784
18066SOL    HW255640   0.358   7.327  12.329 -1.2528  0.3860 -0.8704
18067SOL     OW55641   5.169   0.490   0.051 -0.2942 -0.4152 -0.2340
18067SOL    HW155642   5.217   0.476  -0.031 -0.4080  1.6380 -0.7070
18067SOL    HW255643   5.143   0.402   0.078 -0.0303 -1.1928 -2.2675
18068SOL     OW55644   6.465   0.731   0.597  0.1235  0.2847  0.0957
18068SOL    HW155645   6.470   0.813   0.547  1.0574 -0.5434 -1.2391
18068SOL    HW255646   6.533   0.740   0.664  2.2499 -0.4784 -1.8278
18069SOL     OW55647   5.150   0.659   2.957 -0.1911  0.1353  0.4134
18069SOL    HW155648   5.183   0.574   2.987 -1.2191 -0.5161 -0.2491
18069SOL    HW255649   5.055   0.651   2.963 -0.3127  1.0759 -0.1216
18070SOL     OW55650   0.289   0.961   2.209 -0.4285 -0.0317 -0.7184
18070SOL    HW155651   0.303   0.979   2.116 -0.3250  2.6275 -0.2663
18070SOL    HW255652   0.376   0.966   2.248 -0.5979 -0.0729 -0.3310
18071SOL     OW55653   1.167   0.748   1.650 -0.1944 -0.2757 -0.3320
18071SOL    HW155654   1.219   0.682   1.697 -1.9625 -1.1459  0.5039
18071SOL    HW255655   1.227   0.784   1.585  1.2367 -1.7152  0.1276
18072SOL     OW55656   6.826   0.163   1.768 -0.3707 -0.6174 -0.0023
18072SOL    HW155657   6.817   0.250   1.731  0.7825  0.3020  1.7385
18072SOL    HW255658   6.738   0.125   1.763 -1.5327  1.6737  1.6055
18073SOL     OW55659   7.651   1.846   0.300 -0.1014  0.2671  0.1143
18073SOL    HW155660   7.721   1.906   0.322  0.0011  0.5562 -0.9493
18073SOL    HW255661   7.600   1.891   0.232  0.2384 -0.9956 -1.0380
18074SOL     OW55662   7.430   0.775   0.166 -0.1227 -0.1293  0.1319
18074SOL    HW155663   7.378   0.695   0.173  1.3223 -1.1060  0.0342
18074SOL    HW255664   7.456   0.795   0.256 -2.2036  1.4588  0.4459
18075SOL     OW55665   5.884   0.353   1.432  0.5115 -0.2163  0.1312
18075SOL    HW155666   5.912   0.378   1.344  1.0412  2.5636  0.9876
18075SOL    HW255667   5.798   0.315   1.419  0.0761  1.1746 -1.5279
18076SOL     OW55668   5.096   7.940   2.355 -0.1786  0.4863  0.1476
18076SOL    HW155669   5.061   8.028   2.375  0.1903  0.8689 -0.8500
18076SOL    HW255670   5.061   7.885   2.425  1.3744  1.8342  2.0938
18077SOL     OW55671   4.201   0.859   2.992 -0.3041 -0.1874 -0.1498
18077SOL    HW155672   4.119   0.822   2.957 -0.7626 -0.9998  1.6683
18077SOL    HW255673   4.253   0.879   2.914 -1.0277 -2.4134 -1.3109
18078SOL     OW55674   3.915   1.364   1.450 -0.3896  0.4000  0.1022
18078SOL    HW155675   3.926   1.270   1.464  0.1832  0.8150  3.1899
18078SOL    HW255676   3.831   1.371   1.405 -0.8183 -1.5524  0.4904
18079SOL     OW55677   7.159   1.146   3.864 -0.0781  0.2472 -0.0278
18079SOL    HW155678   7.188   1.167   3.775 -1.6847 -1.2135 -0.9394
18079SOL    HW255679   7.192   1.058   3.881 -0.4101  0.2243  0.5376
18080SOL     OW55680   0.577   2.651   4.843 -0.0860  0.2789 -0.0527
18080SOL    HW155681   0.554   2.671   4.752  2.0302 -3.1095 -1.5345
18080SOL    HW255682   0.525   2.573   4.864  0.8679 -0.1060  0.9482
18081SOL     OW55683   7.067   1.044   3.557 -0.3614 -0.4025 -0.1932
18081SOL    HW155684   7.090   0.992   3.480  0.1703  0.2281 -0.4696
18081SOL    HW255685   7.053   0.979   3.627 -0.1239 -0.9334 -0.6350
18082SOL     OW55686   5.405   7.795   3.559  0.0865 -0.3312  0.9326
18082SOL    HW155687   5.491   7.816   3.523 -0.3815  2.2780  1.1422
18082SOL    HW255688   5.380   7.713   3.516  2.2567 -0.6872  0.2181
18083SOL     OW55689   5.688   1.410   3.323  0.0982  0.1331  0.0311
18083SOL    HW155690   5.682   1.481   3.386 -0.4859  0.8282 -0.7861
18083SOL    HW255691   5.780   1.407   3.299  0.0296  1.0210 -0.3754
18084SOL     OW55692   5.662   1.058   3.601 -0.0312  0.2372  0.2779
18084SOL    HW155693   5.632   1.111   3.675  1.6455  2.4226 -0.5024
18084SOL    HW255694   5.629   1.103   3.524  2.5386  1.0379 -0.4724
18085SOL     OW55695   0.027   0.511   3.552 -0.4239  0.3518  0.6877
18085SOL    HW155696   0.066   0.540   3.634 -1.4322 -0.6960  1.5785
18085SOL    HW255697   0.098   0.516   3.488  1.1492 -1.3131  2.1906
18086SOL     OW55698   7.306   1.615   2.146 -0.0549  0.2998  0.0767
18086SOL    HW155699   7.401   1.606   2.147 -0.1594 -1.2182  1.6956
18086SOL    HW255700   7.287   1.684   2.209 -0.0981 -1.7205  2.4588
18087SOL     OW55701   7.187   0.024   3.680  0.0208 -0.0317 -0.2334
18087SOL    HW155702   7.107   0.075   3.689 -1.0246 -1.6193 -0.0697
18087SOL    HW255703   7.214   0.037   3.589 -1.1953 -0.5314 -0.6871
18088SOL     OW55704   5.071   6.507   4.604  0.1661 -0.5435 -0.0452
18088SOL    HW155705   5.166   6.494   4.603  0.3796  0.7960 -1.5041
18088SOL    HW255706   5.040   6.450   4.674  2.0649 -0.8507  0.6154
18089SOL     OW55707   6.856   0.623   0.950 -0.3563  0.0260  0.2467
18089SOL    HW155708   6.857   0.709   0.993 -1.4839  0.0641  0.2232
18089SOL    HW255709   6.788   0.574   0.996  0.0104 -0.7272 -0.0013
18090SOL     OW55710   7.871   1.727   1.553 -0.0737  0.8350 -0.7307
18090SOL    HW155711   7.853   1.664   1.483 -0.7058  0.2489 -0.0557
18090SOL    HW255712   7.883   1.811   1.508 -1.3431  0.6317 -1.4792
18091SOL     OW55713   5.894   0.748   3.146 -0.2784  0.5307  0.0048
18091SOL    HW155714   5.922   0.807   3.216  1.0620 -2.1197  1.8754
18091SOL    HW255715   5.803   0.726   3.168  0.0221 -0.0064  0.7309
18092SOL     OW55716   6.708   0.891   2.191 -0.6142 -0.5442 -0.6418
18092SOL    HW155717   6.703   0.986   2.181 -1.2767 -0.6282 -1.1327
18092SOL    HW255718   6.622   0.859   2.163 -0.6314 -1.2356  0.1472
18093SOL     OW55719   4.348   1.210   4.075 -0.0658  0.1664 -0.6258
18093SOL    HW155720   4.266   1.239   4.115 -0.2671  1.0566 -1.6251
18093SOL    HW255721   4.414   1.224   4.143 -0.9427 -2.1146  0.7832
18094SOL     OW55722   6.074   7.658   3.386  0.3976 -0.1765  0.5628
18094SOL    HW155723   6.068   7.680   3.479  0.6513 -1.1804  0.8306
18094SOL    HW255724   6.155   7.607   3.378  0.2929 -0.2454 -0.1724
18095SOL     OW55725   6.499   0.779   2.055  0.0927 -0.2053  0.5788
18095SOL    HW155726   6.459   0.696   2.082  0.8119 -0.3776  1.1467
18095SOL    HW255727   6.512   0.770   1.961 -0.4827 -0.4564  0.5191
18096SOL     OW55728   7.223   1.663   3.090  0.3014 -0.2339 -0.5248
18096SOL    HW155729   7.291   1.721   3.058 -0.0078  1.2305  1.3367
18096SOL    HW255730   7.141   1.706   3.065  0.0557 -0.6792 -0.4962
18097SOL     OW55731   6.287   0.647   2.273  0.1578 -0.2938 -0.3702
18097SOL    HW155732   6.284   0.664   2.367  1.8096 -0.7355 -0.2068
18097SOL    HW255733   6.301   0.552   2.266 -0.1306 -0.2912 -1.0618
18098SOL     OW55734   6.389   3.309   0.705 -0.1932  0.0051 -0.3150
18098SOL    HW155735   6.351   3.358   0.632 -0.1899  0.2739 -0.1391
18098SOL    HW255736   6.314   3.285   0.760 -0.4690 -2.1352 -1.5396
18099SOL     OW55737   4.365   2.498   0.656  0.1386  0.0029 -0.2679
18099SOL    HW155738   4.359   2.495   0.561  0.8017 -2.7382 -0.3301
18099SOL    HW255739   4.416   2.576   0.675  0.3479  0.3784 -2.1871
18100SOL     OW55740   6.970   1.181   2.259 -0.4744  0.1897  0.3097
18100SOL    HW155741   6.963   1.111   2.323 -2.6171  0.0519  0.0272
18100SOL    HW255742   7.052   1.164   2.212 -1.0975 -2.3596  0.0047
18101SOL     OW55743   7.840   3.151   1.738 -0.1879 -0.1455  0.6619
18101SOL    HW155744   7.776   3.110   1.797  1.7119 -1.9880  1.6021
18101SOL    HW255745   7.882   3.219   1.791  0.6820 -0.9872  1.0851
18102SOL     OW55746   5.981   0.099   3.087  1.0200  0.2032 -0.7588
18102SOL    HW155747   6.009   0.071   3.000  0.4308  0.1454 -0.9354
18102SOL    HW255748   5.985   0.019   3.140  1.9564  0.3637 -0.5778
18103SOL     OW55749   6.812   1.895   1.969 -0.4793  0.1894 -0.4843
18103SOL    HW155750   6.880   1.884   2.036 -1.0241  0.8797  0.2102
18103SOL    HW255751   6.816   1.815   1.917  0.7098  0.1218 -0.3197
18104SOL     OW55752   7.542   0.816   3.858 -0.0147  0.0110 -0.1301
18104SOL    HW155753   7.578   0.794   3.944  0.3625  0.2768 -0.2200
18104SOL    HW255754   7.560   0.909   3.848 -2.8608  0.7751  0.8650
18105SOL     OW55755   6.671   1.313   2.939 -0.3721 -0.3263 -0.0117
18105SOL    HW155756   6.750   1.366   2.953 -0.7163  0.3038 -0.4186
18105SOL    HW255757   6.608   1.373   2.899 -1.4958 -0.4961  1.4403
18106SOL     OW55758   5.687   7.826   3.516  0.3768 -0.1504 -0.7847
18106SOL    HW155759   5.688   7.894   3.584  0.4278 -1.5480  0.6618
18106SOL    HW255760   5.744   7.757   3.551 -0.0742 -1.1571 -1.9954
18107SOL     OW55761   7.752   2.668   2.078  0.0753  0.3915 -0.0485
18107SOL    HW155762   7.817   2.738   2.086 -0.2285  0.7083 -0.3356
18107SOL    HW255763   7.738   2.639   2.168 -0.5663  1.4121  0.1976
18108SOL     OW55764   6.839   2.327   1.671 -0.2469 -0.1225 -0.3878
18108SOL    HW155765   6.844   2.309   1.765  0.5063 -0.8372 -0.5611
18108SOL    HW255766   6.793   2.251   1.635  2.4018 -1.5001 -1.0380
18109SOL     OW55767   5.901   1.295   3.595  0.7359 -0.4547  0.0894
18109SOL    HW155768   5.833   1.232   3.618 -0.0399  0.2645 -0.1957
18109SOL    HW255769   5.952   1.306   3.675 -1.0965  0.9991  1.1553
18110SOL     OW55770   5.369   0.720   2.809 -0.2648 -0.3416 -0.2652
18110SOL    HW155771   5.286   0.694   2.848  0.0689 -0.9362  0.0673
18110SOL    HW255772   5.421   0.640   2.807  0.5281  0.1454  0.1162
18111SOL     OW55773   4.918   0.472   1.605  0.1421  0.6291  0.4035
18111SOL    HW155774   4.922   0.471   1.700  1.0229 -1.2668  0.3973
18111SOL    HW255775   4.985   0.409   1.578 -0.3541  0.8463 -1.4579
18112SOL     OW55776   6.729   2.971   3.057  0.3809  0.1369  0.1373
18112SOL    HW155777   6.700   3.002   2.971 -0.8178  1.3304  0.9378
18112SOL    HW255778   6.782   3.042   3.091  0.8112 -0.3142  0.4171
18113SOL     OW55779   0.496   1.158   0.672 -0.4189 -0.4171  0.0630
18113SOL    HW155780   0.514   1.224   0.605 -1.5316  0.1814  0.3159
18113SOL    HW255781   0.487   1.208   0.753  0.1135 -1.0436  0.5180
18114SOL     OW55782   6.438   2.177   1.797 -0.3790  0.4180 -0.4410
18114SOL    HW155783   6.357   2.183   1.746 -2.0660 -1.7615  1.7564
18114SOL    HW255784   6.427   2.241   1.867  0.8919  1.7401 -1.3880
18115SOL     OW55785   4.743   1.654   3.504 -0.5639  0.0147  0.2733
18115SOL    HW155786   4.679   1.724   3.516  0.4757  1.1893 -0.7454
18115SOL    HW255787   4.803   1.664   3.577 -0.3564  0.2558  0.0705
18116SOL     OW55788   7.412   1.830   4.134  0.1992 -0.4368  0.1349
18116SOL    HW155789   7.479   1.898   4.127 -0.5342  0.2880  0.0232
18116SOL    HW255790   7.407   1.791   4.047  0.6976 -0.7288  0.2275
18117SOL     OW55791   5.236   7.171   5.426 -0.0008 -0.4152 -0.1375
18117SOL    HW155792   5.186   7.253   5.423  0.8348  0.2379  1.8165
18117SOL    HW255793   5.325   7.197   5.402  0.0179 -1.0090 -0.7283
18118SOL     OW55794   7.003   0.762   2.405 -0.1605 -0.2569 -0.4564
18118SOL    HW155795   6.969   0.681   2.444  0.9386 -1.3654 -1.7049
18118SOL    HW255796   7.040   0.735   2.321  2.3452  1.1301  0.0965
18119SOL     OW55797   4.788   2.790   1.307  0.2345  1.1596 -0.0381
18119SOL    HW155798   4.785   2.767   1.399 -0.0635  1.9838  0.1709
18119SOL    HW255799   4.696   2.801   1.282 -0.0294 -2.8041 -1.4599
18120SOL     OW55800   4.511   1.083   1.122  0.2321  0.4653 -0.0702
18120SOL    HW155801   4.572   1.053   1.189  0.2343  0.6251 -0.0023
18120SOL    HW255802   4.567   1.109   1.048  0.2217  0.1097 -0.2094
18121SOL     OW55803   6.660   2.650   2.844  0.0814 -0.1059 -0.2598
18121SOL    HW155804   6.745   2.647   2.887  0.8217 -1.6918 -1.7311
18121SOL    HW255805   6.654   2.739   2.809  0.3321  0.5692  1.3074
18122SOL     OW55806   7.077   1.311   0.707 -0.2030  0.4414  0.0281
18122SOL    HW155807   7.126   1.314   0.789  1.1790 -0.8858 -0.6848
18122SOL    HW255808   7.129   1.363   0.646 -0.6310  0.4982 -0.2937
18123SOL     OW55809   7.725   2.309   4.003  0.2475 -0.2364 -0.0114
18123SOL    HW155810   7.655   2.322   3.939 -0.4568  0.9832  0.9494
18123SOL    HW255811   7.806   2.324   3.954 -0.2418  0.0069 -0.7629
18124SOL     OW55812   7.208   0.551   1.915  0.5032 -0.0824 -0.4972
18124SOL    HW155813   7.263   0.594   1.981  2.2919  0.5575 -2.3271
18124SOL    HW255814   7.143   0.616   1.892  1.6623  0.7895 -1.4260
18125SOL     OW55815   6.410   0.247   2.855  0.3801 -0.3644  0.4058
18125SOL    HW155816   6.359   0.167   2.847  0.4516 -0.4050  0.3531
18125SOL    HW255817   6.368   0.295   2.926  1.2330 -1.1329  1.4712
18126SOL     OW55818   5.091   0.200   3.249  0.1414  0.0499 -0.3505
18126SOL    HW155819   5.143   0.255   3.191 -0.7042  2.7263  1.2331
18126SOL    HW255820   5.153   0.168   3.314  0.7486 -1.4352 -1.6068
18127SOL     OW55821   4.694   1.468   2.064 -0.5972 -0.2832 -0.0836
18127SOL    HW155822   4.679   1.435   2.152  0.4767 -0.4128  0.0651
18127SOL    HW255823   4.712   1.561   2.076 -0.9931 -0.1849 -0.2294
18128SOL     OW55824   4.925   1.576   3.712  0.2973 -0.6392  0.6558
18128SOL    HW155825   4.869   1.499   3.721  0.4254 -1.1510 -2.0945
18128SOL    HW255826   5.005   1.553   3.759 -0.6826 -1.0264  2.2106
18129SOL     OW55827   5.326   7.496   2.271  0.3624 -0.4549  0.0204
18129SOL    HW155828   5.384   7.571   2.255 -0.5771  0.5534  1.0963
18129SOL    HW255829   5.284   7.480   2.187 -0.6514  1.3430  0.1254
18130SOL     OW55830   5.840   0.214   2.230 -0.1647 -0.1926 -0.1389
18130SOL    HW155831   5.826   0.305   2.254 -1.0801 -0.7357  1.5743
18130SOL    HW255832   5.880   0.218   2.143  0.8401  1.8419  0.3622
18131SOL     OW55833   6.027   2.241   2.465  0.0434 -0.5638 -0.3583
18131SOL    HW155834   5.968   2.250   2.539  0.3603 -2.0836  0.1235
18131SOL    HW255835   6.074   2.324   2.461 -1.8461  0.5404 -0.5365
18132SOL     OW55836   5.121   0.193   2.476  0.5525  0.0613  0.4819
18132SOL    HW155837   5.117   0.273   2.529 -0.3767 -0.3178  1.0226
18132SOL    HW255838   5.182   0.213   2.406 -0.8041  1.8019 -0.2843
18133SOL     OW55839   7.461   3.192   1.719  0.3025  0.1568  0.3319
18133SOL    HW155840   7.519   3.116   1.727  0.6347  0.4015  0.2844
18133SOL    HW255841   7.411   3.192   1.800  1.4787  0.8382  1.1026
18134SOL     OW55842   4.875   1.838   4.000  0.3554 -0.4029 -0.1615
18134SOL    HW155843   4.890   1.747   4.025  1.1645 -0.5306 -1.0565
18134SOL    HW255844   4.920   1.847   3.916  1.5591  1.2062  0.6023
18135SOL     OW55845   0.063   1.703   0.539 -0.4107 -1.0708 -0.5391
18135SOL    HW155846   0.113   1.622   0.543 -0.0679 -0.8405  0.1921
18135SOL    HW255847   0.093   1.746   0.459  0.6307 -0.9080 -0.0775
18136SOL     OW55848   5.608   2.539   3.445  0.4631  0.4413  0.5021
18136SOL    HW155849   5.638   2.449   3.460 -1.5572 -0.6651 -1.4337
18136SOL    HW255850   5.666   2.573   3.377 -0.8265 -0.7136 -1.2681
18137SOL     OW55851   0.291   0.659   1.649 -0.0166 -0.0453 -0.5364
18137SOL    HW155852   0.316   0.686   1.560 -0.0100  2.3394  0.1224
18137SOL    HW255853   0.233   0.728   1.680  0.9807 -0.1472  1.7736
18138SOL     OW55854   6.218   1.207   1.940  0.3140  0.3132  0.2287
18138SOL    HW155855   6.156   1.173   2.004  0.6791 -0.9594 -0.0798
18138SOL    HW255856   6.298   1.156   1.953  1.0693  1.4252  0.1203
18139SOL     OW55857   5.348   1.629   3.155  0.0801  0.3543  0.2258
18139SOL    HW155858   5.366   1.689   3.228 -0.6905  1.1111 -0.1933
18139SOL    HW255859   5.361   1.682   3.077 -0.6692 -0.0106 -0.1528
18140SOL     OW55860   5.972   0.489   1.670 -0.5206 -0.1981  0.0418
18140SOL    HW155861   5.939   0.413   1.622  0.4419 -1.8314  1.8360
18140SOL    HW255862   6.042   0.523   1.614 -0.7003 -0.8742 -0.6184
18141SOL     OW55863   6.092   7.789   4.692 -0.9897  0.1545  0.6356
18141SOL    HW155864   6.026   7.859   4.690 -1.2927 -0.0900  1.5680
18141SOL    HW255865   6.098   7.765   4.784  0.4924  0.2484  0.5848
18142SOL     OW55866   7.044   7.103   1.060 -0.1622  0.2271 -0.8363
18142SOL    HW155867   7.048   7.012   1.089  0.3879  0.4946 -0.0319
18142SOL    HW255868   7.125   7.115   1.010 -0.8420 -0.0741 -2.0567
18143SOL     OW55869   6.185   1.424   3.770 -0.5578 -0.3740  0.0355
18143SOL    HW155870   6.240   1.449   3.844 -1.4438 -2.3179  1.4555
18143SOL    HW255871   6.124   1.496   3.760  0.5984  0.6508  0.1032
18144SOL     OW55872   7.723   2.001   2.478  0.3139 -0.5161  0.0105
18144SOL    HW155873   7.758   2.024   2.392  1.6021 -0.7603  0.4423
18144SOL    HW255874   7.785   1.937   2.513 -0.0115 -0.1910  1.2453
18145SOL     OW55875   6.370   1.005   3.956 -0.0422 -0.0434  0.0852
18145SOL    HW155876   6.452   0.960   3.979  0.2039  0.6052  0.5237
18145SOL    HW255877   6.309   0.980   4.026  0.5185  1.4177  1.1522
18146SOL     OW55878   6.357   1.022   2.097 -0.1322  0.0116  0.5656
18146SOL    HW155879   6.402   0.941   2.072 -2.7455 -0.5166 -3.4198
18146SOL    HW255880   6.280   0.993   2.146 -0.2574  0.2003  0.4826
18147SOL     OW55881   5.343   1.426   3.632 -0.0720  0.4111 -0.0818
18147SOL    HW155882   5.371   1.473   3.711 -0.9297 -0.8554  1.0246
18147SOL    HW255883   5.281   1.485   3.590 -1.5691  0.0930  1.5816
18148SOL     OW55884   6.362   7.894   0.947  0.2764 -0.7608  0.9713
18148SOL    HW155885   6.337   7.809   0.909 -1.7490  0.2701 -0.1929
18148SOL    HW255886   6.298   7.909   1.017  0.4894 -0.1001  1.0329
18149SOL     OW55887   6.428   3.088   0.478 -0.3262 -0.2414 -0.1457
18149SOL    HW155888   6.395   3.148   0.411  1.1566 -0.3256 -0.9911
18149SOL    HW255889   6.433   3.141   0.558 -1.0627  0.1567 -0.3539
18150SOL     OW55890   5.918   7.993   4.724  0.2035 -0.7369  0.5978
18150SOL    HW155891   5.934   8.079   4.764 -2.2148 -0.2055  0.5594
18150SOL    HW255892   5.823   7.988   4.715  0.3090 -3.3238  0.3121
18151SOL     OW55893   7.396   0.926   0.449  0.1818  0.1176  0.3679
18151SOL    HW155894   7.342   0.981   0.506  0.2333  0.5563 -0.0036
18151SOL    HW255895   7.406   0.845   0.498 -0.6240  0.1123  0.5473
18152SOL     OW55896   4.901   1.043   4.537  0.2983 -0.0806  0.0777
18152SOL    HW155897   4.892   1.041   4.442 -1.5113  1.4536  0.1585
18152SOL    HW255898   4.988   1.006   4.554  1.5204  1.4660 -2.3022
18153SOL     OW55899   6.853   1.935   3.356 -0.5244 -0.7186  0.3662
18153SOL    HW155900   6.772   1.986   3.359 -0.7603 -0.7692 -2.3189
18153SOL    HW255901   6.829   1.849   3.389 -1.4632 -0.5928  0.0351
18154SOL     OW55902   5.991   1.999   2.964  0.0942  0.2172 -0.2917
18154SOL    HW155903   6.060   1.960   2.911  0.8354  2.0256 -0.7216
18154SOL    HW255904   5.976   2.085   2.925 -1.1323  0.5909  0.9044
18155SOL     OW55905   6.270   0.829   2.527  0.2545  0.7088  0.4548
18155SOL    HW155906   6.364   0.830   2.548  0.3938 -0.8820  0.0269
18155SOL    HW255907   6.250   0.919   2.504  2.0073  0.8353 -0.7802
18156SOL     OW55908   7.887   0.411   2.146  0.1372  0.0144  0.3138
18156SOL    HW155909   7.841   0.495   2.141  0.7128  0.4236  1.4318
18156SOL    HW255910   7.829   0.355   2.199  0.2257  0.0371  0.4341
18157SOL     OW55911   4.974   6.864   4.060 -0.4673 -0.5002  0.3091
18157SOL    HW155912   4.967   6.940   4.118  0.0534  0.1568 -0.4618
18157SOL    HW255913   4.919   6.887   3.984  0.5151 -0.4374 -0.4003
18158SOL     OW55914   4.979   1.747   0.459  0.1815 -0.4443  0.1907
18158SOL    HW155915   4.897   1.791   0.438  1.1554  2.2034  1.3977
18158SOL    HW255916   4.960   1.694   0.536 -0.5174 -0.2730  0.1395
18159SOL     OW55917   5.935   0.036   2.448  0.4655 -0.0432  0.9203
18159SOL    HW155918   5.900   0.092   2.379 -1.1600 -1.2208  0.7281
18159SOL    HW255919   5.941   0.093   2.525  0.1765  0.7323  0.3759
18160SOL     OW55920   7.701   7.760   1.581  0.1403 -0.6408  0.2480
18160SOL    HW155921   7.745   7.718   1.655  0.1133 -0.9871  0.0698
18160SOL    HW255922   7.714   7.700   1.508 -0.7443 -0.8170  0.2231
18161SOL     OW55923   0.237   3.909   3.208  0.1357  0.4039  0.4614
18161SOL    HW155924   0.247   3.839   3.144  0.2993  0.7543  0.0975
18161SOL    HW255925   0.319   3.908   3.258  0.6329  1.0743 -0.3014
18162SOL     OW55926   0.168   2.447   3.054 -0.4607  0.2482  0.1181
18162SOL    HW155927   0.240   2.427   2.994 -1.0672  2.1381 -1.3345
18162SOL    HW255928   0.118   2.365   3.060  1.9959 -1.2840  1.5884
18163SOL     OW55929   0.194   0.241   2.396  0.1696 -0.1542 -0.2702
18163SOL    HW155930   0.195   0.174   2.328 -1.6152  0.1086 -0.5948
18163SOL    HW255931   0.246   0.313   2.359 -1.8605  0.5191 -1.9674
18164SOL     OW55932   7.131   2.498   2.493 -0.2245  0.0595  0.2018
18164SOL    HW155933   7.209   2.533   2.449 -0.9877  1.1412 -0.3290
18164SOL    HW255934   7.115   2.414   2.450  0.9610 -0.4496  0.7000
18165SOL     OW55935   0.087   1.560   3.305 -0.0683  0.0413 -0.0457
18165SOL    HW155936   0.069   1.643   3.260  0.1747  0.6967  1.0215
18165SOL    HW255937   0.063   1.577   3.396 -0.2885 -1.1618  0.1334
18166SOL     OW55938   7.435   7.601   3.234  0.2023  0.0391 -0.3325
18166SOL    HW155939   7.451   7.663   3.305  1.5270 -2.3903  1.6767
18166SOL    HW255940   7.343   7.612   3.212 -0.0447  1.4201  1.2306
18167SOL     OW55941   5.389   2.495   3.074 -0.2705 -0.3662  0.2355
18167SOL    HW155942   5.483   2.512   3.062 -0.5450  0.6838 -0.5528
18167SOL    HW255943   5.385   2.404   3.104  0.9138 -0.9784 -1.3104
18168SOL     OW55944   7.032   3.551   3.446  0.6415 -0.1859  0.1386
18168SOL    HW155945   7.044   3.495   3.522  2.6909  0.2334  0.2044
18168SOL    HW255946   7.036   3.640   3.481 -1.1076  0.0429 -0.1522
18169SOL     OW55947   0.029   1.293   2.387  0.6112 -0.7348 -0.0537
18169SOL    HW155948   0.007   1.199   2.389  0.3918 -0.7151 -1.0017
18169SOL    HW255949  -0.055   1.337   2.402  0.2793 -0.6829 -1.8244
18170SOL     OW55950   6.481   1.858   3.359 -0.4807  0.0114 -0.3816
18170SOL    HW155951   6.550   1.897   3.413  1.9348 -0.5257 -2.8619
18170SOL    HW255952   6.478   1.912   3.281 -2.9075 -0.0345 -0.3844
18171SOL     OW55953   5.607   1.655   2.592 -0.5594 -0.0482 -0.3058
18171SOL    HW155954   5.663   1.587   2.628  1.4557  0.8461 -1.5404
18171SOL    HW255955   5.586   1.625   2.503  3.4507  2.3578 -2.3538
18172SOL     OW55956   0.101   1.788   4.882  0.3451  0.5931  0.4725
18172SOL    HW155957   0.103   1.694   4.901 -3.3822 -0.0906 -1.5070
18172SOL    HW255958   0.156   1.797   4.804 -1.1423 -0.5338 -0.8017
18173SOL     OW55959   5.291   0.374   3.542  0.7992  0.0635 -0.1995
18173SOL    HW155960   5.199   0.366   3.516  1.2982 -1.5957 -1.6117
18173SOL    HW255961   5.288   0.381   3.637 -0.7677 -0.3402 -0.1856
18174SOL     OW55962   3.413   0.847   3.070  0.1903 -0.0832 -0.3415
18174SOL    HW155963   3.413   0.752   3.059 -2.5861 -0.3486  1.1370
18174SOL    HW255964   3.322   0.873   3.053 -0.0945  1.7262  3.1687
18175SOL     OW55965   7.173   1.798   1.370  0.3411 -0.0060 -0.0212
18175SOL    HW155966   7.131   1.796   1.284  1.6977  2.1369 -0.8277
18175SOL    HW255967   7.102   1.818   1.431 -0.4394 -0.3116 -0.8120
18176SOL     OW55968   4.863   1.194   3.701  0.0890  0.5652  0.0371
18176SOL    HW155969   4.905   1.227   3.621 -0.4214  2.1376  0.3889
18176SOL    HW255970   4.778   1.160   3.670  1.1189 -1.7224 -0.5208
18177SOL     OW55971   4.535   7.620   4.260 -0.1279  0.6589 -0.1104
18177SOL    HW155972   4.472   7.648   4.327 -0.6997 -0.8043  0.0143
18177SOL    HW255973   4.603   7.573   4.310 -1.1276 -1.4265 -0.5832
18178SOL     OW55974   3.541   7.875   3.690  0.1191 -0.2514 -0.5483
18178SOL    HW155975   3.562   7.875   3.596  2.0390 -1.3869 -0.1856
18178SOL    HW255976   3.504   7.788   3.706 -1.1222  0.2882 -0.4044
18179SOL     OW55977   6.394   0.419   2.410 -0.0997 -0.4229 -0.5578
18179SOL    HW155978   6.397   0.440   2.503 -0.3735 -0.1169 -0.6155
18179SOL    HW255979   6.475   0.456   2.375 -1.0510  1.4972 -0.8420
18180SOL     OW55980   5.497   0.941   4.651 -0.0625 -0.1436  0.4667
18180SOL    HW155981   5.478   1.035   4.655 -0.9670 -0.2722 -0.5942
18180SOL    HW255982   5.577   0.935   4.598 -1.0101 -0.0743 -1.0217
18181SOL     OW55983   1.124   1.648   2.386 -0.3499  0.3312  0.2522
18181SOL    HW155984   1.164   1.647   2.299 -0.5835 -0.0415  0.1451
18181SOL    HW255985   1.125   1.740   2.412  0.0652  0.3969  0.0158
18182SOL     OW55986   0.253   1.564   2.743  0.2766  0.3619 -0.0265
18182SOL    HW155987   0.305   1.541   2.667  0.0421 -0.1847 -0.0242
18182SOL    HW255988   0.208   1.483   2.768 -0.3351  0.7455  0.1561
18183SOL     OW55989   7.238   1.258   3.608  0.4479 -0.1068 -0.3764
18183SOL    HW155990   7.179   1.192   3.571  1.3700 -1.0771 -0.1668
18183SOL    HW255991   7.217   1.339   3.561 -1.0131 -0.4309 -0.3354
18184SOL     OW55992   5.917   1.600   2.155  0.2160  0.5446 -0.2768
18184SOL    HW155993   5.928   1.693   2.136  0.3998  0.4804 -0.4954
18184SOL    HW255994   6.002   1.561   2.134  0.1424  0.3294 -0.1802
18185SOL     OW55995   5.564   2.779   2.348 -0.1334  0.2757 -0.4954
18185SOL    HW155996   5.506   2.856   2.348  1.3399  1.4322 -0.1480
18185SOL    HW255997   5.591   2.769   2.439  1.2432  0.5863 -0.8463
18186SOL     OW55998   6.974   0.141   2.976  0.0809 -0.2390 -0.5596
18186SOL    HW155999   6.980   0.235   2.959 -0.1289 -0.3459 -1.2718
18186SOL    HW256000   6.967   0.101   2.889  2.2885 -1.0761 -0.4229
18187SOL     OW56001   6.264   0.431   3.010  0.4172 -0.2156  0.8647
18187SOL    HW156002   6.248   0.423   3.104 -0.7984 -0.6547  0.6378
18187SOL    HW256003   6.181   0.461   2.974  0.9075  0.0589 -0.0625
18188SOL     OW56004   5.397   0.456   4.203  0.2392 -0.0880 -0.0966
18188SOL    HW156005   5.319   0.446   4.148  0.9377  1.4328 -1.4594
18188SOL    HW256006   5.384   0.539   4.249  0.0820 -0.9003  1.4001
18189SOL     OW56007   0.575   2.568   2.213  0.4896 -0.2016 -0.1609
18189SOL    HW156008   0.555   2.476   2.200  0.0215 -0.0292 -0.7241
18189SOL    HW256009   0.527   2.613   2.143 -0.7620  0.6293  1.1682
18190SOL     OW56010   7.842   0.731   2.454  0.3741  0.4967  0.3419
18190SOL    HW156011   7.916   0.753   2.397  0.6338  0.3530  0.6190
18190SOL    HW256012   7.780   0.687   2.397 -0.3485  2.3124 -0.3271
18191SOL     OW56013   7.933   0.602   0.346  0.2634 -0.4885 -0.3117
18191SOL    HW156014   7.907   0.565   0.431  1.3234 -1.5430 -0.4223
18191SOL    HW256015   7.913   0.695   0.354 -0.2790 -0.6729  0.8479
18192SOL     OW56016   5.887   7.272   2.525 -0.8809  0.1797 -0.3630
18192SOL    HW156017   5.917   7.346   2.577 -0.7661 -0.3719  0.3804
18192SOL    HW256018   5.796   7.260   2.552 -0.6053 -0.5680  0.2801
18193SOL     OW56019   4.822   2.035   3.117 -0.2029 -0.3565 -0.3872
18193SOL    HW156020   4.728   2.025   3.105 -0.3765  0.0737  0.5665
18193SOL    HW256021   4.861   1.975   3.053 -1.1481 -1.7171  0.2713
18194SOL     OW56022   7.030   0.020   1.550  0.2574 -0.0527  0.0042
18194SOL    HW156023   6.951   0.072   1.535 -1.4984 -2.4543  0.5165
18194SOL    HW256024   7.064   0.002   1.462  0.9443  1.8997 -0.1882
18195SOL     OW56025   7.569   1.392   1.696 -0.3566 -0.1161  0.1856
18195SOL    HW156026   7.581   1.451   1.770  0.4014  0.4040 -0.3417
18195SOL    HW256027   7.653   1.349   1.685 -0.5166 -0.3206 -0.2624
18196SOL     OW56028   6.275   0.556   1.802 -0.3373 -0.0259  0.1452
18196SOL    HW156029   6.254   0.543   1.709 -1.6159  1.8327  0.1039
18196SOL    HW256030   6.277   0.468   1.839  0.1465 -0.8032 -1.6305
18197SOL     OW56031   0.077   2.187   3.005 -0.3148 -0.5590  0.0644
18197SOL    HW156032   0.039   2.101   3.023 -0.1559 -0.8451 -0.9030
18197SOL    HW256033   0.142   2.170   2.937  0.2084  0.2230  0.3630
18198SOL     OW56034   0.228   1.684   4.473 -0.1866 -0.0789 -0.1368
18198SOL    HW156035   0.250   1.598   4.436 -1.5457 -0.2110 -0.6925
18198SOL    HW256036   0.140   1.673   4.508  0.2009  0.6895  1.1510
18199SOL     OW56037   0.855   3.276   3.246 -0.1352  0.4651 -0.2920
18199SOL    HW156038   0.847   3.366   3.215  2.3853  0.8287 -0.0916
18199SOL    HW256039   0.862   3.284   3.341  0.7248  0.1182 -0.3227
18200SOL     OW56040   7.073   1.805   4.717  0.1404  0.0445  0.3939
18200SOL    HW156041   7.130   1.745   4.765  1.6871  1.2174  0.0921
18200SOL    HW256042   7.018   1.844   4.784 -0.4470 -1.2095  0.6729
18201SOL     OW56043   6.150   0.987   4.112 -0.4970 -0.2845  0.3804
18201SOL    HW156044   6.154   1.006   4.206 -1.2374 -1.1548  0.5997
18201SOL    HW256045   6.117   0.897   4.107 -0.6839 -0.1687 -0.7212
18202SOL     OW56046   7.724   0.229   2.258 -0.2133 -0.8430 -0.5133
18202SOL    HW156047   7.752   0.159   2.199  0.5693 -0.0133 -1.1555
18202SOL    HW256048   7.703   0.184   2.340  0.3706 -1.8130 -0.8793
18203SOL     OW56049   7.322   0.160   1.644 -0.0570 -0.4539  0.0087
18203SOL    HW156050   7.378   0.084   1.627  0.3773 -0.1810  0.1994
18203SOL    HW256051   7.251   0.126   1.698 -0.9213 -1.1312 -1.4822
18204SOL     OW56052   7.332   1.995   1.995 -0.3116  0.3142  0.7527
18204SOL    HW156053   7.347   1.916   2.046  0.6808  0.4438  0.6876
18204SOL    HW256054   7.403   1.995   1.931 -1.8671 -0.1764 -1.0677
18205SOL     OW56055   6.222   1.251   3.556  0.1076  0.2227 -0.0457
18205SOL    HW156056   6.264   1.165   3.560  0.5219  0.3160 -1.4869
18205SOL    HW256057   6.234   1.289   3.643 -1.5367 -1.8083  1.1448
18206SOL     OW56058   4.553   7.478   3.521  0.5080 -0.1844  0.1484
18206SOL    HW156059   4.489   7.549   3.532  1.3206  0.6604 -0.4160
18206SOL    HW256060   4.601   7.501   3.442  2.5264  0.0242  1.3646
18207SOL     OW56061   0.348   0.670   2.524 -0.3561 -0.2474  0.0007
18207SOL    HW156062   0.425   0.709   2.564  0.8390 -2.7176  0.3191
18207SOL    HW256063   0.381   0.626   2.445 -1.5093 -0.9836 -0.0993
18208SOL     OW56064   0.913   1.025   2.762  0.5938 -0.0054 -0.7817
18208SOL    HW156065   0.958   1.080   2.697  0.0165 -1.2770 -2.3490
18208SOL    HW256066   0.877   0.953   2.710 -1.5337 -0.0941  0.6887
18209SOL     OW56067   7.221   1.079  11.922  0.7586  0.1431  0.5374
18209SOL    HW156068   7.226   0.988  11.952  1.6693  0.1494  0.4051
18209SOL    HW256069   7.134   1.108  11.951  0.2105 -0.9503  0.0395
18210SOL     OW56070   6.377   2.451   1.561 -0.1898 -0.5957 -0.3258
18210SOL    HW156071   6.336   2.533   1.533  1.1865 -0.1922 -1.2844
18210SOL    HW256072   6.471   2.469   1.558  0.1203 -1.9857  0.1904
18211SOL     OW56073   5.733   0.224   3.082 -0.4181 -0.2013  0.2018
18211SOL    HW156074   5.726   0.281   3.005 -0.6192 -1.2609 -0.5846
18211SOL    HW256075   5.822   0.189   3.077 -1.1905 -2.1996 -0.9903
18212SOL     OW56076   7.532   7.995   3.070  0.4239 -0.7174 -0.1220
18212SOL    HW156077   7.451   8.006   3.021  0.4605 -0.4129 -0.1213
18212SOL    HW256078   7.516   8.040   3.153  1.2771  1.1519 -0.9076
18213SOL     OW56079   5.139   0.051   1.657 -0.3677  0.4334 -0.4623
18213SOL    HW156080   5.050   0.087   1.666 -0.3691  0.0716  1.4962
18213SOL    HW256081   5.127  -0.043   1.666  0.2425  0.4140  0.2222
18214SOL     OW56082   4.764   2.686   2.669  0.1540 -0.1686  0.0134
18214SOL    HW156083   4.822   2.701   2.744  0.3790 -1.2512  0.0693
18214SOL    HW256084   4.686   2.645   2.707  0.0150 -0.1664 -0.2718
18215SOL     OW56085   7.575   7.535   4.260 -0.5606 -0.1635 -0.3104
18215SOL    HW156086   7.566   7.542   4.165 -2.5035  0.5845 -0.1098
18215SOL    HW256087   7.502   7.480   4.287 -0.0326 -0.3585  0.7688
18216SOL     OW56088   6.198   1.461   2.708  0.6641  0.1293 -0.9610
18216SOL    HW156089   6.166   1.543   2.672 -2.2679 -1.1159 -1.4701
18216SOL    HW256090   6.226   1.411   2.632  0.9224  0.0523 -0.8167
18217SOL     OW56091   0.634   0.432   2.530 -0.0113 -0.3879 -0.8027
18217SOL    HW156092   0.669   0.506   2.481 -1.8561  0.7817 -0.4000
18217SOL    HW256093   0.664   0.446   2.619 -0.8534  0.2191 -0.6059
18218SOL     OW56094   6.543   1.773   5.584  0.8605 -0.1671  0.2793
18218SOL    HW156095   6.482   1.723   5.529 -0.8456 -2.5413  3.9033
18218SOL    HW256096   6.610   1.709   5.609  1.4059  0.7467  1.2338
18219SOL     OW56097   5.557   0.041   3.180  0.5592 -0.0144  0.4575
18219SOL    HW156098   5.483   0.089   3.142  0.2453  0.2687  1.4137
18219SOL    HW256099   5.633   0.096   3.161  0.4125  0.1126  0.2241
18220SOL     OW56100   4.942   2.456   2.468 -0.5696 -0.2446  0.6161
18220SOL    HW156101   4.927   2.550   2.481 -3.6584 -0.8187  1.9225
18220SOL    HW256102   5.037   2.446   2.477 -0.0587  2.8226 -0.2882
18221SOL     OW56103   6.657   6.896   2.219 -0.1214 -0.5651  0.0572
18221SOL    HW156104   6.679   6.814   2.176  0.4469  0.4219 -1.6418
18221SOL    HW256105   6.584   6.931   2.168 -1.3453 -0.6970  1.6664
18222SOL     OW56106   7.000   0.441   3.242  0.1611 -0.3874  0.0944
18222SOL    HW156107   6.918   0.487   3.259  0.6966  1.1165 -1.2014
18222SOL    HW256108   6.975   0.366   3.187 -0.1988  0.8807 -1.5282
18223SOL     OW56109   0.109   1.372   2.910 -0.7038 -0.0785  0.0744
18223SOL    HW156110   0.084   1.367   3.002 -3.6522 -1.9013 -0.6939
18223SOL    HW256111   0.160   1.292   2.895 -0.5137  0.0493  0.0329
18224SOL     OW56112   7.087   2.244   2.366 -0.7636 -0.0305 -0.7064
18224SOL    HW156113   7.019   2.178   2.350 -0.3390 -1.2296  1.9298
18224SOL    HW256114   7.169   2.201   2.344 -0.5139 -0.3099  0.6658
18225SOL     OW56115   1.153   0.068   1.431  0.3250  0.0815  0.3043
18225SOL    HW156116   1.191   0.156   1.439 -0.5819  0.5566 -0.4375
18225SOL    HW256117   1.175   0.040   1.343 -0.3152  0.0219  0.1586
18226SOL     OW56118   5.592   2.360   3.868  0.3863  0.0561  0.0046
18226SOL    HW156119   5.499   2.372   3.848 -0.5092 -2.8926  1.7427
18226SOL    HW256120   5.610   2.269   3.844  2.2813 -0.0272  1.5023
18227SOL     OW56121   6.449   2.266   2.574 -0.0295  0.1109  0.4840
18227SOL    HW156122   6.531   2.266   2.623 -0.1677  1.7208  0.7865
18227SOL    HW256123   6.441   2.355   2.540 -0.7683 -0.5127 -1.0905
18228SOL     OW56124   6.437   1.514   4.819 -0.0076 -0.4041 -0.1003
18228SOL    HW156125   6.443   1.462   4.899 -1.6192  0.1881  0.4407
18228SOL    HW256126   6.438   1.604   4.849 -1.0937 -0.1773 -0.6920
18229SOL     OW56127   7.948   7.616   1.668  0.4097  0.0741  0.2778
18229SOL    HW156128   7.988   7.641   1.584  0.6379  0.8108  0.5911
18229SOL    HW256129   8.019   7.627   1.731 -0.2762  1.4552  0.8548
18230SOL     OW56130   0.725   2.083   2.124  0.3528 -0.2497  0.9710
18230SOL    HW156131   0.722   2.068   2.030  0.5304  1.1714  0.7136
18230SOL    HW256132   0.811   2.123   2.140 -0.2984  1.0217  1.4697
18231SOL     OW56133   4.396   6.671   4.172  0.8677 -0.2305  0.0112
18231SOL    HW156134   4.336   6.746   4.182 -0.8755 -1.2243 -2.0005
18231SOL    HW256135   4.473   6.708   4.128 -0.0256  0.4204 -1.0874
18232SOL     OW56136   6.623   1.150   2.619 -0.1463 -0.2186  0.7523
18232SOL    HW156137   6.673   1.214   2.670  1.2905 -0.2589 -0.5182
18232SOL    HW256138   6.549   1.200   2.585  0.1393  0.3946  0.9983
18233SOL     OW56139   7.043   2.300   3.333 -0.5121  0.4384  0.3169
18233SOL    HW156140   6.971   2.318   3.273 -0.2836  0.8719  0.1694
18233SOL    HW256141   7.080   2.386   3.353 -0.4891  0.2828  0.9595
18234SOL     OW56142   6.479   2.475   0.775  0.2107 -0.2348  0.6721
18234SOL    HW156143   6.517   2.444   0.693  0.4495  1.3361  0.1557
18234SOL    HW256144   6.553   2.476   0.837  0.0878 -1.1530  0.8523
18235SOL     OW56145   1.171   3.433   3.220 -0.3585 -0.5197  0.0540
18235SOL    HW156146   1.264   3.429   3.241 -0.7524 -0.4707  2.0635
18235SOL    HW256147   1.137   3.501   3.279 -2.0371 -2.1085  0.9988
18236SOL     OW56148   5.030   7.709   3.963  0.2204  0.0506  0.1586
18236SOL    HW156149   5.035   7.757   4.046 -0.4414  1.8099 -0.7630
18236SOL    HW256150   5.102   7.646   3.968 -0.7125 -0.9754  2.6835
18237SOL     OW56151   6.462   0.093   3.528 -0.3824 -0.4877  0.3079
18237SOL    HW156152   6.426   0.143   3.601 -0.9797  0.6593 -0.7405
18237SOL    HW256153   6.521   0.154   3.484 -2.0477 -0.2291 -1.7162
18238SOL     OW56154   6.807   2.243   1.287  0.0914 -0.4896  0.6015
18238SOL    HW156155   6.713   2.260   1.293  0.1201 -0.5304  1.1805
18238SOL    HW256156   6.844   2.283   1.365  0.8064  1.1988 -0.5552
18239SOL     OW56157   3.972   7.291   3.867  0.0076 -0.2697  0.2565
18239SOL    HW156158   3.971   7.379   3.903  0.1740 -0.2166  0.1328
18239SOL    HW256159   3.888   7.253   3.894 -0.0547 -0.0832  0.3281
18240SOL     OW56160   5.677   1.388   1.609  0.2992  0.2069  0.2508
18240SOL    HW156161   5.710   1.330   1.677  2.4696  0.3429 -0.5726
18240SOL    HW256162   5.727   1.469   1.621  0.3005  0.4321 -1.1153
18241SOL     OW56163   6.148   1.727   0.481  0.5357 -0.1904 -0.5431
18241SOL    HW156164   6.109   1.755   0.398 -1.0944 -2.7246 -0.7634
18241SOL    HW256165   6.188   1.642   0.461  2.4869  0.3768  0.7039
18242SOL     OW56166   6.258   1.750   1.678  0.4004  0.0951  0.2499
18242SOL    HW156167   6.217   1.779   1.759  1.0780  3.5778 -0.4903
18242SOL    HW256168   6.349   1.731   1.703  0.1542 -0.7107  0.5878
18243SOL     OW56169   6.607   1.147   3.727 -0.0017 -0.6019 -0.3720
18243SOL    HW156170   6.651   1.067   3.696  1.4405  1.1795 -3.2794
18243SOL    HW256171   6.630   1.151   3.820  0.0225 -3.4213 -0.1458
18244SOL     OW56172   1.056   1.447   2.555 -0.0142 -0.0287 -0.0151
18244SOL    HW156173   1.092   1.499   2.483 -2.0426 -0.2288 -1.2696
18244SOL    HW256174   1.045   1.509   2.627  3.5204 -0.1304  0.8095
18245SOL     OW56175   6.419   0.460   2.676  0.2463  0.5975  0.6601
18245SOL    HW156176   6.470   0.394   2.724  1.1148  1.5634  1.1010
18245SOL    HW256177   6.343   0.477   2.732 -0.5924 -0.8264  0.0163
18246SOL     OW56178   6.423   2.503   2.365 -0.5064 -0.0852 -0.0643
18246SOL    HW156179   6.408   2.578   2.308 -0.5669  0.9854  1.3101
18246SOL    HW256180   6.335   2.470   2.385 -0.6712  1.2638  1.6007
18247SOL     OW56181   7.742   7.773   2.520  0.2350  0.3678  0.2394
18247SOL    HW156182   7.670   7.782   2.583  0.3819 -0.7723  0.5911
18247SOL    HW256183   7.701   7.791   2.435 -0.3999  0.0661  0.4713
18248SOL     OW56184   6.667   1.862   1.549 -0.2303  0.6122  0.5884
18248SOL    HW156185   6.612   1.826   1.618 -0.0789  1.1143  0.9703
18248SOL    HW256186   6.640   1.814   1.470  0.5706 -0.9779  1.2252
18249SOL     OW56187   6.148   0.838   2.135 -0.1289 -0.0329 -0.0183
18249SOL    HW156188   6.197   0.758   2.153 -0.6911 -0.3656  0.0834
18249SOL    HW256189   6.069   0.830   2.189 -0.1556  0.6273  0.0529
18250SOL     OW56190   5.132   0.564   3.260  0.3392  0.1761 -0.4181
18250SOL    HW156191   5.140   0.567   3.165  3.0859  0.2564 -0.2571
18250SOL    HW256192   5.219   0.540   3.291 -0.9830 -2.0580  2.0172
18251SOL     OW56193   5.008   7.204   1.374 -0.3917 -0.4133  0.3278
18251SOL    HW156194   4.968   7.274   1.425  0.8774  0.5556  0.0290
18251SOL    HW256195   5.010   7.237   1.284  0.1562 -0.8516  0.1699
18252SOL     OW56196   5.981   0.199   2.679 -0.3096 -0.5153 -0.6049
18252SOL    HW156197   5.922   0.243   2.740 -0.6748 -0.3463 -1.0668
18252SOL    HW256198   6.001   0.116   2.721 -1.5045 -0.9107 -0.7719
18253SOL     OW56199   3.097   7.328   2.940  0.0027 -0.0722  0.1736
18253SOL    HW156200   3.101   7.309   3.034  0.3623  0.3532  0.2484
18253SOL    HW256201   3.006   7.356   2.925  0.2993  1.2409  0.6811
18254SOL     OW56202   6.389   2.042   2.386  0.1082 -0.3185  0.7019
18254SOL    HW156203   6.437   1.969   2.424 -0.0046 -0.5581  0.3857
18254SOL    HW256204   6.422   2.119   2.432  0.2219 -0.5681  1.0411
18255SOL     OW56205   5.166   2.205   1.949  0.3929 -0.3143 -0.0379
18255SOL    HW156206   5.260   2.213   1.933  0.8401  0.8205  2.6171
18255SOL    HW256207   5.145   2.114   1.925  2.6944 -1.3496  1.4724
18256SOL     OW56208   7.015   1.492   2.028 -0.5412 -0.5569 -0.1305
18256SOL    HW156209   7.013   1.398   2.010  1.8068 -0.5522 -0.8662
18256SOL    HW256210   6.993   1.533   1.945 -0.7776 -0.4713 -0.0247
18257SOL     OW56211   5.749   7.755   2.783  0.0334  0.4618 -0.2770
18257SOL    HW156212   5.827   7.754   2.839 -0.7719 -0.7521  0.8671
18257SOL    HW256213   5.683   7.802   2.834 -0.8676 -1.1114  0.0776
18258SOL     OW56214   6.164   1.553   3.522  0.2889  0.3179  1.0672
18258SOL    HW156215   6.183   1.485   3.586  0.2091 -0.8225 -0.0757
18258SOL    HW256216   6.073   1.577   3.539 -0.2677 -1.1699  0.3461
18259SOL     OW56217   4.911   1.713   3.007 -0.6251  0.0989 -0.1211
18259SOL    HW156218   4.855   1.635   3.001 -2.6357  1.3990  0.8041
18259SOL    HW256219   4.907   1.738   3.099  0.4035  1.0454 -0.3097
18260SOL     OW56220   6.501   6.293   3.838  0.1674  0.0774  0.0414
18260SOL    HW156221   6.485   6.352   3.912 -1.6349  1.5327 -1.4009
18260SOL    HW256222   6.592   6.311   3.813  0.1260  1.1159  0.5828
18261SOL     OW56223   5.845   2.472   3.642  0.7878 -0.0931 -0.3085
18261SOL    HW156224   5.909   2.450   3.710 -0.7747 -0.5358  1.0840
18261SOL    HW256225   5.817   2.387   3.607  0.3664  0.0458 -0.3158
18262SOL     OW56226   6.815   3.079   1.840  0.2596 -0.0744  0.2476
18262SOL    HW156227   6.743   3.067   1.778  1.5433 -1.1450 -1.1236
18262SOL    HW256228   6.778   3.059   1.925 -1.3463  0.5633 -0.2559
18263SOL     OW56229   5.922   7.421   3.621  0.4015  0.4833  0.1364
18263SOL    HW156230   5.876   7.378   3.692  0.8305  0.2333  0.2627
18263SOL    HW256231   5.992   7.360   3.596 -1.3996 -0.7177 -2.3495
18264SOL     OW56232   1.203   2.509   3.390  0.3912 -0.5347 -0.0580
18264SOL    HW156233   1.138   2.538   3.325 -1.1110 -1.9475  0.7384
18264SOL    HW256234   1.216   2.585   3.446  0.8461  0.3469 -1.3030
18265SOL     OW56235   6.468   1.485   2.839  0.2615 -0.1685 -0.1175
18265SOL    HW156236   6.509   1.538   2.770  1.0285 -0.2994  0.2201
18265SOL    HW256237   6.377   1.476   2.811  0.3840  0.3889 -0.7435
18266SOL     OW56238   3.961   1.551   2.062 -0.5136  0.6285 -0.0734
18266SOL    HW156239   4.052   1.522   2.057 -0.5707  0.5497 -0.8245
18266SOL    HW256240   3.952   1.588   2.150  0.4871  1.4581 -0.2984
18267SOL     OW56241   6.097   1.103   3.341  0.2626  0.0775 -1.1020
18267SOL    HW156242   6.010   1.064   3.350  0.7005 -0.8480 -0.7507
18267SOL    HW256243   6.105   1.160   3.417  0.5630 -1.0608 -0.2447
18268SOL     OW56244   5.667   0.873   2.099 -0.5741  0.1087  0.1930
18268SOL    HW156245   5.631   0.801   2.046 -1.1219 -0.0795  0.8050
18268SOL    HW256246   5.708   0.931   2.035  1.1896 -1.4647 -0.2077
18269SOL     OW56247   7.706   2.627   3.524  0.0883 -0.2185  0.2674
18269SOL    HW156248   7.768   2.561   3.493  1.7493  2.0874 -1.5712
18269SOL    HW256249   7.657   2.653   3.446  0.1023  1.3700  0.7609
18270SOL     OW56250   4.838   6.834   2.401 -0.6247 -0.1637 -0.8339
18270SOL    HW156251   4.900   6.858   2.469 -0.1229 -1.3993 -0.8262
18270SOL    HW256252   4.856   6.896   2.330 -1.7411  1.6907  0.4379
18271SOL     OW56253   5.713   7.958   1.496  0.5535  0.2653  0.1086
18271SOL    HW156254   5.758   7.915   1.569 -0.0411  0.2591  0.4736
18271SOL    HW256255   5.738   7.908   1.419 -2.8416 -3.0087  0.8549
18272SOL     OW56256   5.406   1.358   4.096 -0.2314 -0.0396 -0.4296
18272SOL    HW156257   5.370   1.356   4.185 -0.1909  1.8552 -0.3161
18272SOL    HW256258   5.405   1.451   4.073  1.5649 -0.2805 -1.6694
18273SOL     OW56259   1.297   0.376   2.676 -0.0961  0.1740  0.0827
18273SOL    HW156260   1.371   0.423   2.713  1.4363 -2.1570  0.2247
18273SOL    HW256261   1.237   0.363   2.749  0.7006 -0.3534  0.6507
18274SOL     OW56262   4.134   0.170   1.747 -0.1676 -0.3611  0.3736
18274SOL    HW156263   4.192   0.241   1.775  0.9237 -0.5609 -1.2800
18274SOL    HW256264   4.104   0.196   1.660 -2.0262 -0.6112  0.8907
18275SOL     OW56265   4.781   1.322   4.073  0.3452 -0.3640  0.1648
18275SOL    HW156266   4.808   1.296   4.161 -1.1668  0.1766  0.8202
18275SOL    HW256267   4.791   1.243   4.021  0.6776 -0.8601  0.9606
18276SOL     OW56268   4.029   7.962   3.505 -0.6292  0.2080  0.6547
18276SOL    HW156269   4.091   7.909   3.455 -0.9036 -0.1299  0.6669
18276SOL    HW256270   3.964   7.990   3.441 -2.3611 -2.2426  1.1871
18277SOL     OW56271   6.924   0.005   2.733 -0.5766 -0.3654  0.3097
18277SOL    HW156272   6.842  -0.016   2.778 -0.1050 -2.1681  0.3934
18277SOL    HW256273   6.986  -0.061   2.763  0.6625  0.4018 -0.4688
18278SOL     OW56274   5.716   1.387   2.695 -0.0811 -0.1435 -0.0454
18278SOL    HW156275   5.644   1.326   2.683  0.4214 -0.7908  0.2038
18278SOL    HW256276   5.720   1.400   2.790 -0.5108  0.6829 -0.1278
18279SOL     OW56277   7.851   7.381   2.540  0.5094 -0.2417 -0.1101
18279SOL    HW156278   7.905   7.368   2.618  2.8980  1.3555 -1.3757
18279SOL    HW256279   7.846   7.294   2.500 -0.7879 -1.0992  1.7579
18280SOL     OW56280   7.025   3.277   2.355 -0.2962 -0.3138 -0.4300
18280SOL    HW156281   7.011   3.367   2.324 -3.0678 -0.0172  1.3990
18280SOL    HW256282   7.097   3.285   2.417 -0.9020  0.7779  0.1614
18281SOL     OW56283   4.935   7.761   2.514 -0.0849  0.0946  0.1514
18281SOL    HW156284   4.856   7.730   2.558 -0.6572 -1.4273 -1.8283
18281SOL    HW256285   4.985   7.682   2.494  1.3473  0.9359  0.2044
18282SOL     OW56286   0.806   0.282   1.321  0.5133 -0.1637 -0.1311
18282SOL    HW156287   0.736   0.245   1.374  0.0612  0.1920 -0.4665
18282SOL    HW256288   0.831   0.211   1.262 -1.2837  0.4125 -1.6990
18283SOL     OW56289   5.424   0.183   2.958  0.2334  0.5890  0.0559
18283SOL    HW156290   5.451   0.244   2.890  1.5454  0.1512  0.1627
18283SOL    HW256291   5.355   0.131   2.917  0.7720  0.5574 -0.8440
18284SOL     OW56292   0.829   2.104   3.157 -0.0866 -0.6437 -0.3546
18284SOL    HW156293   0.772   2.029   3.172 -0.1642 -0.3314  0.9687
18284SOL    HW256294   0.866   2.124   3.242  1.3098 -0.2634 -1.0147
18285SOL     OW56295   6.685   1.909   2.381  0.2771  0.4545 -0.1691
18285SOL    HW156296   6.709   1.823   2.414 -0.8073 -0.2763 -1.2036
18285SOL    HW256297   6.708   1.969   2.451  2.3574 -0.4943  0.0286
18286SOL     OW56298   5.910   1.574   2.670  0.3182 -0.1529 -0.0696
18286SOL    HW156299   5.860   1.493   2.658  0.6363 -0.5362  1.0277
18286SOL    HW256300   5.931   1.602   2.581 -1.4752 -0.1932 -0.5454
18287SOL     OW56301   3.332   0.284   3.813  0.0310  0.0548  0.4890
18287SOL    HW156302   3.387   0.347   3.767  0.1611 -0.2213  0.2644
18287SOL    HW256303   3.389   0.246   3.880  0.4288 -0.9730 -0.4025
18288SOL     OW56304   2.846   0.109   3.299  0.5228 -0.2838  0.6681
18288SOL    HW156305   2.838   0.028   3.248  0.0201 -1.3074  2.2972
18288SOL    HW256306   2.937   0.110   3.329  0.0745 -1.2879  2.2109
18289SOL     OW56307   6.186   2.798   6.292 -0.0862 -0.1377  0.3839
18289SOL    HW156308   6.164   2.705   6.280 -0.0813 -0.0305 -0.5058
18289SOL    HW256309   6.164   2.839   6.209  0.1246  0.6270  0.6965
18290SOL     OW56310   5.633   1.605   3.508 -0.3222 -0.4625  0.5562
18290SOL    HW156311   5.578   1.669   3.463  0.1213 -0.7262 -0.3923
18290SOL    HW256312   5.572   1.545   3.550 -0.7992 -1.1152 -0.9993
18291SOL     OW56313   6.171   1.894   3.328 -0.1203 -0.0695  0.9530
18291SOL    HW156314   6.076   1.904   3.335 -0.0555  1.4295  0.1586
18291SOL    HW256315   6.186   1.868   3.237  0.2280 -0.4438  1.1136
18292SOL     OW56316   6.631   1.680   2.991  0.5560  0.0464 -0.3292
18292SOL    HW156317   6.629   1.621   3.066  0.9959  0.4409 -0.0030
18292SOL    HW256318   6.610   1.625   2.916 -0.1285 -0.3042  0.1101
18293SOL     OW56319   0.305   7.921   4.714  0.4251 -0.3047  0.4666
18293SOL    HW156320   0.383   7.878   4.749  2.1041  2.4720  0.4475
18293SOL    HW256321   0.339   7.984   4.651 -1.8040  1.2909  0.7467
18294SOL     OW56322   6.939   1.353   6.293  0.4294 -0.0422 -0.4884
18294SOL    HW156323   6.974   1.274   6.251  0.8563 -0.9934  1.5037
18294SOL    HW256324   6.913   1.410   6.220  1.0851 -1.5753 -1.9973
18295SOL     OW56325   6.120   1.618   6.458 -0.4085 -0.5434 -0.0886
18295SOL    HW156326   6.171   1.538   6.448  0.2715 -0.1107 -0.1874
18295SOL    HW256327   6.030   1.588   6.468  0.0452 -1.4152  1.7623
18296SOL     OW56328   6.395   1.634   3.818 -0.0304 -0.4646  0.2832
18296SOL    HW156329   6.434   1.549   3.842  2.2763  0.3873 -0.2168
18296SOL    HW256330   6.404   1.638   3.722 -0.1338  0.3407  0.3032
18297SOL     OW56331   7.345   1.642   5.820  0.4774  0.0824  0.0195
18297SOL    HW156332   7.306   1.560   5.853  1.6952 -0.0430  1.2569
18297SOL    HW256333   7.427   1.614   5.779  0.2436  0.5471 -0.7653
18298SOL     OW56334   0.080   1.730   3.114  0.5260 -0.1711  0.3179
18298SOL    HW156335   0.158   1.710   3.063 -0.4695 -1.1867 -0.8552
18298SOL    HW256336   0.057   1.820   3.089  0.4827 -0.3948 -0.4663
18299SOL     OW56337   7.025   0.856   3.733  0.5437 -0.4221 -0.4536
18299SOL    HW156338   7.113   0.820   3.725  0.6014 -0.4276  0.1285
18299SOL    HW256339   6.994   0.824   3.818  1.6215  2.9885  1.4323
18300SOL     OW56340   5.170   7.783   5.825 -0.2711 -0.0560 -0.0954
18300SOL    HW156341   5.124   7.722   5.767  0.7082 -0.1668 -0.7696
18300SOL    HW256342   5.137   7.869   5.801 -0.2777 -0.1542 -0.4410
18301SOL     OW56343   7.785   0.870   3.522  0.3123  0.1201  0.3874
18301SOL    HW156344   7.771   0.793   3.577 -0.5334 -1.4598 -1.8553
18301SOL    HW256345   7.698   0.906   3.509  0.2235 -0.5654 -1.2104
18302SOL     OW56346   4.285   1.998   3.348 -0.1734 -0.0287  0.4732
18302SOL    HW156347   4.373   1.993   3.383  0.9671  1.6497 -1.8463
18302SOL    HW256348   4.261   2.091   3.356 -0.6942  0.0118 -1.1047
18303SOL     OW56349   4.284   2.615   6.500 -0.0030 -0.0170 -0.1536
18303SOL    HW156350   4.354   2.651   6.445 -0.0578  1.6360  0.7868
18303SOL    HW256351   4.261   2.687   6.559 -1.1034 -1.1949  0.9081
18304SOL     OW56352   4.153   2.026   4.323 -0.2301  0.4223 -0.4294
18304SOL    HW156353   4.121   2.092   4.384  0.7611  1.0017 -0.4968
18304SOL    HW256354   4.075   1.981   4.291 -0.9090  1.4491 -0.2428
18305SOL     OW56355   5.891   1.577   4.169 -0.4759  0.0644  0.6315
18305SOL    HW156356   5.916   1.562   4.260  0.9136 -3.2850 -0.1562
18305SOL    HW256357   5.870   1.490   4.135 -0.5438  1.1305 -2.3676
18306SOL     OW56358   6.323   3.848   5.194  0.4802 -0.1826 -0.6333
18306SOL    HW156359   6.358   3.785   5.257 -0.4267  0.0603  0.1202
18306SOL    HW256360   6.251   3.801   5.152 -0.1308  0.3073 -0.1430
18307SOL     OW56361   6.327   0.032   2.466  0.1864 -0.2745 -0.4797
18307SOL    HW156362   6.298   0.095   2.400  0.1279  0.2618  0.0390
18307SOL    HW256363   6.252  -0.024   2.482  0.3519 -0.7091 -1.2086
18308SOL     OW56364   7.203   0.434   5.454  0.0328 -0.2673 -0.2660
18308SOL    HW156365   7.218   0.516   5.502  0.8717 -0.4724 -0.1639
18308SOL    HW256366   7.135   0.390   5.504 -0.6926  0.5243 -0.5265
18309SOL     OW56367   5.114   1.832   4.306  0.2938 -0.0364 -0.3202
18309SOL    HW156368   5.041   1.891   4.286  0.4703 -0.5184 -2.5628
18309SOL    HW256369   5.175   1.886   4.356  0.2635  1.5813 -1.9589
18310SOL     OW56370   7.204   3.462   4.162  0.0730 -0.3750  0.3400
18310SOL    HW156371   7.114   3.471   4.130 -0.3260 -1.0679  1.2335
18310SOL    HW256372   7.238   3.551   4.163 -0.3462 -0.1854 -0.7066
18311SOL     OW56373   4.933   1.306   2.870  0.0513 -0.3210  0.3808
18311SOL    HW156374   4.866   1.368   2.898  1.5903  1.3240  0.6355
18311SOL    HW256375   4.954   1.331   2.780  0.5400 -0.6132  0.4081
18312SOL     OW56376   7.447   1.645   6.928 -0.3851 -0.0413 -0.1393
18312SOL    HW156377   7.470   1.720   6.873  2.1142  0.9931  2.0625
18312SOL    HW256378   7.456   1.570   6.870  2.4969  0.9523 -1.1732
18313SOL     OW56379   6.873   2.452   5.472 -0.5319 -0.1137 -0.1028
18313SOL    HW156380   6.863   2.455   5.568  1.3080 -0.1028  0.1112
18313SOL    HW256381   6.869   2.358   5.451 -2.6136 -0.0509 -0.2673
18314SOL     OW56382   6.199   0.354   4.518 -0.0543  0.1027 -0.0837
18314SOL    HW156383   6.129   0.296   4.488 -0.3120  0.9429 -1.1831
18314SOL    HW256384   6.168   0.388   4.602 -0.0445 -1.0716  0.4157
18315SOL     OW56385   7.074   1.884   3.623 -0.1705 -0.3186 -0.0342
18315SOL    HW156386   7.047   1.898   3.532  1.6137 -1.7165 -0.8438
18315SOL    HW256387   7.081   1.789   3.631 -0.1545 -0.2018  1.5314
18316SOL     OW56388   0.499   2.444   7.774  0.6461  0.0236  0.2102
18316SOL    HW156389   0.451   2.454   7.855 -0.3170  0.5002 -0.4032
18316SOL    HW256390   0.532   2.532   7.754 -0.7115  0.3355 -0.8514
18317SOL     OW56391   0.652   1.454   2.319 -0.3591  0.0110 -1.0720
18317SOL    HW156392   0.713   1.409   2.259  0.1166  0.4793 -0.9480
18317SOL    HW256393   0.700   1.458   2.402 -1.9077 -2.7902  0.0993
18318SOL     OW56394   0.671   1.373   5.663 -0.1720  0.2990  0.0291
18318SOL    HW156395   0.680   1.346   5.754  1.1071 -0.5061 -0.3030
18318SOL    HW256396   0.693   1.467   5.664  1.8625 -0.1305  0.2931
18319SOL     OW56397   7.806   2.954   5.887  0.2349 -0.2416  0.5675
18319SOL    HW156398   7.783   2.861   5.891  0.1133 -0.2957 -0.9624
18319SOL    HW256399   7.842   2.967   5.800 -0.4261  1.3003  0.4853
18320SOL     OW56400   5.704   1.572   5.997 -0.0075  0.1377 -0.2042
18320SOL    HW156401   5.745   1.657   6.010  0.9805 -0.4520  0.7184
18320SOL    HW256402   5.645   1.585   5.923  0.1684  1.6010 -0.1208
18321SOL     OW56403   6.891   7.509   3.309  0.0514 -0.4294  0.3497
18321SOL    HW156404   6.914   7.534   3.399  0.1220 -0.7481  0.4227
18321SOL    HW256405   6.803   7.472   3.316 -0.7827  1.3808 -0.0317
18322SOL     OW56406   0.747   2.066   4.470  0.1639 -0.3964  0.0180
18322SOL    HW156407   0.759   2.053   4.376 -1.0259  0.0670 -0.2217
18322SOL    HW256408   0.821   2.122   4.496 -0.0927  0.3973 -0.8773
18323SOL     OW56409   6.730   3.264   4.003 -0.0322  0.5815  0.2723
18323SOL    HW156410   6.745   3.209   3.926 -1.1408 -0.5557  0.8293
18323SOL    HW256411   6.813   3.262   4.051  0.2189  0.1287 -0.1723
18324SOL     OW56412   5.929   1.225   5.288  0.0663 -0.1134  0.0020
18324SOL    HW156413   5.984   1.179   5.350  2.6778 -0.1297 -2.1406
18324SOL    HW256414   5.867   1.159   5.256 -0.3925 -0.4383  1.5023
18325SOL     OW56415   6.570   1.373   4.557  0.3350 -0.2555  0.7044
18325SOL    HW156416   6.501   1.434   4.583 -1.8543 -1.1652 -2.3711
18325SOL    HW256417   6.537   1.287   4.583  0.8460 -0.5998  0.2345
18326SOL     OW56418   5.294   1.962   6.215  0.2051  0.2964 -0.0923
18326SOL    HW156419   5.252   2.046   6.197  0.5063  0.3623 -0.5076
18326SOL    HW256420   5.374   1.985   6.264  0.4410  0.2813 -0.4628
18327SOL     OW56421   5.605   0.972   6.045 -0.0590  0.1710  0.1442
18327SOL    HW156422   5.560   0.998   5.964 -0.0671  1.2937  0.4884
18327SOL    HW256423   5.594   0.877   6.049 -0.4244  0.1478 -0.9542
18328SOL     OW56424   7.747   1.642   6.688  0.2259 -0.2007  0.0164
18328SOL    HW156425   7.831   1.632   6.643  0.0810 -0.1935 -0.2557
18328SOL    HW256426   7.771   1.655   6.780  0.5717  0.8325 -0.2052
18329SOL     OW56427   5.935   0.609   5.138 -0.5882  0.5789  0.6788
18329SOL    HW156428   5.840   0.597   5.146 -0.2209 -1.5092  2.9951
18329SOL    HW256429   5.960   0.653   5.219  0.6847 -1.1287  1.2635
18330SOL     OW56430   6.530   7.977   5.271  0.5612  0.0247 -0.2038
18330SOL    HW156431   6.534   8.046   5.204 -1.2808  0.4894  0.1145
18330SOL    HW256432   6.479   7.907   5.229  1.0069 -0.4655  0.0655
18331SOL     OW56433   7.264   0.929   3.955 -0.0507  0.3630 -0.1459
18331SOL    HW156434   7.349   0.960   3.923  0.1125  1.3675  1.1521
18331SOL    HW256435   7.285   0.853   4.009  0.2773  1.6249  1.5960
18332SOL     OW56436   5.911   1.803   4.018  0.0457 -0.0563  0.0113
18332SOL    HW156437   5.840   1.859   4.049 -1.8439 -2.1553 -0.2392
18332SOL    HW256438   5.898   1.721   4.066  1.9448 -0.7173 -0.5335
18333SOL     OW56439   7.121   2.360   6.716  0.0433  0.7507 -0.2574
18333SOL    HW156440   7.095   2.380   6.805  1.9802 -1.1775  0.8327
18333SOL    HW256441   7.038   2.345   6.670 -0.9622 -0.0101  1.6800
18334SOL     OW56442   7.427   7.841   1.628 -0.5270  0.0726  0.0829
18334SOL    HW156443   7.379   7.774   1.677 -0.3184 -0.3054 -0.2262
18334SOL    HW256444   7.515   7.806   1.619 -0.6944 -0.1034 -1.0056
18335SOL     OW56445   0.146   2.085   6.317 -0.0368 -0.0970 -0.0998
18335SOL    HW156446   0.235   2.049   6.320 -0.4302 -1.0943 -0.1375
18335SOL    HW256447   0.119   2.090   6.409  0.0803  0.2704 -0.0839
18336SOL     OW56448   7.505   1.081   3.933  0.0673  0.1824  0.6293
18336SOL    HW156449   7.460   1.162   3.909  0.3537  0.1726  0.0202
18336SOL    HW256450   7.571   1.108   3.996  0.0440  0.3971  0.5629
18337SOL     OW56451   6.860   1.259   3.684  0.7622  0.5389  0.3216
18337SOL    HW156452   6.866   1.334   3.743 -0.8776  0.6345  0.3956
18337SOL    HW256453   6.791   1.205   3.721 -0.4788  0.7159 -1.6176
18338SOL     OW56454   7.377   2.327   2.629 -0.0599 -0.0765 -0.1655
18338SOL    HW156455   7.320   2.381   2.684 -0.0903  2.0410 -2.1247
18338SOL    HW256456   7.408   2.258   2.688 -0.6060  1.6289  2.3032
18339SOL     OW56457   6.018   2.214   4.072 -0.5475  0.7208  0.0750
18339SOL    HW156458   5.977   2.151   4.132 -3.6989  1.6022 -0.9485
18339SOL    HW256459   6.110   2.215   4.097 -1.2251 -0.9438  3.0898
18340SOL     OW56460   7.881   2.660   6.163 -0.2098 -0.0777 -0.4323
18340SOL    HW156461   7.923   2.734   6.207  0.3755  1.1123 -2.8088
18340SOL    HW256462   7.946   2.589   6.168  0.2073  0.3163 -0.1624
18341SOL     OW56463   5.445   2.451   5.547 -0.1461  0.0238 -0.0455
18341SOL    HW156464   5.376   2.495   5.498 -0.4164 -0.2824  0.0574
18341SOL    HW256465   5.512   2.519   5.561 -0.5857  0.4180  0.1686
18342SOL     OW56466   5.036   0.559   4.844  0.1673 -0.1698 -0.0167
18342SOL    HW156467   5.027   0.621   4.916 -0.4124  0.3044 -0.4865
18342SOL    HW256468   4.949   0.557   4.804  0.0139 -1.7089  0.3321
18343SOL     OW56469   0.890   0.437   7.559 -0.2722  0.1199 -0.3405
18343SOL    HW156470   0.895   0.462   7.652 -0.0326 -0.8034 -0.0938
18343SOL    HW256471   0.858   0.516   7.515 -2.1506  0.0535  0.7715
18344SOL     OW56472   5.551   0.842   5.193 -0.0927  0.6551  0.2665
18344SOL    HW156473   5.546   0.751   5.164  1.1382 -0.3236  2.8151
18344SOL    HW256474   5.470   0.882   5.161  0.7466 -0.3807 -3.6539
18345SOL     OW56475   6.390   2.271   5.773  0.1532  0.0056 -0.4312
18345SOL    HW156476   6.357   2.220   5.847  0.1267  1.2536  0.4553
18345SOL    HW256477   6.359   2.224   5.695 -0.6515 -0.8087  0.3585
18346SOL     OW56478   0.202   1.523   5.494 -0.1949 -0.5964 -0.3352
18346SOL    HW156479   0.159   1.509   5.409 -1.0269 -0.3117  0.0245
18346SOL    HW256480   0.132   1.556   5.550  0.1287 -1.6530  0.7246
18347SOL     OW56481   0.373   2.958   2.582 -0.3227  0.3657 -0.4707
18347SOL    HW156482   0.467   2.969   2.596 -0.4881  1.8360 -0.3901
18347SOL    HW256483   0.339   3.047   2.573 -1.6855 -0.1484 -0.6805
18348SOL     OW56484   4.842   1.619   4.335 -0.0990  0.1563 -0.0437
18348SOL    HW156485   4.778   1.691   4.339 -0.4144 -0.0744 -0.8265
18348SOL    HW256486   4.803   1.550   4.387 -0.6622 -0.1105 -0.8065
18349SOL     OW56487   6.876   7.584   3.582  0.0726  0.7620 -0.3422
18349SOL    HW156488   6.874   7.581   3.678 -1.1229  0.7654 -0.3465
18349SOL    HW256489   6.877   7.678   3.561 -1.0001  0.7894 -0.3240
18350SOL     OW56490   5.668   1.438   5.529 -0.0611  0.0133  0.8025
18350SOL    HW156491   5.580   1.408   5.550  0.0475 -0.5118  0.5289
18350SOL    HW256492   5.681   1.413   5.438  0.1347  0.6653  0.6433
18351SOL     OW56493   0.261   2.848   4.632  0.3851  0.3810 -0.1230
18351SOL    HW156494   0.201   2.889   4.570  0.5362  1.4641  0.4067
18351SOL    HW256495   0.218   2.767   4.658 -0.8101  1.0690  0.1449
18352SOL     OW56496   4.849   2.422   4.565 -0.4348 -0.3495  0.7139
18352SOL    HW156497   4.882   2.466   4.643 -1.7843  1.8964  0.1128
18352SOL    HW256498   4.784   2.360   4.598  1.5297 -2.0979  1.5773
18353SOL     OW56499   6.860   1.197   5.190  0.0370 -0.4299 -0.1703
18353SOL    HW156500   6.788   1.259   5.196  0.6907  0.5661 -1.7454
18353SOL    HW256501   6.936   1.245   5.222  0.0356 -1.4632  1.4694
18354SOL     OW56502   6.499   0.702   4.722 -0.0550  0.5361  0.6009
18354SOL    HW156503   6.516   0.735   4.634  1.1319 -0.3868  0.4575
18354SOL    HW256504   6.569   0.740   4.775 -0.6098  0.8754  1.0918
18355SOL     OW56505   6.960   1.339   5.973 -0.1206 -0.3075  0.0497
18355SOL    HW156506   6.925   1.422   6.006 -0.4083 -0.9280  1.3599
18355SOL    HW256507   6.889   1.300   5.923 -0.2549 -0.1250  0.1000
18356SOL     OW56508   6.626   2.296   4.151 -0.2666 -0.2557 -0.0850
18356SOL    HW156509   6.623   2.205   4.181 -0.8688 -0.1821  0.0852
18356SOL    HW256510   6.687   2.339   4.212  0.7640 -0.7487 -0.7469
18357SOL     OW56511   6.724   1.348   5.564 -0.0448 -0.0847 -0.4763
18357SOL    HW156512   6.706   1.355   5.471  0.5077 -0.3478 -0.6049
18357SOL    HW256513   6.720   1.438   5.596  1.0310  0.1664 -0.9946
18358SOL     OW56514   0.253   1.946   5.827  0.2942  0.6173  0.1972
18358SOL    HW156515   0.325   1.979   5.882  1.4544 -1.9621  0.3488
18358SOL    HW256516   0.206   1.885   5.883 -0.0697 -0.1244 -0.8906
18359SOL     OW56517   5.369   2.215   4.862 -0.3594  0.0099 -0.1788
18359SOL    HW156518   5.345   2.306   4.880 -2.3157 -0.2913 -1.0069
18359SOL    HW256519   5.458   2.220   4.827 -0.7027  1.7063 -0.9176
18360SOL     OW56520   5.266   0.047   3.370 -0.3078  0.0086 -0.0896
18360SOL    HW156521   5.241  -0.027   3.314 -2.5423 -0.6967  1.7107
18360SOL    HW256522   5.350   0.021   3.408 -0.0526 -0.6480 -1.0683
18361SOL     OW56523   4.754   2.753   2.155 -0.3227  0.2602 -0.1325
18361SOL    HW156524   4.678   2.778   2.207 -0.8355 -0.2380 -0.6387
18361SOL    HW256525   4.801   2.835   2.140  0.1177  0.3560  1.5407
18362SOL     OW56526   4.480   0.261   3.769  0.0907 -0.5096 -0.6631
18362SOL    HW156527   4.420   0.294   3.702 -2.0550  0.6594  1.6636
18362SOL    HW256528   4.427   0.202   3.822  0.4832  1.5583  2.2747
18363SOL     OW56529   5.362   1.581   4.587  0.9367 -0.5861  0.4885
18363SOL    HW156530   5.271   1.601   4.562  0.7537 -0.4814  1.2040
18363SOL    HW256531   5.395   1.663   4.624  1.5510 -0.4262 -0.3822
18364SOL     OW56532   6.943   0.215   5.545  0.2689 -0.0069  0.1292
18364SOL    HW156533   6.889   0.193   5.469  1.2410  0.4343 -0.7067
18364SOL    HW256534   6.907   0.297   5.577  0.5699  0.4039 -0.5621
18365SOL     OW56535   7.249   2.584   6.644 -0.0937 -0.3373 -0.1843
18365SOL    HW156536   7.248   2.647   6.715  0.2694  0.3457 -0.7684
18365SOL    HW256537   7.198   2.510   6.676 -1.1103  0.5358  0.2474
18366SOL     OW56538   5.179   1.273   5.983  0.2392  0.4732 -0.2508
18366SOL    HW156539   5.223   1.349   6.021 -0.8015 -0.0204  2.0877
18366SOL    HW256540   5.086   1.290   5.996 -0.1242 -0.2770 -1.6057
18367SOL     OW56541   7.779   1.186   3.968  0.2230 -0.6309  0.0799
18367SOL    HW156542   7.806   1.141   3.888 -0.2348  0.7368 -0.8793
18367SOL    HW256543   7.858   1.233   3.996  0.1274 -0.3760 -0.0817
18368SOL     OW56544   6.722   0.617   4.001  0.0080  0.6247 -0.0959
18368SOL    HW156545   6.745   0.695   4.051  1.5032  0.3030 -0.2390
18368SOL    HW256546   6.690   0.651   3.917  1.5217  1.1168 -0.5208
18369SOL     OW56547   6.570   2.519   5.449  0.0051  0.0792  0.0442
18369SOL    HW156548   6.646   2.496   5.502  0.8466  0.1830 -1.0768
18369SOL    HW256549   6.498   2.526   5.512  1.0158  0.4695  1.2021
18370SOL     OW56550   5.225   2.409   2.430 -0.1046  0.1990 -0.0158
18370SOL    HW156551   5.216   2.408   2.335 -0.4364  0.0719  0.0139
18370SOL    HW256552   5.270   2.491   2.449 -0.3290  0.3808 -0.2597
18371SOL     OW56553   6.592   7.657   3.170 -0.2174 -0.9610  0.1525
18371SOL    HW156554   6.602   7.676   3.263  0.5669 -0.5187 -0.0205
18371SOL    HW256555   6.605   7.562   3.163 -0.6792 -1.0599  0.5360
18372SOL     OW56556   7.496   2.216   4.372 -0.0784 -0.4247 -0.1009
18372SOL    HW156557   7.526   2.215   4.463  1.5595  0.2615 -0.5833
18372SOL    HW256558   7.527   2.299   4.337  1.1018 -1.4996 -1.8035
18373SOL     OW56559   7.470   1.642   4.714 -0.1966  0.2349  0.0524
18373SOL    HW156560   7.410   1.616   4.644 -0.1544  2.6160 -0.9740
18373SOL    HW256561   7.430   1.721   4.751  2.3320  2.0354 -0.8167
18374SOL     OW56562   7.933   0.692   3.931  0.2603  0.3492  0.7343
18374SOL    HW156563   7.936   0.665   4.022  1.6066 -0.1233  0.5820
18374SOL    HW256564   7.881   0.772   3.931 -0.6560 -0.2197  1.7395
18375SOL     OW56565   0.576   1.497   4.658 -0.5063  0.4788  0.5269
18375SOL    HW156566   0.594   1.580   4.700  2.2544  0.4947 -0.5118
18375SOL    HW256567   0.566   1.435   4.730 -0.8804  1.3793  1.2664
18376SOL     OW56568   5.678   2.507   3.015 -0.1550  0.4967 -0.3583
18376SOL    HW156569   5.669   2.492   2.920 -1.9195  1.8591 -0.4587
18376SOL    HW256570   5.688   2.601   3.024 -1.0265  0.5039  0.8411
18377SOL     OW56571   7.538   1.700   4.342 -0.2183 -0.3851 -0.2514
18377SOL    HW156572   7.564   1.779   4.391 -1.5695  0.7244 -1.2374
18377SOL    HW256573   7.477   1.732   4.276 -0.9890 -2.3174 -0.5423
18378SOL     OW56574   6.378   1.365   3.335  0.1238 -0.1180 -0.9723
18378SOL    HW156575   6.334   1.343   3.417  0.4636  1.5165 -0.2976
18378SOL    HW256576   6.366   1.289   3.279 -0.4137 -1.1343  0.4786
18379SOL     OW56577   5.454   7.778   5.263  0.2557 -0.3049 -0.2448
18379SOL    HW156578   5.523   7.716   5.287  0.8740  0.1678 -0.7293
18379SOL    HW256579   5.406   7.794   5.344  0.7077 -0.6641  0.0973
18380SOL     OW56580   0.090   1.464   7.500 -0.2349  1.2058 -0.5592
18380SOL    HW156581   0.137   1.382   7.511 -1.5572  0.4086 -0.5858
18380SOL    HW256582   0.022   1.462   7.568 -0.0314  2.4780 -0.2906
18381SOL     OW56583   5.707   1.095   5.683  0.3182 -0.4691 -0.0763
18381SOL    HW156584   5.634   1.090   5.621 -0.6096 -2.2527  1.0842
18381SOL    HW256585   5.686   1.172   5.737 -0.1502 -0.3492 -0.4172
18382SOL     OW56586   5.726   2.550   5.147  0.4317 -0.1834  0.0205
18382SOL    HW156587   5.701   2.613   5.079 -0.4764  1.5790  1.8778
18382SOL    HW256588   5.647   2.539   5.200  1.3524 -0.8242  1.3094
18383SOL     OW56589   0.099   2.501   6.141 -0.6120  0.0828 -0.1380
18383SOL    HW156590   0.172   2.551   6.104 -0.1686 -0.9157 -0.6440
18383SOL    HW256591   0.075   2.439   6.073 -0.7130 -0.8509  0.7235
18384SOL     OW56592   6.708   7.969   5.746 -0.0377 -0.5258 -0.7302
18384SOL    HW156593   6.623   7.960   5.789  0.3218 -0.9621 -0.0918
18384SOL    HW256594   6.710   8.059   5.715 -0.0766 -0.0091  0.6981
18385SOL     OW56595   5.349   2.814   5.149  0.3137  0.5227 -0.4737
18385SOL    HW156596   5.294   2.849   5.218 -0.4914  1.3169 -1.4775
18385SOL    HW256597   5.313   2.851   5.068  2.4533  1.2728 -1.1600
18386SOL     OW56598   0.224   1.129   5.806  0.2351 -0.3857  0.0003
18386SOL    HW156599   0.220   1.134   5.902  1.2644  1.3878 -0.0194
18386SOL    HW256600   0.150   1.071   5.783 -0.9763  0.3550  1.7645
18387SOL     OW56601   6.796   0.870   1.065  0.3286 -0.2125  0.0095
18387SOL    HW156602   6.702   0.890   1.060  0.6089  0.9112 -1.7772
18387SOL    HW256603   6.815   0.871   1.159 -1.2243  0.6892  0.3733
18388SOL     OW56604   3.840   1.541   5.563 -0.3400 -0.5989  0.1980
18388SOL    HW156605   3.744   1.534   5.569 -0.3845  0.8395  2.1754
18388SOL    HW256606   3.855   1.631   5.535  0.4592 -0.8749 -0.2876
18389SOL     OW56607   7.556   2.973   4.609 -0.0816  0.0050 -0.0650
18389SOL    HW156608   7.469   2.967   4.569 -0.3488 -0.2963  0.5597
18389SOL    HW256609   7.565   3.066   4.632 -0.5270 -0.0945  0.5178
18390SOL     OW56610   4.980   2.203   5.521 -0.2687 -0.8369  0.1566
18390SOL    HW156611   4.984   2.157   5.437 -0.4816 -0.7690  0.1101
18390SOL    HW256612   4.957   2.136   5.585 -2.0585 -0.5356 -0.1209
18391SOL     OW56613   4.393   0.119   4.903  0.3939  0.6489 -0.0018
18391SOL    HW156614   4.322   0.183   4.896 -1.0785 -1.0031 -1.1277
18391SOL    HW256615   4.454   0.143   4.834 -1.0875 -0.1967 -1.6833
18392SOL     OW56616   7.587   2.454   5.111  0.0467 -1.1459 -0.1540
18392SOL    HW156617   7.548   2.393   5.049 -4.0488  0.4593  0.5145
18392SOL    HW256618   7.593   2.537   5.064 -0.4768 -0.5701  0.7597
18393SOL     OW56619   6.437   2.665   3.608  0.3683 -0.3196  0.5660
18393SOL    HW156620   6.462   2.650   3.517 -0.2819 -1.1220  0.5067
18393SOL    HW256621   6.497   2.609   3.658  2.0203  1.5456  0.8043
18394SOL     OW56622   7.515   1.973   6.614 -0.1670 -0.8981  0.3635
18394SOL    HW156623   7.477   1.910   6.552 -0.3053  0.4457 -0.9518
18394SOL    HW256624   7.466   2.054   6.600  1.3975  0.1226  0.5143
18395SOL     OW56625   0.325   3.290   3.237 -0.3022 -0.0313  0.1445
18395SOL    HW156626   0.380   3.327   3.167 -0.7408  1.6515  0.6320
18395SOL    HW256627   0.386   3.267   3.306  0.0970 -1.3326 -0.6162
18396SOL     OW56628   5.448   1.825   2.958 -0.1172 -0.6704 -0.0004
18396SOL    HW156629   5.441   1.902   3.014 -1.3634 -1.0146  0.3492
18396SOL    HW256630   5.530   1.836   2.911  1.0925 -0.4652  2.0499
18397SOL     OW56631   7.198   1.391   3.981 -0.1397 -0.2639  0.3936
18397SOL    HW156632   7.115   1.431   4.005 -0.4018  1.7651 -3.2113
18397SOL    HW256633   7.174   1.311   3.935 -0.0864 -0.0731  0.0272
18398SOL     OW56634   0.626   1.728   6.747 -0.5046 -0.0490 -0.1911
18398SOL    HW156635   0.625   1.808   6.694 -1.0236  1.1522  1.5504
18398SOL    HW256636   0.630   1.657   6.682  0.3225  1.3611 -1.7878
18399SOL     OW56637   5.882   1.629   6.579  0.5036  0.4110 -0.1215
18399SOL    HW156638   5.883   1.567   6.652  1.6675 -0.4355 -0.8229
18399SOL    HW256639   5.885   1.715   6.621  0.1923 -0.0293  0.8357
18400SOL     OW56640   7.393   7.497   4.826 -0.3266 -0.3282  0.0386
18400SOL    HW156641   7.421   7.546   4.903 -0.7294 -1.5439  0.9823
18400SOL    HW256642   7.470   7.447   4.799 -0.3592 -0.3795  0.0391
18401SOL     OW56643   4.234   0.234   4.380  0.3103 -0.3079  0.7675
18401SOL    HW156644   4.202   0.157   4.426  0.4975 -0.9325 -0.1152
18401SOL    HW256645   4.159   0.263   4.326  0.5739 -0.5307  0.2739
18402SOL     OW56646   0.550   2.698   3.146 -0.0575  0.2117  0.2242
18402SOL    HW156647   0.581   2.772   3.094 -0.6305 -0.2859 -0.8613
18402SOL    HW256648   0.602   2.702   3.227  1.2090  0.7147 -0.5803
18403SOL     OW56649   6.685   1.073   3.994  0.3633 -0.0925 -0.2047
18403SOL    HW156650   6.770   1.112   3.976 -0.5970  1.4420 -1.6852
18403SOL    HW256651   6.642   1.136   4.052 -0.2737 -0.1782 -0.5797
18404SOL     OW56652   6.562   7.089   4.643 -0.0673 -0.7395 -0.3211
18404SOL    HW156653   6.565   7.185   4.646  1.1640 -0.7426 -0.9136
18404SOL    HW256654   6.472   7.069   4.615 -0.4015  0.2298  0.0177
18405SOL     OW56655   5.837   2.890   5.258  0.1746 -0.0795  0.2868
18405SOL    HW156656   5.846   2.821   5.324 -0.7147  0.5722  1.1033
18405SOL    HW256657   5.927   2.915   5.236  0.4766  0.0599  1.6318
18406SOL     OW56658   5.908   2.638   6.140 -0.0086  0.0358 -0.4872
18406SOL    HW156659   5.886   2.565   6.081 -1.1273 -0.7597  0.8502
18406SOL    HW256660   5.946   2.704   6.082 -1.9902 -0.2774 -2.3117
18407SOL     OW56661   7.663   1.299   7.092 -0.0166  0.1636 -0.1927
18407SOL    HW156662   7.736   1.247   7.127  2.9438  2.2782 -2.7136
18407SOL    HW256663   7.696   1.388   7.088 -1.9514  0.9066 -3.3796
18408SOL     OW56664   3.389   0.311   4.400 -0.8524  0.0543 -0.4024
18408SOL    HW156665   3.363   0.356   4.319  1.3653  1.1875 -0.5484
18408SOL    HW256666   3.341   0.357   4.469 -0.6361  0.9106 -0.8124
18409SOL     OW56667   7.065   0.850   3.323 -0.0911 -0.6227 -0.1003
18409SOL    HW156668   7.061   0.917   3.255  0.1610  0.6944  1.1298
18409SOL    HW256669   6.973   0.833   3.345 -0.1402  0.0851  0.2792
18410SOL     OW56670   6.268   0.859   3.268  0.1570  0.3837 -0.1373
18410SOL    HW156671   6.240   0.940   3.310 -0.0033  0.6944 -0.8233
18410SOL    HW256672   6.274   0.881   3.175  0.2550 -0.3502 -0.3145
18411SOL     OW56673   0.220   0.513   5.896 -0.0882  0.1959  0.0306
18411SOL    HW156674   0.163   0.561   5.957  1.0820  1.7427 -0.0404
18411SOL    HW256675   0.258   0.443   5.950  1.5211  1.9931  1.3710
18412SOL     OW56676   7.577   3.119   5.260  0.5632  0.5706  0.2781
18412SOL    HW156677   7.619   3.045   5.215  0.4465  1.3269 -1.1507
18412SOL    HW256678   7.628   3.195   5.231  0.8621  1.0417  1.9510
18413SOL     OW56679   6.622   1.013   4.307  0.3238 -0.0658 -0.1895
18413SOL    HW156680   6.531   1.037   4.289  0.2627 -0.7015 -0.7727
18413SOL    HW256681   6.659   0.995   4.221  0.3153 -2.1686  0.1972
18414SOL     OW56682   7.637   7.882   1.159  0.2010  0.2684  0.3254
18414SOL    HW156683   7.554   7.916   1.190  0.1244  0.7359 -0.3623
18414SOL    HW256684   7.687   7.960   1.133  0.6555 -0.0376  0.2606
18415SOL     OW56685   6.689   0.389   2.861  0.3557 -0.0684  0.0181
18415SOL    HW156686   6.631   0.462   2.883  1.2871  0.3221  1.2655
18415SOL    HW256687   6.672   0.324   2.929  2.8704  0.9252  1.7342
18416SOL     OW56688   6.413   0.236   5.795 -0.1786  0.4131  0.0569
18416SOL    HW156689   6.376   0.166   5.849  0.2691  0.7216  0.7795
18416SOL    HW256690   6.349   0.250   5.726 -0.2314 -0.7837 -0.1609
18417SOL     OW56691   4.897   0.228   5.150  0.3675  0.1955  0.2411
18417SOL    HW156692   4.849   0.272   5.080  0.3292  0.9977  0.7689
18417SOL    HW256693   4.960   0.293   5.182  0.0195  0.0268  1.3132
18418SOL     OW56694   5.207   1.027   6.062 -0.1380  0.3335 -0.1027
18418SOL    HW156695   5.173   1.108   6.023 -0.0725  0.1994 -0.4484
18418SOL    HW256696   5.269   1.057   6.128  0.8060  0.5770 -1.0572
18419SOL     OW56697   5.008   2.455   5.431  0.0239 -0.3559  0.1879
18419SOL    HW156698   5.027   2.518   5.501 -1.3620  0.0785  0.2132
18419SOL    HW256699   4.992   2.372   5.477 -0.0796 -0.2595  0.3262
18420SOL     OW56700   6.354   0.541   5.516 -0.2084  0.4426  0.4911
18420SOL    HW156701   6.394   0.478   5.456 -0.2712 -2.1922  2.9931
18420SOL    HW256702   6.427   0.572   5.569 -0.4054  1.3951  0.2160
18421SOL     OW56703   4.547   0.649   3.818 -0.0930 -0.9142 -0.2194
18421SOL    HW156704   4.591   0.584   3.871  0.6568  0.4942  0.9525
18421SOL    HW256705   4.525   0.603   3.736  3.4882 -1.7023 -0.8782
18422SOL     OW56706   5.083   2.208   3.751  0.4763  0.1400 -0.4932
18422SOL    HW156707   5.035   2.157   3.686  2.0874 -1.7640 -0.2871
18422SOL    HW256708   5.018   2.228   3.819 -0.4184 -0.8244 -1.0473
18423SOL     OW56709   6.691   2.703   5.037  0.1859  0.6092  0.4064
18423SOL    HW156710   6.731   2.646   5.103  0.3910  1.1111  0.7279
18423SOL    HW256711   6.766   2.750   4.998  0.3479 -1.2781 -1.7802
18424SOL     OW56712   6.944   1.520   3.981 -0.1785  0.3385 -0.6418
18424SOL    HW156713   6.924   1.558   4.066  1.6439 -0.0673  0.0207
18424SOL    HW256714   6.999   1.586   3.937  1.4648 -0.6879 -0.2187
18425SOL     OW56715   3.463   7.108   6.187 -0.5600  0.0245  0.0841
18425SOL    HW156716   3.486   7.081   6.098 -1.2370 -0.4560  0.0462
18425SOL    HW256717   3.498   7.039   6.243 -1.3572 -0.3989  0.0729
18426SOL     OW56718   7.079   0.134   4.492  0.1028 -0.6898  0.4843
18426SOL    HW156719   7.021   0.105   4.562 -0.0585  0.7617  0.9716
18426SOL    HW256720   7.118   0.215   4.525  2.5614 -1.6909  0.2668
18427SOL     OW56721   7.518   2.706   5.320 -0.4281  0.1236  0.1551
18427SOL    HW156722   7.569   2.769   5.269  0.6014 -1.1667 -0.4620
18427SOL    HW256723   7.488   2.755   5.397  1.1288  1.1068  0.1634
18428SOL     OW56724   7.925   2.890   4.808  0.1962  0.2145  0.1834
18428SOL    HW156725   7.891   2.976   4.832  1.7962  1.2499 -0.9809
18428SOL    HW256726   7.935   2.894   4.713  1.2276 -0.8979  0.2157
18429SOL     OW56727   6.071   1.810   3.803 -0.3878  0.1391 -0.1422
18429SOL    HW156728   6.007   1.850   3.744 -0.1701  0.2443 -0.3090
18429SOL    HW256729   6.025   1.801   3.886 -1.1863 -1.3495 -0.7045
18430SOL     OW56730   4.010   1.242   5.730  0.3581 -0.1302 -0.2563
18430SOL    HW156731   4.002   1.331   5.765 -0.9852  0.4131 -1.7989
18430SOL    HW256732   3.979   1.249   5.640  2.2494 -1.7581 -1.0974
18431SOL     OW56733   7.140   1.976   4.053  0.7440  0.1541  0.6980
18431SOL    HW156734   7.226   2.007   4.025  0.1988  1.3487  0.2538
18431SOL    HW256735   7.082   1.998   3.980  0.0095 -0.3405  1.1239
18432SOL     OW56736   6.202   0.272   5.593  0.6150 -0.3252 -0.4512
18432SOL    HW156737   6.194   0.368   5.586 -0.2001 -0.3371  0.1072
18432SOL    HW256738   6.176   0.240   5.507 -2.0210 -0.1499  0.1845
18433SOL     OW56739   6.548   1.953   3.119  0.5418  0.2228 -0.2106
18433SOL    HW156740   6.467   1.967   3.072  0.7369  0.6422 -0.4280
18433SOL    HW256741   6.610   1.921   3.053  1.0316  1.5387 -0.4220
18434SOL     OW56742   5.545   1.884   7.522 -0.0127 -0.4485 -0.1900
18434SOL    HW156743   5.452   1.886   7.544 -0.5083  2.9991 -1.9957
18434SOL    HW256744   5.589   1.893   7.607 -1.4938  1.4723  0.4653
18435SOL     OW56745   7.590   2.460   4.272 -0.1499 -0.4844 -0.1853
18435SOL    HW156746   7.590   2.470   4.176  1.5939 -0.7205 -0.2397
18435SOL    HW256747   7.681   2.473   4.297 -0.9923  2.4481  1.7988
18436SOL     OW56748   5.852   1.319   4.033  0.5149 -0.0170 -0.0573
18436SOL    HW156749   5.829   1.288   3.946 -0.2595  1.0145 -0.2463
18436SOL    HW256750   5.920   1.259   4.063 -0.8273 -1.8109 -0.4158
18437SOL     OW56751   7.840   1.117   6.771  0.6398  0.2083 -0.3590
18437SOL    HW156752   7.860   1.103   6.863  0.9787 -1.7650 -0.6984
18437SOL    HW256753   7.747   1.094   6.763  0.6331  0.2890 -0.5210
18438SOL     OW56754   5.709   4.120   4.977  0.0877  0.3279  0.4509
18438SOL    HW156755   5.735   4.031   5.001 -0.9025  0.4993  2.4378
18438SOL    HW256756   5.688   4.162   5.061 -0.8014  2.0023 -0.5420
18439SOL     OW56757   4.378   2.672   3.301  0.4462  0.0692  0.5198
18439SOL    HW156758   4.325   2.748   3.278  0.8179  0.5503  1.2013
18439SOL    HW256759   4.328   2.597   3.269  0.2191  0.6066 -0.4466
18440SOL     OW56760   3.792   3.130   6.170 -0.4469 -0.0322 -0.2721
18440SOL    HW156761   3.864   3.130   6.233 -0.4203  0.9692 -0.2889
18440SOL    HW256762   3.721   3.174   6.215 -0.8422 -0.4375 -0.4938
18441SOL     OW56763   7.089   1.343   5.233  0.7841 -0.4467  0.2959
18441SOL    HW156764   7.127   1.362   5.148 -3.0216  0.7284 -1.3177
18441SOL    HW256765   7.131   1.405   5.293  2.1372  0.0019 -1.0701
18442SOL     OW56766   7.285   2.305   4.229  0.0123  0.0053 -0.1116
18442SOL    HW156767   7.235   2.382   4.258 -0.5931  0.0088 -1.1100
18442SOL    HW256768   7.338   2.281   4.305 -1.0534  0.3866  0.7838
18443SOL     OW56769   0.052   2.301   4.307  0.4038 -0.3892 -0.0154
18443SOL    HW156770   0.062   2.214   4.269  0.0674 -0.4513  0.0318
18443SOL    HW256771   0.033   2.285   4.399 -1.2481 -0.3362 -0.3152
18444SOL     OW56772   5.940   2.231   4.443 -0.6263 -0.0409 -0.0166
18444SOL    HW156773   6.029   2.258   4.420 -1.0664  1.6337  0.1735
18444SOL    HW256774   5.906   2.302   4.496 -1.8823 -0.9466  0.4247
18445SOL     OW56775   6.238   0.866   5.981 -0.0399 -0.0238 -0.4513
18445SOL    HW156776   6.143   0.859   5.975 -0.0797  0.2881 -0.2609
18445SOL    HW256777   6.272   0.794   5.929 -0.3768  0.2630 -1.0675
18446SOL     OW56778   6.300   2.189   4.139 -0.1890 -0.0234 -0.3188
18446SOL    HW156779   6.379   2.244   4.144 -1.2604  1.8386 -1.9526
18446SOL    HW256780   6.313   2.135   4.061  0.2126 -1.0299  0.4308
18447SOL     OW56781   7.302   2.184   5.002 -0.5987 -0.1412  0.2971
18447SOL    HW156782   7.243   2.132   5.055 -0.9161  1.1355  1.2554
18447SOL    HW256783   7.270   2.274   5.012  0.7482  0.4198 -0.1777
18448SOL     OW56784   6.355   0.271   3.708 -0.6949  0.5661  0.3930
18448SOL    HW156785   6.271   0.224   3.708 -0.9975  1.0872  0.3458
18448SOL    HW256786   6.347   0.333   3.781 -0.2752  0.4981  0.4992
18449SOL     OW56787   5.033   0.956   4.933 -0.2386  0.1009 -0.1784
18449SOL    HW156788   4.961   0.901   4.903  0.9448 -1.7867  0.2701
18449SOL    HW256789   5.017   0.968   5.027 -0.0635 -0.1539 -0.1169
18450SOL     OW56790   5.641   2.660   4.289  0.1101 -0.1862  0.0067
18450SOL    HW156791   5.577   2.630   4.225 -0.7062  1.9959 -0.2733
18450SOL    HW256792   5.714   2.693   4.236  1.6985 -2.8914  0.3191
18451SOL     OW56793   7.539   0.137   5.136 -0.1462 -0.6016 -0.2558
18451SOL    HW156794   7.530   0.096   5.050  0.4097 -2.9541  0.7235
18451SOL    HW256795   7.479   0.212   5.133 -1.9882 -2.0268 -1.8725
18452SOL     OW56796   5.303   0.937   5.073 -0.0642 -0.0364  0.1122
18452SOL    HW156797   5.351   1.013   5.039 -0.9420  0.1594 -0.7384
18452SOL    HW256798   5.219   0.940   5.027 -1.5017  0.4906  2.6181
18453SOL     OW56799   7.869   2.109   4.559  0.4216  0.2862  0.8588
18453SOL    HW156800   7.928   2.182   4.577  0.5762  0.5493 -0.6162
18453SOL    HW256801   7.927   2.035   4.541  0.3094  0.3813  0.0640
18454SOL     OW56802   4.448   2.331   5.045  0.0866 -0.1445 -0.1532
18454SOL    HW156803   4.464   2.405   4.986 -0.3625 -0.4538 -0.6774
18454SOL    HW256804   4.427   2.371   5.129  1.2165  0.3006 -0.0619
18455SOL     OW56805   6.267   1.885   3.616  0.5707  0.8024  0.1716
18455SOL    HW156806   6.244   1.852   3.703  1.1503 -0.1397 -0.0159
18455SOL    HW256807   6.259   1.980   3.623 -1.9855  0.6259  0.5044
18456SOL     OW56808   7.200   0.932   5.090 -0.2922  0.3826  0.2376
18456SOL    HW156809   7.156   0.954   5.007 -0.5139 -1.9061 -0.3081
18456SOL    HW256810   7.129   0.923   5.153 -0.3787 -0.4535  0.0350
18457SOL     OW56811   7.409   3.208   5.429  0.0290 -0.4915 -0.0350
18457SOL    HW156812   7.466   3.173   5.360  0.0975 -2.1298  0.7944
18457SOL    HW256813   7.470   3.235   5.499 -0.0687  0.6899 -0.3803
18458SOL     OW56814   6.186   0.572   3.833  0.2934 -0.1411  0.1482
18458SOL    HW156815   6.121   0.544   3.768  0.6954  0.1845 -0.4090
18458SOL    HW256816   6.184   0.504   3.900 -3.3616  1.6861  2.1994
18459SOL     OW56817   0.460   1.091   4.213  0.3735  0.2730  0.0456
18459SOL    HW156818   0.544   1.110   4.171  0.7686  1.2105  1.2087
18459SOL    HW256819   0.473   1.112   4.305 -0.7392 -0.8818  0.5029
18460SOL     OW56820   0.324   1.893   2.610  0.0129 -0.6431  0.1996
18460SOL    HW156821   0.336   1.824   2.544 -1.1036 -1.2661  0.6011
18460SOL    HW256822   0.366   1.970   2.574  1.9191 -1.7068  0.0334
18461SOL     OW56823   6.212   1.496   4.124  0.5711  0.6851  0.3209
18461SOL    HW156824   6.189   1.588   4.140 -0.1849  0.7806 -1.1079
18461SOL    HW256825   6.201   1.453   4.209  0.2202  1.7778  0.8453
18462SOL     OW56826   5.843   0.666   5.420  0.0874  0.1654 -0.1998
18462SOL    HW156827   5.775   0.599   5.419  1.3855 -1.2592  1.3106
18462SOL    HW256828   5.839   0.702   5.509  0.7414  0.6844 -0.3718
18463SOL     OW56829   4.638   1.073   3.598  0.0145  0.0900 -0.3549
18463SOL    HW156830   4.543   1.066   3.590  0.0062  0.5459 -0.6872
18463SOL    HW256831   4.670   0.986   3.575 -0.4032 -0.5694  1.3805
18464SOL     OW56832   7.462   1.348   5.988  0.2211  0.3520  0.0386
18464SOL    HW156833   7.473   1.427   6.041  1.1149  0.4826 -0.3268
18464SOL    HW256834   7.385   1.365   5.934 -0.9191  0.0824  1.5164
18465SOL     OW56835   6.401   7.167   5.188 -0.5652 -0.1072 -0.1427
18465SOL    HW156836   6.334   7.236   5.179 -0.8337 -0.4954 -1.5074
18465SOL    HW256837   6.440   7.161   5.100  0.4350 -0.7186  0.3302
18466SOL     OW56838   4.539   0.845   4.798  0.0487  0.1873 -0.1790
18466SOL    HW156839   4.468   0.895   4.759  0.4472  0.1912 -0.9063
18466SOL    HW256840   4.618   0.893   4.775  0.3058  0.1323  0.5440
18467SOL     OW56841   5.659   0.992   6.319 -0.3954 -0.0839  0.0616
18467SOL    HW156842   5.617   1.011   6.235 -0.7440  1.1784  0.4967
18467SOL    HW256843   5.750   0.975   6.297 -0.0511  2.1317 -0.4285
18468SOL     OW56844   7.357   2.217   5.356 -0.1043  0.0832  0.2601
18468SOL    HW156845   7.424   2.285   5.360 -1.5372  1.5547  2.9646
18468SOL    HW256846   7.309   2.234   5.275  0.7550  1.0975 -0.0482
18469SOL     OW56847   6.846   7.729   6.148 -0.4911  0.3510 -0.2913
18469SOL    HW156848   6.865   7.726   6.054  0.9992 -0.8928  0.0089
18469SOL    HW256849   6.760   7.771   6.154 -1.4375 -1.0934 -2.3369
18470SOL     OW56850   7.779   3.704   6.880  0.4238 -0.4357 -0.1507
18470SOL    HW156851   7.818   3.718   6.966  0.4994  0.5690 -0.3411
18470SOL    HW256852   7.742   3.789   6.856 -1.8198 -1.2914 -0.0147
18471SOL     OW56853   6.438   7.961   5.528  0.3250  0.3599 -0.3074
18471SOL    HW156854   6.343   7.966   5.539  0.4966  1.8909  0.7370
18471SOL    HW256855   6.452   7.982   5.435 -0.3330  0.5530 -0.3728
18472SOL     OW56856   0.294   2.027   5.096 -0.3273 -0.0054  0.1423
18472SOL    HW156857   0.222   2.025   5.159 -0.3757 -0.8119  0.0702
18472SOL    HW256858   0.318   1.935   5.085 -0.0271  0.1683 -0.6823
18473SOL     OW56859   4.733   0.006   4.361  0.3652  0.3303 -0.1366
18473SOL    HW156860   4.710  -0.034   4.278  0.8459 -2.3395  0.9300
18473SOL    HW256861   4.655   0.055   4.386 -0.3995 -0.2159 -1.3586
18474SOL     OW56862   7.462   0.481   3.770 -0.0179 -0.4320 -0.2754
18474SOL    HW156863   7.525   0.501   3.839  0.8140 -2.1283 -0.4731
18474SOL    HW256864   7.398   0.423   3.811  0.2958 -1.1811 -0.8174
18475SOL     OW56865   1.434   0.086   5.097 -0.2443 -0.4114 -0.0693
18475SOL    HW156866   1.479   0.167   5.074 -0.4872  0.3430  1.8793
18475SOL    HW256867   1.384   0.063   5.019  0.8527  0.5844 -1.1123
18476SOL     OW56868   5.667   2.053   6.701 -0.0888  0.1308 -0.1714
18476SOL    HW156869   5.727   2.127   6.689 -0.9374  0.5803 -2.0382
18476SOL    HW256870   5.585   2.093   6.729 -0.3473 -0.1813 -0.4803
18477SOL     OW56871   7.940   2.415   2.579  0.1666 -0.6901 -0.3897
18477SOL    HW156872   7.936   2.468   2.658 -0.8889  0.9292 -1.4640
18477SOL    HW256873   8.026   2.434   2.541  0.3360 -0.8224 -0.0772
18478SOL     OW56874   5.854   2.120   3.822 -0.0628  0.6489  0.6215
18478SOL    HW156875   5.849   2.180   3.897  0.5208  0.0628  1.1500
18478SOL    HW256876   5.927   2.154   3.770  1.2157 -0.3701  1.6595
18479SOL     OW56877   7.764   2.023   5.389 -0.0681  0.2189  0.0299
18479SOL    HW156878   7.796   2.008   5.300  0.1973  0.6291  0.0550
18479SOL    HW256879   7.814   2.098   5.421  0.6704 -0.6263  0.9402
18480SOL     OW56880   7.343   1.136   2.472  0.1649  0.2070  0.4735
18480SOL    HW156881   7.341   1.207   2.409 -0.9666 -0.3803 -0.1666
18480SOL    HW256882   7.269   1.080   2.449  0.8562 -1.0287  1.1376
18481SOL     OW56883   0.993   7.943   6.018 -0.0559  0.3997  0.4515
18481SOL    HW156884   0.937   7.868   6.001  0.3243  0.0576  0.7036
18481SOL    HW256885   1.018   7.935   6.110 -0.3523  1.0635  0.5985
18482SOL     OW56886   6.772   2.492   5.230 -0.0692 -0.3179  0.2151
18482SOL    HW156887   6.685   2.515   5.264  0.4382  0.5051  1.0016
18482SOL    HW256888   6.827   2.484   5.308  0.8228  0.2892 -0.3278
18483SOL     OW56889   4.648   2.943   4.389  0.3136 -0.2330 -0.1687
18483SOL    HW156890   4.668   2.995   4.467  0.1687 -0.8104  0.2662
18483SOL    HW256891   4.733   2.912   4.358  0.4290  0.5249 -0.6202
18484SOL     OW56892   5.911   0.113   5.518 -0.2760 -0.2301  0.5811
18484SOL    HW156893   5.909   0.202   5.481  2.4044 -0.2884  0.1119
18484SOL    HW256894   5.859   0.061   5.458 -0.9531  0.8102  0.2384
18485SOL     OW56895   5.356   7.520   3.510  0.1846 -0.0989 -0.0477
18485SOL    HW156896   5.419   7.448   3.513 -0.2791 -0.5076 -0.0045
18485SOL    HW256897   5.301   7.501   3.434 -0.5662 -0.3334  0.5343
18486SOL     OW56898   1.103   0.943   1.907 -0.4057  0.2039 -0.5122
18486SOL    HW156899   1.175   0.995   1.872 -0.2267  0.0486 -0.3782
18486SOL    HW256900   1.122   0.854   1.877 -0.2932  0.0831 -0.0849
18487SOL     OW56901   1.502   0.708   6.871 -0.2756  0.3678  0.1566
18487SOL    HW156902   1.522   0.717   6.964 -0.0022  0.3609  0.0989
18487SOL    HW256903   1.522   0.794   6.833 -1.1373  0.6171  0.2370
18488SOL     OW56904   5.659   2.275   4.880 -0.4095 -0.1073 -0.2182
18488SOL    HW156905   5.687   2.184   4.891 -0.8559 -0.2792 -0.4705
18488SOL    HW256906   5.590   2.287   4.945  0.0256  0.2181  0.1842
18489SOL     OW56907   7.287   2.861   3.340 -0.5307 -0.2777  0.3560
18489SOL    HW156908   7.222   2.824   3.280 -1.6188  2.7165 -0.5123
18489SOL    HW256909   7.275   2.956   3.333  2.3793  0.3429  1.9850
18490SOL     OW56910   5.682   0.941   4.257 -0.3705 -0.3291  0.3044
18490SOL    HW156911   5.706   0.999   4.185  0.5624 -0.8445  0.1950
18490SOL    HW256912   5.731   0.861   4.242 -0.8197 -0.7592  1.0501
18491SOL     OW56913   7.678   7.721   7.033 -0.2461  0.0014  0.2539
18491SOL    HW156914   7.629   7.715   7.115 -0.4715  0.4490  0.1559
18491SOL    HW256915   7.616   7.695   6.965 -0.0339 -0.4536  0.2274
18492SOL     OW56916   6.294   1.608   3.254  0.1797  0.7273 -0.1609
18492SOL    HW156917   6.316   1.516   3.266  0.6508  0.9949  1.1899
18492SOL    HW256918   6.302   1.623   3.160  0.5997 -0.4816 -0.3292
18493SOL     OW56919   5.722   1.864   6.190 -0.1501 -0.1370 -0.2190
18493SOL    HW156920   5.707   1.790   6.249 -1.3587 -0.3999 -0.8084
18493SOL    HW256921   5.799   1.840   6.140  0.6079 -0.1243  0.9085
18494SOL     OW56922   6.367   8.000   4.061 -0.5973 -0.1338  0.5718
18494SOL    HW156923   6.276   7.987   4.085 -1.1641  0.7968 -0.9424
18494SOL    HW256924   6.390   8.085   4.097 -0.4436 -0.1861  0.6003
18495SOL     OW56925   7.899   1.995   4.869  0.3882 -0.6484  0.1374
18495SOL    HW156926   7.960   1.925   4.844  1.9343  0.8585 -0.5412
18495SOL    HW256927   7.953   2.074   4.868 -1.0591  0.4309  1.8506
18496SOL     OW56928   6.875   7.200   3.926  0.0391  0.2446 -0.0829
18496SOL    HW156929   6.804   7.181   3.864  0.2454  0.5556 -0.4247
18496SOL    HW256930   6.952   7.212   3.870 -0.0794  2.0925  0.0806
18497SOL     OW56931   4.502   1.295   2.781 -0.0382 -0.8156  0.2573
18497SOL    HW156932   4.445   1.276   2.707 -1.4225  1.2807  0.7087
18497SOL    HW256933   4.545   1.377   2.759  0.2093 -0.6137  1.4031
18498SOL     OW56934   6.564   1.354   5.936 -1.0379 -0.0236  0.0932
18498SOL    HW156935   6.515   1.421   5.889 -1.4538  0.8818  1.7599
18498SOL    HW256936   6.497   1.303   5.982 -0.5314  0.3223  1.2407
18499SOL     OW56937   6.416   1.515   7.069 -0.0139 -0.0731 -0.4707
18499SOL    HW156938   6.428   1.593   7.015 -1.2082 -0.4143 -1.2677
18499SOL    HW256939   6.321   1.506   7.077  0.0194 -2.5410 -2.0416
18500SOL     OW56940   4.405   7.117   7.443 -0.2746 -0.1629 -0.4207
18500SOL    HW156941   4.335   7.065   7.404  1.0272 -1.6997 -0.8025
18500SOL    HW256942   4.461   7.140   7.369  0.1972  0.1505  0.0319
18501SOL     OW56943   4.657   1.428   5.597 -0.3639  0.3138  0.3340
18501SOL    HW156944   4.618   1.351   5.638 -0.4926  0.4762  0.5179
18501SOL    HW256945   4.685   1.483   5.670  0.1898  0.2130  0.2065
18502SOL     OW56946   6.168   0.105   6.842 -0.2458 -0.5397  0.8440
18502SOL    HW156947   6.183   0.056   6.761 -0.2766  0.9578 -0.1227
18502SOL    HW256948   6.254   0.110   6.883  0.2051  0.3749 -0.1405
18503SOL     OW56949   0.335   0.564   6.367 -0.5875  0.9428  0.1158
18503SOL    HW156950   0.389   0.536   6.293 -1.7795  2.1297 -1.2651
18503SOL    HW256951   0.392   0.626   6.414 -0.7744  2.5035 -1.5559
18504SOL     OW56952   0.810   7.164   5.825 -0.4113  0.3158 -0.2560
18504SOL    HW156953   0.858   7.166   5.743  2.2709 -0.7725  1.1613
18504SOL    HW256954   0.872   7.199   5.890 -1.3774 -1.4461  1.7513
18505SOL     OW56955   5.569   1.144   6.528 -0.3027  0.4299 -0.0890
18505SOL    HW156956   5.602   1.069   6.479 -2.1763 -0.0233 -0.7301
18505SOL    HW256957   5.496   1.177   6.476 -0.2490  1.9958  0.7592
18506SOL     OW56958   5.098   0.836   6.286  0.6134  0.5105  0.3354
18506SOL    HW156959   5.122   0.896   6.357 -1.1968  1.7965 -0.0616
18506SOL    HW256960   5.115   0.886   6.206  0.4074 -0.0520 -0.0658
18507SOL     OW56961   6.676   2.179   5.861  0.0869 -0.5413 -0.2512
18507SOL    HW156962   6.600   2.237   5.852  0.8561  0.3895 -1.1167
18507SOL    HW256963   6.644   2.093   5.836 -0.6350 -0.1100 -0.8666
18508SOL     OW56964   6.096   0.954   5.446  0.1150  0.2021 -0.3974
18508SOL    HW156965   6.062   0.937   5.534 -0.7903  3.2007 -0.0621
18508SOL    HW256966   6.175   1.007   5.461  1.5088 -1.4697 -1.3837
18509SOL     OW56967   3.499   1.208   6.907 -1.1950 -0.2870 -0.1289
18509SOL    HW156968   3.585   1.244   6.927 -1.3065  0.2018 -0.5177
18509SOL    HW256969   3.517   1.117   6.881 -1.1415 -1.3644  3.1687
18510SOL     OW56970   6.053   0.768   6.434 -0.1620  0.3637 -0.5622
18510SOL    HW156971   6.021   0.681   6.409 -1.1879  0.6210 -0.2081
18510SOL    HW256972   6.005   0.788   6.515  0.8910  0.7904 -0.0273
18511SOL     OW56973   6.259   0.253   6.546  0.9178  0.0298 -0.0967
18511SOL    HW156974   6.207   0.172   6.541  2.1092 -1.1741  3.3939
18511SOL    HW256975   6.345   0.228   6.511  1.6989 -0.7690  2.1832
18512SOL     OW56976   7.818   5.759   7.291 -0.0437 -0.6952  0.6021
18512SOL    HW156977   7.860   5.693   7.346  0.4214 -1.9568 -1.1615
18512SOL    HW256978   7.844   5.735   7.202  0.8803  2.4330 -0.0738
18513SOL     OW56979   6.656   0.471   6.391 -0.1611 -0.1171 -0.5245
18513SOL    HW156980   6.600   0.440   6.462 -0.1122 -1.4526 -1.0480
18513SOL    HW256981   6.711   0.396   6.368 -0.2410  0.2446 -2.0410
18514SOL     OW56982   7.039   0.698   6.850  0.0287  0.2028  0.1119
18514SOL    HW156983   6.968   0.635   6.851  0.1402  0.0614 -0.3342
18514SOL    HW256984   6.996   0.782   6.835  0.0234  0.0001 -1.1150
18515SOL     OW56985   5.384   1.310   7.026 -0.5387 -0.8043  0.1085
18515SOL    HW156986   5.417   1.258   6.952  0.3951  0.8469 -0.6910
18515SOL    HW256987   5.298   1.273   7.045 -0.3130 -2.0063 -1.0549
18516SOL     OW56988   7.398   7.839   4.517  0.0421 -0.2442 -0.2450
18516SOL    HW156989   7.448   7.867   4.441 -0.4458 -0.5801 -0.7043
18516SOL    HW256990   7.463   7.800   4.576  0.2670 -1.0878 -1.0264
18517SOL     OW56991   5.975   1.367   8.603  0.3357 -0.9547  0.5046
18517SOL    HW156992   5.897   1.364   8.658 -0.3148  0.6418 -0.2762
18517SOL    HW256993   5.953   1.312   8.528  0.7027 -2.0144  1.1479
18518SOL     OW56994   6.500   1.360   6.600  0.4821 -0.0282 -0.0553
18518SOL    HW156995   6.568   1.387   6.538  0.2260 -0.5468 -0.5642
18518SOL    HW256996   6.549   1.334   6.679  0.7843  0.9995  0.1055
18519SOL     OW56997   5.308   2.495   6.099 -0.2853 -0.0202 -0.3013
18519SOL    HW156998   5.395   2.525   6.125  0.7132 -2.1923 -0.9378
18519SOL    HW256999   5.317   2.474   6.006 -1.9303  1.1128 -0.7659
18520SOL     OW57000   5.777   0.739   5.676  0.0965  0.1830  0.5343
18520SOL    HW157001   5.841   0.718   5.744 -1.1310  0.1791  1.7080
18520SOL    HW257002   5.777   0.835   5.672  1.7089  0.1825 -1.0026
18521SOL     OW57003   7.541   3.757   5.444 -0.0135  0.1109  0.5138
18521SOL    HW157004   7.601   3.699   5.397 -0.2180 -0.4018  0.8757
18521SOL    HW257005   7.502   3.701   5.512 -0.7515  0.4889  0.4084
18522SOL     OW57006   4.581   7.393   5.682 -0.0945 -0.4312 -0.2308
18522SOL    HW157007   4.584   7.303   5.649 -0.5757  0.0110 -1.5154
18522SOL    HW257008   4.643   7.441   5.627 -1.2174  0.4028 -0.7906
18523SOL     OW57009   7.772   0.852   5.688  0.3988 -0.3630  0.4595
18523SOL    HW157010   7.779   0.812   5.601 -0.6177  0.3343  0.0389
18523SOL    HW257011   7.742   0.781   5.745 -0.5461 -0.4347 -0.1068
18524SOL     OW57012   7.082   2.437   6.977 -0.0365 -0.5625  0.5314
18524SOL    HW157013   7.164   2.409   7.019 -0.5394 -2.1891  0.5160
18524SOL    HW257014   7.014   2.414   7.040 -0.6090 -0.8129 -0.1681
18525SOL     OW57015   5.509   2.658   6.124 -0.5005  0.3261  0.3630
18525SOL    HW157016   5.492   2.657   6.218  1.5597 -1.4023  0.8005
18525SOL    HW257017   5.605   2.662   6.117 -0.5677 -0.4360 -1.6286
18526SOL     OW57018   5.315   1.235   8.051  0.2545  0.2905 -0.0970
18526SOL    HW157019   5.263   1.311   8.078  0.2201 -0.0190  0.7643
18526SOL    HW257020   5.284   1.215   7.963  0.2562  1.2641 -0.3334
18527SOL     OW57021   6.431   1.562   7.745 -0.1716 -0.2082  0.3339
18527SOL    HW157022   6.433   1.647   7.699 -0.0229  0.6554  1.8641
18527SOL    HW257023   6.514   1.560   7.793 -0.6636 -0.7263  1.1727
18528SOL     OW57024   7.337   6.560   5.288 -0.1549 -0.5263 -0.2692
18528SOL    HW157025   7.279   6.606   5.348 -0.3067  0.0592 -0.8451
18528SOL    HW257026   7.289   6.482   5.262 -0.6587 -0.0868 -0.6785
18529SOL     OW57027   6.039   1.416   6.882  0.5868 -0.8241  0.2309
18529SOL    HW157028   6.093   1.470   6.824 -1.4647  3.0468  1.5367
18529SOL    HW257029   6.067   1.440   6.970 -0.6749 -1.5950  0.8708
18530SOL     OW57030   1.087   1.204   7.196 -0.1784  0.6647  0.1838
18530SOL    HW157031   1.069   1.297   7.184  0.5465  0.5746 -1.9159
18530SOL    HW257032   1.003   1.167   7.224 -0.6504  1.8231  0.3649
18531SOL     OW57033   6.319   2.035   6.251 -0.3747  0.6573  0.0961
18531SOL    HW157034   6.279   1.948   6.251  0.9081  0.0477  0.2512
18531SOL    HW257035   6.283   2.077   6.329 -0.4747  0.0054  0.4123
18532SOL     OW57036   5.016   7.454   5.783 -0.4682 -0.3080  0.1550
18532SOL    HW157037   4.937   7.417   5.822 -0.7131  0.1410  0.0954
18532SOL    HW257038   5.086   7.393   5.807 -0.6531 -0.1722  1.0754
18533SOL     OW57039   6.100   1.473   5.282 -0.4897 -0.0037  0.5080
18533SOL    HW157040   6.097   1.380   5.304  0.5419  0.4501  2.9162
18533SOL    HW257041   6.010   1.503   5.291 -0.9804 -0.8924 -1.1167
18534SOL     OW57042   7.344   2.110   3.938 -0.1022  0.6934  0.3645
18534SOL    HW157043   7.374   2.134   3.850 -0.2147  1.5245  0.5444
18534SOL    HW257044   7.424   2.097   3.988  0.0530 -2.4183 -0.4963
18535SOL     OW57045   7.829   1.202   5.712 -0.2491  0.2746 -0.8407
18535SOL    HW157046   7.864   1.151   5.786 -0.6232  0.6663 -0.3804
18535SOL    HW257047   7.903   1.254   5.682 -0.1021  0.1411 -0.7195
18536SOL     OW57048   0.668   1.486   6.585 -0.3916  0.7102 -0.5004
18536SOL    HW157049   0.738   1.465   6.647 -0.8349  0.7422  0.0187
18536SOL    HW257050   0.691   1.437   6.506 -2.2421 -3.3571  1.1548
18537SOL     OW57051   0.273   1.424   7.914  0.5884 -0.2404  0.2947
18537SOL    HW157052   0.248   1.440   8.005 -0.9786  1.5715 -0.3797
18537SOL    HW257053   0.246   1.504   7.868  2.3867 -0.6336 -1.5752
18538SOL     OW57054   6.543   7.148   7.356  0.0196 -0.1411 -0.1686
18538SOL    HW157055   6.537   7.234   7.397  0.8582 -0.1711  0.0231
18538SOL    HW257056   6.518   7.164   7.264 -1.3221  0.0197  0.1905
18539SOL     OW57057   7.435   0.641   7.877 -0.5293  0.2703 -0.3633
18539SOL    HW157058   7.523   0.678   7.881 -0.5306  0.4666 -1.7750
18539SOL    HW257059   7.399   0.657   7.964  1.1790 -0.7364  0.5904
18540SOL     OW57060   6.889   7.716   9.160 -0.3694  0.3339 -0.0578
18540SOL    HW157061   6.855   7.655   9.225 -0.7910 -0.6037 -1.1273
18540SOL    HW257062   6.910   7.662   9.084 -1.5495  1.5923 -1.3518
18541SOL     OW57063   0.329   0.742   7.392 -0.2846 -0.3621 -0.7261
18541SOL    HW157064   0.278   0.668   7.425  0.3070 -0.4182  0.0876
18541SOL    HW257065   0.379   0.705   7.319  0.8684 -1.0948  0.3720
18542SOL     OW57066   6.563   2.467   7.016  0.0156  0.2809  0.2332
18542SOL    HW157067   6.592   2.440   7.103 -0.1688  1.0854  0.5512
18542SOL    HW257068   6.588   2.394   6.959 -0.9541 -0.7879  1.1380
18543SOL     OW57069   5.830   1.100   7.439  0.5941  0.2174  0.2836
18543SOL    HW157070   5.906   1.132   7.489  1.3880 -1.5244  0.3021
18543SOL    HW257071   5.791   1.034   7.496 -0.1511  0.1778 -0.2650
18544SOL     OW57072   3.190   2.428   6.386  0.6300  0.0123  0.1218
18544SOL    HW157073   3.168   2.519   6.364  3.5151  0.7442 -0.0733
18544SOL    HW257074   3.230   2.434   6.472  0.9208 -1.0893  0.0717
18545SOL     OW57075   5.568   7.920   6.437  0.4776  0.2421  0.6663
18545SOL    HW157076   5.483   7.963   6.443 -0.0033 -0.2336 -1.9283
18545SOL    HW257077   5.632   7.991   6.444 -0.2585  1.1893 -1.5467
18546SOL     OW57078   7.207   0.541   8.423  0.0708 -0.2954  0.3132
18546SOL    HW157079   7.275   0.498   8.370  1.0218  1.7464 -0.2396
18546SOL    HW257080   7.255   0.603   8.477 -1.2668  0.4373  0.7076
18547SOL     OW57081   6.806   2.050   7.382  0.5154  0.0234 -0.3911
18547SOL    HW157082   6.882   2.104   7.362  0.5991  0.2217  0.4229
18547SOL    HW257083   6.732   2.096   7.342  0.7391  0.1492 -0.6607
18548SOL     OW57084   7.307   0.166   5.590 -0.2278 -0.2209  0.3606
18548SOL    HW157085   7.239   0.104   5.614 -0.6027  0.2029  0.4119
18548SOL    HW257086   7.304   0.169   5.494 -1.0393  0.6146  0.3957
18549SOL     OW57087   1.242   1.144   5.267 -0.2488 -0.1979 -0.0426
18549SOL    HW157088   1.278   1.167   5.353  1.1202  1.8725 -1.1096
18549SOL    HW257089   1.304   1.080   5.232  0.0515  0.1568 -0.1525
18550SOL     OW57090   6.978   2.615   4.820  0.1190 -0.5645  0.0294
18550SOL    HW157091   7.040   2.666   4.871  0.1614 -1.6971  1.1583
18550SOL    HW257092   7.032   2.575   4.751 -0.1092  1.7787 -1.6370
18551SOL     OW57093   0.885   0.916   6.090  0.7701 -0.2518 -0.2033
18551SOL    HW157094   0.900   0.869   6.172 -0.3483 -1.0053 -0.4183
18551SOL    HW257095   0.926   0.861   6.023 -0.6621 -1.0315 -0.4724
18552SOL     OW57096   7.221   2.743   7.387  0.4801  0.4835  0.5197
18552SOL    HW157097   7.137   2.697   7.383 -0.0101  1.2990  1.0492
18552SOL    HW257098   7.283   2.677   7.417 -0.1138  0.0464  0.8086
18553SOL     OW57099   6.118   1.305   4.427 -0.1911 -0.3467  0.0628
18553SOL    HW157100   6.187   1.332   4.488  0.2881  0.1763 -0.6937
18553SOL    HW257101   6.046   1.365   4.444 -1.1029 -1.8256  1.9168
18554SOL     OW57102   6.520   1.223   7.487  0.1574 -0.2399  0.2000
18554SOL    HW157103   6.482   1.152   7.434 -1.6801  0.4601  0.5123
18554SOL    HW257104   6.568   1.276   7.424 -0.3843 -0.4915 -0.4385
18555SOL     OW57105   6.126   2.329   8.116  0.4225 -0.1565  0.1620
18555SOL    HW157106   6.166   2.416   8.117  0.4397 -0.1699  0.8694
18555SOL    HW257107   6.033   2.346   8.103  0.4860 -0.0603 -0.1821
18556SOL     OW57108   6.906   0.534   5.642  0.1210  0.1692 -0.1834
18556SOL    HW157109   6.955   0.616   5.643 -0.5765  0.6191  1.7390
18556SOL    HW257110   6.854   0.537   5.562  1.7488  0.5492 -1.2800
18557SOL     OW57111   5.976   1.143   6.920 -0.5840 -0.5225  0.7192
18557SOL    HW157112   5.988   1.233   6.891  1.0070 -1.3169 -1.3322
18557SOL    HW257113   5.957   1.150   7.014  0.5764  1.8763  0.8441
18558SOL     OW57114   6.609   0.214   6.061 -0.0605  0.0442 -0.1438
18558SOL    HW157115   6.661   0.263   5.998 -0.6050  1.1312  0.2248
18558SOL    HW257116   6.533   0.270   6.078  0.2661 -0.0424  1.7806
18559SOL     OW57117   5.187   0.628   5.274 -0.3193 -0.6694  0.0975
18559SOL    HW157118   5.187   0.692   5.346 -1.0435 -0.4054 -0.1255
18559SOL    HW257119   5.166   0.680   5.196 -0.3362 -1.0831 -0.1751
18560SOL     OW57120   6.696   7.862   5.501 -0.0848  0.0326 -0.3440
18560SOL    HW157121   6.718   7.891   5.589 -0.3838 -1.9766  0.4517
18560SOL    HW257122   6.604   7.887   5.489 -0.6774 -1.5000  0.7608
18561SOL     OW57123   4.901   0.806   6.685 -0.3428  0.6168  0.3711
18561SOL    HW157124   4.843   0.880   6.667 -0.3240  1.0251  1.9080
18561SOL    HW257125   4.871   0.771   6.769 -0.4985 -1.2817 -0.4166
18562SOL     OW57126   7.376   1.936   7.416 -0.1482  0.0676 -0.0196
18562SOL    HW157127   7.350   1.846   7.397  1.0005  0.0173 -1.5207
18562SOL    HW257128   7.470   1.931   7.430 -0.2027  0.9204  0.7270
18563SOL     OW57129   6.233   6.998   6.002  0.2646 -0.5730 -0.6411
18563SOL    HW157130   6.262   7.051   6.077  1.3315  0.1525 -1.5383
18563SOL    HW257131   6.192   7.061   5.943  2.5526 -0.4758 -2.2420
18564SOL     OW57132   0.451   7.355   6.386  0.0461 -0.0496 -0.2888
18564SOL    HW157133   0.511   7.290   6.352  0.1437 -1.2574  2.0136
18564SOL    HW257134   0.485   7.377   6.473 -1.9637  0.3836  0.4478
18565SOL     OW57135   6.256   1.406   4.623 -0.7178 -0.2720 -0.4091
18565SOL    HW157136   6.327   1.425   4.684 -0.2444 -1.4492 -0.5558
18565SOL    HW257137   6.183   1.379   4.678 -0.8140  0.2068 -0.2958
18566SOL     OW57138   7.067   7.157   4.956  0.1508  0.3230 -0.0932
18566SOL    HW157139   7.161   7.137   4.954  0.3911  1.4178 -1.7030
18566SOL    HW257140   7.028   7.096   4.894 -0.2727 -0.3513  0.8196
18567SOL     OW57141   7.413   2.165   7.810  0.2636  0.2936  0.1360
18567SOL    HW157142   7.441   2.152   7.719  1.0456 -2.0969  0.6430
18567SOL    HW257143   7.491   2.198   7.854  0.5912 -0.8277  0.4031
18568SOL     OW57144   6.097   2.774   6.579  0.1361  0.5342 -0.6112
18568SOL    HW157145   6.009   2.740   6.561  0.2485  0.6304 -1.4111
18568SOL    HW257146   6.140   2.775   6.493  1.1973 -0.2710 -0.1160
18569SOL     OW57147   6.161   1.823   8.349  0.1489 -0.2032 -0.4623
18569SOL    HW157148   6.067   1.818   8.333  0.1296  0.2496 -0.4981
18569SOL    HW257149   6.176   1.766   8.424 -0.1523 -0.2835 -0.4636
18570SOL     OW57150   5.152   1.281   7.515  0.3274  0.1912  0.0603
18570SOL    HW157151   5.192   1.353   7.466  0.6941  1.5035  2.1551
18570SOL    HW257152   5.091   1.324   7.575  1.6853 -1.0630  2.4484
18571SOL     OW57153   4.130   7.718   5.332 -0.1835 -0.0293  0.1281
18571SOL    HW157154   4.111   7.693   5.422 -1.1378  0.7891  0.1739
18571SOL    HW257155   4.047   7.706   5.286 -0.1157  1.0109 -0.2979
18572SOL     OW57156   6.941   1.704   5.012 -0.2997 -0.3774 -0.5314
18572SOL    HW157157   6.873   1.641   4.985 -1.6465  1.2239 -1.0516
18572SOL    HW257158   6.941   1.698   5.107  0.8345 -2.3732 -0.6029
18573SOL     OW57159   6.395   2.236   5.055  0.0565  0.3288  0.1343
18573SOL    HW157160   6.465   2.291   5.019  0.7333  0.3483  1.4272
18573SOL    HW257161   6.315   2.282   5.030  0.6067  2.1796  1.5139
18574SOL     OW57162   6.753   1.817   7.487 -0.0240 -0.2754  0.7448
18574SOL    HW157163   6.782   1.896   7.442 -0.3186  1.0149  2.6966
18574SOL    HW257164   6.833   1.767   7.503  0.2390 -0.0850  0.0571
18575SOL     OW57165   3.869   7.142   5.100  0.0055  0.2581  0.1074
18575SOL    HW157166   3.883   7.223   5.052  1.3183  1.2504  2.0421
18575SOL    HW257167   3.784   7.154   5.143  0.5005  0.9150  0.9241
18576SOL     OW57168   6.453   1.696   5.976  0.5590  0.0884  0.0623
18576SOL    HW157169   6.378   1.695   5.916  0.9805 -2.9833 -0.5573
18576SOL    HW257170   6.520   1.746   5.928 -0.4454  1.2777 -0.1655
18577SOL     OW57171   6.836   0.367   5.835  0.2023  0.0728 -0.3355
18577SOL    HW157172   6.864   0.443   5.785  1.1139 -0.3368 -0.4502
18577SOL    HW257173   6.787   0.314   5.773  0.2838  0.1571 -0.4716
18578SOL     OW57174   5.944   0.733   7.470  0.1930  0.3863 -0.0216
18578SOL    HW157175   5.916   0.820   7.440 -1.8456 -0.3823 -0.5081
18578SOL    HW257176   5.927   0.675   7.396  2.6812 -0.2787 -0.1345
18579SOL     OW57177   7.843   7.384   7.430  0.0323 -0.0417 -0.6948
18579SOL    HW157178   7.761   7.385   7.478  0.4009 -0.0383 -0.0571
18579SOL    HW257179   7.859   7.291   7.412  0.7127 -0.1974  0.6255
18580SOL     OW57180   5.693   0.461   5.268 -0.1250 -0.2764 -0.1268
18580SOL    HW157181   5.627   0.528   5.252  0.2451  0.0131 -0.4623
18580SOL    HW257182   5.643   0.382   5.288 -0.5764  0.3686  1.4594
18581SOL     OW57183   4.969   1.429   6.516 -0.5714  0.0743 -0.0981
18581SOL    HW157184   4.923   1.380   6.585  0.6736  1.6307  1.9792
18581SOL    HW257185   4.974   1.369   6.442 -0.5843 -2.3270  1.7351
18582SOL     OW57186   5.721   7.669   5.396  0.2840 -0.0023 -0.1661
18582SOL    HW157187   5.767   7.647   5.316  1.0856  0.9056  0.0275
18582SOL    HW257188   5.703   7.585   5.438  1.4172 -0.3976 -0.4478
18583SOL     OW57189   6.463   0.142   5.055  0.1739 -0.2952  0.0131
18583SOL    HW157190   6.454   0.229   5.016  1.5320 -0.0854  0.0988
18583SOL    HW257191   6.390   0.092   5.020 -0.9780  1.0389  0.4325
18584SOL     OW57192   0.426   1.619   9.378  0.0727  0.1381  0.9449
18584SOL    HW157193   0.485   1.646   9.449 -0.6190 -0.6979  1.8815
18584SOL    HW257194   0.409   1.699   9.329  2.3342  0.3288  0.3429
18585SOL     OW57195   0.085   7.906   7.121 -0.7026 -0.0230  0.5409
18585SOL    HW157196   0.003   7.906   7.170 -0.6694 -1.4172  0.6386
18585SOL    HW257197   0.061   7.938   7.034 -1.3530 -0.4391  0.5637
18586SOL     OW57198   5.830   1.773   7.694 -0.4809  0.1642 -0.3104
18586SOL    HW157199   5.805   1.681   7.705  1.4414 -0.4579 -0.6904
18586SOL    HW257200   5.909   1.783   7.746 -0.3617  1.4693 -0.7003
18587SOL     OW57201   7.290   1.860   6.287 -0.3611  0.2163 -0.0999
18587SOL    HW157202   7.280   1.882   6.195  0.7084 -2.4743 -0.9422
18587SOL    HW257203   7.379   1.887   6.309 -0.3605  0.1921 -0.0729
18588SOL     OW57204   0.839   1.727   7.355 -0.5199  0.3174 -0.3827
18588SOL    HW157205   0.823   1.812   7.315 -1.9842  0.6425  0.7954
18588SOL    HW257206   0.775   1.669   7.314 -1.8661  0.5972  1.1904
18589SOL     OW57207   0.479   1.248   7.286 -0.1184  0.1269 -0.0219
18589SOL    HW157208   0.562   1.231   7.242 -0.0798 -0.2310  0.1916
18589SOL    HW257209   0.467   1.175   7.346 -0.1523  0.6376  0.6021
18590SOL     OW57210   5.702   0.753   3.917 -0.2838 -0.6191 -0.3028
18590SOL    HW157211   5.694   0.751   3.822  0.9214  0.5028 -0.4551
18590SOL    HW257212   5.704   0.846   3.939 -1.0857 -0.8598  0.8887
18591SOL     OW57213   7.479   2.288   8.420 -0.0689  0.3016  0.5391
18591SOL    HW157214   7.498   2.293   8.327 -0.0098  2.2893  0.6160
18591SOL    HW257215   7.384   2.300   8.426 -0.1597 -0.4296  0.7163
18592SOL     OW57216   0.423   0.012   6.973 -0.0878 -0.0648  0.6060
18592SOL    HW157217   0.392  -0.041   6.900 -1.0706  1.8757 -0.4821
18592SOL    HW257218   0.476   0.081   6.932  1.3238 -0.2731  1.9734
18593SOL     OW57219   7.693   0.638   6.607 -0.2616 -0.0385  0.0970
18593SOL    HW157220   7.647   0.665   6.687 -1.3352 -1.4123 -0.0206
18593SOL    HW257221   7.629   0.647   6.537 -0.0876 -1.0854 -0.2223
18594SOL     OW57222   6.306   2.534   6.572  0.3323 -0.3770  0.5825
18594SOL    HW157223   6.365   2.598   6.611  0.1953 -0.4014  0.8353
18594SOL    HW257224   6.218   2.565   6.596  0.2446 -0.3620  0.2466
18595SOL     OW57225   1.604   0.673   7.128 -0.1250 -0.0266  0.0947
18595SOL    HW157226   1.603   0.586   7.168  0.4278  0.4356  1.1485
18595SOL    HW257227   1.682   0.673   7.073 -0.0117 -0.1260  0.2533
18596SOL     OW57228   5.971   0.595   6.025 -0.2467 -0.3045 -1.0707
18596SOL    HW157229   6.045   0.548   6.062  0.5321  0.2847 -1.8254
18596SOL    HW257230   5.958   0.556   5.939 -1.8501 -1.4643 -0.3538
18597SOL     OW57231   6.433   1.104   6.646 -0.4599  0.0158  0.1012
18597SOL    HW157232   6.426   1.193   6.613 -0.7991 -0.7923 -2.2288
18597SOL    HW257233   6.346   1.066   6.631 -0.1716 -0.8550  0.5508
18598SOL     OW57234   7.109   1.715   5.714  0.2423 -0.4042  0.3770
18598SOL    HW157235   7.116   1.806   5.683  0.7141 -0.3724  0.5683
18598SOL    HW257236   7.189   1.701   5.765  0.2652 -0.9933  0.1843
18599SOL     OW57237   5.466   0.976   8.158 -0.1321 -0.5481  0.4357
18599SOL    HW157238   5.484   0.903   8.099 -0.5150 -0.8744  0.7165
18599SOL    HW257239   5.415   1.037   8.105  1.1976  0.0746 -0.1636
18600SOL     OW57240   6.758   2.067   7.071  0.4846 -0.1603  0.2645
18600SOL    HW157241   6.682   2.009   7.064  1.7400 -1.8606 -0.0423
18600SOL    HW257242   6.833   2.008   7.067  1.8345  1.4645  0.5413
18601SOL     OW57243   4.890   2.356   6.658  0.0883 -0.3394  0.0591
18601SOL    HW157244   4.882   2.452   6.661  2.0265 -0.1597  2.8605
18601SOL    HW257245   4.800   2.326   6.646 -1.0102  1.8220  2.0205
18602SOL     OW57246   6.794   2.386   4.346  0.3500  0.1221  0.0912
18602SOL    HW157247   6.781   2.446   4.419  1.0354  1.8286 -1.1476
18602SOL    HW257248   6.886   2.363   4.350  0.7201  1.3142 -1.0106
18603SOL     OW57249   6.987   0.678   5.310 -0.0894  1.2666  0.3856
18603SOL    HW157250   7.047   0.665   5.384  1.0209  0.4519 -0.6102
18603SOL    HW257251   6.904   0.640   5.339  1.0202 -1.3956  0.3548
18604SOL     OW57252   6.280   1.119   7.868  0.8243 -0.5952 -0.2285
18604SOL    HW157253   6.345   1.067   7.915  1.1883 -1.0698 -1.2396
18604SOL    HW257254   6.331   1.176   7.811  0.3802 -0.1740 -0.2160
18605SOL     OW57255   6.580   1.817   7.116 -0.0910 -0.0899  0.8554
18605SOL    HW157256   6.669   1.790   7.139  0.1788 -1.1118 -1.0881
18605SOL    HW257257   6.589   1.855   7.029 -1.5093  0.1171  0.7827
18606SOL     OW57258   7.243   1.907   6.036  0.7222 -0.7374  0.1724
18606SOL    HW157259   7.292   1.932   5.957 -0.6625 -1.3851 -0.9593
18606SOL    HW257260   7.157   1.948   6.023  0.5451 -0.6525  1.4957
18607SOL     OW57261   5.428   2.919   6.165  0.7542 -0.4289  0.4992
18607SOL    HW157262   5.437   2.826   6.141 -0.4954 -0.8636  1.5798
18607SOL    HW257263   5.461   2.967   6.089  1.6021 -1.7630 -0.0003
18608SOL     OW57264   7.093   7.949   7.886 -0.1766  0.1774 -0.2387
18608SOL    HW157265   7.133   8.014   7.828 -0.3977 -0.8159 -1.5420
18608SOL    HW257266   7.000   7.969   7.884 -0.4748 -1.1446 -1.9806
18609SOL     OW57267   7.073   1.238  10.078 -0.1073 -0.4214 -0.3995
18609SOL    HW157268   7.116   1.171  10.024  0.7600  0.5320 -0.9127
18609SOL    HW257269   7.036   1.300  10.015 -0.3053 -0.0426  0.0822
18610SOL     OW57270   0.595   0.146   5.236  0.4153 -0.1779 -0.4033
18610SOL    HW157271   0.616   0.181   5.149  2.0135  2.1053  0.8260
18610SOL    HW257272   0.505   0.175   5.252  0.9176  1.4383 -0.3710
18611SOL     OW57273   7.396   0.762   5.044  0.5956 -0.5622 -0.4913
18611SOL    HW157274   7.417   0.770   4.950  1.4000 -1.3248 -0.3982
18611SOL    HW257275   7.328   0.827   5.059  0.8876  0.0011 -1.4784
18612SOL     OW57276   5.040   0.703   7.221  0.2433  0.5787 -0.4698
18612SOL    HW157277   4.948   0.721   7.244 -0.2072 -3.0159  1.4515
18612SOL    HW257278   5.083   0.788   7.222 -2.4905  2.1065  1.6150
18613SOL     OW57279   6.432   0.392   6.207  0.1029  0.5130 -0.0425
18613SOL    HW157280   6.422   0.301   6.234  0.9527  0.0857 -1.1156
18613SOL    HW257281   6.493   0.430   6.270  0.1772  0.1909  0.0771
18614SOL     OW57282   0.080   0.198   7.147  0.3408  0.1106  0.5647
18614SOL    HW157283   0.122   0.148   7.077  0.6582 -2.6338  2.5449
18614SOL    HW257284   0.000   0.232   7.107  0.8004 -0.8318 -1.3033
18615SOL     OW57285   6.023   0.927   5.182 -0.2637 -0.1350  0.0033
18615SOL    HW157286   5.932   0.954   5.168  0.1503  1.3250  0.0132
18615SOL    HW257287   6.034   0.928   5.277 -0.2014 -0.1919 -0.0035
18616SOL     OW57288   4.549   2.555   9.094  0.6455  0.3082  0.1954
18616SOL    HW157289   4.633   2.597   9.074 -0.4862  2.0341 -1.2617
18616SOL    HW257290   4.571   2.463   9.108  2.7053  0.5965 -0.7484
18617SOL     OW57291   7.852   7.663   5.979 -0.0903 -0.3965  0.3822
18617SOL    HW157292   7.805   7.740   6.009  0.6335 -0.6169  2.2247
18617SOL    HW257293   7.795   7.589   6.005 -0.3353 -0.5265 -0.5087
18618SOL     OW57294   0.767   0.496   8.771  0.2700 -0.7825 -0.5088
18618SOL    HW157295   0.768   0.554   8.848 -1.4342  0.3795 -1.3080
18618SOL    HW257296   0.813   0.546   8.704  0.2231 -1.0642 -0.7487
18619SOL     OW57297   4.100   0.474   5.923  0.2525 -0.2944  0.4424
18619SOL    HW157298   4.030   0.466   5.859 -0.3824 -3.0021  1.3576
18619SOL    HW257299   4.059   0.454   6.007  1.6569  0.3791  1.3366
18620SOL     OW57300   0.408   1.176   6.305  0.3841 -0.2329  0.1413
18620SOL    HW157301   0.346   1.194   6.376 -0.9821 -2.7842 -0.3005
18620SOL    HW257302   0.369   1.218   6.229 -1.2297 -2.2606 -0.2532
18621SOL     OW57303   6.059   0.276   6.228 -0.1047 -0.6458 -0.1018
18621SOL    HW157304   6.105   0.320   6.157 -0.5399 -0.9494 -0.5764
18621SOL    HW257305   6.119   0.208   6.258  1.0176  0.8929  1.3410
18622SOL     OW57306   5.991   1.947   8.551 -0.4123 -0.0267 -0.6117
18622SOL    HW157307   5.979   2.039   8.531  1.9029  0.5005  0.1147
18622SOL    HW257308   5.971   1.901   8.469 -2.0191  1.0261 -0.8577
18623SOL     OW57309   6.782   1.257   5.824 -0.0392 -0.1828  0.3524
18623SOL    HW157310   6.765   1.290   5.736  0.2974 -0.3257  0.2324
18623SOL    HW257311   6.705   1.283   5.875 -0.1234  0.1092  0.0752
18624SOL     OW57312   5.667   2.221   8.846 -0.5694 -0.1107  0.0891
18624SOL    HW157313   5.642   2.269   8.766 -0.0126  0.5285  0.2871
18624SOL    HW257314   5.681   2.131   8.816 -2.2706 -0.3188 -0.1717
18625SOL     OW57315   1.212   0.606   6.423  0.2307 -0.5105 -0.2686
18625SOL    HW157316   1.229   0.587   6.331  1.0431 -0.4478 -0.1321
18625SOL    HW257317   1.116   0.612   6.428  0.2213  1.3284 -1.4767
18626SOL     OW57318   5.419   1.731   3.407 -0.5298  0.1237 -0.1201
18626SOL    HW157319   5.327   1.755   3.422 -0.3610  0.6049  0.1780
18626SOL    HW257320   5.468   1.811   3.426 -0.1574  0.2762 -1.6468
18627SOL     OW57321   5.818   1.343   6.531 -0.2279 -0.0897  0.2398
18627SOL    HW157322   5.752   1.392   6.482  0.1535 -1.3783 -1.6779
18627SOL    HW257323   5.785   1.253   6.531 -0.0159 -0.1978  2.0851
18628SOL     OW57324   5.453   2.046   7.075  1.0690 -0.5109 -0.1878
18628SOL    HW157325   5.493   1.959   7.080  0.8152 -0.7024 -1.1938
18628SOL    HW257326   5.484   2.091   7.153  2.1949 -1.0953 -0.2702
18629SOL     OW57327   5.165   1.032   6.463 -0.3563  0.6302 -0.3039
18629SOL    HW157328   5.235   1.097   6.455  2.4482 -1.8748  1.7441
18629SOL    HW257329   5.124   1.052   6.547 -0.2231  0.3978 -0.1839
18630SOL     OW57330   6.920   0.297   8.297 -0.4221  0.8979 -0.5448
18630SOL    HW157331   6.941   0.203   8.300 -1.2573  0.6885 -0.9730
18630SOL    HW257332   6.929   0.326   8.388  0.1796  0.4867 -0.4615
18631SOL     OW57333   6.864   5.962   7.998 -0.5113  0.5765  0.1537
18631SOL    HW157334   6.929   5.978   7.930 -1.3701  1.1061 -0.5773
18631SOL    HW257335   6.801   5.902   7.957  1.4219 -3.1348  2.0721
18632SOL     OW57336   4.889   6.937   6.684 -0.3507 -0.0978  0.0705
18632SOL    HW157337   4.819   6.972   6.629  0.1130  2.4317  0.9500
18632SOL    HW257338   4.869   6.971   6.772  2.3012  1.3355  0.2076
18633SOL     OW57339   6.069   2.114   6.660 -0.1684  0.7958 -0.0548
18633SOL    HW157340   5.979   2.147   6.654  0.0592  1.3239 -0.6856
18633SOL    HW257341   6.076   2.054   6.586 -0.3658 -0.1634  0.6890
18634SOL     OW57342   5.172   2.636   8.122 -0.7879 -0.0074  0.0145
18634SOL    HW157343   5.216   2.564   8.078  1.2066 -0.0762  1.9195
18634SOL    HW257344   5.087   2.600   8.148 -0.4188 -1.1923 -0.3596
18635SOL     OW57345   6.392   2.214   5.468 -0.2738  0.2223  0.3161
18635SOL    HW157346   6.341   2.264   5.405  0.8478  0.5472 -0.3605
18635SOL    HW257347   6.392   2.125   5.433  2.3944  0.8375 -1.5793
18636SOL     OW57348   5.462   7.761   5.821  0.1716  0.0117  0.3695
18636SOL    HW157349   5.368   7.745   5.828  0.1506 -0.7121 -1.1489
18636SOL    HW257350   5.502   7.692   5.873 -0.0948 -1.1847 -0.9652
18637SOL     OW57351   5.301   0.015   7.087  0.5410 -0.5550  0.1359
18637SOL    HW157352   5.338   0.092   7.130  0.3986 -0.8398  0.7880
18637SOL    HW257353   5.328   0.023   6.996 -0.9318  1.1676 -0.1887
18638SOL     OW57354   5.797   0.758   7.062  0.4303 -0.3042 -0.7071
18638SOL    HW157355   5.747   0.685   7.099  1.8129 -0.8812  0.0794
18638SOL    HW257356   5.835   0.723   6.981 -0.6793  0.2423 -1.4946
18639SOL     OW57357   6.373   0.567   5.079 -0.1860  0.3123  0.3265
18639SOL    HW157358   6.410   0.526   5.001 -1.2333 -1.1369  0.5343
18639SOL    HW257359   6.308   0.629   5.046  0.3940  0.7578  0.0244
18640SOL     OW57360   0.903   7.092   5.327 -0.5419  0.0597  0.1074
18640SOL    HW157361   0.823   7.061   5.370 -1.3593 -2.4257 -2.9039
18640SOL    HW257362   0.963   7.018   5.332  0.5309  0.8967 -0.1806
18641SOL     OW57363   6.592   3.306   6.740 -0.2078  0.2321 -0.3264
18641SOL    HW157364   6.599   3.386   6.688  0.6408  0.6318  0.3683
18641SOL    HW257365   6.534   3.249   6.690  0.3577  0.7129 -1.5673
18642SOL     OW57366   5.341   1.257   6.440  0.7554  0.3051  0.3928
18642SOL    HW157367   5.358   1.263   6.346 -0.8143 -0.8169  0.0020
18642SOL    HW257368   5.315   1.345   6.465  1.5568  0.7069 -0.1215
18643SOL     OW57369   7.288   1.691   7.359 -0.6337 -0.4173  0.5958
18643SOL    HW157370   7.334   1.664   7.280 -0.4477 -0.7224  0.8068
18643SOL    HW257371   7.265   1.610   7.403  0.0855 -0.2458  1.3252
18644SOL     OW57372   4.960   7.688   4.568 -0.2697 -0.0585 -0.2492
18644SOL    HW157373   4.924   7.605   4.535  1.2544 -0.6775 -0.4235
18644SOL    HW257374   5.051   7.687   4.539 -0.0608  1.3863  0.3245
18645SOL     OW57375   4.585   1.689   8.444  0.1106  0.0003  0.0018
18645SOL    HW157376   4.580   1.635   8.365  3.9628  1.3256 -1.4247
18645SOL    HW257377   4.580   1.779   8.412 -2.5469  0.6252  1.8923
18646SOL     OW57378   6.999   1.561   6.971 -0.1544 -0.1629 -0.5200
18646SOL    HW157379   7.051   1.482   6.956  0.0136 -0.3278  0.7731
18646SOL    HW257380   7.062   1.633   6.965  0.0635 -0.2909  0.1844
18647SOL     OW57381   5.253   7.112   5.143 -0.3734  0.5799  0.5765
18647SOL    HW157382   5.283   7.125   5.233 -1.2896  1.4268  0.7900
18647SOL    HW257383   5.157   7.122   5.149 -0.3308  2.2013 -0.7208
18648SOL     OW57384   7.959   2.096   6.897 -0.2160  0.3260 -0.2382
18648SOL    HW157385   8.034   2.143   6.860  0.5997 -0.7311  0.0278
18648SOL    HW257386   7.990   2.007   6.909 -1.5660 -0.1613 -0.2116
18649SOL     OW57387   6.839   1.579   8.366 -0.8150  0.3819 -0.0731
18649SOL    HW157388   6.783   1.547   8.295  0.1943 -1.0906 -0.2449
18649SOL    HW257389   6.879   1.659   8.331  0.3735 -0.7956 -1.5684
18650SOL     OW57390   6.445   0.232   8.938 -0.6369  0.2221  0.4374
18650SOL    HW157391   6.423   0.216   9.030  0.3262 -1.1522  0.4418
18650SOL    HW257392   6.377   0.186   8.888 -0.9129  0.6091  0.4507
18651SOL     OW57393   7.287   1.392   7.127  0.0335  0.0522 -0.0611
18651SOL    HW157394   7.292   1.301   7.155  0.7024 -0.0854 -0.5919
18651SOL    HW257395   7.231   1.390   7.049  0.4274  0.0141 -0.3502
18652SOL     OW57396   5.851   0.139   7.086  0.0632  0.1945 -0.5042
18652SOL    HW157397   5.851   0.202   7.014 -0.0403  1.5287  0.6035
18652SOL    HW257398   5.760   0.139   7.118  0.0128 -0.6922 -0.6332
18653SOL     OW57399   7.729   1.224   6.172  0.1861 -0.0508  0.6968
18653SOL    HW157400   7.651   1.264   6.134  0.3457 -0.0066  0.4069
18653SOL    HW257401   7.702   1.196   6.259  0.1616  0.9882  1.0398
18654SOL     OW57402   6.015   2.071   7.258  0.2183  0.0859  0.1734
18654SOL    HW157403   6.088   2.047   7.315  0.0794 -1.1245 -0.1233
18654SOL    HW257404   5.965   1.989   7.248  0.3306  0.2205 -1.7919
18655SOL     OW57405   7.749   2.071   6.444  0.4131 -0.0132  0.6337
18655SOL    HW157406   7.777   1.991   6.490  1.1573  0.7740  1.6036
18655SOL    HW257407   7.712   2.126   6.513 -1.7971 -0.2110 -0.3026
18656SOL     OW57408   7.540   2.782   6.286  0.0482 -0.6014 -0.6167
18656SOL    HW157409   7.541   2.723   6.210  1.7825 -0.8695 -0.4154
18656SOL    HW257410   7.507   2.728   6.358  0.6056 -1.0321 -0.6759
18657SOL     OW57411   5.929   0.531   6.308 -0.1855 -0.2799 -0.5311
18657SOL    HW157412   5.936   0.436   6.310 -1.0843 -0.3505  0.2796
18657SOL    HW257413   5.925   0.553   6.215 -3.1346 -1.3322 -0.7448
18658SOL     OW57414   7.813   0.304   7.082  0.1538 -0.1496  0.3918
18658SOL    HW157415   7.779   0.274   6.998 -1.3920  1.6206  0.2993
18658SOL    HW257416   7.768   0.250   7.147  0.7227 -0.9596  0.1204
18659SOL     OW57417   6.421   7.292   7.149 -0.2531 -0.0655  0.5399
18659SOL    HW157418   6.368   7.371   7.136  1.9513  1.7032  1.7174
18659SOL    HW257419   6.506   7.314   7.112  0.4172 -1.9250  0.9037
18660SOL     OW57420   5.744   7.227   7.383 -0.1866  0.1485 -0.4011
18660SOL    HW157421   5.755   7.315   7.347  1.2352  0.6863  1.1619
18660SOL    HW257422   5.833   7.194   7.391 -0.6781 -1.2419 -0.4936
18661SOL     OW57423   7.518   1.471   6.710  0.0562 -0.4015  0.3186
18661SOL    HW157424   7.610   1.490   6.690 -0.5225  2.2115 -0.2751
18661SOL    HW257425   7.485   1.427   6.632  0.6898 -1.0345  0.3911
18662SOL     OW57426   6.102   0.442   6.687 -0.2769 -0.1100  0.1576
18662SOL    HW157427   6.155   0.367   6.662 -0.4566 -0.1041 -0.2530
18662SOL    HW257428   6.049   0.461   6.609  0.6716  1.2318 -0.2107
18663SOL     OW57429   7.308   2.254   7.396 -0.2102  0.0145 -0.3203
18663SOL    HW157430   7.316   2.265   7.302  1.2028 -0.1304 -0.2518
18663SOL    HW257431   7.318   2.160   7.410 -1.1979 -0.0658 -0.0741
18664SOL     OW57432   7.646   2.003   7.422  0.3524  0.0411 -0.1915
18664SOL    HW157433   7.654   2.091   7.460 -0.5194 -0.0147  0.1459
18664SOL    HW257434   7.734   1.982   7.391  0.7746  0.6462  0.5768
18665SOL     OW57435   6.138   1.776   6.679 -0.2262  0.2916 -0.3403
18665SOL    HW157436   6.050   1.802   6.707 -0.4352 -0.6478 -0.0871
18665SOL    HW257437   6.129   1.753   6.587 -0.1716  0.5193 -0.4028
18666SOL     OW57438   7.343   0.690   6.132 -0.1192 -0.1015  0.5465
18666SOL    HW157439   7.404   0.748   6.086 -0.1188 -0.1547  0.4789
18666SOL    HW257440   7.256   0.723   6.110 -0.1076  1.4598  2.5645
18667SOL     OW57441   5.705   2.755   7.319  0.0206  0.3768 -0.4899
18667SOL    HW157442   5.660   2.835   7.347  0.9836  0.7261  0.1181
18667SOL    HW257443   5.777   2.745   7.382 -0.1573 -1.0392 -0.4800
18668SOL     OW57444   6.230   1.420   5.045  0.4958  0.0538 -0.1122
18668SOL    HW157445   6.263   1.336   5.078 -0.8977 -0.4037  0.1926
18668SOL    HW257446   6.192   1.462   5.121  0.3438  0.5451 -0.4592
18669SOL     OW57447   5.663   2.471   8.569 -0.2826  0.2953  0.8835
18669SOL    HW157448   5.751   2.497   8.595  0.5377 -0.8847 -0.5643
18669SOL    HW257449   5.613   2.553   8.569  0.7509  0.9589  1.8561
18670SOL     OW57450   0.487   7.956   7.740  0.4313  0.1507 -0.3709
18670SOL    HW157451   0.472   7.911   7.823  1.3893 -0.4938 -0.5325
18670SOL    HW257452   0.410   7.933   7.687  0.7299 -1.0496 -0.3227
18671SOL     OW57453   5.363   0.631   5.855 -0.3194 -0.0473  0.1585
18671SOL    HW157454   5.343   0.725   5.859  1.8840  0.4415  0.7618
18671SOL    HW257455   5.297   0.596   5.795 -0.1402  2.1967 -1.4979
18672SOL     OW57456   4.945   1.308   8.020  0.5846  0.1914  0.0060
18672SOL    HW157457   4.949   1.401   8.041 -0.5630  0.6828 -1.7505
18672SOL    HW257458   4.928   1.265   8.105  0.3852  1.6379  0.7323
18673SOL     OW57459   5.653   0.769   6.470  0.4392  0.0879  0.4409
18673SOL    HW157460   5.567   0.800   6.499  0.3512  1.0567 -0.7420
18673SOL    HW257461   5.684   0.839   6.413 -0.2214 -2.4147 -3.3218
18674SOL     OW57462   4.551   1.243   5.732 -0.1977 -0.1472 -0.4269
18674SOL    HW157463   4.466   1.208   5.705 -1.0063  1.5373 -0.1667
18674SOL    HW257464   4.572   1.195   5.813  0.1437 -2.0547 -1.5779
18675SOL     OW57465   0.409   0.186   8.014  0.4766  0.3627  0.2512
18675SOL    HW157466   0.407   0.241   7.936  1.4077  2.1300  1.4025
18675SOL    HW257467   0.494   0.141   8.009 -0.5979 -1.6914 -1.0797
18676SOL     OW57468   6.538   7.856   3.668  0.0255 -0.6977 -0.1072
18676SOL    HW157469   6.524   7.922   3.600  0.9967  0.4611  0.7910
18676SOL    HW257470   6.536   7.905   3.750  0.9505 -1.7615  0.5705
18677SOL     OW57471   0.447   1.405   5.406 -0.0533 -0.4312 -0.4723
18677SOL    HW157472   0.382   1.470   5.433  1.1853  1.8102 -2.4458
18677SOL    HW257473   0.515   1.409   5.473 -0.3201 -0.2133 -0.2145
18678SOL     OW57474   5.572   0.787   6.817  0.2504 -0.3456  0.3839
18678SOL    HW157475   5.619   0.843   6.879 -0.6327  0.6502  0.1922
18678SOL    HW257476   5.622   0.792   6.736  1.1831 -1.3202  0.8754
18679SOL     OW57477   6.900   1.159   6.920  0.3481 -0.2854 -0.2860
18679SOL    HW157478   6.841   1.151   6.995  1.5053  0.5450  0.7436
18679SOL    HW257479   6.845   1.199   6.851 -0.7309 -1.0849  0.0779
18680SOL     OW57480   7.095   0.475   6.656 -0.0304 -0.2652  0.4983
18680SOL    HW157481   7.076   0.499   6.565 -2.0212 -2.4148  0.2469
18680SOL    HW257482   7.081   0.555   6.705 -2.4270  0.1683 -0.7220
18681SOL     OW57483   5.247   1.484   7.288 -0.3455  0.1982 -0.0008
18681SOL    HW157484   5.238   1.558   7.228  0.7857 -0.7495 -1.4226
18681SOL    HW257485   5.337   1.454   7.276 -1.0613 -2.0676 -0.2956
18682SOL     OW57486   7.473   1.542   5.054 -0.4694 -0.4303 -0.0375
18682SOL    HW157487   7.440   1.569   5.140  0.9235 -0.7768  0.6474
18682SOL    HW257488   7.545   1.482   5.075 -0.6694 -1.2044 -1.4681
18683SOL     OW57489   6.949   0.723   5.032 -0.3151  0.3013 -0.5704
18683SOL    HW157490   6.974   0.778   5.106 -2.3500  0.2454  0.2287
18683SOL    HW257491   6.932   0.637   5.071 -2.6874  0.6023 -0.8280
18684SOL     OW57492   5.567   0.592   7.118  0.3979 -0.6851 -0.0023
18684SOL    HW157493   5.561   0.528   7.048 -0.0276 -0.4002 -0.2276
18684SOL    HW257494   5.476   0.616   7.136  0.6125  0.9004 -0.8838
18685SOL     OW57495   7.401   7.193   8.478 -0.5015 -0.2837  0.7965
18685SOL    HW157496   7.382   7.099   8.475  1.8191 -0.8443  1.6538
18685SOL    HW257497   7.449   7.210   8.397  1.2182 -0.4269  1.7282
18686SOL     OW57498   0.077   0.216   9.504  0.2054  0.5556 -0.2314
18686SOL    HW157499   0.114   0.210   9.592  0.8151  0.0999 -0.5093
18686SOL    HW257500   0.033   0.132   9.491  0.0935  0.6326 -0.3526
18687SOL     OW57501   7.223   1.342   5.860  0.7211  0.0685 -0.4329
18687SOL    HW157502   7.146   1.354   5.916  0.1989 -2.7647 -0.3902
18687SOL    HW257503   7.187   1.326   5.773  1.3731  0.8114 -0.8463
18688SOL     OW57504   5.469   2.018   5.004 -0.1855 -0.3561 -0.1195
18688SOL    HW157505   5.407   2.055   4.940 -0.4708 -1.0033 -0.2335
18688SOL    HW257506   5.508   2.093   5.047  0.3713  0.1184 -1.3967
18689SOL     OW57507   4.375   0.211   5.523  0.2788  0.1253 -0.8402
18689SOL    HW157508   4.401   0.180   5.436  1.3710  0.9573 -0.8390
18689SOL    HW257509   4.415   0.148   5.583  0.2802  0.0512 -0.9180
18690SOL     OW57510   6.436   2.612   6.810  0.4888 -0.2546  0.0722
18690SOL    HW157511   6.367   2.593   6.874 -0.4989  0.6770 -0.6886
18690SOL    HW257512   6.515   2.572   6.848 -0.1544 -0.1061  1.6512
18691SOL     OW57513   0.340   1.541   6.601 -0.5893  0.1539 -0.4984
18691SOL    HW157514   0.309   1.497   6.522 -0.0746 -0.2403 -0.4859
18691SOL    HW257515   0.307   1.487   6.673  0.0639 -0.2394 -0.4838
18692SOL     OW57516   5.376   2.947   6.650 -0.2839 -0.2684 -0.4017
18692SOL    HW157517   5.281   2.957   6.661 -0.3585  0.1226 -1.3006
18692SOL    HW257518   5.396   2.864   6.692 -0.8832  0.0706  0.5848
18693SOL     OW57519   5.338   7.969   6.137  0.3413  0.4880  0.0693
18693SOL    HW157520   5.318   7.987   6.229 -0.9633  1.8158 -0.4410
18693SOL    HW257521   5.254   7.943   6.099  0.8503  0.0375 -0.7785
18694SOL     OW57522   3.648   1.097   6.489  0.1143 -0.6078 -0.0131
18694SOL    HW157523   3.665   1.180   6.534  1.8290 -1.2638  0.6648
18694SOL    HW257524   3.562   1.069   6.521  0.1042  0.2825  0.7706
18695SOL     OW57525   7.564   7.758   7.289 -0.2452  0.0246  0.2641
18695SOL    HW157526   7.492   7.753   7.351  0.2129  2.0644  1.0054
18695SOL    HW257527   7.641   7.732   7.339 -0.1493 -0.1946  0.0086
18696SOL     OW57528   6.618   1.072   5.589  0.3433 -0.3853 -0.2438
18696SOL    HW157529   6.596   1.051   5.680  2.9626 -0.8816  0.3696
18696SOL    HW257530   6.665   1.155   5.594 -0.0813 -0.0673 -1.2571
18697SOL     OW57531   0.490   2.519   6.475 -0.7932 -0.1264 -0.0427
18697SOL    HW157532   0.546   2.502   6.400 -0.4536 -0.6578  0.3236
18697SOL    HW257533   0.418   2.456   6.465 -0.6006 -0.3934  0.2203
18698SOL     OW57534   5.634   1.284   7.374 -0.0324 -0.4076  0.2301
18698SOL    HW157535   5.721   1.247   7.385  0.4845 -0.5921 -3.2808
18698SOL    HW257536   5.576   1.207   7.375  0.1845 -0.5778  0.0308
18699SOL     OW57537   6.779   1.941   6.662 -0.0346 -0.5617 -0.3316
18699SOL    HW157538   6.845   1.875   6.642 -0.9564 -0.8066 -2.9453
18699SOL    HW257539   6.706   1.920   6.604 -1.1182  1.6168  0.1502
18700SOL     OW57540   5.895   1.155   7.163  0.0721 -0.2952 -0.1913
18700SOL    HW157541   5.967   1.207   7.197 -1.4432  1.8254 -0.0486
18700SOL    HW257542   5.840   1.136   7.240 -0.0297 -1.0802 -0.4445
18701SOL     OW57543   0.132   0.506   6.510  0.1718  0.0046  0.7294
18701SOL    HW157544   0.132   0.423   6.557 -0.3439 -0.5243 -0.1727
18701SOL    HW257545   0.218   0.510   6.467 -0.3027 -0.7344 -0.3386
18702SOL     OW57546   0.779   1.160   6.101  0.1937  0.0991  0.1209
18702SOL    HW157547   0.743   1.162   6.189  0.7303 -0.2377  0.3526
18702SOL    HW257548   0.811   1.071   6.090  0.1490  0.1471 -0.4065
18703SOL     OW57549   6.689   3.148   4.894  1.1843  0.5421  0.1063
18703SOL    HW157550   6.657   3.153   4.804  1.7361  2.4399 -0.0413
18703SOL    HW257551   6.611   3.124   4.945  1.0158 -1.2273 -0.9053
18704SOL     OW57552   6.492   7.104   6.544  0.0934 -0.7509  0.1184
18704SOL    HW157553   6.523   7.146   6.464  0.6609  0.3257  0.8675
18704SOL    HW257554   6.397   7.111   6.540  0.1243 -0.6532 -0.4322
18705SOL     OW57555   6.347   1.499   5.751  0.0086 -0.6882 -0.5603
18705SOL    HW157556   6.365   1.536   5.665  3.0701  0.0829  0.2909
18705SOL    HW257557   6.285   1.560   5.791  1.6603  1.2655 -0.7905
18706SOL     OW57558   6.675   0.651   5.970 -1.0547 -0.2982 -0.2344
18706SOL    HW157559   6.717   0.713   6.029 -2.2534  0.0204  0.3099
18706SOL    HW257560   6.661   0.573   6.024  1.7339 -1.6821 -1.2676
18707SOL     OW57561   4.618   2.664   6.868  0.0352  0.0431  0.5149
18707SOL    HW157562   4.525   2.657   6.890  0.1527 -1.0158  0.7225
18707SOL    HW257563   4.653   2.576   6.882  0.6712 -0.0471 -1.3676
18708SOL     OW57564   6.151   2.845   6.866 -0.0732  0.1087  0.5231
18708SOL    HW157565   6.127   2.763   6.910  1.1365 -0.7851 -0.4089
18708SOL    HW257566   6.168   2.819   6.775 -0.4494  1.5436  0.0221
18709SOL     OW57567   4.716   0.998   7.738  0.2033  0.3691 -0.2659
18709SOL    HW157568   4.689   1.069   7.795 -0.2903  0.2932 -0.4063
18709SOL    HW257569   4.704   0.919   7.791 -0.9347  0.2320 -0.7082
18710SOL     OW57570   6.114   7.253   8.567 -0.0966 -0.4165  0.1238
18710SOL    HW157571   6.079   7.294   8.488 -0.3008 -2.8078 -1.0969
18710SOL    HW257572   6.201   7.292   8.577 -0.5042  0.7487 -0.5987
18711SOL     OW57573   3.708   5.821   8.061 -0.0361  0.6335  0.0801
18711SOL    HW157574   3.648   5.811   7.987  0.9014 -1.8325 -0.4310
18711SOL    HW257575   3.665   5.775   8.133  0.2850  0.7278  0.3323
18712SOL     OW57576   5.480   1.413   8.696  0.0228 -0.8689  0.0112
18712SOL    HW157577   5.452   1.328   8.663  0.2671 -1.4819  1.2930
18712SOL    HW257578   5.404   1.469   8.687  0.0774 -1.0105 -1.5127
18713SOL     OW57579   7.240   1.841   9.641 -0.3475  0.2171 -0.6261
18713SOL    HW157580   7.278   1.927   9.622  2.7849 -0.3793  1.8815
18713SOL    HW257581   7.284   1.782   9.580 -0.0695  0.0327 -0.2568
18714SOL     OW57582   7.642   5.593   8.687 -0.6040  0.7945 -0.4068
18714SOL    HW157583   7.658   5.658   8.619  2.7321 -0.1488 -0.6832
18714SOL    HW257584   7.712   5.528   8.676 -1.2732 -0.6060  2.4984
18715SOL     OW57585   0.273   0.820   8.461  1.0588 -0.2483  0.3631
18715SOL    HW157586   0.283   0.761   8.387  1.6482 -1.8824  1.6767
18715SOL    HW257587   0.179   0.819   8.481  0.9496 -0.0681 -0.1239
18716SOL     OW57588   6.083   1.525   8.983 -0.2289  0.1455  0.0157
18716SOL    HW157589   6.129   1.453   9.025 -0.2636 -0.3173 -0.7229
18716SOL    HW257590   6.147   1.597   8.981  0.2342 -0.2700 -0.3819
18717SOL     OW57591   7.021   1.526  11.033  0.6520  0.7440  0.2990
18717SOL    HW157592   7.093   1.503  10.975  1.4321  0.2670  1.4008
18717SOL    HW257593   7.063   1.546  11.117 -0.6081 -3.0306  2.0604
18718SOL     OW57594   6.765   0.169   7.644 -0.0471  0.0634  0.3871
18718SOL    HW157595   6.690   0.215   7.608 -1.5860 -0.4279  2.7423
18718SOL    HW257596   6.834   0.236   7.650 -0.8238  0.9345 -0.2537
18719SOL     OW57597   6.072   7.470   8.390 -0.2777 -0.0924  0.1154
18719SOL    HW157598   6.069   7.505   8.302 -2.5042 -2.1986 -0.7784
18719SOL    HW257599   6.016   7.529   8.441 -2.1400 -0.9148 -0.8449
18720SOL     OW57600   3.960   0.433   9.643  0.0157 -0.3455  0.1653
18720SOL    HW157601   3.958   0.345   9.679  1.4818  0.2299  1.7780
18720SOL    HW257602   4.010   0.425   9.562 -1.1610 -1.2205 -0.5047
18721SOL     OW57603   7.734   0.315  10.081  0.0593 -1.0040  0.1657
18721SOL    HW157604   7.744   0.290   9.989 -0.0440 -0.1479 -0.0914
18721SOL    HW257605   7.774   0.402  10.086 -1.5470 -0.2538  0.5110
18722SOL     OW57606   6.726   6.183   9.478  0.0003  0.1958 -0.1281
18722SOL    HW157607   6.661   6.211   9.413  0.2884 -0.4996 -0.7195
18722SOL    HW257608   6.768   6.265   9.506 -0.8469  0.6102 -0.0290
18723SOL     OW57609   7.462   7.961   8.405  0.6844 -0.0968  0.1688
18723SOL    HW157610   7.488   7.871   8.384 -0.6833 -0.7710  1.1622
18723SOL    HW257611   7.367   7.962   8.393  0.5083  0.8336  1.4251
18724SOL     OW57612   5.452   2.830  10.124  0.1763  0.2467  0.0324
18724SOL    HW157613   5.479   2.744  10.092 -1.4986  0.2611 -1.5708
18724SOL    HW257614   5.461   2.824  10.219 -2.1968 -2.5782  0.2137
18725SOL     OW57615   0.029   0.693   8.462 -0.2853 -0.3712  0.0048
18725SOL    HW157616  -0.055   0.717   8.425  0.1462 -1.0100 -1.5037
18725SOL    HW257617   0.059   0.620   8.407  1.7279  0.5375 -0.2161
18726SOL     OW57618   5.865   0.556   7.264  0.6201 -0.3803 -0.1289
18726SOL    HW157619   5.836   0.491   7.328 -2.7679  0.9295 -0.1646
18726SOL    HW257620   5.857   0.512   7.180 -1.8490  0.0525 -0.1707
18727SOL     OW57621   0.249   1.257   8.578 -0.4679  0.2979 -0.6840
18727SOL    HW157622   0.284   1.312   8.648  0.4850 -0.6189 -0.3964
18727SOL    HW257623   0.171   1.303   8.547 -0.8810  0.7582  0.9363
18728SOL     OW57624   7.302   1.584   8.724 -0.0914 -0.6236  0.0129
18728SOL    HW157625   7.371   1.528   8.689 -0.4122 -0.2076 -1.3699
18728SOL    HW257626   7.299   1.658   8.662 -1.1425 -0.1841  0.5784
18729SOL     OW57627   3.893   7.935   7.021  1.1695 -0.5435  0.2202
18729SOL    HW157628   3.844   7.999   7.073  1.8172 -0.8933  1.2975
18729SOL    HW257629   3.980   7.974   7.009  1.5074 -1.1197  0.7164
18730SOL     OW57630   7.062   7.587   7.792  0.2357 -0.1397  0.2143
18730SOL    HW157631   7.107   7.614   7.712  2.0031 -1.9381  0.5308
18730SOL    HW257632   7.047   7.493   7.780 -2.0545  0.0884  0.8350
18731SOL     OW57633   5.077   7.726   7.894 -0.8506  0.1684 -0.3829
18731SOL    HW157634   5.013   7.783   7.936 -0.0630  1.2476 -0.6088
18731SOL    HW257635   5.054   7.728   7.801  0.5367  2.0026 -0.7417
18732SOL     OW57636   7.115   1.748   7.782 -0.2834 -0.0325  0.4310
18732SOL    HW157637   7.194   1.799   7.762 -0.9634  0.8871  0.0278
18732SOL    HW257638   7.147   1.658   7.792  0.5974  0.0305 -1.3758
18733SOL     OW57639   5.526   1.970   8.030 -1.0112 -0.2726  0.8111
18733SOL    HW157640   5.575   1.922   8.097 -2.8759 -1.9058  1.0758
18733SOL    HW257641   5.519   2.059   8.064  0.6630 -0.3027  1.3205
18734SOL     OW57642   7.635   1.015   9.022 -0.1137  0.7096  0.3970
18734SOL    HW157643   7.727   0.997   9.036  0.2379  1.0101 -1.2995
18734SOL    HW257644   7.618   0.986   8.933 -1.7007  0.5208  0.7299
18735SOL     OW57645   7.320   2.471   7.085 -0.0557  0.5570 -0.7392
18735SOL    HW157646   7.345   2.506   7.170 -0.8360 -1.9383  0.6065
18735SOL    HW257647   7.288   2.547   7.036  2.0696  2.3477  0.5136
18736SOL     OW57648   0.539   1.117   6.691  0.2326  0.3134  0.0183
18736SOL    HW157649   0.605   1.073   6.636  0.2474  0.6006 -0.1986
18736SOL    HW257650   0.481   1.160   6.628  1.5627  2.5770  0.2278
18737SOL     OW57651   5.944   7.607  10.953  0.1504  0.3371  0.2008
18737SOL    HW157652   5.904   7.693  10.969 -0.3065  0.2427 -0.4154
18737SOL    HW257653   6.019   7.626  10.897  0.3431  0.3844  0.4696
18738SOL     OW57654   6.368   0.538   8.951  0.4130  0.0946 -0.0296
18738SOL    HW157655   6.386   0.449   8.922  0.4182 -0.7685  2.3355
18738SOL    HW257656   6.408   0.543   9.038 -2.5999  1.1802  1.4456
18739SOL     OW57657   7.542   6.699   8.214 -0.0574  0.1570  0.1232
18739SOL    HW157658   7.504   6.640   8.280 -1.2619 -0.6992 -1.2796
18739SOL    HW257659   7.610   6.646   8.172 -0.4284  0.1143 -0.4319
18740SOL     OW57660   5.769   0.393   7.461 -0.4219 -0.5637  0.0646
18740SOL    HW157661   5.680   0.358   7.462  0.4755 -3.0483  0.0990
18740SOL    HW257662   5.786   0.419   7.551 -1.6237  1.4845 -0.2446
18741SOL     OW57663   6.805   0.943   8.173  0.3546 -0.0659 -0.1692
18741SOL    HW157664   6.717   0.974   8.152  0.4240  0.1905 -0.0802
18741SOL    HW257665   6.804   0.850   8.150  0.6154  0.3310 -1.9185
18742SOL     OW57666   7.677   0.367   9.140  0.2807  0.1382 -0.1373
18742SOL    HW157667   7.582   0.358   9.145  0.3372 -0.3987 -0.0491
18742SOL    HW257668   7.703   0.391   9.228  0.3004 -0.3944  0.0034
18743SOL     OW57669   6.678   6.923   7.409 -0.3214  0.2800  0.0261
18743SOL    HW157670   6.610   6.989   7.416  0.1562  0.6623  1.4635
18743SOL    HW257671   6.732   6.951   7.335 -0.4318  1.2102  0.2901
18744SOL     OW57672   7.002   7.832   8.719  0.3697  0.2320 -0.1559
18744SOL    HW157673   6.977   7.777   8.793  1.3014  1.2164  0.9542
18744SOL    HW257674   7.057   7.777   8.664 -0.4342 -0.5497 -0.1926
18745SOL     OW57675   7.529   1.150   8.551  0.5221  0.4127 -0.3639
18745SOL    HW157676   7.457   1.172   8.492  0.8726  0.6530 -0.7036
18745SOL    HW257677   7.491   1.155   8.639  0.3460  1.4019 -0.4905
18746SOL     OW57678   7.673   0.146   7.228  0.0678  0.0448 -0.6409
18746SOL    HW157679   7.595   0.090   7.227  0.2227 -0.1701 -1.1073
18746SOL    HW257680   7.694   0.157   7.321 -1.0359  0.8422 -0.4754
18747SOL     OW57681   5.848   2.697   6.857  0.0102  0.2234 -0.5811
18747SOL    HW157682   5.785   2.761   6.824  1.0596  2.8541  2.0729
18747SOL    HW257683   5.845   2.706   6.952  2.1631 -1.8289 -0.2086
18748SOL     OW57684   7.857   0.793   6.805  0.0813 -0.4605  0.3492
18748SOL    HW157685   7.889   0.773   6.717 -1.4566  4.4657 -1.6816
18748SOL    HW257686   7.761   0.789   6.796 -0.1188 -2.0285  2.5371
18749SOL     OW57687   7.941   0.231   7.557 -0.0177  0.4783  0.5610
18749SOL    HW157688   8.023   0.222   7.509  0.2686 -0.7755  1.2529
18749SOL    HW257689   7.921   0.325   7.554  0.9617  0.6686 -0.3823
18750SOL     OW57690   7.274   1.669  10.233  0.8946  0.4145 -0.5489
18750SOL    HW157691   7.280   1.731  10.161 -0.4948  0.9717 -0.2240
18750SOL    HW257692   7.189   1.686  10.273 -0.0828 -2.4789 -1.1382
18751SOL     OW57693   6.525   1.228   6.899 -0.2744 -0.0593  0.3314
18751SOL    HW157694   6.553   1.154   6.845 -0.1122 -0.4294  0.9226
18751SOL    HW257695   6.430   1.220   6.903 -0.4577  0.8747 -1.2021
18752SOL     OW57696   4.671   7.264   7.967 -0.7837  0.5724  0.6679
18752SOL    HW157697   4.636   7.213   8.040 -0.4568  0.1334  0.5220
18752SOL    HW257698   4.729   7.328   8.008 -0.4617  0.2110  0.7798
18753SOL     OW57699   4.290   0.647   8.345  0.2479  0.4648 -0.3926
18753SOL    HW157700   4.302   0.588   8.271 -3.1407 -0.3314 -0.4819
18753SOL    HW257701   4.227   0.712   8.314 -0.1260  0.9767  1.3350
18754SOL     OW57702   4.586   2.566  10.334 -0.0622 -0.0808 -0.2858
18754SOL    HW157703   4.670   2.526  10.354  0.4028  0.9882 -0.0792
18754SOL    HW257704   4.589   2.582  10.239 -0.7809 -1.7042 -0.6265
18755SOL     OW57705   0.409   0.829   7.754  0.0470 -0.0211  0.1450
18755SOL    HW157706   0.341   0.767   7.727  0.3527  0.0508 -0.8623
18755SOL    HW257707   0.479   0.774   7.789 -0.6344 -0.0771  1.4961
18756SOL     OW57708   0.438   7.784  10.081 -0.1282 -0.2673  0.0998
18756SOL    HW157709   0.485   7.700  10.083 -0.8972 -0.7019  1.3764
18756SOL    HW257710   0.495   7.842  10.031  1.8738 -0.7181  1.7085
18757SOL     OW57711   6.829   2.407   8.793 -0.3370  0.0226 -0.5603
18757SOL    HW157712   6.764   2.473   8.817 -0.1666 -0.2789  0.8510
18757SOL    HW257713   6.782   2.324   8.801  0.3088 -0.2348  0.9566
18758SOL     OW57714   5.428   7.151   9.064 -0.1926  0.1451  0.4602
18758SOL    HW157715   5.358   7.099   9.103 -0.5879 -0.0232 -0.4432
18758SOL    HW257716   5.485   7.087   9.021  0.5605  0.2751  1.2107
18759SOL     OW57717   6.174   0.015  10.650  0.2714  0.4851  0.1672
18759SOL    HW157718   6.119   0.093  10.640  1.8303  1.4398 -1.4979
18759SOL    HW257719   6.214   0.002  10.564 -1.4092 -3.3816 -0.2182
18760SOL     OW57720   5.818   7.781   9.030  0.0643  0.3831  0.1904
18760SOL    HW157721   5.878   7.736   8.970  0.5106 -2.8018  2.7521
18760SOL    HW257722   5.876   7.818   9.098 -0.6597 -0.0068  1.0365
18761SOL     OW57723   7.122   7.723   8.276 -0.4336  0.0070  0.4532
18761SOL    HW157724   7.075   7.689   8.199 -0.2940 -0.9138  0.7559
18761SOL    HW257725   7.215   7.709   8.255 -0.3527  0.5888  0.4145
18762SOL     OW57726   6.787   1.509   9.743  0.1505  0.3737  0.5570
18762SOL    HW157727   6.693   1.527   9.756 -0.3410 -0.8618 -0.9238
18762SOL    HW257728   6.827   1.595   9.740 -1.0739  0.9712  0.4410
18763SOL     OW57729   7.154   0.143   7.715  0.5662  0.1292 -0.0060
18763SOL    HW157730   7.154   0.219   7.773 -0.0221 -0.9501  1.4634
18763SOL    HW257731   7.201   0.173   7.637  0.5871  1.9052  0.6350
18764SOL     OW57732   0.126   7.416   6.673  0.1017 -0.4153 -0.0230
18764SOL    HW157733   0.115   7.398   6.580  1.0771  0.1409 -0.2592
18764SOL    HW257734   0.210   7.377   6.696 -0.5483 -1.3354  0.8461
18765SOL     OW57735   6.824   0.345   6.625  0.2765  0.2230 -0.4264
18765SOL    HW157736   6.868   0.339   6.540 -0.6233  0.7344 -0.9356
18765SOL    HW257737   6.871   0.415   6.671 -1.5739  2.6256 -1.9659
18766SOL     OW57738   5.982   2.463   6.804 -0.4958  0.4093  0.7539
18766SOL    HW157739   5.932   2.544   6.814  0.1270  1.1858 -1.6504
18766SOL    HW257740   6.055   2.472   6.864  0.0809  2.1204 -0.1332
18767SOL     OW57741   7.303   0.742   6.863 -0.0222  0.1977  0.4524
18767SOL    HW157742   7.325   0.653   6.890  0.8570  0.2443 -0.0754
18767SOL    HW257743   7.211   0.738   6.840 -0.0500 -0.5172  0.6656
18768SOL     OW57744   6.571   0.479   9.173 -0.2785 -0.8297  0.3537
18768SOL    HW157745   6.607   0.392   9.159  0.0147 -1.0827  2.3166
18768SOL    HW257746   6.643   0.539   9.154  0.5508 -1.2198  2.0360
18769SOL     OW57747   6.005   7.707   8.827  0.6346  0.9552  0.5640
18769SOL    HW157748   6.089   7.667   8.851  1.6802  1.3123 -2.1469
18769SOL    HW257749   6.006   7.710   8.732 -2.4236  1.1540  0.4404
18770SOL     OW57750   7.323   0.481   6.957 -0.2952 -0.0436  0.1379
18770SOL    HW157751   7.345   0.409   6.898 -2.1529 -1.6166  1.2472
18770SOL    HW257752   7.336   0.446   7.045 -1.9765  0.6845  0.7260
18771SOL     OW57753   6.045   0.573   9.498  0.1435  0.4002  0.0748
18771SOL    HW157754   6.021   0.601   9.587 -2.0852 -1.7689  0.2769
18771SOL    HW257755   6.007   0.485   9.490  1.0263  0.1798 -2.7496
18772SOL     OW57756   5.343   1.568   7.872  0.1286  0.0210  0.0132
18772SOL    HW157757   5.249   1.569   7.890 -0.2089  2.1233 -1.4162
18772SOL    HW257758   5.348   1.542   7.780  0.7574  1.7938 -0.4858
18773SOL     OW57759   4.273   1.416   7.824 -0.2329  0.0340 -0.5494
18773SOL    HW157760   4.218   1.493   7.811 -1.1527  0.1702  3.0912
18773SOL    HW257761   4.351   1.449   7.867 -1.1616 -1.0598  2.1941
18774SOL     OW57762   6.865   7.201   7.428 -0.3408  1.0380 -0.4845
18774SOL    HW157763   6.783   7.183   7.383 -1.5607  2.0421  1.2371
18774SOL    HW257764   6.884   7.292   7.407 -0.0696  1.0300 -0.2803
18775SOL     OW57765   6.992   7.327   7.767  0.3306 -0.0735  0.1960
18775SOL    HW157766   6.908   7.281   7.757  0.2502  0.1062  0.0360
18775SOL    HW257767   7.057   7.256   7.772  0.4716 -0.2302 -2.4263
18776SOL     OW57768   6.798   1.329   8.541 -0.3045 -0.6577 -0.0530
18776SOL    HW157769   6.852   1.388   8.594 -1.1587 -0.9448  1.1686
18776SOL    HW257770   6.789   1.374   8.457  0.3010  0.2478  0.3517
18777SOL     OW57771   5.220   0.480   9.124  0.1017  0.1426  0.1292
18777SOL    HW157772   5.160   0.408   9.107 -0.6963  1.0502 -1.0485
18777SOL    HW257773   5.184   0.554   9.074  0.4121  1.6040  1.9385
18778SOL     OW57774   0.241   7.840   7.675 -0.2324  0.5282  0.5930
18778SOL    HW157775   0.194   7.859   7.594  1.3736  0.9996 -0.2578
18778SOL    HW257776   0.172   7.829   7.740 -1.5332  0.7733 -0.6933
18779SOL     OW57777   5.104   7.795   6.891 -0.2066 -0.1009  0.3279
18779SOL    HW157778   5.112   7.773   6.984  0.4941 -0.0793  0.2750
18779SOL    HW257779   5.137   7.718   6.845 -2.4325 -0.9745  0.0281
18780SOL     OW57780   5.861   0.795   8.043  0.2443 -0.1121  0.1565
18780SOL    HW157781   5.826   0.815   8.130 -0.5647  0.0853 -0.2085
18780SOL    HW257782   5.842   0.873   7.991  2.3062  0.5109  0.2413
18781SOL     OW57783   6.418   7.818   5.778 -0.1533 -0.7752 -0.4239
18781SOL    HW157784   6.373   7.734   5.766 -0.9632 -0.1523 -2.0923
18781SOL    HW257785   6.419   7.857   5.691  1.7621  0.2023 -0.0083
18782SOL     OW57786   5.957   1.204   8.021 -0.1003 -0.1507 -0.0827
18782SOL    HW157787   5.998   1.122   7.992  0.8841 -0.1396  1.1957
18782SOL    HW257788   5.921   1.242   7.941  2.8280  0.0739 -1.4432
18783SOL     OW57789   6.800   7.934   7.516  0.1663  0.1031 -0.2014
18783SOL    HW157790   6.709   7.908   7.501  0.0825  0.5394 -0.4746
18783SOL    HW257791   6.795   8.009   7.575  0.1596  1.8250 -2.2496
18784SOL     OW57792   7.054   0.196   5.231  0.1938 -0.1718 -0.6733
18784SOL    HW157793   7.034   0.156   5.146 -0.2450 -2.2166  0.3266
18784SOL    HW257794   6.994   0.154   5.292  0.1271  1.6478  0.5962
18785SOL     OW57795   7.480   1.503  10.053 -0.6624  0.0865  0.3409
18785SOL    HW157796   7.527   1.422  10.075 -0.0541  0.8027  1.8515
18785SOL    HW257797   7.461   1.543  10.138 -3.7570  0.0186 -0.2287
18786SOL     OW57798   6.440   1.457  10.619 -0.2954  0.3203  0.1773
18786SOL    HW157799   6.500   1.467  10.694  0.0301  0.8813 -0.1438
18786SOL    HW257800   6.452   1.367  10.590  3.0858  1.2938 -2.0611
18787SOL     OW57801   7.428   0.944   7.157 -0.1155 -0.6958 -0.4083
18787SOL    HW157802   7.493   0.879   7.131  2.0042  1.0482  0.2575
18787SOL    HW257803   7.432   0.947   7.252 -1.7527 -1.0621 -0.2858
18788SOL     OW57804   6.857   2.663   7.937  0.1778 -0.1099 -0.5777
18788SOL    HW157805   6.801   2.693   7.866 -1.3341 -0.8342  0.2606
18788SOL    HW257806   6.846   2.730   8.005  0.8152  0.0501 -0.6260
18789SOL     OW57807   4.846   1.491   7.284 -0.0883  0.1190  0.2641
18789SOL    HW157808   4.817   1.475   7.374 -1.6621  1.4960  0.0589
18789SOL    HW257809   4.772   1.464   7.230  0.8190 -0.6392 -0.6381
18790SOL     OW57810   6.649   0.050   8.398  0.2672  0.3525  0.2218
18790SOL    HW157811   6.728   0.050   8.344  1.0948 -0.0950  1.3858
18790SOL    HW257812   6.636   0.142   8.422 -0.2298  0.5868 -0.8707
18791SOL     OW57813   5.533   7.547   8.226 -0.2268 -1.0041 -0.3326
18791SOL    HW157814   5.490   7.531   8.310  1.7871 -0.7639  0.8068
18791SOL    HW257815   5.525   7.641   8.212  0.0076 -0.9473 -0.0813
18792SOL     OW57816   7.455   0.008   7.208 -0.2783  0.2635 -0.3472
18792SOL    HW157817   7.367   0.019   7.170 -0.0174  2.4609 -0.4168
18792SOL    HW257818   7.466  -0.087   7.213 -2.0659 -0.0873 -1.7226
18793SOL     OW57819   5.358   0.947   8.430  0.3354  0.3840 -0.0585
18793SOL    HW157820   5.367   0.852   8.416  1.1870  0.5066 -0.3959
18793SOL    HW257821   5.356   0.984   8.342 -1.9719  0.5396  0.0002
18794SOL     OW57822   0.557   1.650   8.984  0.4348  0.5837 -0.4623
18794SOL    HW157823   0.641   1.677   8.946  1.5695 -0.0460  1.4647
18794SOL    HW257824   0.559   1.684   9.074 -1.4067  0.5811 -0.3757
18795SOL     OW57825   0.843   7.689   7.368  0.2718  0.1883  0.2725
18795SOL    HW157826   0.766   7.739   7.395  0.6389  0.8986  0.0328
18795SOL    HW257827   0.808   7.610   7.328 -0.3806  1.1147 -1.0449
18796SOL     OW57828   7.009   1.020   7.691 -0.1078 -0.1745  0.3089
18796SOL    HW157829   6.961   1.086   7.641 -0.9382 -1.3612 -0.5227
18796SOL    HW257830   6.977   0.936   7.657 -0.2417 -1.0457  2.4236
18797SOL     OW57831   7.480   7.403   8.668 -1.1894  0.5278 -0.6317
18797SOL    HW157832   7.482   7.327   8.609 -0.0997  0.4249 -0.4790
18797SOL    HW257833   7.403   7.389   8.723 -1.0607 -0.4093 -0.6830
18798SOL     OW57834   4.808   1.267   9.087 -0.0031 -0.3298  0.1896
18798SOL    HW157835   4.848   1.255   9.002  0.9030  1.2901  0.3477
18798SOL    HW257836   4.727   1.315   9.069  1.1089  1.7184  0.3401
18799SOL     OW57837   7.408   0.307   7.203  0.0951  0.4386  0.0407
18799SOL    HW157838   7.343   0.237   7.210  0.3677  0.0484 -1.1304
18799SOL    HW257839   7.490   0.261   7.182  1.0165  0.8164  2.4877
18800SOL     OW57840   5.285   0.499   6.462  0.4826  0.3392  0.1182
18800SOL    HW157841   5.239   0.583   6.452  0.7070  0.5530  0.8378
18800SOL    HW257842   5.300   0.469   6.372  1.3180  1.5828 -0.1909
18801SOL     OW57843   7.396   0.920   9.569  0.0198  0.5495  0.1348
18801SOL    HW157844   7.418   0.860   9.640  1.9671  1.3260  0.2630
18801SOL    HW257845   7.407   0.867   9.489 -2.0571 -0.2897  0.3549
18802SOL     OW57846   6.836   0.019   7.859  0.5368  0.2551 -0.5751
18802SOL    HW157847   6.801   0.073   7.788 -1.0957 -0.3156 -0.2635
18802SOL    HW257848   6.785  -0.062   7.854  2.1533 -0.8279 -0.3356
18803SOL     OW57849   3.954   2.700  10.128  0.1559 -0.4354 -0.2065
18803SOL    HW157850   4.041   2.739  10.121  0.1284 -0.5652 -1.3926
18803SOL    HW257851   3.961   2.640  10.202  0.1146  2.0023  1.9262
18804SOL     OW57852   5.677   7.879   9.428 -0.1312 -0.4399 -0.5263
18804SOL    HW157853   5.687   7.876   9.523 -1.8018  2.6929 -0.1168
18804SOL    HW257854   5.617   7.807   9.408  0.5634 -1.3944  0.6950
18805SOL     OW57855   5.324   7.483   9.651 -0.2322  0.1218  0.0284
18805SOL    HW157856   5.286   7.415   9.707  1.2813 -0.4592  0.4012
18805SOL    HW257857   5.272   7.561   9.669 -2.0310 -0.9080 -0.4291
18806SOL     OW57858   6.399   0.067   7.458 -0.1707  0.4067  0.3926
18806SOL    HW157859   6.328   0.132   7.462  0.3414  0.9817  0.3290
18806SOL    HW257860   6.402   0.030   7.546 -0.0666  0.9043  0.6004
18807SOL     OW57861   6.458   2.046   9.985  0.3267  0.0110  0.1096
18807SOL    HW157862   6.438   1.957  10.014 -0.8963 -0.1403 -1.1170
18807SOL    HW257863   6.398   2.101  10.035  0.3539  0.0460  0.1039
18808SOL     OW57864   6.538   2.096   7.309  0.0931 -0.5197  0.1181
18808SOL    HW157865   6.519   2.005   7.333 -2.4351 -0.0209  0.2826
18808SOL    HW257866   6.466   2.121   7.251  1.7330  0.8394 -1.4442
18809SOL     OW57867   7.859   0.515   7.536  0.5271 -0.2326 -0.2529
18809SOL    HW157868   7.768   0.535   7.559  0.5216 -2.0207  1.5096
18809SOL    HW257869   7.907   0.595   7.556 -0.5018  0.4379 -0.3555
18810SOL     OW57870   6.438   0.607   7.495  0.0753 -0.5264 -0.2991
18810SOL    HW157871   6.408   0.568   7.414  1.0948 -1.8999 -0.0518
18810SOL    HW257872   6.358   0.633   7.540 -0.5613 -0.9189 -1.1741
18811SOL     OW57873   6.255   1.301   8.648  0.3742 -0.6104  0.3532
18811SOL    HW157874   6.161   1.289   8.654  0.3472 -1.2144 -0.9897
18811SOL    HW257875   6.266   1.370   8.581  0.9043 -1.6116 -0.6306
18812SOL     OW57876   5.185   7.089   8.888 -0.1079  0.1789 -0.2406
18812SOL    HW157877   5.181   7.147   8.964 -0.1850  0.0203 -0.1247
18812SOL    HW257878   5.212   7.146   8.816  3.2971 -0.2567  0.5273
18813SOL     OW57879   7.159   2.105   7.980 -0.1473  0.2822 -0.2696
18813SOL    HW157880   7.067   2.100   7.955 -0.5013  2.8063  0.2782
18813SOL    HW257881   7.198   2.167   7.919  1.0549 -0.2700 -0.0956
18814SOL     OW57882   6.145   7.432   8.951  0.1122  0.2434  0.1305
18814SOL    HW157883   6.160   7.425   9.045 -0.2474 -0.1600  0.1606
18814SOL    HW257884   6.229   7.462   8.916  0.9058 -1.5913  0.3511
18815SOL     OW57885   6.069   0.974   7.824 -0.3681  0.5726 -0.0043
18815SOL    HW157886   6.149   1.021   7.845 -0.2840  0.5380 -0.2400
18815SOL    HW257887   6.066   0.972   7.728 -1.1418  1.4021 -0.0145
18816SOL     OW57888   5.831   0.122   9.097  0.0076  0.0631 -0.4702
18816SOL    HW157889   5.896   0.149   9.163  0.1625 -1.4240  0.0095
18816SOL    HW257890   5.753   0.173   9.119  1.2871  2.8035 -1.7813
18817SOL     OW57891   6.068   0.986   8.388 -0.2331 -0.6581 -0.7834
18817SOL    HW157892   6.004   0.964   8.456 -2.0598  1.1208 -1.8108
18817SOL    HW257893   6.075   0.907   8.335  1.3952 -2.1571  1.4868
18818SOL     OW57894   0.490   7.634   9.177  0.4930  0.2117 -0.1334
18818SOL    HW157895   0.532   7.550   9.195  0.0147  0.1839  0.9007
18818SOL    HW257896   0.396   7.618   9.189  0.2237  0.4836 -1.6030
18819SOL     OW57897   6.269   1.153  10.218  0.2877  0.1507 -0.6102
18819SOL    HW157898   6.335   1.117  10.277 -1.3278 -1.1088  0.5184
18819SOL    HW257899   6.317   1.171  10.136  2.2858  0.6408  0.5972
18820SOL     OW57900   6.553   7.163   9.306 -0.1871  0.0548 -0.0964
18820SOL    HW157901   6.465   7.201   9.303 -0.2056  0.1208  1.0227
18820SOL    HW257902   6.547   7.094   9.371 -0.4454 -2.6954 -2.7940
18821SOL     OW57903   7.769   0.596   6.162  0.2899  0.1209  0.3467
18821SOL    HW157904   7.731   0.587   6.249  1.7893  0.1880  1.0371
18821SOL    HW257905   7.833   0.525   6.156  0.6018  0.4581 -0.4773
18822SOL     OW57906   7.403   2.720   9.242  0.3497 -0.0938 -0.3451
18822SOL    HW157907   7.346   2.700   9.168 -0.8739 -0.5365  0.6588
18822SOL    HW257908   7.391   2.814   9.256  0.0216 -0.1454 -0.2697
18823SOL     OW57909   7.173   0.904   7.068 -0.0899  0.0594 -0.1296
18823SOL    HW157910   7.248   0.938   7.115 -0.9234  2.4783 -0.4127
18823SOL    HW257911   7.210   0.863   6.990  1.0089 -0.3492  0.5798
18824SOL     OW57912   4.544   1.387   7.666 -0.0198 -0.1926  0.1017
18824SOL    HW157913   4.461   1.425   7.635 -0.0870 -1.5056 -1.4729
18824SOL    HW257914   4.568   1.440   7.741 -0.5974  2.3709 -1.3944
18825SOL     OW57915   6.190   7.778   8.344 -0.3398 -0.6937  0.1830
18825SOL    HW157916   6.231   7.704   8.390 -1.6171 -1.2291  0.5016
18825SOL    HW257917   6.166   7.742   8.259  1.2132  0.0519 -0.6136
18826SOL     OW57918   5.016   0.638   8.117 -0.5273 -0.0503 -0.0988
18826SOL    HW157919   5.008   0.635   8.021 -0.3240  1.3071 -0.1822
18826SOL    HW257920   4.988   0.552   8.146  2.9899 -1.9717 -1.6465
18827SOL     OW57921   6.784   2.520   9.948 -0.5432  0.3708  0.1987
18827SOL    HW157922   6.754   2.482  10.030  0.8614 -0.6860  0.2524
18827SOL    HW257923   6.785   2.615   9.965 -1.3794  0.2529  0.9968
18828SOL     OW57924   4.435   0.521   8.539  0.0926 -0.8827 -0.0451
18828SOL    HW157925   4.514   0.527   8.485  0.3510 -0.2108  0.3913
18828SOL    HW257926   4.368   0.569   8.489  0.4870  0.2561  0.4796
18829SOL     OW57927   7.704   0.730   7.812  0.3131 -0.3595 -0.4303
18829SOL    HW157928   7.792   0.766   7.795 -0.4671  1.7498 -0.2751
18829SOL    HW257929   7.658   0.800   7.858 -1.2378 -1.7211  0.1847
18830SOL     OW57930   4.676   0.236   6.699 -0.0708 -0.7088  0.4058
18830SOL    HW157931   4.687   0.298   6.627 -2.8965  0.5902  0.9778
18830SOL    HW257932   4.727   0.159   6.672  0.5695  0.4737 -2.0118
18831SOL     OW57933   5.850   2.845  10.071  0.0090 -0.0399  0.1366
18831SOL    HW157934   5.845   2.939  10.058 -0.4752 -0.0008  0.5795
18831SOL    HW257935   5.885   2.811   9.988  1.3081  0.6245  0.3874
18832SOL     OW57936   7.475   0.749   9.774  0.1965 -0.1780  0.4328
18832SOL    HW157937   7.471   0.653   9.769 -0.6879 -0.2415  1.7865
18832SOL    HW257938   7.442   0.769   9.861  0.0064  1.3919  0.0198
18833SOL     OW57939   7.297   6.907   8.450 -0.5345 -0.6467  0.5872
18833SOL    HW157940   7.283   6.871   8.362  0.2344 -0.2263  0.2860
18833SOL    HW257941   7.213   6.896   8.494 -1.7236  1.4151 -1.0126
18834SOL     OW57942   7.216   7.977   6.500  0.4541  0.6111 -0.2034
18834SOL    HW157943   7.189   8.047   6.558 -0.4713 -1.0446  1.4445
18834SOL    HW257944   7.203   8.012   6.412 -2.5698  1.5853  0.5389
18835SOL     OW57945   6.667   1.536   7.565  0.1902  0.0144 -0.7608
18835SOL    HW157946   6.668   1.631   7.554  1.7113  0.1020 -0.1649
18835SOL    HW257947   6.678   1.523   7.659  2.7978 -0.7247 -1.0917
18836SOL     OW57948   5.566   1.525   6.978 -0.0015  0.1253 -0.2886
18836SOL    HW157949   5.508   1.452   6.996 -0.3089  0.2397 -0.7843
18836SOL    HW257950   5.624   1.493   6.909  0.0972  0.2274 -0.2540
18837SOL     OW57951   6.088   7.492   7.856  0.1175 -0.6154  0.2738
18837SOL    HW157952   6.170   7.442   7.853  0.3671 -0.2419  0.7387
18837SOL    HW257953   6.080   7.530   7.768  1.3595  0.7771  0.7217
18838SOL     OW57954   6.688   0.570   9.446  0.1055 -0.4237 -0.0777
18838SOL    HW157955   6.711   0.662   9.461 -1.6290  0.2523 -1.2174
18838SOL    HW257956   6.747   0.521   9.503  2.1527  1.2934 -0.5768
18839SOL     OW57957   7.713   0.003   5.801 -0.5642 -0.6350  0.1909
18839SOL    HW157958   7.640  -0.007   5.740  0.6459  1.2416 -1.6914
18839SOL    HW257959   7.788  -0.037   5.755  0.1272 -0.2751  0.9806
18840SOL     OW57960   7.681   7.945   8.075 -0.4475 -0.8204 -0.1530
18840SOL    HW157961   7.642   7.858   8.062  1.2652 -1.6479 -0.0730
18840SOL    HW257962   7.751   7.950   8.010  1.1481 -0.5785  1.5128
18841SOL     OW57963   6.612   0.880   7.061  0.1126  0.1910 -0.6531
18841SOL    HW157964   6.645   0.818   6.995  0.6613 -0.2367  0.0190
18841SOL    HW257965   6.535   0.835   7.098  1.1112 -0.5760  0.5650
18842SOL     OW57966   6.540   2.819   7.430  0.1231 -0.0605  0.2051
18842SOL    HW157967   6.625   2.862   7.442  1.2994 -1.9770 -0.6685
18842SOL    HW257968   6.498   2.827   7.516  2.5937 -1.7821  1.7485
18843SOL     OW57969   7.344   0.056   7.468  0.3259 -0.0775  0.2381
18843SOL    HW157970   7.411   0.008   7.516  1.8858  2.0330  0.2634
18843SOL    HW257971   7.368   0.045   7.376 -0.5694 -1.0694  0.0940
18844SOL     OW57972   0.565   0.324   7.833 -0.0968 -0.0818 -0.3857
18844SOL    HW157973   0.646   0.275   7.818 -0.2733  0.0695 -1.9865
18844SOL    HW257974   0.520   0.323   7.748 -1.0857  1.0756  0.0945
18845SOL     OW57975   6.594   0.712   8.328 -0.0310  0.4354 -0.3036
18845SOL    HW157976   6.596   0.795   8.375 -0.3492 -0.5852  1.6212
18845SOL    HW257977   6.519   0.719   8.270 -0.7193  1.1007  0.6378
18846SOL     OW57978   7.420   1.977   9.148 -0.1318 -0.3310  0.1463
18846SOL    HW157979   7.349   1.921   9.180 -0.2145  0.5715  1.6504
18846SOL    HW257980   7.415   1.970   9.053 -4.3151  2.1179 -0.0727
18847SOL     OW57981   6.515   1.644   8.379  0.4289  0.0035 -0.2034
18847SOL    HW157982   6.430   1.606   8.402  0.0538  0.8931 -0.0873
18847SOL    HW257983   6.541   1.598   8.299 -0.2764 -0.0951 -0.3836
18848SOL     OW57984   5.568   0.581   5.670 -0.4713 -0.3905  0.4243
18848SOL    HW157985   5.539   0.578   5.762 -0.5614  2.2579  0.5553
18848SOL    HW257986   5.641   0.644   5.670  0.3910 -1.3373 -1.1330
18849SOL     OW57987   6.350   7.809   8.840 -0.2131 -0.1858 -0.0924
18849SOL    HW157988   6.374   7.831   8.930  0.9065 -0.5694 -0.2827
18849SOL    HW257989   6.402   7.868   8.786 -1.0271  0.1717 -0.4839
18850SOL     OW57990   5.541   1.372  10.623 -0.0708 -0.5573 -0.2226
18850SOL    HW157991   5.616   1.363  10.682 -0.8096  0.4662  0.9143
18850SOL    HW257992   5.578   1.408  10.542  0.6231  0.2886  0.4538
18851SOL     OW57993   5.868   6.976   8.022 -0.2683  0.5528 -0.3770
18851SOL    HW157994   5.900   7.066   8.027  0.5968  0.3782 -1.9518
18851SOL    HW257995   5.837   6.967   7.932 -1.9196 -0.2434  0.2324
18852SOL     OW57996   6.583   3.092   8.179  0.4625 -0.0007 -0.1054
18852SOL    HW157997   6.550   3.004   8.159 -0.0339 -0.4325  2.2804
18852SOL    HW257998   6.526   3.123   8.250  0.0422  2.6635 -1.5139
18853SOL     OW57999   5.215   7.897   7.686  0.2963 -0.1268  0.7463
18853SOL    HW158000   5.135   7.861   7.647 -0.1512  0.7683  0.8322
18853SOL    HW258001   5.263   7.820   7.717 -1.2790 -0.5805  2.1578
18854SOL     OW58002   5.871   0.722   9.874  0.5542 -0.1172  0.2568
18854SOL    HW158003   5.912   0.792   9.823 -1.1910  0.3082 -0.6547
18854SOL    HW258004   5.931   0.648   9.866  1.0535  0.4141 -1.1539
18855SOL     OW58005   5.331   1.598   9.534  0.2893  0.6019 -0.2936
18855SOL    HW158006   5.261   1.569   9.592 -0.0359 -0.7215 -1.3011
18855SOL    HW258007   5.290   1.663   9.477  0.4196  1.3389  0.4332
18856SOL     OW58008   6.736   0.643   8.787  0.3074  0.3409  0.1233
18856SOL    HW158009   6.753   0.658   8.694 -2.2327  2.5657 -0.0908
18856SOL    HW258010   6.693   0.558   8.790 -2.4600  1.5833 -1.2304
18857SOL     OW58011   0.833   0.695   9.448 -0.0997  0.2386  0.5426
18857SOL    HW158012   0.740   0.708   9.466 -0.0398 -0.7344  1.6871
18857SOL    HW258013   0.878   0.756   9.507  0.0209 -0.6138  1.3479
18858SOL     OW58014   6.568   0.726   6.252  0.0902  0.0015  0.2883
18858SOL    HW158015   6.655   0.764   6.234 -0.3258  1.0389  0.3822
18858SOL    HW258016   6.587   0.640   6.289  1.0382 -1.3765 -3.0271
18859SOL     OW58017   5.372   7.794   7.253  0.2054 -0.1537 -0.1742
18859SOL    HW158018   5.363   7.870   7.196 -2.3667 -0.1513  0.1096
18859SOL    HW258019   5.466   7.784   7.266  0.7417  1.2074 -2.5400
18860SOL     OW58020   4.816   1.650   8.726  0.3090  0.4451  0.0940
18860SOL    HW158021   4.793   1.576   8.670 -0.0234  0.9187 -0.4107
18860SOL    HW258022   4.821   1.613   8.814 -0.2160 -0.1067 -0.1011
18861SOL     OW58023   0.413   0.268   7.601  0.3035 -0.2197  0.3040
18861SOL    HW158024   0.400   0.186   7.552  0.9461 -0.9833  1.3747
18861SOL    HW258025   0.468   0.321   7.543 -0.1684 -0.5224 -0.4316
18862SOL     OW58026   7.329   0.821   7.659 -0.1972 -0.3516  0.1633
18862SOL    HW158027   7.287   0.769   7.590  0.5306  0.6272 -1.0764
18862SOL    HW258028   7.367   0.756   7.718 -1.9539 -1.2413  0.4075
18863SOL     OW58029   7.172   1.912  12.273 -0.1643  0.2493  0.2645
18863SOL    HW158030   7.094   1.858  12.261  0.7260 -1.9570  3.2823
18863SOL    HW258031   7.160   1.952  12.359  1.3548  1.0719  0.1224
18864SOL     OW58032   6.334   0.373   7.774  0.4774  0.7387 -0.4251
18864SOL    HW158033   6.320   0.298   7.831 -0.8858  2.0156  1.0443
18864SOL    HW258034   6.246   0.405   7.754  1.0137  2.0247 -0.8758
18865SOL     OW58035   6.626   1.389   9.279 -0.0733  0.0205  0.2387
18865SOL    HW158036   6.655   1.480   9.278 -1.5522  0.5183  0.3651
18865SOL    HW258037   6.681   1.346   9.213  1.0774  0.8449  0.6343
18866SOL     OW58038   4.604   2.827   7.561 -0.7136  0.3340 -0.0353
18866SOL    HW158039   4.560   2.870   7.488 -2.4148  0.5402  1.0771
18866SOL    HW258040   4.620   2.897   7.624 -1.6973 -0.2816  0.9290
18867SOL     OW58041   6.488   1.834   7.391  0.2943  0.0044  0.5985
18867SOL    HW158042   6.552   1.823   7.462  0.2693  0.8781  0.7676
18867SOL    HW258043   6.534   1.803   7.312  0.9855  0.7690  0.6925
18868SOL     OW58044   0.722   0.048   7.017  0.4149 -0.1418 -0.1784
18868SOL    HW158045   0.640   0.043   7.066  0.2592 -0.4153 -0.4569
18868SOL    HW258046   0.790   0.048   7.083  0.1437  3.9134  0.3039
18869SOL     OW58047   4.484   0.263   6.916 -0.3296 -0.4276 -0.2667
18869SOL    HW158048   4.540   0.284   6.841 -1.3300 -1.8281 -1.4574
18869SOL    HW258049   4.414   0.209   6.880 -1.2644 -0.5305  1.5629
18870SOL     OW58050   6.958   3.591   8.167 -0.5261 -0.1396  0.0247
18870SOL    HW158051   7.002   3.519   8.212 -1.6039 -0.9980 -0.2411
18870SOL    HW258052   6.892   3.622   8.229  0.2853  1.0117  0.3482
18871SOL     OW58053   6.266   7.787   9.222 -0.8863  0.1492  0.8121
18871SOL    HW158054   6.231   7.769   9.310 -2.7259  1.5026  0.4306
18871SOL    HW258055   6.216   7.730   9.164 -1.3745  0.9392  0.4284
18872SOL     OW58056   5.519   7.663   6.514 -0.0810 -0.2304 -0.0533
18872SOL    HW158057   5.532   7.747   6.471  2.2549 -0.3467  0.3315
18872SOL    HW258058   5.554   7.674   6.602 -0.8445 -1.2686  0.4099
18873SOL     OW58059   2.371   1.718   8.347 -0.2357 -0.4649 -0.3269
18873SOL    HW158060   2.343   1.660   8.418  0.2206 -0.4770 -0.1503
18873SOL    HW258061   2.463   1.738   8.368 -0.3720  0.2781 -0.4063
18874SOL     OW58062   6.483   1.009   9.816 -0.1438 -0.3666 -0.7514
18874SOL    HW158063   6.395   1.045   9.811 -0.8047 -1.9647 -1.3737
18874SOL    HW258064   6.530   1.049   9.742  0.2018  1.7650  0.5499
18875SOL     OW58065   6.408   6.924   9.492  0.6588  0.4375  0.1963
18875SOL    HW158066   6.359   6.991   9.445  1.7992  2.0047  1.1260
18875SOL    HW258067   6.356   6.908   9.571 -0.4449 -1.0206 -0.7899
18876SOL     OW58068   5.481   1.044   7.314  0.0844 -0.3386  0.3976
18876SOL    HW158069   5.553   1.028   7.253  0.5567  0.5877  0.6919
18876SOL    HW258070   5.402   1.029   7.262  0.4848 -0.9156 -0.0547
18877SOL     OW58071   5.165   7.963   8.871 -0.6310 -0.0558 -0.1255
18877SOL    HW158072   5.232   8.024   8.902  0.5365 -0.6193 -1.4351
18877SOL    HW258073   5.130   8.005   8.792 -2.3598  0.5597  0.9013
18878SOL     OW58074   5.844   0.538   8.277  0.4503  0.3984 -0.0895
18878SOL    HW158075   5.772   0.567   8.334 -1.9304  2.6473 -3.8425
18878SOL    HW258076   5.922   0.569   8.322 -1.0105  0.2470  2.8681
18879SOL     OW58077   6.861   0.183   9.819  0.1394 -0.5956  0.3975
18879SOL    HW158078   6.916   0.246   9.772 -0.6769  0.1677  0.4349
18879SOL    HW258079   6.870   0.207   9.911 -1.5833  0.6875  0.2925
18880SOL     OW58080   7.663   1.200   7.398  0.0712  0.2429  0.3856
18880SOL    HW158081   7.615   1.283   7.395  1.2569  0.9423  0.0637
18880SOL    HW258082   7.701   1.191   7.310 -0.0638 -0.6523  0.4140
18881SOL     OW58083   4.911   0.557   8.893 -0.5011  0.4532  0.1003
18881SOL    HW158084   4.922   0.462   8.888 -0.2897  0.4464  0.5705
18881SOL    HW258085   4.999   0.592   8.884 -0.4722  0.5593  0.7131
18882SOL     OW58086   7.022   0.060   6.901  0.3831 -0.2165 -0.1386
18882SOL    HW158087   6.972   0.137   6.929 -1.0397 -0.4386 -1.9163
18882SOL    HW258088   7.011  -0.003   6.972 -0.1616  0.4647  0.3942
18883SOL     OW58089   5.669   0.494   6.441 -0.4037  0.0948 -0.2304
18883SOL    HW158090   5.710   0.484   6.356 -0.2730  0.2008 -0.1797
18883SOL    HW258091   5.665   0.589   6.455 -1.9884  0.1667 -0.8821
18884SOL     OW58092   5.540   1.504   8.949  0.4347 -0.1281  0.3914
18884SOL    HW158093   5.626   1.543   8.932  0.8963 -1.4475 -0.5553
18884SOL    HW258094   5.515   1.466   8.864 -1.3654  0.7286  0.5089
18885SOL     OW58095   3.184   6.962   9.241 -0.3505  0.4236 -0.6737
18885SOL    HW158096   3.121   6.891   9.231 -0.6888  0.7513 -0.9275
18885SOL    HW258097   3.266   6.927   9.206 -0.2214 -0.2229  0.2379
18886SOL     OW58098   6.423   1.220   8.319  0.4230  0.3803 -0.2514
18886SOL    HW158099   6.410   1.305   8.361 -0.3838  0.5815 -0.8746
18886SOL    HW258100   6.400   1.156   8.386 -0.4914  0.6883 -0.2589
18887SOL     OW58101   0.390   0.122   9.843 -0.2553  0.5453  0.1187
18887SOL    HW158102   0.437   0.039   9.843  0.8800  1.1366 -1.5408
18887SOL    HW258103   0.444   0.180   9.789 -2.5928  1.4403 -1.4177
18888SOL     OW58104   5.605   2.613   7.907  0.1683  0.1054 -0.4342
18888SOL    HW158105   5.649   2.529   7.917 -0.0133  0.3084  4.1498
18888SOL    HW258106   5.513   2.591   7.894  0.0868 -0.4477  0.9796
18889SOL     OW58107   7.839   0.029   8.548 -0.4605 -0.2515 -0.5512
18889SOL    HW158108   7.892   0.103   8.519 -0.0406  0.4383  1.8175
18889SOL    HW258109   7.752   0.066   8.563 -1.6003 -1.2548 -3.8107
18890SOL     OW58110   7.458   2.491   8.584  0.2250 -0.0528 -0.3078
18890SOL    HW158111   7.366   2.518   8.586  0.7993  2.1469 -0.9559
18890SOL    HW258112   7.457   2.410   8.532 -1.2860  0.2425 -0.8096
18891SOL     OW58113   6.129   1.571   9.604 -0.1196 -0.1504 -0.2207
18891SOL    HW158114   6.118   1.502   9.670 -0.2573 -0.1225 -0.2130
18891SOL    HW258115   6.040   1.601   9.586 -0.1979 -0.9395 -1.2569
18892SOL     OW58116   6.633   0.311   7.991  0.5420 -0.5594  0.6152
18892SOL    HW158117   6.653   0.395   8.033  1.5433  0.6627 -2.0370
18892SOL    HW258118   6.717   0.264   7.992 -0.2645 -2.1448  3.1165
18893SOL     OW58119   6.396   1.750   6.561 -0.2503  0.4617  0.0795
18893SOL    HW158120   6.324   1.797   6.604 -0.5928  1.0576 -1.0861
18893SOL    HW258121   6.444   1.819   6.515  2.2237  0.3829  2.3031
18894SOL     OW58122   0.855   7.336   4.952 -0.1064  0.3442  0.2002
18894SOL    HW158123   0.765   7.316   4.979  0.3445 -0.8104  0.9059
18894SOL    HW258124   0.902   7.253   4.962 -0.1955 -0.8959 -5.7971
18895SOL     OW58125   0.082   0.697  10.346  0.3702  0.1942  0.6175
18895SOL    HW158126   0.021   0.763  10.381 -0.3846  0.1482 -0.5801
18895SOL    HW258127   0.031   0.617  10.343  0.6048  0.0674 -0.0419
18896SOL     OW58128   7.847   7.594   7.745  0.3427 -0.1537  0.2451
18896SOL    HW158129   7.760   7.563   7.770 -0.8805  0.5957 -2.7255
18896SOL    HW258130   7.833   7.646   7.666  3.7002 -1.6317 -1.5364
18897SOL     OW58131   6.901   1.735   9.456 -0.5534  0.0807  0.7237
18897SOL    HW158132   6.896   1.788   9.377  1.0038 -0.1517  0.4431
18897SOL    HW258133   6.846   1.659   9.437 -1.4147  0.7394  0.4790
18898SOL     OW58134   6.376   0.059  10.030 -0.3434 -0.4796  0.2654
18898SOL    HW158135   6.366   0.082   9.938  0.7946  1.6606  0.6146
18898SOL    HW258136   6.290   0.076  10.068 -1.0240 -2.0341 -0.4689
18899SOL     OW58137   6.810   0.500   8.143 -0.0012  0.3091 -0.1473
18899SOL    HW158138   6.810   0.565   8.214  0.1441 -0.4637  0.5691
18899SOL    HW258139   6.868   0.430   8.174 -2.0794 -1.3397  0.1810
18900SOL     OW58140   7.176   1.128   8.635 -0.0852 -0.1538  0.0183
18900SOL    HW158141   7.118   1.106   8.708  1.4278 -0.2401  1.2538
18900SOL    HW258142   7.260   1.087   8.658  0.7361  0.7483 -1.2326
18901SOL     OW58143   4.918   7.756   9.839  0.6940 -0.0617 -0.4777
18901SOL    HW158144   4.903   7.831   9.782 -0.4679  1.2938  1.4873
18901SOL    HW258145   4.831   7.717   9.851  0.5056  0.9604  1.9749
18902SOL     OW58146   6.119   1.353   9.765  0.3556  0.0708 -0.0833
18902SOL    HW158147   6.188   1.308   9.813 -0.9331 -0.1353  1.6758
18902SOL    HW258148   6.108   1.302   9.685  0.4623 -1.4514  0.8333
18903SOL     OW58149   6.756   2.147   8.609 -0.2413 -0.0399 -0.4853
18903SOL    HW158150   6.792   2.114   8.527 -0.2931 -0.7105 -0.2493
18903SOL    HW258151   6.764   2.073   8.670  0.5042  0.6841  0.3254
18904SOL     OW58152   7.343   7.318  10.112  0.0134  0.1974  0.1224
18904SOL    HW158153   7.390   7.259  10.053  0.6111  0.2978  0.4883
18904SOL    HW258154   7.296   7.260  10.172 -2.0112  0.0562 -1.4844
18905SOL     OW58155   2.002   0.657   8.261 -0.2286  0.0936  0.2600
18905SOL    HW158156   1.962   0.577   8.228  0.1980  0.7963 -2.1739
18905SOL    HW258157   2.096   0.639   8.259  0.0197  1.2975 -2.4006
18906SOL     OW58158   4.767   6.494   5.557  0.3807 -0.2050  0.0448
18906SOL    HW158159   4.780   6.416   5.504  1.4446 -0.0955  0.1378
18906SOL    HW258160   4.690   6.537   5.518  0.5822 -0.6136 -0.8096
18907SOL     OW58161   7.136   1.456   7.866 -0.1230 -0.1093  0.3630
18907SOL    HW158162   7.109   1.367   7.890 -0.9319 -0.2741 -1.0851
18907SOL    HW258163   7.228   1.461   7.893 -0.5190 -0.8078  1.9658
18908SOL     OW58164   5.604   1.078  10.363 -0.2932 -0.0514 -0.5851
18908SOL    HW158165   5.681   1.022  10.373  1.2468  1.9195 -0.7301
18908SOL    HW258166   5.555   1.040  10.290  0.1426 -1.7538 -0.0212
18909SOL     OW58167   7.281   7.963   6.857 -0.5198 -1.0251 -0.2938
18909SOL    HW158168   7.199   7.994   6.893  0.6445 -0.7609  2.3512
18909SOL    HW258169   7.285   7.870   6.882  0.8880 -0.5225  1.5148
18910SOL     OW58170   7.469   0.552   7.325 -0.1585  0.2056 -0.1263
18910SOL    HW158171   7.454   0.468   7.282  0.3079 -0.0558  0.2159
18910SOL    HW258172   7.480   0.530   7.417  1.4214  0.4642 -0.2220
18911SOL     OW58173   6.999   0.752   7.847  0.0808 -0.3070 -0.4417
18911SOL    HW158174   7.050   0.832   7.859  1.0667 -0.7577 -1.5091
18911SOL    HW258175   6.916   0.769   7.893  0.8279  0.7700  0.5593
18912SOL     OW58176   6.887   0.386   7.262 -0.0315  0.0100  0.1379
18912SOL    HW158177   6.910   0.418   7.350  0.3716  1.9103 -0.5994
18912SOL    HW258178   6.833   0.456   7.225 -0.9917 -1.1922 -0.7966
18913SOL     OW58179   6.166   0.243   8.933  0.3765 -0.1339  0.2658
18913SOL    HW158180   6.131   0.161   8.898 -2.1614  0.8929  0.1865
18913SOL    HW258181   6.144   0.241   9.026  1.7598 -0.2247  0.6066
18914SOL     OW58182   5.600   0.202   7.137 -0.5914 -0.5279 -0.6350
18914SOL    HW158183   5.617   0.292   7.111  2.1864 -0.4211  1.1472
18914SOL    HW258184   5.570   0.207   7.228  1.0298 -1.4010 -0.0027
18915SOL     OW58185   7.917   7.960   7.907 -0.0578 -0.4730 -0.1227
18915SOL    HW158186   7.950   8.050   7.897  1.5992 -1.1679 -1.4157
18915SOL    HW258187   7.885   7.937   7.820  0.4872 -1.4877 -0.0673
18916SOL     OW58188   0.154   1.208   7.506 -0.6181  0.2305  0.4428
18916SOL    HW158189   0.163   1.124   7.460  1.1363  0.6850 -0.1177
18916SOL    HW258190   0.063   1.209   7.536 -0.6537 -1.9261  0.5707
18917SOL     OW58191   5.650   0.988   7.094  0.2192 -0.3192  0.1576
18917SOL    HW158192   5.710   1.054   7.058 -1.6821  0.4778 -1.7574
18917SOL    HW258193   5.683   0.905   7.061 -0.9213  0.3151 -2.8472
18918SOL     OW58194   5.719   1.369   6.774  0.5333 -0.1704 -0.0658
18918SOL    HW158195   5.708   1.282   6.812 -0.7724  0.3126  0.7556
18918SOL    HW258196   5.733   1.352   6.681  0.7441 -1.2789  0.1493
18919SOL     OW58197   5.493   1.024   7.865  0.5515 -0.2942  0.3728
18919SOL    HW158198   5.427   1.091   7.848 -1.1783 -2.0613 -0.3208
18919SOL    HW258199   5.535   1.010   7.781  0.4111 -0.5575  0.3442
18920SOL     OW58200   5.441   7.497  10.951 -0.0273 -0.0245  0.0452
18920SOL    HW158201   5.410   7.473  10.863 -1.9125  2.0509  0.0428
18920SOL    HW258202   5.427   7.418  11.004 -3.9295  0.1571 -0.3878
18921SOL     OW58203   6.194   0.952   7.561 -0.5566  0.5412 -0.7844
18921SOL    HW158204   6.212   0.958   7.467 -0.7201 -1.0080 -0.9391
18921SOL    HW258205   6.280   0.941   7.601 -0.5316  0.6612 -0.8046
18922SOL     OW58206   5.524   3.319  10.914  0.4307  0.0732 -0.0952
18922SOL    HW158207   5.616   3.343  10.901  0.9215 -1.6033 -0.0306
18922SOL    HW258208   5.484   3.331  10.828  0.7868  0.5218 -0.1996
18923SOL     OW58209   6.980   1.506   9.966  0.1574  0.6840 -0.5424
18923SOL    HW158210   7.061   1.496   9.916 -0.4463  0.6043 -1.5277
18923SOL    HW258211   6.969   1.600   9.977  0.8471  0.6684  0.3899
18924SOL     OW58212   5.457   0.720  10.281 -0.3390  0.3128  0.3979
18924SOL    HW158213   5.438   0.730  10.374  0.4501 -0.0822  0.6098
18924SOL    HW258214   5.473   0.809  10.250 -1.4180  0.5361  0.4499
18925SOL     OW58215   1.622   7.373   9.915  0.8286  0.0293 -0.1161
18925SOL    HW158216   1.605   7.279   9.917 -0.1481  0.2001  0.2403
18925SOL    HW258217   1.686   7.387   9.985 -0.2034 -0.1772  0.9138
18926SOL     OW58218   6.284   1.679  10.963  0.2082 -0.5330 -0.0548
18926SOL    HW158219   6.373   1.713  10.969 -0.4262  1.6367 -1.7462
18926SOL    HW258220   6.233   1.735  11.023 -0.2378 -0.9188 -0.0691
18927SOL     OW58221   6.637   7.242  10.253 -0.3304  0.5329  0.1019
18927SOL    HW158222   6.686   7.291  10.319  0.8377 -2.8424  1.9651
18927SOL    HW258223   6.696   7.173  10.225 -2.0950 -0.2886 -1.9012
18928SOL     OW58224   6.575   7.913  10.951 -0.4240  0.1632  0.2273
18928SOL    HW158225   6.506   7.910  11.017 -1.7887  1.6538 -1.0321
18928SOL    HW258226   6.533   7.952  10.874  1.3206 -0.7023 -1.2566
18929SOL     OW58227   4.645   1.109  10.580 -0.5750  0.4526  0.0083
18929SOL    HW158228   4.601   1.145  10.503 -0.3224 -0.1798 -0.4414
18929SOL    HW258229   4.588   1.037  10.608  1.0507 -1.6801 -1.7462
18930SOL     OW58230   6.519   2.347   9.185  0.6960 -0.0689 -0.1784
18930SOL    HW158231   6.591   2.410   9.186 -1.4081  2.5960  2.5808
18930SOL    HW258232   6.533   2.294   9.264  0.1544 -0.1412 -0.1266
18931SOL     OW58233   0.141   1.166  12.407  0.0477  0.1686  0.0280
18931SOL    HW158234   0.161   1.229  12.476  2.0014 -0.0248 -0.2911
18931SOL    HW258235   0.163   1.081  12.445 -0.7669 -0.1511 -0.1847
18932SOL     OW58236   3.859   0.914  12.120  0.1098  0.7439 -0.0462
18932SOL    HW158237   3.796   0.910  12.192  0.6394  1.9274  0.5070
18932SOL    HW258238   3.917   0.839  12.134 -1.4282 -0.6524 -0.8403
18933SOL     OW58239   7.684   0.214   9.539 -0.5697 -0.3438  0.1548
18933SOL    HW158240   7.710   0.167   9.619 -2.5253 -0.6619  0.6571
18933SOL    HW258241   7.723   0.163   9.468  1.1282 -0.1069  0.8639
18934SOL     OW58242   4.172   3.117  10.898  0.2827 -0.4699  0.7747
18934SOL    HW158243   4.115   3.072  10.835 -0.5125 -1.4760  2.1522
18934SOL    HW258244   4.261   3.092  10.872  0.0141 -0.3063 -0.3492
18935SOL     OW58245   6.975   1.970  10.952  0.5090 -0.3897 -0.5808
18935SOL    HW158246   6.891   1.995  10.991  1.9238 -0.0044  2.5084
18935SOL    HW258247   6.972   2.007  10.863 -3.0319 -1.4984 -1.0883
18936SOL     OW58248   5.894   1.320   8.955 -0.4097 -0.1246  0.5891
18936SOL    HW158249   5.965   1.384   8.957  0.8920 -1.4020 -1.1562
18936SOL    HW258250   5.939   1.235   8.960 -1.7312 -0.9816 -1.2004
18937SOL     OW58251   5.541   2.916  10.427  0.0265 -0.2903 -0.5953
18937SOL    HW158252   5.478   2.983  10.400  2.4456  2.8071  0.8578
18937SOL    HW258253   5.542   2.922  10.523  1.0534 -1.7398 -0.4870
18938SOL     OW58254   7.117   7.568  11.412 -0.0521 -0.4444 -0.3900
18938SOL    HW158255   7.067   7.492  11.380 -2.8030  1.1405 -0.1221
18938SOL    HW258256   7.053   7.623  11.457  1.1643  3.3918 -2.8466
18939SOL     OW58257   5.809   1.837   9.938 -0.4174  0.5035 -0.2453
18939SOL    HW158258   5.754   1.914   9.949  0.8042  1.1617  1.8723
18939SOL    HW258259   5.897   1.867   9.957  0.1712 -1.2887  0.0778
18940SOL     OW58260   0.069   1.277   9.139  0.0252  0.1267 -0.3941
18940SOL    HW158261  -0.012   1.232   9.165 -0.1586  0.3831 -0.5279
18940SOL    HW258262   0.132   1.255   9.209 -0.8204  1.8570  0.9910
18941SOL     OW58263   5.321   2.063   9.482 -0.5935 -0.0430  0.1973
18941SOL    HW158264   5.316   1.979   9.437 -4.4180 -0.6996  1.5261
18941SOL    HW258265   5.237   2.105   9.465  0.3612  2.5972  1.3868
18942SOL     OW58266   6.914   1.780   9.965 -0.7656 -0.1345  0.1449
18942SOL    HW158267   6.943   1.775   9.874  0.0427  1.8339  0.2609
18942SOL    HW258268   6.836   1.835   9.962 -0.1060  0.8451  0.7677
18943SOL     OW58269   5.779   2.470   8.961 -0.2236  0.1043 -0.2707
18943SOL    HW158270   5.706   2.530   8.979 -1.0688 -0.9584 -0.0416
18943SOL    HW258271   5.737   2.384   8.949  1.0131 -0.5719  0.0933
18944SOL     OW58272   6.524   1.597   9.771  0.0439  0.7824  0.1856
18944SOL    HW158273   6.488   1.583   9.684  0.1661 -0.9887  0.3642
18944SOL    HW258274   6.505   1.515   9.817  1.7276  0.9170  1.1956
18945SOL     OW58275   7.482   0.442   7.612 -0.3261 -0.0738  0.2000
18945SOL    HW158276   7.463   0.461   7.704 -0.5530 -0.2878  0.2005
18945SOL    HW258277   7.400   0.407   7.578 -0.7850  1.6688 -0.5551
18946SOL     OW58278   5.651   1.405   9.821 -0.3615  0.4962  0.1941
18946SOL    HW158279   5.674   1.492   9.790 -1.0391  0.4369 -0.5196
18946SOL    HW258280   5.659   1.349   9.744  0.3660 -0.1393  0.7135
18947SOL     OW58281   6.840   1.197  10.238 -0.2253  0.1828 -0.3340
18947SOL    HW158282   6.783   1.172  10.165  0.7757 -0.3199 -0.9667
18947SOL    HW258283   6.924   1.219  10.197 -0.4399  2.7149  0.3839
18948SOL     OW58284   6.801   2.230   0.264  0.0684 -0.0590  0.2695
18948SOL    HW158285   6.869   2.280   0.309 -1.1389  0.1408  1.9422
18948SOL    HW258286   6.784   2.155   0.321 -2.7564  1.1324  1.1539
18949SOL     OW58287   6.573   2.866  10.337 -0.5235  0.3703 -0.1380
18949SOL    HW158288   6.640   2.905  10.393  0.3860 -0.2984 -0.7353
18949SOL    HW258289   6.491   2.879  10.386 -0.1286  2.0958  0.1443
18950SOL     OW58290   6.064   0.818  12.492 -0.1611  0.0857  0.3281
18950SOL    HW158291   6.014   0.898  12.506 -0.8891 -0.3548  0.2536
18950SOL    HW258292   6.155   0.844  12.505 -0.3377  1.0665 -0.3123
18951SOL     OW58293   7.356   1.375   9.476  0.1272  0.3438  0.1757
18951SOL    HW158294   7.373   1.467   9.455 -0.7047 -0.1524 -3.3172
18951SOL    HW258295   7.348   1.332   9.391 -2.4701 -2.4142  1.6161
18952SOL     OW58296   6.899   2.820   9.801  0.2855  0.4403 -0.0838
18952SOL    HW158297   6.888   2.765   9.723 -0.3589 -0.5955  0.7173
18952SOL    HW258298   6.815   2.815   9.847  0.5447  1.3144  0.5169
18953SOL     OW58299   6.777   0.495  11.231  0.3160  0.1084  0.3131
18953SOL    HW158300   6.809   0.459  11.148  1.6740  1.4812  0.2010
18953SOL    HW258301   6.702   0.549  11.206  1.3845  1.4111 -0.2215
18954SOL     OW58302   7.630   2.914  10.193  0.3270 -0.4890  0.1515
18954SOL    HW158303   7.669   2.951  10.114  0.2451  0.8068  0.6914
18954SOL    HW258304   7.617   2.822  10.173  1.7802 -0.5216 -0.7754
18955SOL     OW58305   0.073   1.808  10.732  0.7630  0.0432  0.0321
18955SOL    HW158306   0.067   1.900  10.759 -0.0118  0.3471 -1.0859
18955SOL    HW258307   0.025   1.805  10.649  0.9228 -1.3441 -0.0253
18956SOL     OW58308   6.216   1.768  10.405 -0.5629 -0.4360 -0.7261
18956SOL    HW158309   6.221   1.736  10.314 -0.5693 -2.9950  0.0824
18956SOL    HW258310   6.152   1.839  10.402  0.0221  0.0793 -2.8393
18957SOL     OW58311   0.389   7.980   8.451 -0.4122 -0.1332  0.2831
18957SOL    HW158312   0.397   8.062   8.402 -1.8495  1.7764  2.9682
18957SOL    HW258313   0.478   7.963   8.482 -0.2080  0.8250  0.2757
18958SOL     OW58314   5.965   0.777   9.148  0.4067  0.0498  0.8128
18958SOL    HW158315   5.933   0.804   9.061 -1.8964 -0.6689  1.3603
18958SOL    HW258316   5.985   0.684   9.139 -0.5935 -0.2231  1.1958
18959SOL     OW58317   5.753   0.255  10.112 -0.0835  0.1623 -0.1664
18959SOL    HW158318   5.685   0.321  10.095  0.3313  0.5177 -0.4786
18959SOL    HW258319   5.835   0.304  10.107  0.2248 -0.3678 -0.3104
18960SOL     OW58320   0.412   0.223   8.286 -0.4841  0.2978 -0.4694
18960SOL    HW158321   0.496   0.269   8.293 -0.4223  0.0287  0.7627
18960SOL    HW258322   0.403   0.203   8.193  0.9479  0.0831 -0.5764
18961SOL     OW58323   5.202   0.599  11.791  0.5821 -0.7302  1.1718
18961SOL    HW158324   5.243   0.576  11.707 -1.4146 -0.5444  0.0783
18961SOL    HW258325   5.112   0.622  11.768  0.4456  1.0410  3.1567
18962SOL     OW58326   5.076   6.692  10.358  0.4571  0.5219 -0.1616
18962SOL    HW158327   5.146   6.755  10.339  0.2637  0.6906 -0.3279
18962SOL    HW258328   5.112   6.635  10.425  1.3634 -0.4518 -1.4356
18963SOL     OW58329   6.392   1.159   8.845  0.1867  0.4261  0.5988
18963SOL    HW158330   6.347   1.077   8.826  0.7384  0.0213  1.0035
18963SOL    HW258331   6.369   1.217   8.773 -0.2038 -0.0836  0.3089
18964SOL     OW58332   5.868   2.562   8.738 -0.4932 -0.0505  0.2363
18964SOL    HW158333   5.825   2.525   8.816 -2.7057 -2.1594 -1.8319
18964SOL    HW258334   5.933   2.497   8.713 -1.1144 -0.3020 -0.7516
18965SOL     OW58335   6.792   3.177  10.853  0.2400  0.3580  0.0069
18965SOL    HW158336   6.753   3.134  10.777  1.2927 -0.9036  0.1548
18965SOL    HW258337   6.872   3.217  10.820 -0.2136  1.3548  0.0887
18966SOL     OW58338   7.032   1.474  10.655 -0.3670 -0.2907 -0.2249
18966SOL    HW158339   6.995   1.478  10.566 -1.6262  0.9757  0.2997
18966SOL    HW258340   7.020   1.563  10.689  1.6512 -0.2943  0.6345
18967SOL     OW58341   0.328   2.444  10.850 -0.1616  0.1653  0.0307
18967SOL    HW158342   0.321   2.477  10.940  0.8045 -1.8283  0.9233
18967SOL    HW258343   0.422   2.438  10.834 -0.3255 -0.0297 -0.8867
18968SOL     OW58344   0.174   0.901  11.737 -0.5356 -0.3016 -0.7501
18968SOL    HW158345   0.155   0.808  11.742  1.5002 -0.7038  1.9924
18968SOL    HW258346   0.090   0.944  11.754 -0.4745 -1.8532  6.1856
18969SOL     OW58347   7.329   7.856  11.138  0.1604  0.0249  0.4809
18969SOL    HW158348   7.234   7.864  11.134  0.1976  0.7046  0.7946
18969SOL    HW258349   7.356   7.922  11.202  0.6898 -1.4377  1.8202
18970SOL     OW58350   6.695   2.261  10.576  0.1756  0.1417 -0.3153
18970SOL    HW158351   6.677   2.204  10.501 -2.0536  0.7050 -0.2881
18970SOL    HW258352   6.695   2.349  10.540 -0.8620  0.4127  0.3169
18971SOL     OW58353   4.778   3.784  11.066 -0.5440  0.9444 -0.1136
18971SOL    HW158354   4.728   3.863  11.049 -1.1780  0.4737 -0.4728
18971SOL    HW258355   4.743   3.719  11.004  0.1526  0.4614 -0.0185
18972SOL     OW58356   7.866   0.356  11.735  0.5406  0.0034 -0.2240
18972SOL    HW158357   7.776   0.381  11.756  0.0896 -0.2905 -1.6949
18972SOL    HW258358   7.865   0.340  11.641  2.7484  2.6873 -0.8431
18973SOL     OW58359   7.725   0.111   0.176 -0.5079  0.0312  0.3984
18973SOL    HW158360   7.738   0.097   0.269 -1.8091 -2.0030  0.3409
18973SOL    HW258361   7.702   0.204   0.168  1.2525  0.6355  1.8593
18974SOL     OW58362   6.161   6.278   8.311  0.2848  0.3697  0.2434
18974SOL    HW158363   6.106   6.332   8.369 -0.6191 -1.3254  1.0356
18974SOL    HW258364   6.120   6.287   8.225  0.0060  0.7654  0.4123
18975SOL     OW58365   0.801   0.143  10.330 -0.3616 -0.3402 -0.2844
18975SOL    HW158366   0.851   0.078  10.281  0.0720  0.8027 -1.4205
18975SOL    HW258367   0.709   0.125  10.308 -0.3137 -1.0760  0.0837
18976SOL     OW58368   6.936   1.147  11.605  0.5076 -0.1451  0.6703
18976SOL    HW158369   6.903   1.113  11.522  2.0611  0.8480 -0.4148
18976SOL    HW258370   6.917   1.079  11.669 -0.2364 -1.1706 -0.6068
18977SOL     OW58371   6.363   1.871  11.288  0.1241  0.1285 -0.0711
18977SOL    HW158372   6.384   1.778  11.276  1.4898  0.0934  2.1283
18977SOL    HW258373   6.273   1.871  11.320  0.2582 -0.4624  0.3219
18978SOL     OW58374   6.221   0.584   0.145  0.0806  0.4756 -0.4026
18978SOL    HW158375   6.258   0.535   0.072  2.4014  0.4810  0.6808
18978SOL    HW258376   6.297   0.619   0.192 -1.3856  3.4140  0.0646
18979SOL     OW58377   6.301   0.695   9.844  0.3018  0.2501  0.4722
18979SOL    HW158378   6.287   0.647   9.926  0.8170  1.1264  1.1006
18979SOL    HW258379   6.326   0.783   9.873  0.7551  0.4977 -0.6348
18980SOL     OW58380   7.340   0.762   8.549 -0.1338  0.1059 -0.4429
18980SOL    HW158381   7.426   0.787   8.518 -0.6612  1.8886 -0.5946
18980SOL    HW258382   7.343   0.779   8.644 -1.1351  3.0246 -0.8219
18981SOL     OW58383   7.194   0.107   7.165  0.6344  0.0951 -0.0619
18981SOL    HW158384   7.155   0.164   7.099  1.6141  0.0534 -0.6976
18981SOL    HW258385   7.122   0.051   7.194 -0.4206  1.8268  0.7890
18982SOL     OW58386   5.040   3.508  11.488 -0.0345 -0.3769 -0.3395
18982SOL    HW158387   5.096   3.585  11.483  0.8703 -1.0620 -1.3210
18982SOL    HW258388   5.100   3.436  11.508 -0.8423 -0.8577  0.4486
18983SOL     OW58389   6.238   1.501   8.429 -0.2265  0.3129 -0.2936
18983SOL    HW158390   6.192   1.567   8.480 -1.7116 -1.6003  0.9627
18983SOL    HW258391   6.169   1.456   8.380  0.3037 -2.0702  0.9845
18984SOL     OW58392   6.410   3.205   9.515 -0.0821  0.8328 -0.3398
18984SOL    HW158393   6.434   3.298   9.515 -0.5128  0.9603  0.5029
18984SOL    HW258394   6.487   3.160   9.481  1.0833  1.2854  1.5377
18985SOL     OW58395   4.224   5.131  10.096  0.1097  0.1499 -0.4187
18985SOL    HW158396   4.237   5.210  10.148  0.3539 -0.4725  0.4906
18985SOL    HW258397   4.157   5.155  10.032 -0.7388  0.7213  0.6469
18986SOL     OW58398   7.173   7.122   7.840  0.3664 -0.3015  0.0313
18986SOL    HW158399   7.182   7.033   7.806 -1.3431 -0.4987  0.0242
18986SOL    HW258400   7.165   7.111   7.935 -0.5649 -0.2154 -0.0362
18987SOL     OW58401   6.073   0.670  11.063  0.4369 -0.2229 -0.0500
18987SOL    HW158402   6.011   0.621  11.010 -0.2337  0.1792  0.3388
18987SOL    HW258403   6.128   0.604  11.105  0.3705 -0.5772 -0.5261
18988SOL     OW58404   0.533   2.230  10.976 -0.3566  0.4678 -0.0052
18988SOL    HW158405   0.602   2.216  10.912 -0.8056  0.0969 -0.4192
18988SOL    HW258406   0.455   2.190  10.937 -0.4944 -0.3771  1.0572
18989SOL     OW58407   7.628   0.483   9.775 -1.0310  0.0501 -0.3200
18989SOL    HW158408   7.624   0.392   9.802 -0.7293  0.0468 -0.2878
18989SOL    HW258409   7.614   0.480   9.680 -1.2847 -0.0047 -0.2824
18990SOL     OW58410   7.128   0.536   9.437  0.1971  1.0682  0.4165
18990SOL    HW158411   7.151   0.627   9.456  2.7242  0.8820 -1.1905
18990SOL    HW258412   7.098   0.537   9.346  0.4330  0.3049  0.3191
18991SOL     OW58413   4.587   0.612  10.650 -0.2731  0.3994  0.1152
18991SOL    HW158414   4.678   0.639  10.664 -0.0662  2.3182 -3.4624
18991SOL    HW258415   4.558   0.666  10.576 -3.7788 -1.3796 -0.0148
18992SOL     OW58416   6.450   1.661  10.440 -0.3908 -0.1418 -0.5339
18992SOL    HW158417   6.454   1.583  10.495 -1.0567  0.8700  1.0309
18992SOL    HW258418   6.357   1.680  10.431 -0.2641  0.0178 -1.5708
18993SOL     OW58419   5.558   3.144   9.162  0.5743 -0.2256 -0.3019
18993SOL    HW158420   5.508   3.226   9.163  1.8639  0.5912  1.4435
18993SOL    HW258421   5.572   3.126   9.069  0.5630  1.7347 -0.7305
18994SOL     OW58422   4.304   6.252   9.282 -0.4608  0.3173  0.0649
18994SOL    HW158423   4.271   6.189   9.218 -1.7261 -0.7498  1.6734
18994SOL    HW258424   4.399   6.249   9.273 -0.6029 -0.1285 -1.4412
18995SOL     OW58425   7.950   0.210  10.264  0.5144 -0.4411  0.7668
18995SOL    HW158426   7.865   0.176  10.237  0.3648  0.2436  0.3747
18995SOL    HW258427   8.013   0.161  10.211  0.2775  0.1651 -0.0836
18996SOL     OW58428   6.330   7.354  10.305 -0.0162  0.3515  0.3294
18996SOL    HW158429   6.236   7.358  10.289  0.2242 -1.9652 -2.5293
18996SOL    HW258430   6.366   7.427  10.255 -0.0623 -1.1566 -2.0342
18997SOL     OW58431   0.213   1.596  10.303  0.3394  0.2220  0.2066
18997SOL    HW158432   0.222   1.620  10.395  2.0053 -0.6741  0.3125
18997SOL    HW258433   0.140   1.534  10.302 -0.3807  1.0457  0.7453
18998SOL     OW58434   5.240   7.001  10.237  0.6479  0.0116 -0.2231
18998SOL    HW158435   5.286   6.918  10.232  0.8564  0.0625  0.6201
18998SOL    HW258436   5.203   7.014  10.150  0.1225 -1.2489 -0.2171
18999SOL     OW58437   6.636   1.135   9.622  0.1183  0.2408  0.6509
18999SOL    HW158438   6.594   1.167   9.542 -0.1179  1.0393  1.0844
18999SOL    HW258439   6.710   1.195   9.635  0.5361 -0.2751  0.6904
19000SOL     OW58440   7.569   1.429  11.383 -0.2283  0.1097  0.5281
19000SOL    HW158441   7.542   1.341  11.412 -0.0488 -0.9003 -2.0953
19000SOL    HW258442   7.661   1.419  11.359 -0.3503  0.8737 -0.2962
19001SOL     OW58443   4.858   1.596  11.984 -0.0477  0.1240 -0.1730
19001SOL    HW158444   4.954   1.598  11.984 -0.0426  0.1948  0.8078
19001SOL    HW258445   4.832   1.687  11.998 -0.2396 -0.0529  0.6747
19002SOL     OW58446   7.719   7.665  10.982 -0.3497 -0.3409 -0.0635
19002SOL    HW158447   7.664   7.708  10.917  1.5347  2.1573 -0.1721
19002SOL    HW258448   7.660   7.645  11.054 -1.8451 -0.1040 -1.1746
19003SOL     OW58449   6.413   6.568   9.510  0.1923  0.4448 -0.3552
19003SOL    HW158450   6.346   6.503   9.492  0.3567  0.0706  0.3336
19003SOL    HW258451   6.424   6.615   9.427 -0.6312  0.2534 -0.5809
19004SOL     OW58452   7.370   1.284  12.037  0.5452 -0.0863 -0.6323
19004SOL    HW158453   7.332   1.200  12.013 -2.0445  0.6754  0.3259
19004SOL    HW258454   7.415   1.267  12.120 -0.5023 -0.4568 -0.1128
19005SOL     OW58455   7.045   1.043  10.822  0.0083  0.1525 -0.3307
19005SOL    HW158456   7.071   1.098  10.748  3.8794  1.4455  1.7133
19005SOL    HW258457   7.124   0.994  10.844 -0.4821  0.7984  3.6320
19006SOL     OW58458   0.287   6.884  10.888  0.1448  0.1163  0.1889
19006SOL    HW158459   0.231   6.959  10.906 -2.0515 -1.1830 -0.7277
19006SOL    HW258460   0.253   6.815  10.946 -1.1775 -1.5117 -2.3156
19007SOL     OW58461   7.343   7.882   9.363  0.0295 -0.4040 -0.0192
19007SOL    HW158462   7.285   7.806   9.367 -0.7926  0.1962 -0.2070
19007SOL    HW258463   7.285   7.955   9.341  1.1349 -0.1152 -2.2649
19008SOL     OW58464   6.364   2.221  10.433  0.0554 -0.2185 -0.1867
19008SOL    HW158465   6.359   2.310  10.467  1.1912 -0.4742  0.6958
19008SOL    HW258466   6.392   2.231  10.342 -1.1807  0.3775 -0.5206
19009SOL     OW58467   7.418   2.838  11.766 -0.1886  0.0171  0.0112
19009SOL    HW158468   7.502   2.807  11.733 -0.8901 -1.1198 -0.7974
19009SOL    HW258469   7.434   2.857  11.859  1.4396  1.7715 -0.5610
19010SOL     OW58470   0.752   1.134   7.557  0.2271  0.1271  0.0835
19010SOL    HW158471   0.735   1.224   7.528  0.2590 -0.1005 -0.6534
19010SOL    HW258472   0.847   1.130   7.567  0.3360 -0.1392 -0.9645
19011SOL     OW58473   7.571   7.843   9.231 -0.0858  0.2345 -0.2443
19011SOL    HW158474   7.552   7.897   9.154 -2.2407 -0.2381 -0.1016
19011SOL    HW258475   7.496   7.856   9.289  1.1650  0.0304  1.4878
19012SOL     OW58476   6.680   0.722  10.276 -0.1508  0.3681  0.1454
19012SOL    HW158477   6.748   0.784  10.304  2.4643 -1.0939 -2.3754
19012SOL    HW258478   6.702   0.641  10.321 -1.4200  0.3328  0.7329
19013SOL     OW58479   0.206   1.230   9.850  0.1471  0.2423  0.2684
19013SOL    HW158480   0.260   1.185   9.785 -1.1357 -0.4293 -0.3612
19013SOL    HW258481   0.259   1.228   9.930  0.6265 -1.4001 -0.0404
19014SOL     OW58482   7.558   2.971  12.075  0.0368  0.4043 -0.2570
19014SOL    HW158483   7.488   2.907  12.063  1.4274 -0.9039 -1.8072
19014SOL    HW258484   7.520   3.053  12.044 -1.1993 -0.0134  0.0872
19015SOL     OW58485   5.557   1.373  12.249  0.3278  0.0786 -0.0457
19015SOL    HW158486   5.621   1.443  12.263  0.3608  0.1263 -0.4320
19015SOL    HW258487   5.603   1.308  12.197  0.0448  0.1364 -0.3683
19016SOL     OW58488   0.855   1.971   0.067 -0.0951 -0.0246 -0.2513
19016SOL    HW158489   0.810   1.925   0.138 -1.1132  0.0123 -0.8599
19016SOL    HW258490   0.825   1.928  -0.013  2.0258 -0.9170 -0.6372
19017SOL     OW58491   0.076   7.069  10.933 -0.3171 -0.4572  0.4567
19017SOL    HW158492   0.153   7.109  10.973  0.6495 -1.1822 -0.6258
19017SOL    HW258493   0.011   7.140  10.932  1.0333  0.8340 -0.5455
19018SOL     OW58494   7.516   1.822  11.106 -0.0541 -0.1237  0.0235
19018SOL    HW158495   7.442   1.883  11.114 -0.6441 -0.7786 -0.3319
19018SOL    HW258496   7.572   1.843  11.181 -0.5002  0.5160  0.1912
19019SOL     OW58497   7.805   1.052  11.080  0.4522  0.0538 -0.0420
19019SOL    HW158498   7.841   1.010  11.001 -0.1416 -0.3452 -0.1091
19019SOL    HW258499   7.879   1.058  11.139  0.0818 -3.6775  1.0741
19020SOL     OW58500   7.091   7.450   9.550  0.4722 -0.2619 -0.1479
19020SOL    HW158501   7.037   7.452   9.629 -0.7684 -1.7531 -0.9273
19020SOL    HW258502   7.179   7.432   9.582  0.0357 -0.5759  0.9129
19021SOL     OW58503   6.677   7.492  10.841  0.4737  0.0680  0.1412
19021SOL    HW158504   6.607   7.441  10.801 -0.7659  0.9421  1.1109
19021SOL    HW258505   6.713   7.435  10.908  0.1268 -0.0885  0.1955
19022SOL     OW58506   5.729   1.601  12.293  0.3117 -0.1372  0.7967
19022SOL    HW158507   5.676   1.678  12.314  0.0540  0.2255 -1.0142
19022SOL    HW258508   5.765   1.620  12.207  1.9024 -1.1978  1.1954
19023SOL     OW58509   0.462   0.936  10.165 -0.7886  0.1127 -0.4759
19023SOL    HW158510   0.499   0.855  10.198  1.0384  1.4331  0.9372
19023SOL    HW258511   0.373   0.913  10.137 -0.7411 -2.0941  0.9964
19024SOL     OW58512   7.027   7.168   8.883  0.1200 -0.0086  0.1877
19024SOL    HW158513   7.082   7.096   8.915  1.8124  1.6112  1.1181
19024SOL    HW258514   6.975   7.194   8.960 -0.3730 -0.1039 -0.1061
19025SOL     OW58515   6.256   0.342   8.719 -0.5603 -0.7680 -0.1281
19025SOL    HW158516   6.299   0.260   8.696 -1.2993 -1.8206  2.0321
19025SOL    HW258517   6.212   0.324   8.801 -1.3166  1.6195  0.0613
19026SOL     OW58518   7.123   0.692  10.406  0.7282  0.0608  0.1675
19026SOL    HW158519   7.111   0.786  10.421 -0.4144 -0.0654  0.1441
19026SOL    HW258520   7.165   0.687  10.320 -0.4886  0.5347 -0.4910
19027SOL     OW58521   0.810   6.702   8.868  0.0213 -0.2746  0.1529
19027SOL    HW158522   0.818   6.649   8.788 -0.3888 -1.1795  0.6917
19027SOL    HW258523   0.758   6.777   8.841  0.2584 -0.3493 -0.5358
19028SOL     OW58524   6.649   3.069  10.623 -0.4205 -0.1307  0.1503
19028SOL    HW158525   6.730   3.026  10.596 -0.9714 -1.3076  0.3022
19028SOL    HW258526   6.644   3.148  10.569  1.1702  0.3472  0.6421
19029SOL     OW58527   6.484   0.762  10.776 -0.5644  0.2659  0.6902
19029SOL    HW158528   6.458   0.813  10.699 -1.4250 -0.6236  0.3559
19029SOL    HW258529   6.412   0.699  10.788 -0.2148  0.0714  1.9326
19030SOL     OW58530   7.283   0.465   9.755  0.1828  0.5586  0.3441
19030SOL    HW158531   7.196   0.492   9.727 -1.2550 -4.1361 -0.6480
19030SOL    HW258532   7.334   0.462   9.674  0.2733  0.3104  0.4082
19031SOL     OW58533   6.446   0.832   9.034 -0.2960  0.8109  0.2585
19031SOL    HW158534   6.526   0.801   8.993  0.8513  1.4925  1.8973
19031SOL    HW258535   6.385   0.758   9.028  0.5478  0.1668 -0.6834
19032SOL     OW58536   7.210   7.150  10.266 -0.3111  0.1535 -0.0660
19032SOL    HW158537   7.118   7.127  10.248 -0.2613 -0.0196 -0.0974
19032SOL    HW258538   7.254   7.066  10.277  0.4045  0.0739 -2.7957
19033SOL     OW58539   6.810   1.363   0.643  0.2676  0.1734  0.3831
19033SOL    HW158540   6.899   1.338   0.666  0.6883  2.2597  1.2781
19033SOL    HW258541   6.757   1.287   0.664  1.9003 -1.4353 -0.9651
19034SOL     OW58542   6.523   1.912  10.368 -0.2623  0.5177  0.1647
19034SOL    HW158543   6.500   1.966  10.443 -0.8899  0.7141 -0.1614
19034SOL    HW258544   6.495   1.824  10.391 -1.8272  0.8297 -0.4099
19035SOL     OW58545   0.625   7.015   7.246 -0.3314  0.0619  0.1913
19035SOL    HW158546   0.675   6.935   7.231 -0.9226 -0.9714  3.0323
19035SOL    HW258547   0.536   6.993   7.217 -0.3081 -0.0198  0.1814
19036SOL     OW58548   4.845   7.531   9.563 -0.4969 -0.0581  0.2181
19036SOL    HW158549   4.773   7.468   9.573 -1.1976  0.5064 -0.9985
19036SOL    HW258550   4.801   7.616   9.561  0.3832  0.4356  1.2013
19037SOL     OW58551   4.278   1.817   9.482  0.0961 -0.4832 -0.0586
19037SOL    HW158552   4.258   1.911   9.483  0.4010 -0.4186 -0.1408
19037SOL    HW258553   4.364   1.810   9.521 -0.7396 -0.9345  1.8039
19038SOL     OW58554   7.531   1.287  10.341 -0.1655  0.4437  0.0423
19038SOL    HW158555   7.498   1.199  10.354  0.6508 -0.0412 -1.0111
19038SOL    HW258556   7.459   1.335  10.301  0.2335 -0.5236 -1.9828
19039SOL     OW58557   0.079   1.082  10.936 -0.4329 -0.4422  0.2724
19039SOL    HW158558   0.098   1.167  10.976  1.8565 -1.5608  1.7575
19039SOL    HW258559   0.097   1.095  10.843 -1.5040  1.0383  0.2353
19040SOL     OW58560   5.806   6.831  10.238  0.0510 -0.0424  0.1080
19040SOL    HW158561   5.759   6.814  10.157 -0.6172  3.6211 -0.4696
19040SOL    HW258562   5.885   6.878  10.211 -0.0492  1.0258  1.5249
19041SOL     OW58563   6.988   7.585   8.927  1.0099 -0.1957 -0.7201
19041SOL    HW158564   6.939   7.534   8.861  1.7980  0.3399 -1.7538
19041SOL    HW258565   7.064   7.530   8.947  1.0366 -0.1286 -0.6379
19042SOL     OW58566   6.523   2.966   9.100 -0.4578 -0.2417 -0.6783
19042SOL    HW158567   6.495   3.051   9.067 -0.1196 -0.2856 -1.0746
19042SOL    HW258568   6.609   2.952   9.061  1.5317  1.1936  2.7347
19043SOL     OW58569   7.003   1.520  11.437 -0.0949 -0.8430  0.1360
19043SOL    HW158570   7.057   1.570  11.376 -0.2134 -0.4379  0.3572
19043SOL    HW258571   7.060   1.449  11.467 -0.5525 -2.0036 -1.6634
19044SOL     OW58572   7.773   7.478  11.490 -0.0673 -0.4644  0.2708
19044SOL    HW158573   7.722   7.545  11.446  0.5665  0.1474  0.4477
19044SOL    HW258574   7.735   7.471  11.577  1.2481  1.2901  1.0366
19045SOL     OW58575   6.785   7.600  11.807 -0.7157  0.1699  0.1135
19045SOL    HW158576   6.853   7.660  11.838  1.1367 -1.7737  0.0517
19045SOL    HW258577   6.799   7.520  11.858 -3.9529  0.1250  1.1775
19046SOL     OW58578   0.765   1.579  10.564 -0.0070 -0.6372  0.3129
19046SOL    HW158579   0.828   1.523  10.517  0.4267  0.2779 -0.2285
19046SOL    HW258580   0.691   1.586  10.504  0.1958 -0.1442  0.1176
19047SOL     OW58581   7.398   1.299   7.934  0.3082 -0.6516 -0.5130
19047SOL    HW158582   7.389   1.252   8.017 -0.5206 -1.5025 -1.0734
19047SOL    HW258583   7.400   1.231   7.867  0.2351  0.0521 -1.2492
19048SOL     OW58584   7.360   1.474  11.183 -0.5662  0.1065 -0.0642
19048SOL    HW158585   7.415   1.472  11.105  1.3771 -2.8074  1.1921
19048SOL    HW258586   7.421   1.462  11.256 -2.6928 -2.0203  1.5333
19049SOL     OW58587   5.025   1.239  10.649 -0.6037  0.1144  0.3161
19049SOL    HW158588   5.063   1.316  10.605 -0.3688 -0.1988 -0.0372
19049SOL    HW258589   5.079   1.228  10.728  0.5889 -0.8117 -0.5904
19050SOL     OW58590   6.404   7.088  10.577 -0.6205 -0.0319 -0.1402
19050SOL    HW158591   6.461   7.015  10.601  0.2849  0.2268 -1.4283
19050SOL    HW258592   6.415   7.098  10.482 -2.1357  0.6019 -0.2893
19051SOL     OW58593   5.600   6.783  10.870 -0.0765 -0.3468 -0.7046
19051SOL    HW158594   5.552   6.724  10.812 -0.1169 -1.1834  0.1493
19051SOL    HW258595   5.587   6.747  10.958  0.6034  0.4560 -0.2514
19052SOL     OW58596   7.508   0.485   8.910  0.6173  0.3125  0.1202
19052SOL    HW158597   7.519   0.443   8.825 -1.3313  0.8784 -0.4614
19052SOL    HW258598   7.594   0.478   8.952  1.3606 -0.7978 -1.5033
19053SOL     OW58599   7.560   0.946   8.109 -0.6342 -0.0808  0.0283
19053SOL    HW158600   7.605   0.897   8.178  0.3024  1.8359  0.8468
19053SOL    HW258601   7.620   0.943   8.034  0.1200  0.9713  0.5504
19054SOL     OW58602   5.302   1.946   9.991  0.3836  0.8403 -0.3720
19054SOL    HW158603   5.258   1.886  10.051  0.8693  0.2336 -0.6093
19054SOL    HW258604   5.302   1.899   9.907  0.6806  1.2159 -0.5847
19055SOL     OW58605   6.275   1.534  11.705 -0.6813  0.1072  0.0242
19055SOL    HW158606   6.309   1.594  11.771  0.3828 -0.7580  0.2777
19055SOL    HW258607   6.180   1.533  11.721 -0.8017  2.0804 -0.3092
19056SOL     OW58608   4.827   7.835  10.647 -0.1805 -0.3231 -0.0787
19056SOL    HW158609   4.840   7.741  10.641  0.2069 -0.1825 -2.3472
19056SOL    HW258610   4.915   7.872  10.648 -0.3322  0.0506 -0.1545
19057SOL     OW58611   5.436   1.566  11.184 -0.0840  0.1710 -0.5503
19057SOL    HW158612   5.473   1.593  11.100 -2.3699 -0.8350 -1.9627
19057SOL    HW258613   5.362   1.511  11.161 -0.1905 -0.9687  2.1645
19058SOL     OW58614   4.021   0.833   0.286  0.4019  0.4124 -0.1878
19058SOL    HW158615   4.109   0.795   0.281 -1.2113 -3.7509 -0.4047
19058SOL    HW258616   4.003   0.838   0.380  0.0687 -0.9476 -0.1628
19059SOL     OW58617   6.697   1.647  10.739 -0.2813 -0.0759 -0.2256
19059SOL    HW158618   6.701   1.682  10.650 -0.3818  0.2412 -0.1089
19059SOL    HW258619   6.735   1.560  10.733  2.1351  0.9065 -0.0847
19060SOL     OW58620   7.364   0.195   9.486 -0.5857 -0.1562  0.1063
19060SOL    HW158621   7.432   0.187   9.552  0.7104 -3.1391 -1.4289
19060SOL    HW258622   7.286   0.157   9.527 -0.2972 -0.3128  0.5164
19061SOL     OW58623   4.757   7.781   9.553  0.1355  0.0710 -0.0404
19061SOL    HW158624   4.674   7.819   9.582  0.4104  1.7497 -1.2668
19061SOL    HW258625   4.784   7.836   9.479  1.1444 -1.9162 -1.2447
19062SOL     OW58626   5.432   1.330  12.496  0.1498  0.3795 -0.0830
19062SOL    HW158627   5.474   1.328  12.410 -1.0649  0.3490 -0.6874
19062SOL    HW258628   5.373   1.405  12.492  1.2899  1.4185  1.3242
19063SOL     OW58629   7.220   0.111  10.843  0.3420  0.6316  0.4383
19063SOL    HW158630   7.257   0.197  10.865  1.4372  0.4543 -0.6244
19063SOL    HW258631   7.196   0.118  10.751  0.0341 -0.0636  0.4644
19064SOL     OW58632   7.714   2.411  10.616  0.3486  0.1882 -0.0360
19064SOL    HW158633   7.794   2.401  10.668  0.4156 -2.2709 -0.4894
19064SOL    HW258634   7.728   2.492  10.567  1.8021  0.7196  1.1571
19065SOL     OW58635   6.701   0.854   8.949 -0.1059 -0.0586  0.0763
19065SOL    HW158636   6.713   0.816   9.036  1.7102 -2.2717 -1.0187
19065SOL    HW258637   6.722   0.782   8.889 -1.8467  1.2112 -2.2183
19066SOL     OW58638   4.934   1.860   9.472 -0.1418  0.1737 -0.2854
19066SOL    HW158639   4.844   1.856   9.439 -0.0349 -0.0064 -0.5697
19066SOL    HW258640   4.926   1.862   9.567 -0.4392 -0.1353 -0.3036
19067SOL     OW58641   6.106   1.769   0.213  0.1461  0.0392  0.4529
19067SOL    HW158642   6.201   1.767   0.216  0.1151 -1.6252  1.3413
19067SOL    HW258643   6.083   1.729   0.129  0.2133  0.2486  0.3333
19068SOL     OW58644   5.802   1.023   9.534 -0.3591 -0.1729 -0.3098
19068SOL    HW158645   5.717   0.979   9.531 -0.1578 -0.5390 -1.0067
19068SOL    HW258646   5.862   0.960   9.492  0.2051  0.1756 -0.0304
19069SOL     OW58647   7.028   1.562  11.930 -0.2100 -0.8783 -0.1659
19069SOL    HW158648   6.956   1.618  11.957 -0.1949 -0.9846  0.0904
19069SOL    HW258649   6.990   1.504  11.864 -0.3386 -0.8844 -0.0852
19070SOL     OW58650   6.417   2.528  11.015 -0.1370 -0.0877 -0.0480
19070SOL    HW158651   6.443   2.441  10.986  0.7667  0.2247 -0.2242
19070SOL    HW258652   6.336   2.547  10.969 -0.5415 -0.9882  0.2848
19071SOL     OW58653   6.017   1.464  11.729 -0.1727 -0.3248  0.5108
19071SOL    HW158654   5.926   1.493  11.735  0.7199  3.4714 -1.2581
19071SOL    HW258655   6.026   1.434  11.638  0.4005 -0.3776  0.5824
19072SOL     OW58656   6.799   1.022   0.214 -0.5258 -0.2587  0.2721
19072SOL    HW158657   6.721   1.033   0.160  0.7601  0.5422 -1.5597
19072SOL    HW258658   6.784   1.075   0.291 -1.3215  0.8415 -0.6124
19073SOL     OW58659   0.320   7.492   8.823 -0.2181 -0.4225 -0.0442
19073SOL    HW158660   0.289   7.516   8.910 -1.5332 -2.4274  0.0991
19073SOL    HW258661   0.412   7.468   8.835  0.0533  0.8042  0.4647
19074SOL     OW58662   6.813   0.282   8.723  0.2440  0.1303  0.1845
19074SOL    HW158663   6.752   0.241   8.662  1.4887 -1.2585 -0.1935
19074SOL    HW258664   6.889   0.306   8.670  0.0201  1.9381  0.6245
19075SOL     OW58665   6.407   1.797  10.121 -0.3702  0.1461 -0.1362
19075SOL    HW158666   6.426   1.827  10.210 -0.4282 -0.2544  0.0136
19075SOL    HW258667   6.366   1.711  10.133  2.1466 -1.2222 -0.6246
19076SOL     OW58668   7.159   2.504  10.180 -0.1046  0.6240 -0.5085
19076SOL    HW158669   7.075   2.474  10.215 -0.4172  2.2321  0.2210
19076SOL    HW258670   7.136   2.577  10.123  0.7328  0.3705 -1.1941
19077SOL     OW58671   6.282   1.508   0.369 -0.4119 -0.3794  0.2490
19077SOL    HW158672   6.332   1.572   0.318 -1.2825  0.3606  0.3005
19077SOL    HW258673   6.348   1.450   0.405  0.4916  0.9557  0.8445
19078SOL     OW58674   5.574   2.652   8.977  0.1815  0.1969 -0.0896
19078SOL    HW158675   5.524   2.705   9.038 -0.9274 -1.3490  0.4027
19078SOL    HW258676   5.513   2.631   8.906  1.0912  0.9414 -1.1411
19079SOL     OW58677   7.898   1.419  10.654  0.1143  0.3235  0.4172
19079SOL    HW158678   7.860   1.501  10.622 -0.4124  0.0915  0.4202
19079SOL    HW258679   7.892   1.426  10.749  0.0647  0.2802  0.4172
19080SOL     OW58680   7.463   6.175   9.906 -0.4472  0.9317  0.5515
19080SOL    HW158681   7.397   6.236   9.873  0.1629  1.5995  0.5321
19080SOL    HW258682   7.541   6.194   9.854 -0.5981 -0.7919 -0.3946
19081SOL     OW58683   4.282   2.263   9.317 -0.6820 -0.8399  0.1243
19081SOL    HW158684   4.374   2.289   9.315 -0.8574 -0.2806 -1.2313
19081SOL    HW258685   4.247   2.290   9.232 -2.7514  1.3327  1.5481
19082SOL     OW58686   5.251   0.095   7.940  0.4285 -0.4350  0.0074
19082SOL    HW158687   5.173   0.057   7.981 -1.6665  3.3112 -0.0859
19082SOL    HW258688   5.238   0.082   7.846  0.8258 -1.2923  0.0587
19083SOL     OW58689   7.043   0.549   9.183  0.5329  0.4084  0.3244
19083SOL    HW158690   7.017   0.457   9.183  2.9135 -0.3924  2.6698
19083SOL    HW258691   7.070   0.565   9.092 -0.9608 -0.8223 -0.3906
19084SOL     OW58692   5.921   1.752  10.820  0.1037  0.1698 -0.5248
19084SOL    HW158693   5.958   1.708  10.743  0.5470  1.2620 -0.9490
19084SOL    HW258694   5.942   1.693  10.892 -0.6680 -1.0734 -1.2704
19085SOL     OW58695   0.327   0.342  10.337  1.1199  0.8017 -0.3612
19085SOL    HW158696   0.312   0.414  10.276 -0.6574  0.0172 -0.9303
19085SOL    HW258697   0.335   0.265  10.280 -2.3852 -0.2407  0.3268
19086SOL     OW58698   5.184   1.208  10.331  0.0148  0.0982  0.0968
19086SOL    HW158699   5.144   1.291  10.307  0.3046  0.4204  0.6855
19086SOL    HW258700   5.210   1.220  10.423  0.1603 -0.6012  0.1522
19087SOL     OW58701   7.142   7.818  10.874 -0.3018  0.2408  0.0379
19087SOL    HW158702   7.100   7.820  10.960  0.4958  0.2077  0.4391
19087SOL    HW258703   7.139   7.726  10.848  0.5040  0.0473  0.5774
19088SOL     OW58704   6.999   1.762   9.709  0.0293  0.0599 -0.0005
19088SOL    HW158705   6.956   1.769   9.624 -0.9018 -1.4628  0.3234
19088SOL    HW258706   7.092   1.770   9.688 -0.2297  0.6660 -1.0372
19089SOL     OW58707   6.431   1.211  12.325 -0.0037 -0.5388  0.3828
19089SOL    HW158708   6.432   1.126  12.369 -0.9735 -1.0237 -0.4822
19089SOL    HW258709   6.503   1.260  12.364  0.2179 -1.5623  1.2844
19090SOL     OW58710   5.839   2.158   9.069  0.1229 -0.0807  0.2762
19090SOL    HW158711   5.762   2.102   9.059  1.1520 -2.3624  3.5062
19090SOL    HW258712   5.813   2.224   9.133  0.6822 -0.6420  1.1073
19091SOL     OW58713   0.027   0.330   9.944 -0.2612  0.3133 -0.1397
19091SOL    HW158714  -0.011   0.391  10.008  1.3182  0.8990  0.2703
19091SOL    HW258715   0.050   0.386   9.869  1.0554  0.2100  0.1748
19092SOL     OW58716   5.954   1.311   9.994 -0.4547  0.9225 -0.3107
19092SOL    HW158717   6.035   1.336   9.949  1.0450 -1.6734  0.7543
19092SOL    HW258718   5.973   1.321  10.087 -1.2251 -0.0241 -0.0281
19093SOL     OW58719   0.407   1.143  11.989  0.4160  0.2621  0.3086
19093SOL    HW158720   0.417   1.073  11.924  1.8953  0.3235  0.4294
19093SOL    HW258721   0.387   1.221  11.938 -0.1877 -0.0342  0.0850
19094SOL     OW58722   4.364   4.432  10.374  0.2033 -0.1467 -0.3908
19094SOL    HW158723   4.296   4.366  10.361  3.1156 -3.7145  0.7699
19094SOL    HW258724   4.357   4.456  10.467 -0.9648  1.4484 -0.8512
19095SOL     OW58725   6.704   0.028   6.945  0.1922  0.1457 -0.1619
19095SOL    HW158726   6.723   0.100   7.005  2.8119  0.8951 -1.7197
19095SOL    HW258727   6.743  -0.049   6.988  0.7214  0.3935 -0.1853
19096SOL     OW58728   7.559   1.443  10.997  0.1600  0.1782  0.0831
19096SOL    HW158729   7.576   1.376  11.063  1.0553 -0.1235 -0.4371
19096SOL    HW258730   7.645   1.463  10.959 -0.2297  0.8933 -0.4662
19097SOL     OW58731   5.851   0.331   8.510  0.5063  0.1515  0.0898
19097SOL    HW158732   5.891   0.245   8.510  0.5288  0.1394 -1.5201
19097SOL    HW258733   5.924   0.391   8.492  0.3431  0.4300  0.3523
19098SOL     OW58734   5.075   0.903   9.897 -0.1087  0.0112  0.0577
19098SOL    HW158735   5.060   0.853   9.817  2.5714 -0.6713 -0.1293
19098SOL    HW258736   5.133   0.847   9.950  0.7752  1.7539  1.0529
19099SOL     OW58737   5.920   1.360  10.838  0.5411 -0.1123  0.3372
19099SOL    HW158738   5.979   1.285  10.836  0.3149 -0.2874  0.2467
19099SOL    HW258739   5.907   1.384  10.746 -1.0841 -1.2991  0.2191
19100SOL     OW58740   0.752   2.299  11.151  0.4148 -0.2086 -0.0547
19100SOL    HW158741   0.671   2.292  11.101 -0.0852  1.1631  0.5119
19100SOL    HW258742   0.804   2.225  11.122 -1.1588 -1.3127 -0.2093
19101SOL     OW58743   7.663   0.350  11.934  0.7151  0.7401 -0.1695
19101SOL    HW158744   7.731   0.388  11.989 -0.0026  0.7379  0.7374
19101SOL    HW258745   7.583   0.397  11.958 -0.3273 -1.6490  1.4001
19102SOL     OW58746   6.410   0.152  10.441  0.1680  0.0174  0.1219
19102SOL    HW158747   6.345   0.085  10.420 -1.3101  1.1810  0.7665
19102SOL    HW258748   6.473   0.148  10.369 -0.3722 -1.4377 -0.3101
19103SOL     OW58749   6.652   1.065  11.924  0.3984 -0.2799  0.2068
19103SOL    HW158750   6.683   1.067  12.015 -0.1531  0.9066  0.3804
19103SOL    HW258751   6.720   1.110  11.874  0.3367 -0.2527  0.1477
19104SOL     OW58752   5.842   7.990  10.526 -0.5293 -0.3552  0.0334
19104SOL    HW158753   5.752   8.010  10.553 -0.5986 -0.3787 -0.1826
19104SOL    HW258754   5.856   7.900  10.555 -0.7242 -0.5007 -0.3177
19105SOL     OW58755   7.305   7.745   8.854 -0.3356  0.3555 -0.1072
19105SOL    HW158756   7.254   7.731   8.774  0.4858 -1.2153 -0.3991
19105SOL    HW258757   7.390   7.704   8.836 -0.3260 -0.5479  1.7590
19106SOL     OW58758   4.898   1.037  10.537 -0.1335  0.5168  0.3846
19106SOL    HW158759   4.809   1.060  10.565  0.2286 -0.1296  2.2139
19106SOL    HW258760   4.953   1.104  10.576  0.3523 -0.1675  0.9033
19107SOL     OW58761   5.048   7.822  12.470  0.0152  0.1481  0.0727
19107SOL    HW158762   5.078   7.732  12.488  1.4131  0.5943  0.0872
19107SOL    HW258763   5.090   7.844  12.387 -1.3459  0.3594 -0.5868
19108SOL     OW58764   0.450   0.949  11.815  0.1787 -0.1205 -0.1277
19108SOL    HW158765   0.356   0.945  11.796 -0.1855 -0.2496  1.5474
19108SOL    HW258766   0.492   0.909  11.739 -1.1299 -0.2501 -0.8020
19109SOL     OW58767   6.605   2.702  10.867 -0.6067  0.4352  0.3104
19109SOL    HW158768   6.551   2.781  10.860 -0.0966  0.7788  0.1549
19109SOL    HW258769   6.555   2.643  10.923 -1.1239  0.7598  0.1963
19110SOL     OW58770   5.962   4.066  11.553 -0.8426  0.3127  0.2998
19110SOL    HW158771   5.946   4.077  11.459  0.5974 -0.0704 -0.0074
19110SOL    HW258772   6.025   3.995  11.559  2.0670  2.7367  1.2613
19111SOL     OW58773   4.826   0.797  10.656 -0.5585 -0.4631 -0.5256
19111SOL    HW158774   4.857   0.867  10.599 -0.8181  0.6803  0.6966
19111SOL    HW258775   4.860   0.717  10.615  0.1928  0.3953 -1.6627
19112SOL     OW58776   6.640   0.341   8.447 -0.0862 -0.0832  0.5142
19112SOL    HW158777   6.687   0.423   8.465 -1.2950  0.4531  1.3255
19112SOL    HW258778   6.569   0.366   8.388 -1.3155 -0.2422  1.8722
19113SOL     OW58779   7.004   2.405  10.470  0.5114 -0.1655 -0.1356
19113SOL    HW158780   6.946   2.422  10.395  0.8778 -0.3579 -0.4664
19113SOL    HW258781   7.036   2.316  10.455 -1.0769 -1.0443  1.3658
19114SOL     OW58782   6.276   1.587  11.303  0.4855  0.1495 -0.9077
19114SOL    HW158783   6.275   1.501  11.261 -0.9208  0.2050 -1.0461
19114SOL    HW258784   6.186   1.619  11.293  0.9855  1.6303 -0.8378
19115SOL     OW58785   6.438   0.677  10.112  0.0601 -0.0326 -0.1773
19115SOL    HW158786   6.360   0.730  10.131  0.2695  0.2948 -0.2273
19115SOL    HW258787   6.488   0.678  10.194  0.1781  0.0449 -0.2493
19116SOL     OW58788   7.730   0.730  11.890 -0.2873 -0.4706 -0.1424
19116SOL    HW158789   7.667   0.659  11.878  1.2732 -2.0015  0.2313
19116SOL    HW258790   7.717   0.760  11.980 -0.4045 -0.8532 -0.0307
19117SOL     OW58791   6.379   5.997   9.338  0.4346 -0.2519 -0.4309
19117SOL    HW158792   6.417   6.056   9.273 -0.5213 -0.2490 -1.0061
19117SOL    HW258793   6.285   6.011   9.332  0.3138 -0.2828  0.9338
19118SOL     OW58794   6.883   6.785   8.826 -0.0892 -0.6229  0.5175
19118SOL    HW158795   6.910   6.702   8.867 -0.3506 -0.8770  0.1837
19118SOL    HW258796   6.797   6.802   8.864 -0.6822 -1.2709 -0.5079
19119SOL     OW58797   6.557   0.261   9.843  0.7363  0.2735 -0.6713
19119SOL    HW158798   6.531   0.169   9.848  0.2516  0.3878 -0.9770
19119SOL    HW258799   6.610   0.276   9.921 -1.6069  0.5021  0.9410
19120SOL     OW58800   5.553   7.448   0.165 -0.0180 -0.1494  0.4288
19120SOL    HW158801   5.489   7.514   0.193 -1.0958 -0.2974 -1.4618
19120SOL    HW258802   5.508   7.365   0.176  0.1412 -0.3152 -0.1125
19121SOL     OW58803   7.664   2.987  10.800 -0.8875  0.1782 -0.0326
19121SOL    HW158804   7.586   3.006  10.748 -0.7773  1.1786  0.1603
19121SOL    HW258805   7.664   3.053  10.869 -0.2993 -0.3078  0.4500
19122SOL     OW58806   6.683   0.222   9.599  0.4050 -0.7500 -0.3025
19122SOL    HW158807   6.776   0.199   9.601 -0.1579 -3.1051  0.8047
19122SOL    HW258808   6.663   0.249   9.688 -0.2553 -1.4729 -0.2277
19123SOL     OW58809   5.832   0.732  10.657  0.0974  0.2533  0.4483
19123SOL    HW158810   5.900   0.792  10.688 -0.1794 -0.1124  1.8684
19123SOL    HW258811   5.878   0.668  10.604  0.8049  0.2678  1.0270
19124SOL     OW58812   6.019   7.603   9.337 -0.3948  0.3676  0.0956
19124SOL    HW158813   6.063   7.590   9.421  0.7026  0.8100 -0.3986
19124SOL    HW258814   5.965   7.681   9.351 -0.1781  0.4708  0.3753
19125SOL     OW58815   5.464   1.709  10.913  0.2283  0.1808 -0.8010
19125SOL    HW158816   5.550   1.677  10.942  0.2735 -0.7588 -1.9062
19125SOL    HW258817   5.422   1.633  10.873 -0.9700  0.7314 -0.6316
19126SOL     OW58818   6.871   7.049   7.715  0.1523 -0.0006  0.1398
19126SOL    HW158819   6.831   6.962   7.710  0.4248 -0.2126  1.4173
19126SOL    HW258820   6.850   7.090   7.631  1.3388 -1.8755 -1.1571
19127SOL     OW58821   7.826   1.348  11.258 -0.1596  0.2608 -0.1411
19127SOL    HW158822   7.751   1.296  11.232  0.0106  0.3796 -0.8801
19127SOL    HW258823   7.884   1.286  11.302 -0.3553  0.0167 -0.2237
19128SOL     OW58824   5.731   0.526   9.167  0.3817 -0.0075 -0.0419
19128SOL    HW158825   5.803   0.524   9.104 -0.0800  1.4476 -0.6573
19128SOL    HW258826   5.708   0.619   9.174 -0.9123 -0.3657  0.7459
19129SOL     OW58827   4.519   1.794   9.611 -0.1842  0.1697 -0.5115
19129SOL    HW158828   4.540   1.882   9.642  0.9206 -0.3812  0.3981
19129SOL    HW258829   4.604   1.754   9.594 -0.6637 -0.7859 -0.7180
19130SOL     OW58830   6.438   7.997   7.723  0.8539 -0.1669 -0.5119
19130SOL    HW158831   6.518   7.969   7.768 -0.0079 -1.9643 -0.0049
19130SOL    HW258832   6.379   7.922   7.730 -1.2485  1.4223 -0.0369
19131SOL     OW58833   5.661   0.109   0.478  0.1691  0.3518  0.4826
19131SOL    HW158834   5.601   0.176   0.444  0.4379  0.7213  0.7355
19131SOL    HW258835   5.702   0.149   0.554 -0.9926 -0.7348  1.7471
19132SOL     OW58836   6.524   0.385  12.139  0.0030  0.2185  0.5258
19132SOL    HW158837   6.530   0.477  12.163 -1.5410  0.9372 -1.5536
19132SOL    HW258838   6.566   0.379  12.053  1.1704 -1.2969  1.1410
19133SOL     OW58839   5.373   1.877   1.474  0.3404  0.1863 -0.0307
19133SOL    HW158840   5.295   1.824   1.456  0.5089  0.1298 -0.6143
19133SOL    HW258841   5.363   1.904   1.566 -0.3083  0.0878 -0.0677
19134SOL     OW58842   6.702   0.725   0.194 -0.3487 -0.5084 -0.1356
19134SOL    HW158843   6.785   0.772   0.192 -1.1788  0.9985 -1.1227
19134SOL    HW258844   6.704   0.668   0.117 -0.5792  0.1859 -0.6623
19135SOL     OW58845   1.342   0.889  12.352  0.0547  0.3566 -0.6295
19135SOL    HW158846   1.302   0.960  12.301 -0.9721  0.0151 -0.3338
19135SOL    HW258847   1.318   0.908  12.443  0.9507  0.3725 -0.3951
19136SOL     OW58848   6.516   1.409  11.000 -0.8276 -0.4486  0.2949
19136SOL    HW158849   6.610   1.409  11.021 -0.7456 -1.7071  0.0463
19136SOL    HW258850   6.492   1.501  10.994  0.4489 -0.1101  0.1471
19137SOL     OW58851   6.978   1.707  10.827 -0.1216  0.0451  0.1329
19137SOL    HW158852   6.972   1.791  10.872 -0.1295  0.3167 -0.3567
19137SOL    HW258853   6.954   1.642  10.892 -1.6637  0.5449  0.0901
19138SOL     OW58854   7.726   0.055  12.108 -0.1404  0.0498 -0.2590
19138SOL    HW158855   7.795   0.060  12.042  0.6980 -0.6383  0.5393
19138SOL    HW258856   7.742   0.131  12.164 -0.4688  0.2782 -0.4674
19139SOL     OW58857   1.027   1.583  11.890 -0.0363 -0.2080  0.3751
19139SOL    HW158858   1.058   1.661  11.843  2.2661 -0.8024  0.7541
19139SOL    HW258859   0.999   1.523  11.821  0.0172  0.2432 -0.0458
19140SOL     OW58860   5.389   0.931  11.425  0.2245  0.3484 -0.1064
19140SOL    HW158861   5.471   0.974  11.447  0.4406  0.1170 -0.4334
19140SOL    HW258862   5.414   0.839  11.410  0.1087  0.4954 -1.3269
19141SOL     OW58863   6.973   1.749   0.030 -0.9390  0.1591  0.4651
19141SOL    HW158864   7.043   1.805  -0.003 -1.5503  0.6736  0.0264
19141SOL    HW258865   6.950   1.785   0.115 -0.2672 -0.3750  0.8843
19142SOL     OW58866   5.489   1.071   0.065 -0.4078 -0.3120  0.7408
19142SOL    HW158867   5.454   1.151   0.025  0.1196  0.2333  1.3269
19142SOL    HW258868   5.496   1.093   0.158  0.6888 -0.6875  0.7631
19143SOL     OW58869   5.004   2.521   0.201 -0.0331  0.1562  0.0569
19143SOL    HW158870   5.014   2.525   0.296 -0.6688 -0.0446  0.1404
19143SOL    HW258871   5.034   2.606   0.169  0.3450  0.1594  0.4222
19144SOL     OW58872   6.648   1.281  12.467  0.0612 -0.2482  0.1307
19144SOL    HW158873   6.719   1.340  12.492 -0.6410  1.4255 -1.5668
19144SOL    HW258874   6.613   1.249  12.550  2.7109 -1.0873  1.0212
19145SOL     OW58875   5.574   1.879  12.040  0.0858 -0.3214 -0.2707
19145SOL    HW158876   5.619   1.860  12.123  0.0184 -1.5909 -0.4968
19145SOL    HW258877   5.510   1.946  12.063  0.3828 -0.3115  0.6003
19146SOL     OW58878   1.587   2.187  10.773 -0.4660 -0.3215 -0.0340
19146SOL    HW158879   1.593   2.259  10.836 -1.2608  0.7330 -1.1030
19146SOL    HW258880   1.514   2.212  10.715  0.0759 -1.3483 -1.2100
19147SOL     OW58881   4.668   3.828  11.799 -0.0854 -0.2573 -0.6894
19147SOL    HW158882   4.743   3.862  11.847 -0.4138  1.5017 -1.3546
19147SOL    HW258883   4.600   3.894  11.812 -0.6471 -0.4724 -2.3392
19148SOL     OW58884   1.026   0.322  10.709  0.3934  0.0603  0.4041
19148SOL    HW158885   0.969   0.259  10.665  1.3865 -0.6967  0.1561
19148SOL    HW258886   1.019   0.299  10.801  0.7159 -0.3951  0.3200
19149SOL     OW58887   6.582   0.730  11.280  0.3548  0.3392  0.0171
19149SOL    HW158888   6.659   0.749  11.333  1.2498 -1.5912 -0.4736
19149SOL    HW258889   6.595   0.779  11.199  0.4009  1.0480  0.4470
19150SOL     OW58890   7.300   7.694   0.239 -0.2467  0.2316 -0.0589
19150SOL    HW158891   7.385   7.695   0.282  1.0332  1.4911 -2.4321
19150SOL    HW258892   7.241   7.735   0.302  0.6097 -1.5592  2.0469
19151SOL     OW58893   7.629   0.802  11.333  0.0820  0.2179 -0.6535
19151SOL    HW158894   7.697   0.824  11.270 -0.5859 -3.4134 -2.9694
19151SOL    HW258895   7.550   0.845  11.301  0.6539  2.3837  0.6320
19152SOL     OW58896   6.725   1.215  11.355 -0.4785  0.3482 -0.1704
19152SOL    HW158897   6.660   1.192  11.289 -1.3702  2.9539 -0.2831
19152SOL    HW258898   6.809   1.193  11.314 -1.1071  0.2873 -1.4715
19153SOL     OW58899   4.482   1.107  10.869 -0.1095  0.1853 -0.4989
19153SOL    HW158900   4.420   1.034  10.870 -0.3991  0.3477 -2.4334
19153SOL    HW258901   4.568   1.066  10.875 -0.2959 -0.0149  2.8486
19154SOL     OW58902   0.582   1.539  11.326  0.0459  0.5349 -0.5020
19154SOL    HW158903   0.666   1.525  11.282  0.1266 -0.3555 -0.0850
19154SOL    HW258904   0.560   1.630  11.308  0.1482  0.2525 -2.2703
19155SOL     OW58905   6.971   1.861  11.665 -0.4986 -0.4383  0.1049
19155SOL    HW158906   6.975   1.879  11.571  0.6042 -0.2256  0.1848
19155SOL    HW258907   6.907   1.923  11.699 -0.8665 -0.4836 -0.4950
19156SOL     OW58908   7.547   2.936  11.449  0.4482  0.2107  0.1960
19156SOL    HW158909   7.533   2.992  11.526 -0.5587  0.9698 -0.5078
19156SOL    HW258910   7.577   2.853  11.485  2.1466  1.2223  1.2666
19157SOL     OW58911   6.308   1.151   1.009  0.2219 -0.9803 -0.0311
19157SOL    HW158912   6.366   1.085   1.048 -0.5910 -1.3527  0.5666
19157SOL    HW258913   6.268   1.106   0.935  0.2026 -0.9260 -0.0536
19158SOL     OW58914   5.054   7.114  11.492  0.8864  0.5879  0.0275
19158SOL    HW158915   5.130   7.058  11.504  0.2381 -0.5751 -1.0718
19158SOL    HW258916   5.081   7.179  11.428  0.8988  0.0517 -0.5164
19159SOL     OW58917   6.615   0.917  11.512  0.3854 -0.2717  0.4534
19159SOL    HW158918   6.565   0.906  11.593 -2.8792 -1.3051 -1.4936
19159SOL    HW258919   6.553   0.960  11.452  2.6669  0.4856 -1.5171
19160SOL     OW58920   1.346   6.834  12.430  0.1752  0.1994  0.0233
19160SOL    HW158921   1.400   6.829  12.351  0.7930  2.6378  0.1815
19160SOL    HW258922   1.275   6.894  12.407 -0.2677  0.0529  0.9623
19161SOL     OW58923   7.759   0.530  12.405 -0.6094 -0.2903  0.0321
19161SOL    HW158924   7.791   0.615  12.377  1.0870 -1.2615 -1.1012
19161SOL    HW258925   7.667   0.529  12.378 -0.0886  0.3674 -1.9312
19162SOL     OW58926   3.418   7.474  10.513 -0.2938 -0.4203  0.1351
19162SOL    HW158927   3.400   7.495  10.421 -1.2632  1.2800  0.6539
19162SOL    HW258928   3.496   7.418  10.511 -0.2482 -0.3379 -1.7085
19163SOL     OW58929   5.986   7.206  10.156  0.0313 -0.2960 -0.0275
19163SOL    HW158930   6.038   7.283  10.180  1.9519 -0.4013 -3.1409
19163SOL    HW258931   5.992   7.148  10.231  2.8288  0.5945  0.5602
19164SOL     OW58932   6.448   1.211  10.521  0.0849  0.0698  0.2607
19164SOL    HW158933   6.477   1.126  10.554  3.5560  1.7453  2.1763
19164SOL    HW258934   6.477   1.213  10.430 -0.1230 -0.8411  0.1700
19165SOL     OW58935   7.143   7.175  11.525  0.2860 -0.2321  0.8014
19165SOL    HW158936   7.082   7.216  11.586  0.3187  0.0666  0.6328
19165SOL    HW258937   7.092   7.163  11.445  0.7757  1.1146  0.2557
19166SOL     OW58938   7.524   2.008  10.865 -0.3739  0.1695 -0.3278
19166SOL    HW158939   7.461   2.077  10.842 -1.2643 -1.2332 -2.4551
19166SOL    HW258940   7.470   1.936  10.897  0.0237 -1.1092 -2.3201
19167SOL     OW58941   5.908   2.186  10.314 -0.1781 -0.0145  0.5380
19167SOL    HW158942   5.824   2.181  10.268  0.7797 -0.4719 -1.2528
19167SOL    HW258943   5.903   2.267  10.365 -0.6670  1.5122 -1.7792
19168SOL     OW58944   0.326   0.770  12.305 -0.2223 -0.2511 -0.0908
19168SOL    HW158945   0.421   0.769  12.298 -0.2774 -1.8425 -1.4929
19168SOL    HW258946   0.296   0.794  12.217 -1.1318  0.7054  0.4605
19169SOL     OW58947   7.226   0.783  11.330  0.0065 -0.5400  0.1530
19169SOL    HW158948   7.278   0.785  11.410  1.7293  0.4225 -0.9337
19169SOL    HW258949   7.135   0.780  11.361  0.6056  0.0227  2.1245
19170SOL     OW58950   7.918   0.702  11.274  0.3408 -0.4132  0.2914
19170SOL    HW158951   7.903   0.608  11.261 -0.3902 -0.3823  0.8665
19170SOL    HW258952   7.944   0.733  11.188 -0.4776 -0.9535 -0.1739
19171SOL     OW58953   7.327   1.707  12.136  0.1953 -0.5112  0.7720
19171SOL    HW158954   7.288   1.620  12.138  0.8201 -0.7834  2.3828
19171SOL    HW258955   7.260   1.765  12.173 -0.1032 -0.3453 -0.0115
19172SOL     OW58956   6.787   0.576   6.891  0.3295  0.0289  0.2130
19172SOL    HW158957   6.767   0.564   6.984  0.0045  0.2232  0.1695
19172SOL    HW258958   6.706   0.610   6.854 -0.7235 -3.1807 -0.8030
19173SOL     OW58959   5.817   1.043  11.241  0.0254 -0.1019  0.3605
19173SOL    HW158960   5.838   1.135  11.222  0.8900 -0.4919 -0.6562
19173SOL    HW258961   5.902   0.999  11.245 -0.3734 -0.8439  1.0097
19174SOL     OW58962   5.526   0.575  11.105 -0.0750 -0.3767  0.2787
19174SOL    HW158963   5.468   0.567  11.180  0.1057 -0.3966  0.4183
19174SOL    HW258964   5.525   0.669  11.084  0.0304 -0.3404  0.4326
19175SOL     OW58965   6.588   0.977  12.417 -0.4112  0.1280  0.3020
19175SOL    HW158966   6.666   0.923  12.429  0.4381  0.8601 -1.4577
19175SOL    HW258967   6.584   1.031  12.496  1.1610  0.4171  0.2162
19176SOL     OW58968   7.418   1.472  11.833  0.2499  0.4817 -0.0616
19176SOL    HW158969   7.399   1.406  11.900 -0.4962  1.1213  0.3738
19176SOL    HW258970   7.333   1.492  11.794  0.4998  1.0058 -0.3514
19177SOL     OW58971   7.193   0.894   0.847 -0.3866 -0.1988 -0.0946
19177SOL    HW158972   7.166   0.806   0.821  0.6356 -0.2260 -1.1439
19177SOL    HW258973   7.218   0.886   0.939 -2.2893 -0.5293  0.4357
19178SOL     OW58974   6.106   7.613  12.012  0.3034 -0.1438  0.3239
19178SOL    HW158975   6.128   7.526  12.046  0.5566  0.3627  1.5171
19178SOL    HW258976   6.045   7.649  12.077 -0.5999  0.1825 -0.6845
19179SOL     OW58977   7.188   0.321   0.855  0.1642 -0.2318  0.3978
19179SOL    HW158978   7.193   0.286   0.766 -0.0566 -0.8672  0.6294
19179SOL    HW258979   7.271   0.295   0.895  0.9036  1.3101 -0.0565
19180SOL     OW58980   5.190   7.751   1.587  0.3380 -0.3218  0.0580
19180SOL    HW158981   5.156   7.709   1.666 -0.7054 -0.4296 -0.4311
19180SOL    HW258982   5.123   7.734   1.520  0.7224  0.6302 -0.5912
19181SOL     OW58983   5.617   0.682   9.743  0.7417 -0.4579 -0.0768
19181SOL    HW158984   5.691   0.704   9.799  0.2097 -0.1404  0.5160
19181SOL    HW258985   5.657   0.652   9.661  1.5202 -0.2361  0.2113
19182SOL     OW58986   5.304   6.289  11.128 -0.4438  0.1190 -0.1274
19182SOL    HW158987   5.254   6.240  11.193 -0.1187 -0.6231 -0.4270
19182SOL    HW258988   5.251   6.367  11.112  0.0478  0.9312  1.8988
19183SOL     OW58989   6.252   7.950  10.386 -0.1616 -0.2164  0.0077
19183SOL    HW158990   6.290   7.874  10.341 -0.1829  0.5161 -1.3191
19183SOL    HW258991   6.158   7.938  10.379 -0.1650 -0.3870  0.3597
19184SOL     OW58992   0.264   0.537  11.419 -0.6764 -0.0717 -0.3609
19184SOL    HW158993   0.273   0.632  11.413  1.0238 -0.2517 -1.2013
19184SOL    HW258994   0.243   0.520  11.511  2.4381  0.9304  0.6679
19185SOL     OW58995   6.055   0.733   1.075 -0.2617  0.0230  0.0116
19185SOL    HW158996   6.146   0.748   1.100  0.8684 -1.7824 -2.5581
19185SOL    HW258997   6.009   0.720   1.158  1.6660  1.5428  1.4096
19186SOL     OW58998   5.832   2.395   1.083 -0.7648  0.1208  0.1825
19186SOL    HW158999   5.743   2.392   1.118 -0.1391 -1.1013  1.8214
19186SOL    HW259000   5.870   2.311   1.108  1.0655  0.8958  0.1474
19187SOL     OW59001   7.875   2.401  11.614  0.0104 -0.0767 -0.1230
19187SOL    HW159002   7.851   2.362  11.530 -0.3242 -0.2768  0.0599
19187SOL    HW259003   7.800   2.381  11.671 -0.0325  0.5819  0.0524
19188SOL     OW59004   4.958   7.609  10.905 -0.0562 -0.2710 -0.6394
19188SOL    HW159005   4.991   7.524  10.934 -0.3701  0.7886  3.4304
19188SOL    HW259006   5.037   7.659  10.885  0.4244 -0.3467  0.9042
19189SOL     OW59007   7.886   7.281  11.320  0.4374  0.4548  0.1904
19189SOL    HW159008   7.886   7.348  11.252 -0.2615  1.4445  1.1300
19189SOL    HW259009   7.845   7.324  11.396 -0.1806 -1.0921  0.7630
19190SOL     OW59010   7.507   6.799  11.301 -0.2616  0.3219  0.4805
19190SOL    HW159011   7.472   6.747  11.373  0.4093 -0.7009  0.0737
19190SOL    HW259012   7.573   6.855  11.342 -0.8713  0.7672  0.8859
19191SOL     OW59013   5.354   0.370   9.722 -0.4600 -0.1030  0.0473
19191SOL    HW159014   5.440   0.330   9.738 -0.1868  0.3522 -0.2739
19191SOL    HW259015   5.348   0.378   9.627  0.0469  1.8002  0.1399
19192SOL     OW59016   0.331   2.341  11.794 -0.1465  0.1496 -0.0043
19192SOL    HW159017   0.312   2.281  11.721 -0.2199  0.0484  0.0968
19192SOL    HW259018   0.246   2.380  11.815 -0.6330 -1.6116  1.6046
19193SOL     OW59019   6.865   0.780  11.016 -0.6816 -0.2793  0.2231
19193SOL    HW159020   6.871   0.858  11.071  0.6620 -0.8171  0.9022
19193SOL    HW259021   6.788   0.733  11.049  0.0340 -0.5292  1.6033
19194SOL     OW59022   1.537   0.198  10.891 -0.5045  0.1897 -0.3131
19194SOL    HW159023   1.517   0.273  10.835  1.0932  2.2135  1.6375
19194SOL    HW259024   1.464   0.193  10.951 -0.2912  0.6376 -0.0138
19195SOL     OW59025   6.502   2.118  11.166  0.8091 -0.5959 -0.6547
19195SOL    HW159026   6.501   2.149  11.075 -0.6221  0.7254 -0.2289
19195SOL    HW259027   6.462   2.031  11.162 -2.6211  0.8369 -0.9285
19196SOL     OW59028   5.796   1.074   9.998 -0.3702 -0.3015 -0.2010
19196SOL    HW159029   5.707   1.101   9.976 -0.6097 -2.1300 -1.7816
19196SOL    HW259030   5.843   1.156  10.016 -1.8247  0.8688 -1.4797
19197SOL     OW59031   6.428   0.064  10.763 -0.5446  0.2356 -0.0612
19197SOL    HW159032   6.451   0.152  10.730 -0.8297  0.0019 -0.9237
19197SOL    HW259033   6.332   0.063  10.762 -0.5383 -0.3713 -0.8780
19198SOL     OW59034   4.934   0.388  10.825  0.4388  0.3124 -0.7406
19198SOL    HW159035   4.924   0.475  10.864  0.7229  0.0660 -0.1089
19198SOL    HW259036   5.028   0.374  10.820  0.4226  0.5033 -1.9077
19199SOL     OW59037   0.399   1.939  10.641 -0.2934  0.3023 -0.0453
19199SOL    HW159038   0.345   1.987  10.704 -0.7121 -0.1104 -0.0851
19199SOL    HW259039   0.350   1.942  10.560 -0.7374 -0.9184  0.1612
19200SOL     OW59040   6.199   0.476  11.207  0.7596 -0.4254 -0.1272
19200SOL    HW159041   6.260   0.410  11.175  0.4753 -0.4997 -0.5207
19200SOL    HW259042   6.251   0.529  11.268  0.6680 -1.7482  1.1321
19201SOL     OW59043   6.869   6.782  11.147  0.3309 -0.1539  0.3362
19201SOL    HW159044   6.828   6.751  11.065 -0.0301  1.5270 -0.1488
19201SOL    HW259045   6.835   6.722  11.214 -0.2648 -0.8617 -0.5673
19202SOL     OW59046   6.045   1.911   1.191  0.0326  0.0176 -0.1104
19202SOL    HW159047   6.013   1.822   1.179  0.5648 -0.0856 -0.8799
19202SOL    HW259048   6.088   1.910   1.276 -0.4433 -0.3111  0.1316
19203SOL     OW59049   5.324   5.655  10.821  0.4488 -0.3121 -0.2557
19203SOL    HW159050   5.310   5.588  10.754 -0.1369  0.2509 -0.7088
19203SOL    HW259051   5.285   5.734  10.784  1.7420  0.4651 -0.0407
19204SOL     OW59052   6.558   0.404   0.844 -0.6576 -0.3498 -0.1416
19204SOL    HW159053   6.636   0.349   0.848  0.7992  1.6262 -0.2970
19204SOL    HW259054   6.496   0.353   0.791  0.1380 -2.3604  0.7507
19205SOL     OW59055   5.606   1.087  11.427  0.1202  0.3013 -0.0629
19205SOL    HW159056   5.571   1.168  11.390 -0.3094  0.4243  0.5825
19205SOL    HW259057   5.666   1.053  11.361  0.1413  1.0407 -0.4289
19206SOL     OW59058   6.259   1.958  11.655  0.3243  0.0490  0.2643
19206SOL    HW159059   6.353   1.945  11.645  0.4065  0.3339  0.6184
19206SOL    HW259060   6.240   2.039  11.609  0.0619 -0.5627 -0.7248
19207SOL     OW59061   7.569   3.135  11.637  0.5928 -0.2332 -0.5283
19207SOL    HW159062   7.498   3.192  11.665  0.0938 -0.2309 -1.7314
19207SOL    HW259063   7.598   3.092  11.717 -0.1875  0.4082  0.1191
19208SOL     OW59064   0.117   0.105  11.525  0.0751  0.0814 -0.0162
19208SOL    HW159065   0.183   0.114  11.456 -0.1282 -0.7087 -0.3198
19208SOL    HW259066   0.077   0.192  11.530  2.3240  1.1514  1.4331
19209SOL     OW59067   4.080   1.598  11.284 -0.6969  0.0602 -0.5848
19209SOL    HW159068   4.156   1.640  11.324 -1.0651  2.1937 -1.9661
19209SOL    HW259069   4.116   1.523  11.236  0.2608 -0.0897  0.3462
19210SOL     OW59070   6.871   1.660   0.898  0.0357 -0.3000  0.6407
19210SOL    HW159071   6.847   1.610   0.820 -0.6416  1.4091 -0.3035
19210SOL    HW259072   6.818   1.622   0.969 -1.2564 -0.2479 -0.2657
19211SOL     OW59073   7.152   1.634  11.260 -0.2255  0.1121  0.5255
19211SOL    HW159074   7.233   1.591  11.234 -0.7384  0.4522 -1.8969
19211SOL    HW259075   7.154   1.719  11.215 -2.6407 -0.5543 -1.0441
19212SOL     OW59076   7.062   0.561  10.615 -0.2598 -0.4623 -0.0201
19212SOL    HW159077   7.084   0.611  10.537  2.2644  1.4797  1.7751
19212SOL    HW259078   7.085   0.471  10.594 -0.0970 -0.0526 -1.6667
19213SOL     OW59079   4.844   0.487  12.443 -0.0373 -0.2759  0.4064
19213SOL    HW159080   4.877   0.538  12.517 -1.5341  0.4740  0.6052
19213SOL    HW259081   4.900   0.410  12.440  0.0003 -0.3896  2.4229
19214SOL     OW59082   7.561   0.883  12.127  0.3054 -0.4415 -0.5914
19214SOL    HW159083   7.515   0.900  12.209  0.4867 -1.2707 -0.3056
19214SOL    HW259084   7.599   0.967  12.102  0.7910 -0.3187  0.5196
19215SOL     OW59085   6.755   0.173  12.250 -0.2225  0.6258  0.3126
19215SOL    HW159086   6.707   0.252  12.224  1.2016  1.7088  0.8336
19215SOL    HW259087   6.845   0.202  12.260  0.0782 -0.7256  2.0258
19216SOL     OW59088   6.965   0.833   9.552  0.5320  0.0459 -0.9206
19216SOL    HW159089   7.044   0.809   9.600  0.7896  0.4644 -1.1310
19216SOL    HW259090   6.908   0.872   9.618  0.1571 -1.0131 -0.5992
19217SOL     OW59091   7.386   0.047   9.767 -0.4839 -0.3907  1.0015
19217SOL    HW159092   7.308   0.061   9.714 -1.1456 -2.5694  1.3040
19217SOL    HW259093   7.421  -0.037   9.737  1.0172 -0.0801  1.7712
19218SOL     OW59094   7.863   6.156  10.658 -0.5369  0.5998 -0.1185
19218SOL    HW159095   7.916   6.124  10.585  0.8114  2.3844  0.0170
19218SOL    HW259096   7.801   6.217  10.619 -0.1174  1.2111  0.1595
19219SOL     OW59097   7.297   1.380  10.239  0.5812 -0.2182  0.4547
19219SOL    HW159098   7.211   1.353  10.206  1.6586 -1.5259 -1.4560
19219SOL    HW259099   7.287   1.473  10.258 -1.2055 -0.3076  0.0826
19220SOL     OW59100   4.447   7.660   1.015  0.3142 -0.5350  0.2352
19220SOL    HW159101   4.496   7.661   1.098 -0.1736  0.6238  0.5268
19220SOL    HW259102   4.358   7.635   1.039 -0.3709  1.8150  0.4294
19221SOL     OW59103   0.727   0.586  12.401  0.5829 -0.1537  0.6798
19221SOL    HW159104   0.683   0.507  12.371 -0.8422  0.2049  1.7077
19221SOL    HW259105   0.720   0.648  12.328  2.0433 -1.0621 -0.2767
19222SOL     OW59106   5.977   2.073  12.419 -0.0494 -0.5660 -0.0093
19222SOL    HW159107   6.059   2.091  12.464 -0.0805 -2.5384  0.9091
19222SOL    HW259108   5.911   2.074  12.488 -0.4059 -1.5377 -0.3257
19223SOL     OW59109   7.394   0.388  11.971 -0.0567  0.1928 -0.1662
19223SOL    HW159110   7.345   0.370  12.051 -1.2599  1.3626 -0.5973
19223SOL    HW259111   7.396   0.304  11.925 -1.8037  0.1308 -0.1928
19224SOL     OW59112   6.936   0.048   0.712 -0.2001 -0.3228  0.5824
19224SOL    HW159113   6.868  -0.018   0.696 -0.8237  0.6169 -0.8188
19224SOL    HW259114   6.984   0.054   0.630  1.0202 -0.3200  1.2771
19225SOL     OW59115   5.041   2.675  10.509 -0.0532  0.5847 -0.5241
19225SOL    HW159116   5.064   2.711  10.423  1.8674 -0.0624 -0.3239
19225SOL    HW259117   5.118   2.625  10.536 -1.7032 -1.7519  0.2456
19226SOL     OW59118   0.083   1.594  10.893 -0.2959  0.2554 -0.2241
19226SOL    HW159119   0.115   1.676  10.856 -2.6724  1.2181 -0.3071
19226SOL    HW259120   0.022   1.621  10.962 -2.9508 -1.3422 -1.8191
19227SOL     OW59121   5.375   2.541  12.087  0.2445 -0.0605  0.6900
19227SOL    HW159122   5.293   2.581  12.059  0.2120 -0.6221 -0.0330
19227SOL    HW259123   5.412   2.605  12.149  0.8117  1.7265 -1.3692
19228SOL     OW59124   7.938   6.826  11.421  0.3587 -0.4834 -0.5216
19228SOL    HW159125   8.011   6.788  11.372  1.1258  1.5902 -1.0738
19228SOL    HW259126   7.942   6.782  11.506  1.7304 -1.0042 -0.8181
19229SOL     OW59127   7.352   7.426  10.926 -0.1127  1.0104  0.2937
19229SOL    HW159128   7.327   7.439  11.017  2.6019 -2.1693  1.6641
19229SOL    HW259129   7.273   7.392  10.884 -0.3280 -1.5381  2.5624
19230SOL     OW59130   6.302   6.738  10.383 -0.0181  0.5836  0.3528
19230SOL    HW159131   6.310   6.668  10.317  1.6413  0.6199  0.4671
19230SOL    HW259132   6.351   6.812  10.345 -1.0508  1.4128  0.6021
19231SOL     OW59133   7.151   1.898  11.146  0.4685 -0.7304 -0.0791
19231SOL    HW159134   7.094   1.921  11.073  1.0137 -0.7323 -0.5138
19231SOL    HW259135   7.225   1.959  11.140 -0.0837  0.1059  1.2279
19232SOL     OW59136   6.770   7.477  12.169 -0.2572  0.0984 -0.1568
19232SOL    HW159137   6.805   7.411  12.228  0.4418  0.2618 -0.3711
19232SOL    HW259138   6.784   7.441  12.081 -3.3658 -1.1815 -0.2476
19233SOL     OW59139   6.072   2.794   0.728  0.6199  0.2786 -0.4087
19233SOL    HW159140   6.165   2.799   0.704  0.2931 -0.5868 -2.0015
19233SOL    HW259141   6.049   2.703   0.712 -0.9132  0.8512 -1.7314
19234SOL     OW59142   3.814   0.511  12.121  0.0707  0.1331  0.4180
19234SOL    HW159143   3.894   0.554  12.151 -0.4403  1.6615 -0.3394
19234SOL    HW259144   3.777   0.570  12.056 -1.4467 -0.7607  0.4136
19235SOL     OW59145   7.164   7.825   1.884 -0.4014  0.3014 -0.1396
19235SOL    HW159146   7.130   7.881   1.814  0.1711 -1.6312 -2.0751
19235SOL    HW259147   7.087   7.805   1.937 -1.2590  0.2821 -1.3393
19236SOL     OW59148   6.362   0.734   8.168  0.1761 -0.2312  0.2220
19236SOL    HW159149   6.418   0.686   8.106  1.5635 -1.0477  2.0270
19236SOL    HW259150   6.284   0.755   8.117  0.9553 -1.4674 -1.6178
19237SOL     OW59151   6.798   7.805  11.426 -0.3200 -0.2099  0.4286
19237SOL    HW159152   6.830   7.781  11.339  2.6545 -1.2465  1.6692
19237SOL    HW259153   6.777   7.899  11.419  1.7687  0.2227 -0.9415
19238SOL     OW59154   6.849   0.929  11.721  0.2981 -0.1934 -0.5045
19238SOL    HW159155   6.780   0.870  11.692 -0.2630 -0.5712  1.4455
19238SOL    HW259156   6.877   0.893  11.806  0.6419  1.7591  0.2605
19239SOL     OW59157   7.429   2.692  12.452 -0.4129 -0.2715  0.5807
19239SOL    HW159158   7.447   2.691  12.358 -0.4591  1.7220  0.5004
19239SOL    HW259159   7.511   2.664  12.492  0.5222  1.4847 -0.0053
19240SOL     OW59160   5.958   0.521  10.278  0.2215 -0.0858 -0.1574
19240SOL    HW159161   5.989   0.609  10.255 -1.5220  1.0203  1.3439
19240SOL    HW259162   5.866   0.521  10.252  0.4019 -1.8176 -0.9123
19241SOL     OW59163   4.546   0.731  12.027 -0.5210 -0.0359  0.1343
19241SOL    HW159164   4.473   0.670  12.015  0.4406 -1.1077 -0.4949
19241SOL    HW259165   4.560   0.735  12.121 -0.1328 -1.3952  0.1558
19242SOL     OW59166   4.640   7.788   0.875  0.3005 -0.3330  0.3549
19242SOL    HW159167   4.630   7.883   0.866  0.3885 -0.0362  2.7903
19242SOL    HW259168   4.562   7.760   0.922  0.6858 -1.3410  0.4203
19243SOL     OW59169   6.512   1.542  10.204 -0.4882  0.1004  0.9675
19243SOL    HW159170   6.517   1.576  10.293 -0.1253  2.0855  0.2370
19243SOL    HW259171   6.603   1.536  10.175 -0.5913 -0.7184  0.7759
19244SOL     OW59172   0.543   0.599   0.122  0.1219 -0.3781 -0.3358
19244SOL    HW159173   0.537   0.688   0.159 -2.6917 -0.5673 -0.1718
19244SOL    HW259174   0.597   0.610   0.044  0.7673  1.2399  0.2710
19245SOL     OW59175   0.875   7.862  10.656 -0.3576  0.2849  0.1504
19245SOL    HW159176   0.782   7.841  10.663 -0.2435 -0.4656 -0.4690
19245SOL    HW259177   0.914   7.784  10.617  1.1107 -0.8713  3.5065
19246SOL     OW59178   5.114   1.171  11.167 -0.9559 -0.5036 -0.4409
19246SOL    HW159179   5.052   1.177  11.240  0.6243 -0.7357  0.9975
19246SOL    HW259180   5.148   1.260  11.157  0.8964 -0.9661  1.0811
19247SOL     OW59181   7.791   1.977   9.752 -0.2510  0.2121  0.0954
19247SOL    HW159182   7.764   1.994   9.842 -0.0120  0.6281  0.0945
19247SOL    HW259183   7.736   2.035   9.699 -0.7206 -0.3796 -0.0665
19248SOL     OW59184   5.060   0.265  11.856  0.6778 -0.1289  0.1769
19248SOL    HW159185   5.132   0.307  11.905  0.7349 -0.4344  0.3616
19248SOL    HW259186   4.987   0.263  11.918 -0.1536  2.0115 -0.6550
19249SOL     OW59187   6.891   0.894   1.325 -0.2927  0.5690 -0.1885
19249SOL    HW159188   6.896   0.990   1.327 -0.3819  0.6006 -1.0003
19249SOL    HW259189   6.888   0.868   1.417 -1.1415  1.3889  0.0301
19250SOL     OW59190   7.893   2.704  11.499 -0.1586  0.0126  0.2919
19250SOL    HW159191   7.958   2.657  11.551 -0.0918 -1.1037 -0.7523
19250SOL    HW259192   7.907   2.796  11.519 -1.3541 -0.3806  3.7087
19251SOL     OW59193   7.524   0.494  11.613  0.0788  0.0747 -0.2138
19251SOL    HW159194   7.450   0.538  11.572 -0.6648  0.2936  1.3110
19251SOL    HW259195   7.601   0.545  11.585 -0.3869  0.1894 -1.3305
19252SOL     OW59196   7.556   6.568   0.384  0.5152  0.3106 -0.1460
19252SOL    HW159197   7.549   6.641   0.323 -1.4292  0.9161  0.7276
19252SOL    HW259198   7.480   6.513   0.365  0.6231 -0.1951  0.8170
19253SOL     OW59199   7.495   2.111  11.388  0.2882 -0.5035  0.3122
19253SOL    HW159200   7.440   2.127  11.465 -0.9050  0.4447 -0.6856
19253SOL    HW259201   7.515   2.199  11.355 -1.1610 -0.8666 -1.7527
19254SOL     OW59202   6.764   0.163  10.670  0.0775 -0.1697  0.3129
19254SOL    HW159203   6.731   0.233  10.725  1.3117  0.1469  0.6770
19254SOL    HW259204   6.801   0.100  10.731 -0.9027 -1.1064 -0.0149
19255SOL     OW59205   5.705   0.377  10.726 -0.5073  0.3432 -0.0549
19255SOL    HW159206   5.670   0.463  10.749 -2.5807  0.0851 -1.9585
19255SOL    HW259207   5.718   0.381  10.631 -0.2253 -1.3066 -0.1161
19256SOL     OW59208   6.762   7.046  10.850  0.0971  0.1088  0.4415
19256SOL    HW159209   6.751   7.110  10.780 -0.2479  0.4775  0.8273
19256SOL    HW259210   6.789   6.966  10.805  0.2722  0.4506 -0.0703
19257SOL     OW59211   5.481   1.606  10.032 -0.3979  0.2805  0.9757
19257SOL    HW159212   5.473   1.667   9.958 -0.5454 -2.1359 -1.1359
19257SOL    HW259213   5.393   1.570  10.044 -0.0974 -0.3303  1.4268
19258SOL     OW59214   7.625   7.768  11.894  0.2499 -0.3255 -0.2725
19258SOL    HW159215   7.571   7.841  11.924 -1.1562 -0.5221 -2.1455
19258SOL    HW259216   7.684   7.806  11.829  0.3418 -0.6481 -0.3789
19259SOL     OW59217   7.187   1.479  12.134 -0.5249 -0.4775  0.2267
19259SOL    HW159218   7.253   1.415  12.108 -0.1613 -0.3255  0.7686
19259SOL    HW259219   7.145   1.504  12.051  1.6422  1.1476 -0.4874
19260SOL     OW59220   7.924   0.915   0.113 -0.0956 -0.0637  0.6454
19260SOL    HW159221   8.010   0.874   0.118 -0.5627 -1.3525 -0.8549
19260SOL    HW259222   7.884   0.900   0.199 -0.5515 -3.6099 -0.0343
19261SOL     OW59223   7.636   6.799  12.216  0.7683 -0.6294  0.0733
19261SOL    HW159224   7.717   6.846  12.196  0.0538  1.0399  0.9594
19261SOL    HW259225   7.648   6.766  12.305 -0.0939  1.0178  0.8498
19262SOL     OW59226   5.419   1.148   0.708  0.1505  0.0630  0.0002
19262SOL    HW159227   5.382   1.173   0.623  1.6707 -0.0580 -0.7270
19262SOL    HW259228   5.506   1.187   0.708  0.2772 -0.1843  1.4001
19263SOL     OW59229   0.768   7.971  11.794  0.5348 -0.4045  0.0083
19263SOL    HW159230   0.748   7.878  11.801 -1.4975  0.0016  0.1715
19263SOL    HW259231   0.760   8.005  11.883  0.3524  0.0921 -0.1930
19264SOL     OW59232   5.205   2.998   0.411  0.3386 -0.1267 -0.0269
19264SOL    HW159233   5.281   3.042   0.372 -0.0792  0.8112  0.1919
19264SOL    HW259234   5.172   3.059   0.476  0.0263 -0.9800  0.6402
19265SOL     OW59235   7.757   1.429  11.888  0.2338  0.1040 -0.1289
19265SOL    HW159236   7.720   1.485  11.957  1.3218  0.5090  0.1439
19265SOL    HW259237   7.838   1.473  11.863  0.6149 -0.8502 -0.6001
19266SOL     OW59238   7.157   0.583  12.290  0.4358  0.1190 -0.1949
19266SOL    HW159239   7.096   0.549  12.355  1.2434 -0.2006  0.4033
19266SOL    HW259240   7.213   0.509  12.268  1.3877  0.7123  0.1739
19267SOL     OW59241   7.089   1.304   9.727  0.5014  0.1391 -0.5371
19267SOL    HW159242   7.106   1.364   9.800 -1.0324  0.8498 -0.7227
19267SOL    HW259243   7.176   1.287   9.689  1.2432  0.2853  1.0203
19268SOL     OW59244   1.101   1.060   0.518 -0.4808 -0.2621 -0.4942
19268SOL    HW159245   1.104   1.085   0.610 -1.5886  2.5783 -1.1186
19268SOL    HW259246   1.017   1.014   0.509 -1.3572  1.2419 -0.4024
19269SOL     OW59247   6.464   0.134   1.326 -0.2827  0.1884  0.2596
19269SOL    HW159248   6.474   0.172   1.239 -1.6908 -0.9286 -0.4441
19269SOL    HW259249   6.394   0.184   1.366 -0.4457 -0.0603  0.2871
19270SOL     OW59250   0.942   0.865  10.845  0.1407 -0.1901  0.1271
19270SOL    HW159251   0.900   0.780  10.850 -0.3131  0.1167  2.1780
19270SOL    HW259252   0.930   0.904  10.931 -0.1323  2.1956 -0.8964
19271SOL     OW59253   5.292   7.908  11.783  0.2397 -0.1944  0.4246
19271SOL    HW159254   5.227   7.840  11.769 -1.0395  0.8605  1.0009
19271SOL    HW259255   5.330   7.924  11.696 -2.0704  0.8910 -0.4856
19272SOL     OW59256   6.965   1.134  12.446  0.4580 -0.6991 -0.0300
19272SOL    HW159257   6.894   1.193  12.421 -0.1591 -0.9934  0.9628
19272SOL    HW259258   7.022   1.188  12.501 -0.0520 -0.9823  0.7931
19273SOL     OW59259   6.205   7.740  10.754 -0.3485  0.3700  0.6343
19273SOL    HW159260   6.207   7.828  10.717  0.3221  0.4354  0.8077
19273SOL    HW259261   6.208   7.752  10.848  1.3755  0.1551  0.6415
19274SOL     OW59262   6.661   7.879  11.808 -0.1489 -0.1761 -0.4534
19274SOL    HW159263   6.700   7.791  11.811 -3.0463 -1.5634  0.2260
19274SOL    HW259264   6.679   7.916  11.895 -0.0325 -0.6317 -0.2805
19275SOL     OW59265   5.926   0.447  11.299  0.3747 -0.4277  0.4612
19275SOL    HW159266   6.013   0.461  11.261 -0.2314  0.3577 -0.7064
19275SOL    HW259267   5.943   0.408  11.385  1.7786 -2.8120 -0.8221
19276SOL     OW59268   0.845   1.306  11.033  0.0682 -0.5064 -0.3647
19276SOL    HW159269   0.790   1.343  10.964 -1.6500  0.7298  1.5668
19276SOL    HW259270   0.918   1.367  11.040  0.0522 -0.4312 -0.8133
19277SOL     OW59271   7.123   0.094  10.020 -0.6993 -0.2390  0.0811
19277SOL    HW159272   7.134  -0.001  10.032  0.0084 -0.4057 -1.5551
19277SOL    HW259273   7.158   0.111   9.932 -0.3254  1.6392  0.5502
19278SOL     OW59274   6.813   7.881  10.480 -0.3634  0.6391 -0.0419
19278SOL    HW159275   6.896   7.921  10.505 -0.8843  2.1066 -0.5474
19278SOL    HW259276   6.780   7.841  10.560 -0.1587  1.8873  0.6933
19279SOL     OW59277   6.237   0.954  12.102  0.2565  0.6767 -0.0422
19279SOL    HW159278   6.252   1.049  12.102  1.9595  0.4738 -1.7414
19279SOL    HW259279   6.221   0.932  12.010  1.3772 -0.8586  0.0921
19280SOL     OW59280   5.650   1.826  11.789  0.0798  0.2024 -0.2387
19280SOL    HW159281   5.725   1.882  11.806 -0.0005  0.6095 -1.1607
19280SOL    HW259282   5.601   1.824  11.872  1.2807 -0.3682  0.4834
19281SOL     OW59283   0.403   1.379  11.458 -0.4359  0.5975  0.2507
19281SOL    HW159284   0.340   1.440  11.497  0.7416  0.6540  2.2158
19281SOL    HW259285   0.473   1.435  11.424 -0.0127  0.4254  0.8198
19282SOL     OW59286   7.596   2.370  11.669  0.1424 -0.1734  0.2128
19282SOL    HW159287   7.555   2.456  11.679 -0.5625 -0.6709  2.0894
19282SOL    HW259288   7.563   2.338  11.585 -0.7013  0.8152  0.1417
19283SOL     OW59289   6.288   3.109   1.041 -0.0665 -0.1494 -0.3004
19283SOL    HW159290   6.333   3.032   1.006  0.1626  0.6003 -1.7129
19283SOL    HW259291   6.264   3.084   1.131  0.4434 -1.6711 -0.5610
19284SOL     OW59292   5.484   2.739  12.270 -0.0218  0.3953  0.1772
19284SOL    HW159293   5.525   2.817  12.232  0.0683  2.2293  3.6297
19284SOL    HW259294   5.521   2.733  12.358 -2.7368 -1.3813  1.3321
19285SOL     OW59295   7.961   4.871   2.565  0.2881 -0.1281 -0.4172
19285SOL    HW159296   7.945   4.959   2.531  0.6347  0.4964  0.9572
19285SOL    HW259297   7.930   4.813   2.496  0.2424  1.0642 -1.4455
19286SOL     OW59298   6.623   4.358  12.350 -0.3748 -0.1700 -0.3135
19286SOL    HW159299   6.646   4.373  12.442 -0.0584 -0.1508 -0.3948
19286SOL    HW259300   6.529   4.377  12.345 -0.0621  1.4826 -0.3577
19287SOL     OW59301   7.696   3.169   0.929 -0.1960  0.5206 -0.3813
19287SOL    HW159302   7.709   3.249   0.981 -0.9561 -0.9709  2.3060
19287SOL    HW259303   7.675   3.201   0.841  0.7297  3.2243  0.2728
19288SOL     OW59304   0.870   2.546   0.553  0.3695  0.1937  0.3086
19288SOL    HW159305   0.799   2.568   0.613 -0.4947 -0.2225 -0.5335
19288SOL    HW259306   0.871   2.618   0.490  1.5205  0.8192  1.0228
19289SOL     OW59307   6.326   3.213   2.316 -0.2804 -0.2080  0.4156
19289SOL    HW159308   6.384   3.207   2.392  0.5937 -0.0890 -0.2339
19289SOL    HW259309   6.323   3.306   2.295 -0.4508 -0.2522  0.2390
19290SOL     OW59310   7.466   2.582   1.979 -0.4202  0.0795 -0.5401
19290SOL    HW159311   7.479   2.516   1.910 -1.5990 -0.6365 -0.1098
19290SOL    HW259312   7.549   2.583   2.027 -1.0005 -2.6131  0.7135
19291SOL     OW59313   6.404   2.882   0.971  0.4648 -0.0874 -0.1613
19291SOL    HW159314   6.456   2.887   0.891  2.3817  0.8417  1.0614
19291SOL    HW259315   6.361   2.796   0.966  2.4029 -1.0836 -1.1111
19292SOL     OW59316   6.402   4.798   2.289 -0.2833  0.4083 -0.1005
19292SOL    HW159317   6.384   4.820   2.198  1.4322  2.2673 -0.0505
19292SOL    HW259318   6.490   4.831   2.306 -0.3170 -0.4150  2.0692
19293SOL     OW59319   6.983   3.007   2.275 -0.6596 -0.2545  0.1908
19293SOL    HW159320   6.992   2.953   2.353 -0.4384 -0.5739 -0.0519
19293SOL    HW259321   6.994   3.097   2.306 -0.4634 -0.3875  0.5105
19294SOL     OW59322   7.666   3.082   1.354  0.2651  0.0088 -0.0701
19294SOL    HW159323   7.664   3.022   1.429  0.2703 -0.9448 -0.8088
19294SOL    HW259324   7.631   3.030   1.282  0.2149  0.9303 -0.7182
19295SOL     OW59325   6.585   3.014   1.666  0.1501  0.2489 -0.1437
19295SOL    HW159326   6.513   2.996   1.605  0.1911  1.4296 -0.5705
19295SOL    HW259327   6.543   3.016   1.752  0.0835 -1.3898 -0.1112
19296SOL     OW59328   6.016   2.394   0.279 -0.6755 -0.0098  0.0336
19296SOL    HW159329   5.976   2.408   0.193  0.9980 -1.2851 -1.0088
19296SOL    HW259330   6.059   2.477   0.299 -0.6114  0.1237 -0.6250
19297SOL     OW59331   5.226   2.844   0.788 -0.2906 -0.2155 -0.3120
19297SOL    HW159332   5.172   2.787   0.733 -0.1278 -0.4485 -0.2354
19297SOL    HW259333   5.310   2.849   0.742  0.3119 -1.5264  0.5805
19298SOL     OW59334   0.422   4.590   3.318  0.3220 -0.3992  0.2360
19298SOL    HW159335   0.397   4.671   3.363  0.2398  0.3140 -1.0432
19298SOL    HW259336   0.483   4.618   3.250 -0.4330 -1.2721 -0.8448
19299SOL     OW59337   5.128   4.676  11.409 -0.0581  0.0816 -0.1967
19299SOL    HW159338   5.093   4.646  11.325 -3.4051 -0.5207  1.2383
19299SOL    HW259339   5.141   4.770  11.397 -3.3563  0.5901 -0.6350
19300SOL     OW59340   4.431   3.749   0.877  0.6269  0.0211  0.2103
19300SOL    HW159341   4.486   3.752   0.955  0.8664 -1.4041  0.1339
19300SOL    HW259342   4.484   3.701   0.813 -0.7685 -1.6731  0.2338
19301SOL     OW59343   4.889   3.705   2.465 -0.4377  0.4660 -0.0760
19301SOL    HW159344   4.906   3.660   2.548  0.5827  0.1197 -0.4669
19301SOL    HW259345   4.796   3.728   2.470 -0.3760  0.5291  1.2004
19302SOL     OW59346   6.723   1.195   1.874  0.0092  0.3675  0.2843
19302SOL    HW159347   6.819   1.186   1.876 -0.0784 -0.8577 -0.2959
19302SOL    HW259348   6.698   1.163   1.788 -0.9881 -0.0048  0.6975
19303SOL     OW59349   5.376   1.744   1.146 -0.4119 -0.8647 -0.1330
19303SOL    HW159350   5.314   1.787   1.205 -0.3474  0.7923 -1.1880
19303SOL    HW259351   5.351   1.652   1.148 -0.6140 -0.8222  2.1921
19304SOL     OW59352   5.579   1.417   1.362  0.1421  0.0525 -0.4469
19304SOL    HW159353   5.618   1.382   1.441 -1.3261 -1.2660 -0.2647
19304SOL    HW259354   5.525   1.490   1.392 -0.7612 -0.7256 -0.1660
19305SOL     OW59355   7.349   3.991  10.914  0.2121  0.0449  0.2374
19305SOL    HW159356   7.283   3.987  10.845  0.7222  0.7142 -0.2987
19305SOL    HW259357   7.415   3.927  10.888 -0.3671 -0.8833  0.9540
19306SOL     OW59358   6.736   4.084   2.156 -0.3100 -0.3205 -0.0569
19306SOL    HW159359   6.650   4.126   2.152 -0.8831 -1.5507 -2.5753
19306SOL    HW259360   6.797   4.153   2.131 -0.7605  0.0805 -0.0790
19307SOL     OW59361   7.431   2.087   0.743  0.0141  0.4067  0.0621
19307SOL    HW159362   7.373   2.102   0.669 -0.2878  1.2355  0.4566
19307SOL    HW259363   7.477   2.006   0.721 -1.0059 -0.0582 -0.4307
19308SOL     OW59364   7.273   3.975  11.684 -0.3993  0.6469  0.1070
19308SOL    HW159365   7.182   3.954  11.704 -0.0498 -0.6349  0.4585
19308SOL    HW259366   7.321   3.895  11.706  0.5890  0.6640 -1.7976
19309SOL     OW59367   6.721   4.688   1.562 -0.2337 -0.1577 -0.1215
19309SOL    HW159368   6.708   4.603   1.519 -0.2332 -0.0393 -0.3537
19309SOL    HW259369   6.788   4.670   1.629 -0.4472 -0.4060  0.0250
19310SOL     OW59370   7.099   5.239   2.359  0.6151  0.8537 -0.2638
19310SOL    HW159371   7.120   5.172   2.293  0.6124 -0.3060  0.8726
19310SOL    HW259372   7.012   5.270   2.334  0.0953 -0.4367 -0.1587
19311SOL     OW59373   7.157   3.606   2.451 -0.0620  0.2605 -0.5785
19311SOL    HW159374   7.139   3.671   2.383  0.2055  0.7336 -0.2102
19311SOL    HW259375   7.233   3.641   2.498 -1.5193  1.0508  1.3304
19312SOL     OW59376   0.239   7.785   0.377  0.4214 -0.3970 -0.2192
19312SOL    HW159377   0.176   7.839   0.329  0.4088 -1.2576 -1.2023
19312SOL    HW259378   0.235   7.700   0.334  3.4309 -0.0574 -1.4045
19313SOL     OW59379   5.308   3.464   0.926  0.3035  0.6874  0.2811
19313SOL    HW159380   5.309   3.505   1.012  0.6671  1.3856 -0.0487
19313SOL    HW259381   5.318   3.536   0.864  1.9899  0.0238 -0.2776
19314SOL     OW59382   5.068   3.572  12.333 -0.5483  0.0825  0.3356
19314SOL    HW159383   5.031   3.651  12.294  0.3258 -0.3884 -1.5518
19314SOL    HW259384   5.016   3.500  12.297  0.6455 -0.4076 -0.4703
19315SOL     OW59385   6.908   5.978   1.313  0.4333 -0.4303  0.5479
19315SOL    HW159386   6.938   5.902   1.263  1.2855  0.1462  0.1649
19315SOL    HW259387   6.830   5.947   1.358 -0.2208 -1.0436 -0.9330
19316SOL     OW59388   6.161   1.472   2.107 -0.4820  0.6578  0.0303
19316SOL    HW159389   6.250   1.506   2.116  0.3160 -1.6701  1.8682
19316SOL    HW259390   6.171   1.388   2.064 -1.8502  0.5632 -0.1428
19317SOL     OW59391   5.605   2.883   0.362  0.0551  0.3019 -0.1356
19317SOL    HW159392   5.567   2.893   0.450  1.8859  1.1337  0.6179
19317SOL    HW259393   5.540   2.833   0.313 -0.9827 -0.2592  1.7195
19318SOL     OW59394   7.187   4.565   0.045 -0.3818  0.1732 -0.2376
19318SOL    HW159395   7.252   4.635   0.046  1.0940 -1.1640 -0.6078
19318SOL    HW259396   7.219   4.501  -0.018 -1.7782 -0.7923 -0.0353
19319SOL     OW59397   6.863   1.473   0.003 -0.7803 -0.0605 -0.3330
19319SOL    HW159398   6.884   1.477  -0.091 -0.3475  0.2745 -0.2275
19319SOL    HW259399   6.928   1.530   0.044 -1.8411  0.9481  0.0167
19320SOL     OW59400   7.373   2.082  11.135 -0.1889 -0.1939 -0.5013
19320SOL    HW159401   7.400   2.168  11.103 -0.6981 -0.0296 -0.4924
19320SOL    HW259402   7.406   2.079  11.225 -1.1153  0.4404 -0.1234
19321SOL     OW59403   0.189   2.304  12.371  0.4765  0.2863  0.3812
19321SOL    HW159404   0.184   2.213  12.341  0.9649 -0.3467  2.0689
19321SOL    HW259405   0.197   2.356  12.291 -0.8928 -1.0568 -0.6764
19322SOL     OW59406   6.877   3.397   0.145  0.0033  0.2346  0.0094
19322SOL    HW159407   6.837   3.388   0.232  0.2424 -0.4199  0.0550
19322SOL    HW259408   6.954   3.452   0.160  0.3358 -0.3050  0.3094
19323SOL     OW59409   0.217   2.518   0.934  0.6463 -0.1848  0.0918
19323SOL    HW159410   0.220   2.611   0.912  1.7141  0.9317  4.1234
19323SOL    HW259411   0.140   2.509   0.990 -0.1632 -2.0856 -1.2129
19324SOL     OW59412   7.112   2.932   1.087  0.2390  0.4801 -0.9327
19324SOL    HW159413   7.181   2.867   1.101 -0.1922  0.4793  1.6175
19324SOL    HW259414   7.136   3.004   1.145 -2.7107 -0.2167  1.3771
19325SOL     OW59415   7.451   3.834   0.896  0.2212 -0.0795  0.7068
19325SOL    HW159416   7.526   3.861   0.842  0.3107 -2.9429 -0.8155
19325SOL    HW259417   7.380   3.892   0.869  1.8087  2.7401  2.2276
19326SOL     OW59418   1.832   2.277   0.214  0.1680 -0.1825  0.5331
19326SOL    HW159419   1.743   2.244   0.202  0.1586  0.4569 -1.5296
19326SOL    HW259420   1.821   2.356   0.267 -1.0184  1.9072 -2.5544
19327SOL     OW59421   6.501   0.887  11.768 -0.1339  0.4727 -0.0645
19327SOL    HW159422   6.555   0.945  11.821 -0.1756 -0.1751  0.7160
19327SOL    HW259423   6.494   0.806  11.820 -0.4730 -0.0549 -0.9015
19328SOL     OW59424   7.590   3.082   1.952  0.1306 -0.0728  0.0823
19328SOL    HW159425   7.640   3.149   1.998  0.0860 -0.4817  0.7460
19328SOL    HW259426   7.540   3.038   2.021 -1.9367  0.9625 -0.6556
19329SOL     OW59427   7.168   2.669  12.403  0.3153  0.1825 -0.6003
19329SOL    HW159428   7.120   2.720  12.468  2.0593 -0.6467  1.4681
19329SOL    HW259429   7.260   2.689  12.421  1.0752 -3.3890  0.1432
19330SOL     OW59430   0.525   2.283   1.855 -0.2255 -0.2134 -0.5433
19330SOL    HW159431   0.562   2.356   1.806  0.5270 -0.7450 -0.7902
19330SOL    HW259432   0.515   2.315   1.945 -1.0289  0.5663 -0.9006
19331SOL     OW59433   7.327   2.404  12.072  0.3003  0.4576  0.2326
19331SOL    HW159434   7.380   2.370  12.144  0.3642  0.1404  0.0391
19331SOL    HW259435   7.237   2.386  12.098  0.0712  3.1758  1.7122
19332SOL     OW59436   6.955   1.863   1.543 -0.0414  0.1501 -0.1779
19332SOL    HW159437   6.992   1.833   1.627  0.2029 -2.6369 -1.1599
19332SOL    HW259438   6.861   1.852   1.553  0.0062 -0.4306 -0.3388
19333SOL     OW59439   5.757   3.476   0.667  0.4948  0.1411 -0.3097
19333SOL    HW159440   5.780   3.550   0.723  1.0699 -2.2857  2.9386
19333SOL    HW259441   5.680   3.437   0.709  0.0852 -1.0381 -2.0181
19334SOL     OW59442   4.530   4.268   1.711 -0.3947 -0.0735 -0.0147
19334SOL    HW159443   4.500   4.325   1.782 -0.3455 -0.4215  0.2910
19334SOL    HW259444   4.538   4.182   1.752  1.8552  0.1479  0.1737
19335SOL     OW59445   7.973   2.530   1.048  0.2541 -0.2724  0.0552
19335SOL    HW159446   7.965   2.525   1.144 -0.6637  0.3563  0.0236
19335SOL    HW259447   7.894   2.576   1.020  0.4650 -0.5461 -1.0229
19336SOL     OW59448   0.233   4.945   1.829  0.1483 -0.1685  0.5389
19336SOL    HW159449   0.155   4.993   1.857 -0.3500 -1.4659  1.4517
19336SOL    HW259450   0.206   4.853   1.827  2.0340 -0.8383  2.3694
19337SOL     OW59451   7.370   1.643   0.774  0.0466  0.0395  0.7931
19337SOL    HW159452   7.388   1.729   0.736 -0.4309 -0.6519 -1.1132
19337SOL    HW259453   7.456   1.603   0.783  0.0997 -0.2846 -0.8905
19338SOL     OW59454   1.847   3.921   3.057 -0.1692 -0.0072  0.0843
19338SOL    HW159455   1.799   3.845   3.026  0.2013  0.3139 -1.3734
19338SOL    HW259456   1.808   3.942   3.141  0.2105 -2.2386  0.8765
19339SOL     OW59457   7.142   3.384   3.633 -0.1955 -0.2567 -0.0158
19339SOL    HW159458   7.187   3.300   3.621 -0.0593 -0.4241  1.4831
19339SOL    HW259459   7.069   3.364   3.693 -0.4680  0.5970 -0.0466
19340SOL     OW59460   6.992   5.019   0.543 -0.2066  0.6580 -0.1874
19340SOL    HW159461   7.083   5.046   0.545  0.1263 -0.3937 -0.3628
19340SOL    HW259462   6.949   5.081   0.484  0.0581  2.0836  1.0731
19341SOL     OW59463   4.731   3.166   2.271  0.0349  0.3355 -0.2437
19341SOL    HW159464   4.744   3.260   2.288  0.5683 -0.0601  1.7506
19341SOL    HW259465   4.674   3.136   2.341 -1.1310 -0.6424 -1.5376
19342SOL     OW59466   7.454   2.525  10.320 -0.4022 -0.5607  0.0584
19342SOL    HW159467   7.451   2.620  10.307 -1.7306 -0.8727 -2.4677
19342SOL    HW259468   7.404   2.511  10.401 -2.3001  0.7486 -0.8025
19343SOL     OW59469   6.120   4.819  12.376  0.5744  0.3750  0.5273
19343SOL    HW159470   6.214   4.838  12.369  0.5428  0.2946 -0.1388
19343SOL    HW259471   6.097   4.780  12.292 -0.1886  0.9525  0.4553
19344SOL     OW59472   6.901   3.168   0.023  0.0949  0.0306  0.3278
19344SOL    HW159473   6.880   3.129   0.107 -0.5163  1.1405  0.7033
19344SOL    HW259474   6.890   3.262   0.036  0.7525  0.2845 -0.7765
19345SOL     OW59475   4.111   5.811   2.022  0.2784  0.1288  0.5142
19345SOL    HW159476   4.203   5.805   2.047  0.2998 -0.0555  0.3914
19345SOL    HW259477   4.063   5.791   2.103  0.3478  0.0470  0.5360
19346SOL     OW59478   7.460   3.548  11.898  0.4611  0.4747 -0.3694
19346SOL    HW159479   7.427   3.594  11.975 -0.1914 -2.4056  1.2260
19346SOL    HW259480   7.552   3.532  11.916  0.3464 -0.0650 -0.2430
19347SOL     OW59481   5.805   2.097  11.461  0.0557 -0.3678  0.1550
19347SOL    HW159482   5.886   2.047  11.465  0.0626 -0.3113  0.8279
19347SOL    HW259483   5.776   2.088  11.370  0.2344 -1.3102  0.1756
19348SOL     OW59484   6.186   3.102   1.812  0.9308 -0.3729  0.5260
19348SOL    HW159485   6.169   3.009   1.797  1.1626 -0.3872  0.3403
19348SOL    HW259486   6.251   3.103   1.882 -0.0008 -0.3115  1.4236
19349SOL     OW59487   7.617   0.320   0.506 -0.2602 -0.0210 -0.4057
19349SOL    HW159488   7.701   0.340   0.545  1.5536  1.0335 -4.3163
19349SOL    HW259489   7.604   0.227   0.522  0.1834  0.3551  2.6245
19350SOL     OW59490   7.201   2.329   1.656 -0.7434  0.4453 -0.1061
19350SOL    HW159491   7.157   2.368   1.732 -0.6040  1.4123 -0.4979
19350SOL    HW259492   7.155   2.248   1.640  0.9626 -1.2864  2.7531
19351SOL     OW59493   6.684   4.952   0.279  0.2872 -0.0936 -0.2214
19351SOL    HW159494   6.743   5.018   0.242  0.7039 -0.1953  0.2494
19351SOL    HW259495   6.647   4.995   0.356 -0.2975 -0.0130 -0.5434
19352SOL     OW59496   6.004   4.367   1.143 -0.2988  0.0508 -0.4013
19352SOL    HW159497   5.913   4.356   1.171 -0.1431  0.1607  0.1452
19352SOL    HW259498   6.055   4.314   1.204  0.0559  0.4217 -0.3756
19353SOL     OW59499   6.319   4.601   1.033  0.2115 -0.3111  0.2747
19353SOL    HW159500   6.238   4.623   1.079 -1.4931 -3.0848 -1.0857
19353SOL    HW259501   6.367   4.545   1.094  1.9139  2.4628  1.6345
19354SOL     OW59502   0.385   1.851   0.737  0.1153 -0.5147 -0.2451
19354SOL    HW159503   0.447   1.848   0.664  1.6166 -0.3813  0.9721
19354SOL    HW259504   0.437   1.827   0.813 -1.4579 -0.8456  0.7757
19355SOL     OW59505   7.203   2.837   0.641 -0.2930 -0.0176 -0.1614
19355SOL    HW159506   7.148   2.837   0.563  1.2341  1.2808 -1.3317
19355SOL    HW259507   7.168   2.907   0.696 -0.8746 -0.3930 -0.0462
19356SOL     OW59508   6.282   4.586   2.067  0.1951 -0.2177  0.2276
19356SOL    HW159509   6.189   4.594   2.047 -0.2131 -1.3724  1.5015
19356SOL    HW259510   6.286   4.521   2.138  1.7907  1.3207  1.6455
19357SOL     OW59511   5.151   2.548   0.460 -0.2043  0.1579 -0.5326
19357SOL    HW159512   5.087   2.564   0.529 -1.3049 -2.6801 -0.7409
19357SOL    HW259513   5.203   2.629   0.455  0.3532  0.3449  4.0057
19358SOL     OW59514   7.514   2.268   0.924  0.0557  0.2839  0.1076
19358SOL    HW159515   7.434   2.306   0.962 -0.5525 -0.2428 -0.6233
19358SOL    HW259516   7.482   2.206   0.859  1.0865  0.7725 -0.8851
19359SOL     OW59517   6.164   2.202   1.340  0.5538  0.5464 -0.2663
19359SOL    HW159518   6.074   2.169   1.337  0.4007  1.0298 -1.2827
19359SOL    HW259519   6.154   2.297   1.347  0.9872  0.6520 -1.0990
19360SOL     OW59520   5.247   3.012   1.806 -0.0861 -0.0008  0.1101
19360SOL    HW159521   5.307   3.022   1.732  1.1120  1.7719  1.2382
19360SOL    HW259522   5.163   3.045   1.773  0.7913  2.2037 -0.0889
19361SOL     OW59523   4.494   0.611   0.688  0.1750  0.2273 -0.5458
19361SOL    HW159524   4.544   0.546   0.736  1.3661  0.9497 -0.7589
19361SOL    HW259525   4.512   0.694   0.733 -1.5202  0.4012 -0.1146
19362SOL     OW59526   6.004   4.595   0.048 -0.3270  0.4760 -0.1367
19362SOL    HW159527   6.072   4.529   0.054  0.2300  1.1616  1.7645
19362SOL    HW259528   6.049   4.672   0.013 -0.2966  0.6851  0.3511
19363SOL     OW59529   7.408   2.832   0.295 -0.2309 -0.1818  0.0137
19363SOL    HW159530   7.466   2.763   0.329 -1.0812 -0.4624  0.9375
19363SOL    HW259531   7.344   2.846   0.365 -0.3964  1.1773 -0.3768
19364SOL     OW59532   5.265   2.015   4.132 -0.6290  0.2063  0.0398
19364SOL    HW159533   5.221   1.955   4.191  0.8981 -1.9887 -0.9058
19364SOL    HW259534   5.249   2.102   4.169 -2.1399 -0.8396  2.0011
19365SOL     OW59535   5.360   2.198   1.602 -0.0712  0.5378  0.0628
19365SOL    HW159536   5.286   2.258   1.610 -1.4902 -0.6195 -2.9933
19365SOL    HW259537   5.325   2.113   1.630  0.3609  0.1471 -0.5587
19366SOL     OW59538   6.978   2.408   1.452  0.8205 -0.3086 -0.4698
19366SOL    HW159539   7.045   2.340   1.447  0.1337 -1.0300 -0.0949
19366SOL    HW259540   6.945   2.402   1.541  3.0578  2.8002  0.7734
19367SOL     OW59541   7.441   0.535  12.407 -0.6442 -0.0696 -0.1635
19367SOL    HW159542   7.360   0.580  12.384  0.2892  2.3732  0.9943
19367SOL    HW259543   7.447   0.543  12.502  0.8384 -0.4220 -0.2016
19368SOL     OW59544   7.055   3.636  11.894 -0.1810  0.2409 -0.3604
19368SOL    HW159545   7.062   3.564  11.956 -0.1899  0.9849  0.5193
19368SOL    HW259546   7.139   3.636  11.847  0.1850  0.2456  0.2869
19369SOL     OW59547   7.980   3.146   0.354  0.0691 -0.6212 -0.0208
19369SOL    HW159548   8.003   3.093   0.430  1.2620 -0.3860 -0.2080
19369SOL    HW259549   7.955   3.082   0.287  2.2564 -1.0367 -0.5059
19370SOL     OW59550   2.086   2.733  12.470 -0.0848 -0.3348  0.2003
19370SOL    HW159551   2.017   2.754  12.408  0.4805 -3.6111 -1.7935
19370SOL    HW259552   2.163   2.780  12.439 -0.6794  0.9885  0.6852
19371SOL     OW59553   4.691   4.326  12.440 -0.2355  0.2267  0.0804
19371SOL    HW159554   4.719   4.301  12.528 -1.0385  0.4826  0.4221
19371SOL    HW259555   4.733   4.410  12.424  0.3225 -0.0590  0.0063
19372SOL     OW59556   6.398   1.756   0.243  0.2533  0.3639  0.0764
19372SOL    HW159557   6.395   1.831   0.302 -2.4371  2.6287 -2.5874
19372SOL    HW259558   6.467   1.779   0.180  0.5790 -0.2171  0.2226
19373SOL     OW59559   7.614   2.592   0.120 -0.2478 -0.2382 -0.1657
19373SOL    HW159560   7.681   2.548   0.068 -0.4421 -0.7426  0.0068
19373SOL    HW259561   7.654   2.602   0.206 -0.0279  0.3540 -0.3306
19374SOL     OW59562   7.597   1.564  11.634 -0.1168 -0.5135 -0.1886
19374SOL    HW159563   7.552   1.505  11.574 -1.7880 -0.3202  0.7916
19374SOL    HW259564   7.607   1.513  11.715  2.1353 -0.7889 -0.5764
19375SOL     OW59565   6.497   3.540   0.900 -0.5042  0.2087 -0.0409
19375SOL    HW159566   6.477   3.448   0.915  1.5406 -0.3365 -0.4222
19375SOL    HW259567   6.432   3.568   0.835 -1.6962 -0.6863  0.7051
19376SOL     OW59568   1.013   3.508   2.479 -0.2768 -0.0471  0.0960
19376SOL    HW159569   1.077   3.544   2.542  0.5248 -2.3385  0.6750
19376SOL    HW259570   0.929   3.517   2.523 -0.2598  1.8951 -0.1663
19377SOL     OW59571   7.514   3.223   2.616 -0.1046  0.2848  0.7370
19377SOL    HW159572   7.599   3.180   2.612  0.5466  1.5440  0.3225
19377SOL    HW259573   7.526   3.292   2.682 -0.2498  1.5475 -0.5058
19378SOL     OW59574   1.502   0.600   0.280 -0.0985  0.1682 -0.2309
19378SOL    HW159575   1.453   0.579   0.200  2.1134  1.2496 -1.9593
19378SOL    HW259576   1.446   0.567   0.351 -2.1525 -0.8359 -2.1810
19379SOL     OW59577   0.073   1.902   1.269  0.5949 -0.0067  0.3364
19379SOL    HW159578   0.079   1.810   1.244 -1.6267 -0.0112 -0.4315
19379SOL    HW259579   0.142   1.945   1.218  2.6192 -1.3637  1.7727
19380SOL     OW59580   6.775   3.396   0.524  0.2495  0.7511  0.6188
19380SOL    HW159581   6.778   3.438   0.610 -1.3421 -2.3984  2.4151
19380SOL    HW259582   6.865   3.373   0.505  0.4580 -0.3606  2.5845
19381SOL     OW59583   5.417   1.557   2.325  0.0583  0.1279  0.6316
19381SOL    HW159584   5.384   1.471   2.352  0.1541 -0.3620 -0.7299
19381SOL    HW259585   5.501   1.537   2.283  0.4164  0.9746  0.9380
19382SOL     OW59586   4.620   2.199  11.598 -0.0091 -0.3667  0.3657
19382SOL    HW159587   4.638   2.185  11.691  1.5464 -1.4445 -0.0608
19382SOL    HW259588   4.556   2.270  11.597  0.7321  0.3933  2.2049
19383SOL     OW59589   5.340   3.170   2.027 -0.0102 -0.1846 -0.5929
19383SOL    HW159590   5.306   3.131   1.947 -0.5157  0.8686 -0.9055
19383SOL    HW259591   5.424   3.209   2.002 -0.6960  1.1555 -0.9196
19384SOL     OW59592   2.233   1.888   1.788 -0.0758 -0.0092  0.0204
19384SOL    HW159593   2.324   1.918   1.800 -0.0275  0.1429 -0.7147
19384SOL    HW259594   2.181   1.968   1.791 -0.3157 -0.1852  1.5058
19385SOL     OW59595   5.939   4.213   1.539 -0.2214  0.0746  0.0334
19385SOL    HW159596   5.937   4.305   1.566  1.2074  0.5144 -1.2429
19385SOL    HW259597   5.994   4.170   1.604 -0.3818  0.2364  0.2790
19386SOL     OW59598   6.615   3.221   0.859 -0.1207  0.1112 -0.9502
19386SOL    HW159599   6.546   3.229   0.794 -0.0549  0.7114 -0.9492
19386SOL    HW259600   6.678   3.289   0.836  0.0036  0.1942 -0.3817
19387SOL     OW59601   6.110   2.762   0.197 -0.7264  0.0701 -0.0366
19387SOL    HW159602   6.138   2.846   0.234 -0.9495  0.0647  0.1491
19387SOL    HW259603   6.161   2.753   0.117  0.5496 -0.4185  0.8039
19388SOL     OW59604   6.486   2.668   1.855 -0.3558 -0.4699  0.3672
19388SOL    HW159605   6.543   2.603   1.895  1.3426  0.7432  0.0690
19388SOL    HW259606   6.468   2.633   1.768 -0.6283 -1.1911  0.7086
19389SOL     OW59607   6.836   3.825   2.104  0.0754  0.4590  0.4762
19389SOL    HW159608   6.796   3.912   2.109 -0.5602  0.1416  1.1078
19389SOL    HW259609   6.792   3.774   2.173 -0.5747 -0.7689 -0.8023
19390SOL     OW59610   6.980   2.158  11.932  0.2074 -0.5011  0.4573
19390SOL    HW159611   6.995   2.188  11.842  0.0580 -1.2489  0.1726
19390SOL    HW259612   7.068   2.150  11.969  0.2838 -0.4055  0.2988
19391SOL     OW59613   6.345   5.446   0.444  0.6623  0.6453  0.0766
19391SOL    HW159614   6.374   5.537   0.437  2.3744  0.0945 -0.5314
19391SOL    HW259615   6.394   5.411   0.520  2.2953 -0.5119 -1.4141
19392SOL     OW59616   6.495   4.419   1.191  0.3459 -0.5083  0.1417
19392SOL    HW159617   6.506   4.325   1.174 -1.4132 -1.0014  1.4874
19392SOL    HW259618   6.444   4.423   1.271 -1.6442  1.5619 -1.1239
19393SOL     OW59619   6.239   3.559   0.784  0.3342 -0.6440 -0.0962
19393SOL    HW159620   6.244   3.467   0.812  0.8746 -0.8243 -0.7366
19393SOL    HW259621   6.203   3.554   0.695  1.7027 -0.3687 -0.6970
19394SOL     OW59622   7.067   0.438   3.529 -0.0953  0.4726 -0.0926
19394SOL    HW159623   7.083   0.346   3.508  0.3883  0.3303  0.8277
19394SOL    HW259624   7.071   0.483   3.445  0.4784 -0.2326 -0.4583
19395SOL     OW59625   7.654   3.117   0.386  0.3283 -0.0091 -0.0379
19395SOL    HW159626   7.646   3.072   0.301  0.1690 -0.8695  0.4188
19395SOL    HW259627   7.748   3.115   0.405  0.2153 -1.1468  0.4881
19396SOL     OW59628   6.046   3.079   2.121  0.2889  0.2934 -0.0432
19396SOL    HW159629   6.049   3.048   2.212 -1.9773  1.3826  0.4882
19396SOL    HW259630   5.975   3.029   2.081  0.2702  0.8796 -0.7676
19397SOL     OW59631   6.560   2.720   2.525 -0.0201  0.3210 -0.1720
19397SOL    HW159632   6.636   2.762   2.485 -0.0684 -0.3970 -1.0497
19397SOL    HW259633   6.539   2.647   2.466  0.7292 -1.6423  1.8349
19398SOL     OW59634   7.809   1.074   1.133 -0.0800 -0.4391  0.0095
19398SOL    HW159635   7.893   1.071   1.086 -0.3822  0.1554 -0.5891
19398SOL    HW259636   7.758   1.002   1.096  0.5592 -1.5510  1.1915
19399SOL     OW59637   6.871   2.289   0.707  0.2950  0.1414  0.1133
19399SOL    HW159638   6.810   2.362   0.724 -1.5409 -1.2153 -0.2622
19399SOL    HW259639   6.865   2.235   0.785  2.0614  0.6117  0.6172
19400SOL     OW59640   4.931   4.182   1.464 -0.0760 -0.3421  0.3909
19400SOL    HW159641   4.958   4.191   1.372 -1.2839 -0.0517  0.0285
19400SOL    HW259642   5.008   4.150   1.510  0.5183 -0.6055 -0.7551
19401SOL     OW59643   6.306   2.227   0.570  0.3320  0.3342 -0.0941
19401SOL    HW159644   6.323   2.133   0.574  1.1117  0.4189 -0.9786
19401SOL    HW259645   6.391   2.266   0.548  0.2059  1.3299  1.0701
19402SOL     OW59646   0.223   2.795   1.692 -0.5455  0.0854  0.0668
19402SOL    HW159647   0.250   2.794   1.784  0.4601 -0.7480 -0.2238
19402SOL    HW259648   0.132   2.826   1.694 -0.0003  1.7427  1.1841
19403SOL     OW59649   6.042   1.047  10.441 -0.1662 -0.0640 -0.3798
19403SOL    HW159650   6.042   1.134  10.482 -1.6161  0.1628 -0.7990
19403SOL    HW259651   6.107   1.054  10.372 -0.3611  0.7593 -0.5043
19404SOL     OW59652   5.919   3.081  11.865 -0.0556  0.0633  0.0878
19404SOL    HW159653   5.908   3.156  11.807  0.4025  0.8644  1.0144
19404SOL    HW259654   5.944   3.009  11.807 -1.2359  0.4234 -0.9038
19405SOL     OW59655   5.285   3.312   1.369  0.3049 -0.0344  0.2208
19405SOL    HW159656   5.213   3.271   1.322  0.6489  0.0454 -0.3771
19405SOL    HW259657   5.247   3.392   1.406 -0.4847 -1.0522  1.7464
19406SOL     OW59658   7.105   2.040   3.101 -0.0073 -0.1466  0.0466
19406SOL    HW159659   7.165   2.073   3.168  1.2815  1.0281 -1.5846
19406SOL    HW259660   7.162   2.014   3.029 -1.4196  0.0653 -1.1905
19407SOL     OW59661   5.235   2.672  12.440 -0.6764 -0.2219  0.1380
19407SOL    HW159662   5.257   2.714  12.357  0.8888  1.1743  1.1810
19407SOL    HW259663   5.240   2.579  12.422  1.9540  0.0086 -0.8692
19408SOL     OW59664   5.627   3.750   1.553 -0.4574  0.2947 -0.4882
19408SOL    HW159665   5.629   3.691   1.628  0.0610 -0.2677 -0.9294
19408SOL    HW259666   5.699   3.811   1.569 -0.6894  0.5057 -0.2624
19409SOL     OW59667   6.369   1.705  11.910  0.7446 -0.1916  0.1690
19409SOL    HW159668   6.437   1.641  11.933  2.4971  2.1872  2.2011
19409SOL    HW259669   6.411   1.762  11.845  0.7912  1.2942  1.4314
19410SOL     OW59670   7.773   2.336   0.727 -0.2157  0.5507 -0.4766
19410SOL    HW159671   7.743   2.272   0.663 -0.1663 -0.8827  0.8907
19410SOL    HW259672   7.822   2.400   0.675 -0.1103 -0.6015 -1.8580
19411SOL     OW59673   5.631   4.886   0.603  0.6446 -0.2687 -0.7266
19411SOL    HW159674   5.721   4.881   0.637  0.0477 -0.1622  0.9606
19411SOL    HW259675   5.614   4.980   0.596 -0.9724  0.0432  3.8688
19412SOL     OW59676   5.820   0.818   1.536 -0.0046  0.0679 -0.0015
19412SOL    HW159677   5.750   0.882   1.523 -1.3435 -1.5183 -1.1622
19412SOL    HW259678   5.785   0.759   1.603  1.7852  1.2694  2.0927
19413SOL     OW59679   6.421   1.385   1.698  0.0486 -0.1730 -0.5241
19413SOL    HW159680   6.350   1.337   1.739 -0.4883  0.7354 -0.3761
19413SOL    HW259681   6.479   1.317   1.663  0.6087 -0.9871  1.8179
19414SOL     OW59682   0.145   4.828   1.474 -0.2301  0.6998 -0.0542
19414SOL    HW159683   0.138   4.923   1.467  0.6564  0.7915  0.2458
19414SOL    HW259684   0.067   4.801   1.523  0.1719  1.4033  0.9832
19415SOL     OW59685   0.265   3.134   1.611 -0.1394  0.1594  0.2809
19415SOL    HW159686   0.338   3.146   1.672 -0.0649 -0.6916  0.3654
19415SOL    HW259687   0.244   3.223   1.581  0.4189  0.4900  0.8474
19416SOL     OW59688   6.699   2.517  11.976 -0.6121 -0.7110  0.2282
19416SOL    HW159689   6.691   2.486  12.066  0.4054  0.6530  0.8185
19416SOL    HW259690   6.609   2.535  11.948 -0.9044 -0.7943  1.0948
19417SOL     OW59691   4.513   3.992   1.262  0.6574  0.4768 -0.3262
19417SOL    HW159692   4.583   3.989   1.197  0.1673 -0.9604 -0.8279
19417SOL    HW259693   4.544   3.936   1.333  0.1341  0.0082 -0.4564
19418SOL     OW59694   7.435   3.175   0.540  0.8001 -0.0764 -0.2597
19418SOL    HW159695   7.517   3.160   0.492  2.2661 -0.1088  2.1307
19418SOL    HW259696   7.427   3.100   0.599 -0.4405  0.4432  0.2815
19419SOL     OW59697   4.244   3.510   1.500 -0.5921  0.4769 -0.3731
19419SOL    HW159698   4.209   3.422   1.511  1.2583 -0.3305 -0.4773
19419SOL    HW259699   4.268   3.538   1.588  1.0882 -0.1631 -0.5946
19420SOL     OW59700   5.686   2.762   1.531 -0.2658  0.6534 -0.2755
19420SOL    HW159701   5.725   2.847   1.553 -1.0258  0.9917 -0.2143
19420SOL    HW259702   5.704   2.707   1.608  0.2816  0.7328 -0.3401
19421SOL     OW59703   6.601   2.763   0.166 -0.0507  0.1170  0.4503
19421SOL    HW159704   6.638   2.796   0.084  1.8453 -0.8165  0.8673
19421SOL    HW259705   6.606   2.837   0.226 -1.1435  0.7065 -0.1534
19422SOL     OW59706   7.029   3.227   0.524  0.0097 -0.2025  0.2995
19422SOL    HW159707   7.102   3.288   0.526  0.1704 -0.2734 -1.6249
19422SOL    HW259708   7.049   3.163   0.592  0.8085  0.7819  1.0139
19423SOL     OW59709   7.522   2.972   0.726  0.3949  0.2418  0.0689
19423SOL    HW159710   7.534   2.884   0.691  0.7111  0.9283 -1.6250
19423SOL    HW259711   7.466   2.960   0.803 -2.5508 -1.0606 -2.1086
19424SOL     OW59712   6.466   4.797   1.468  0.5251  0.0408 -0.2808
19424SOL    HW159713   6.480   4.760   1.381  0.7633 -4.2377  1.3175
19424SOL    HW259714   6.534   4.755   1.522  0.5194  2.6847  1.9815
19425SOL     OW59715   7.163   3.386   1.833 -0.5650 -0.3468  0.3388
19425SOL    HW159716   7.078   3.353   1.802 -0.7259 -1.3126  1.7165
19425SOL    HW259717   7.204   3.310   1.875  0.9473  0.1408 -0.1935
19426SOL     OW59718   5.800   4.200   1.317 -0.3291 -0.5961  0.3070
19426SOL    HW159719   5.853   4.209   1.396  0.1880 -1.6222  0.0897
19426SOL    HW259720   5.763   4.287   1.303 -1.0357 -0.5745  2.0982
19427SOL     OW59721   7.630   1.071   0.406 -0.4916 -0.2750 -0.9117
19427SOL    HW159722   7.591   1.155   0.381 -1.3656 -0.1373  0.7459
19427SOL    HW259723   7.554   1.016   0.426  0.0977 -0.1982  1.8158
19428SOL     OW59724   6.534   3.695   1.572 -0.2818  0.6345 -0.2149
19428SOL    HW159725   6.574   3.701   1.659  2.0383 -2.1469 -0.9342
19428SOL    HW259726   6.595   3.739   1.514 -1.1112  1.2290 -0.6624
19429SOL     OW59727   7.059   3.080   0.746 -0.3951  0.7177 -0.1254
19429SOL    HW159728   7.141   3.117   0.779  0.0751  0.1083 -0.5689
19429SOL    HW259729   6.996   3.093   0.817 -0.2359  2.2644 -0.2373
19430SOL     OW59730   7.883   2.151  11.896  0.3836 -0.1729  0.2925
19430SOL    HW159731   7.877   2.086  11.826 -0.0715  0.3324 -0.1426
19430SOL    HW259732   7.793   2.165  11.924  0.3840  0.8595 -0.1694
19431SOL     OW59733   6.787   6.871   0.400 -0.2576 -0.4873  0.6519
19431SOL    HW159734   6.856   6.848   0.338 -0.3015 -0.4367  0.5841
19431SOL    HW259735   6.791   6.967   0.407  0.3125 -0.5615  1.3830
19432SOL     OW59736   6.046   3.074   0.028  0.2800  0.3557  0.4675
19432SOL    HW159737   6.073   3.144   0.087 -0.6774  2.5883 -1.5667
19432SOL    HW259738   6.120   3.061  -0.031 -0.6449  2.0823 -1.2005
19433SOL     OW59739   6.673   3.707  12.420 -0.2018 -0.0569 -0.2354
19433SOL    HW159740   6.715   3.664  12.345  2.1855  0.6544  0.6154
19433SOL    HW259741   6.641   3.635  12.475  1.5765 -0.7200 -0.0139
19434SOL     OW59742   6.387   5.060   0.848 -0.3596 -0.5040 -0.0391
19434SOL    HW159743   6.446   4.987   0.863  1.1544  0.8076  0.6319
19434SOL    HW259744   6.360   5.087   0.936 -1.8220 -0.9243 -0.3185
19435SOL     OW59745   7.874   2.007   0.322  0.0989  0.1056 -0.1613
19435SOL    HW159746   7.925   2.013   0.402 -0.5330  0.5498  0.2240
19435SOL    HW259747   7.897   2.086   0.273  0.4086 -0.1147 -0.3713
19436SOL     OW59748   0.339   3.672  12.327 -0.1024 -0.3751 -0.0430
19436SOL    HW159749   0.268   3.699  12.267  1.1637  2.2743 -0.4837
19436SOL    HW259750   0.419   3.696  12.281  0.9578  0.6773  2.2208
19437SOL     OW59751   5.750   4.468   1.255  0.3140 -0.2463 -0.1246
19437SOL    HW159752   5.708   4.525   1.320  0.6046  1.0759 -1.0403
19437SOL    HW259753   5.682   4.452   1.190  1.1631  2.0617 -1.7132
19438SOL     OW59754   5.660   2.073   0.114 -0.0226 -0.0999  0.2673
19438SOL    HW159755   5.579   2.092   0.161  1.5071  2.6811  2.0705
19438SOL    HW259756   5.713   2.023   0.176  1.1232  1.5831  0.7049
19439SOL     OW59757   7.360   3.799   1.292 -0.8598  0.3783  0.1628
19439SOL    HW159758   7.413   3.875   1.317 -0.9341  0.9057 -1.1704
19439SOL    HW259759   7.414   3.723   1.313  0.1575  0.8894 -0.5404
19440SOL     OW59760   5.868   5.585   1.656 -0.1311  0.1020  0.1251
19440SOL    HW159761   5.842   5.581   1.564  0.0858  1.3887 -0.0056
19440SOL    HW259762   5.913   5.502   1.672  1.7625  0.7534 -1.5313
19441SOL     OW59763   6.668   5.273   1.222  0.2925 -0.1835  0.0888
19441SOL    HW159764   6.728   5.308   1.288 -0.2104 -0.5707  0.7655
19441SOL    HW259765   6.617   5.207   1.269 -1.6979  1.1811 -0.0419
19442SOL     OW59766   7.136   0.370  11.711 -0.4078  0.6739 -0.3796
19442SOL    HW159767   7.154   0.390  11.620  2.7712  0.5521  0.1080
19442SOL    HW259768   7.120   0.455  11.752  0.8674  1.0338 -0.5861
19443SOL     OW59769   6.003   2.154   1.753 -0.1645  0.1455  0.2753
19443SOL    HW159770   6.088   2.151   1.709  0.4501  1.0948  1.3352
19443SOL    HW259771   5.959   2.074   1.726  0.5242  0.2643 -1.3526
19444SOL     OW59772   5.734   3.830  12.096  0.2515 -0.3392 -0.1426
19444SOL    HW159773   5.766   3.800  12.181  1.8126  0.4721 -0.3988
19444SOL    HW259774   5.793   3.902  12.072 -0.8342  0.1781 -1.4131
19445SOL     OW59775   7.509   4.293   3.320  0.1772 -0.1578  0.5454
19445SOL    HW159776   7.462   4.332   3.394 -0.7121 -1.3467  0.6451
19445SOL    HW259777   7.519   4.364   3.258  0.7991  0.8279  1.7345
19446SOL     OW59778   7.335   3.329   1.143 -0.3314  0.4306  0.1217
19446SOL    HW159779   7.307   3.286   1.062  2.5246 -0.7281 -0.3417
19446SOL    HW259780   7.336   3.422   1.121  0.8241  0.1080 -1.3784
19447SOL     OW59781   7.505   4.386   0.100 -0.3452  0.1557  0.1734
19447SOL    HW159782   7.459   4.328   0.161  0.6296  0.1724  0.9549
19447SOL    HW259783   7.569   4.329   0.057  1.2592  0.7706  1.6178
19448SOL     OW59784   5.363   3.713   1.478  0.3096  0.1515  0.1650
19448SOL    HW159785   5.456   3.736   1.483  0.4108 -0.1244 -0.3819
19448SOL    HW259786   5.321   3.790   1.440  0.6240 -0.4508 -1.5116
19449SOL     OW59787   7.749   3.415   1.033 -0.4069 -0.0554 -0.4178
19449SOL    HW159788   7.764   3.390   1.125 -2.2372 -0.1914 -0.1112
19449SOL    HW259789   7.678   3.479   1.037  0.1368  0.6679 -1.6907
19450SOL     OW59790   7.904   4.091   0.257  0.5497 -0.1474 -0.0689
19450SOL    HW159791   7.843   4.160   0.234 -0.8681 -1.4947 -0.5144
19450SOL    HW259792   7.958   4.129   0.326 -1.4774  0.7691  1.1006
19451SOL     OW59793   5.920   3.531   0.044 -0.2082 -0.4414  0.2550
19451SOL    HW159794   5.866   3.454   0.056  1.2401 -1.3016  1.7935
19451SOL    HW259795   5.859   3.600   0.018 -1.7897 -1.6973  0.4895
19452SOL     OW59796   5.435   4.496   1.132  0.0403 -0.1549 -0.1776
19452SOL    HW159797   5.416   4.480   1.040  1.2340 -0.7000 -0.3489
19452SOL    HW259798   5.418   4.411   1.174  0.3083 -0.1422 -0.0425
19453SOL     OW59799   7.819   2.580   2.340 -0.0617 -0.3567  0.7972
19453SOL    HW159800   7.805   2.487   2.327 -0.6708 -0.4255  1.8217
19453SOL    HW259801   7.901   2.586   2.389  1.1635 -0.2065 -1.1650
19454SOL     OW59802   5.614   3.056   0.159  0.2032  0.2213 -0.3898
19454SOL    HW159803   5.615   3.000   0.081  0.8382 -0.4991  0.1260
19454SOL    HW259804   5.631   2.997   0.232  0.3199  0.9956  0.2301
19455SOL     OW59805   4.755   4.455   2.051 -0.3923  0.1086  0.3762
19455SOL    HW159806   4.776   4.500   1.970  0.7325 -0.6150  0.2539
19455SOL    HW259807   4.667   4.486   2.073 -0.5907  0.5496 -0.9456
19456SOL     OW59808   6.221   3.609   1.707  0.1193 -0.2174 -0.3590
19456SOL    HW159809   6.307   3.647   1.687  0.3190 -0.3814  0.1750
19456SOL    HW259810   6.226   3.586   1.800 -1.1380  1.4128  0.1488
19457SOL     OW59811   7.759   3.265   2.113  0.1695 -0.1572 -0.2060
19457SOL    HW159812   7.810   3.258   2.193  0.1290 -3.0172 -0.3348
19457SOL    HW259813   7.820   3.298   2.048  0.4041  1.4511  0.7664
19458SOL     OW59814   5.327   1.992   0.633 -0.3032  0.1945  0.1862
19458SOL    HW159815   5.381   2.053   0.682  1.0222 -0.3777 -0.4852
19458SOL    HW259816   5.270   2.047   0.580  1.9056  0.9740 -1.5555
19459SOL     OW59817   6.452   2.701  11.209  0.4834  0.4302 -0.3224
19459SOL    HW159818   6.544   2.675  11.217  0.7499  0.6919 -2.0807
19459SOL    HW259819   6.413   2.633  11.155  0.2844  1.6254 -1.7415
19460SOL     OW59820   7.695   4.712   2.909 -0.7760  0.3929 -0.8324
19460SOL    HW159821   7.725   4.626   2.880 -1.0634  0.9549 -2.9764
19460SOL    HW259822   7.762   4.773   2.878 -0.0902  0.9179  1.4729
19461SOL     OW59823   7.838   3.308   0.073  0.6839  0.1071  0.4300
19461SOL    HW159824   7.854   3.218   0.045 -0.4982 -0.5246  1.6717
19461SOL    HW259825   7.750   3.328   0.040  0.3576  0.2820  1.3810
19462SOL     OW59826   6.344   3.279   2.899  0.2292 -0.4154 -0.1960
19462SOL    HW159827   6.319   3.279   2.991  0.7847  2.2462  0.0470
19462SOL    HW259828   6.265   3.252   2.852 -0.9124  0.7909  0.9366
19463SOL     OW59829   1.695   3.400   1.773  0.5430  0.0986 -0.1505
19463SOL    HW159830   1.769   3.356   1.816  1.8393  1.2773 -1.0487
19463SOL    HW259831   1.667   3.467   1.835  2.1826  1.5691 -0.9143
19464SOL     OW59832   7.059   5.229   1.526 -0.2961  0.3918 -0.3901
19464SOL    HW159833   7.031   5.150   1.480  2.0145 -0.7195 -0.0257
19464SOL    HW259834   7.051   5.206   1.619 -1.5228  1.3444 -0.2328
19465SOL     OW59835   7.737   3.450  11.982 -1.0736  0.2617 -0.1843
19465SOL    HW159836   7.729   3.397  12.061 -1.5561 -0.2589 -0.5754
19465SOL    HW259837   7.817   3.419  11.940 -1.4993 -0.3500 -0.5515
19466SOL     OW59838   7.413   0.745  11.515  0.3508  0.3086  0.0557
19466SOL    HW159839   7.438   0.770  11.604 -0.6396  2.0497 -0.1083
19466SOL    HW259840   7.494   0.756  11.464  0.3154  1.8549  0.2846
19467SOL     OW59841   7.359   1.445   1.910 -0.3080 -0.7183  0.4239
19467SOL    HW159842   7.435   1.389   1.922  1.1636  1.1842  0.5355
19467SOL    HW259843   7.325   1.459   1.998  1.1231  0.8747  0.7649
19468SOL     OW59844   6.659   2.126   1.610  0.1373 -0.2123  0.0251
19468SOL    HW159845   6.591   2.137   1.677  0.4514  1.1256  0.1350
19468SOL    HW259846   6.665   2.031   1.599  0.4277 -0.4974  2.2419
19469SOL     OW59847   6.974   2.338   0.448 -0.4608 -0.2531 -0.2765
19469SOL    HW159848   6.950   2.316   0.538  0.7736  1.1522  0.4489
19469SOL    HW259849   7.060   2.297   0.436 -0.2274  0.2923 -0.5005
19470SOL     OW59850   5.836   4.702   0.951 -0.0876 -0.1188 -0.1403
19470SOL    HW159851   5.816   4.657   0.869 -0.6265  1.8561 -1.1814
19470SOL    HW259852   5.751   4.717   0.992 -0.0896  1.2600 -0.5913
19471SOL     OW59853   7.178   3.128  12.426  0.3053  0.1627  0.6623
19471SOL    HW159854   7.094   3.143  12.470  0.3223 -0.3755  0.8832
19471SOL    HW259855   7.212   3.048  12.466  1.1132  0.5974  0.8527
19472SOL     OW59856   7.264   3.370   0.443 -0.2265 -0.2403  0.4432
19472SOL    HW159857   7.313   3.312   0.501 -0.1206 -0.3846  0.2071
19472SOL    HW259858   7.321   3.384   0.368 -0.9242 -1.1945 -0.2973
19473SOL     OW59859   6.791   3.500   1.184 -0.4272 -0.2171  0.3807
19473SOL    HW159860   6.698   3.479   1.189 -0.1973 -1.8290 -1.1672
19473SOL    HW259861   6.830   3.452   1.257 -0.5250 -1.6278 -0.4466
19474SOL     OW59862   0.628   3.311   0.273 -0.1936  0.7134  0.0967
19474SOL    HW159863   0.646   3.341   0.362  3.5498  1.7018 -0.8485
19474SOL    HW259864   0.547   3.358   0.249 -0.9383  0.9211  2.6836
19475SOL     OW59865   4.201   5.355   3.832 -0.9271 -0.7220 -0.3512
19475SOL    HW159866   4.161   5.323   3.751 -1.1948 -0.1087 -0.4669
19475SOL    HW259867   4.283   5.307   3.838 -0.4189 -0.0449 -1.5201
19476SOL     OW59868   7.761   4.449   0.928  0.1510  0.7027 -0.7443
19476SOL    HW159869   7.808   4.422   1.007 -0.1715 -1.4788 -1.2343
19476SOL    HW259870   7.789   4.386   0.861 -2.1403  0.3581 -1.4739
19477SOL     OW59871   7.816   4.365   0.654 -0.4760  0.1798 -0.3577
19477SOL    HW159872   7.904   4.403   0.651 -1.2705  2.1436 -0.1250
19477SOL    HW259873   7.819   4.293   0.591  1.2892  0.1840 -0.3393
19478SOL     OW59874   0.018   1.005   0.476 -0.2234  0.7129  0.3856
19478SOL    HW159875   0.088   1.012   0.411 -0.7931 -0.0473 -0.3407
19478SOL    HW259876   0.063   1.003   0.560  0.5972  0.6555 -0.0488
19479SOL     OW59877   4.719   2.664  10.664 -0.2394 -1.0243  0.3895
19479SOL    HW159878   4.637   2.705  10.691 -1.0520 -2.6673  0.5486
19479SOL    HW259879   4.692   2.590  10.610  1.2597  0.1133 -2.0988
19480SOL     OW59880   7.339   4.748   0.880 -0.6205  0.3301  0.3654
19480SOL    HW159881   7.335   4.656   0.907 -0.4345  0.7411  1.9253
19480SOL    HW259882   7.379   4.792   0.954 -0.5862  1.6610 -0.4185
19481SOL     OW59883   6.109   4.212   0.935  0.0080 -0.0911 -0.1853
19481SOL    HW159884   6.064   4.268   0.999 -0.0476 -0.4015  0.0535
19481SOL    HW259885   6.175   4.166   0.987  1.2849  1.0937 -0.7126
19482SOL     OW59886   5.835   1.679  12.062  0.7780 -0.4142 -0.0282
19482SOL    HW159887   5.824   1.624  11.985  2.1407  0.0834 -0.6170
19482SOL    HW259888   5.891   1.751  12.033 -0.0403  0.6906  1.0114
19483SOL     OW59889   0.030   1.650   1.170 -0.2231 -0.0243 -0.1243
19483SOL    HW159890  -0.032   1.699   1.117  1.0357 -1.1096 -2.7979
19483SOL    HW259891  -0.017   1.571   1.196 -0.5386  0.0073 -0.5879
19484SOL     OW59892   5.933   1.312   1.767 -0.1884 -0.4386  0.3588
19484SOL    HW159893   5.886   1.382   1.812 -0.1802 -0.0262 -0.2544
19484SOL    HW259894   6.024   1.342   1.763 -0.1095 -0.6646  0.4412
19485SOL     OW59895   6.769   4.158   1.023 -0.0793  0.2736 -0.1634
19485SOL    HW159896   6.747   4.193   0.936 -2.1100 -0.6988 -0.0949
19485SOL    HW259897   6.808   4.072   1.005 -0.1316  0.2430 -0.1310
19486SOL     OW59898   7.764   2.693   1.771  0.0317 -0.0334  0.1193
19486SOL    HW159899   7.771   2.699   1.866  1.6176 -0.2478  0.0457
19486SOL    HW259900   7.817   2.616   1.748 -0.9829 -0.4694 -0.8852
19487SOL     OW59901   5.944   1.224   1.252 -0.2757 -0.4636 -0.0831
19487SOL    HW159902   5.863   1.172   1.256 -1.4239  1.2038 -0.4413
19487SOL    HW259903   5.969   1.237   1.343 -0.1536 -1.3682  0.0165
19488SOL     OW59904   5.746   2.446   1.423 -0.0740  0.0073 -0.7934
19488SOL    HW159905   5.685   2.509   1.461 -1.0980 -2.7623  2.6501
19488SOL    HW259906   5.701   2.362   1.429  2.1845 -1.4957 -2.8704
19489SOL     OW59907   7.988   2.011   1.531 -0.0665  0.2531 -0.2703
19489SOL    HW159908   8.010   1.987   1.440  1.0275 -1.2945  0.3428
19489SOL    HW259909   8.055   2.075   1.555  1.4876 -1.4977  0.3170
19490SOL     OW59910   5.272   3.113  10.908  0.2394  0.8195  0.2489
19490SOL    HW159911   5.336   3.163  10.859 -0.3268 -0.2686 -1.7055
19490SOL    HW259912   5.207   3.086  10.843  1.0179 -3.2948  0.8830
19491SOL     OW59913   0.463   3.324  10.571  0.1773  0.0235  0.4366
19491SOL    HW159914   0.413   3.406  10.570 -1.3562 -0.8666  0.0425
19491SOL    HW259915   0.524   3.334  10.644 -0.5200  1.2004  0.8946
19492SOL     OW59916   7.961   2.458   1.672 -0.1333 -0.1477  0.8743
19492SOL    HW159917   7.923   2.445   1.585 -0.4107  3.6488  0.2643
19492SOL    HW259918   8.053   2.478   1.656  0.4540 -1.9358  1.7459
19493SOL     OW59919   6.428   2.511   1.237 -0.2238 -0.0032 -0.0287
19493SOL    HW159920   6.412   2.436   1.294  2.0928  0.1075  0.8666
19493SOL    HW259921   6.425   2.587   1.295  1.1931  0.2066 -0.1963
19494SOL     OW59922   5.572   5.509   3.591  0.1756 -0.0291  0.0236
19494SOL    HW159923   5.481   5.487   3.613  0.4922  0.8398  2.6059
19494SOL    HW259924   5.566   5.597   3.554 -0.1777 -0.7078 -1.6063
19495SOL     OW59925   6.761   3.284   2.455 -0.6363 -0.2426  0.2769
19495SOL    HW159926   6.709   3.306   2.378  0.7156  1.5634 -0.1942
19495SOL    HW259927   6.849   3.267   2.421 -0.0802  0.2973  1.3803
19496SOL     OW59928   7.748   4.941   2.360 -0.1262  0.5466 -0.2077
19496SOL    HW159929   7.811   4.914   2.293 -0.8285  0.6227 -0.9190
19496SOL    HW259930   7.693   5.006   2.316 -1.1510 -0.0468  0.1653
19497SOL     OW59931   7.229   4.150   0.563  0.2058  0.3949  0.3626
19497SOL    HW159932   7.206   4.081   0.501 -1.3587 -0.1513  1.5002
19497SOL    HW259933   7.178   4.226   0.535  0.5471  0.5636  0.1861
19498SOL     OW59934   6.768   1.049   1.628 -0.2619  0.4011 -0.3204
19498SOL    HW159935   6.841   1.030   1.569 -0.4731  0.0487 -0.4744
19498SOL    HW259936   6.776   0.984   1.697 -0.6153  0.1475 -0.5098
19499SOL     OW59937   6.746   3.084   2.117  0.0652 -0.5356  0.4039
19499SOL    HW159938   6.727   3.177   2.125  0.2949 -0.2663 -1.7203
19499SOL    HW259939   6.832   3.073   2.158 -0.0178  0.1519  0.7672
19500SOL     OW59940   5.115   3.257   3.093 -0.0380  0.1331  0.7735
19500SOL    HW159941   5.103   3.247   3.187 -1.2696  1.5367  0.7932
19500SOL    HW259942   5.055   3.326   3.068 -0.4503 -0.8709 -1.2323
19501SOL     OW59943   6.585   4.165   2.466 -0.7763 -0.0472 -0.2611
19501SOL    HW159944   6.566   4.220   2.391 -0.8883  0.0786 -0.1417
19501SOL    HW259945   6.579   4.075   2.433  1.2780  0.0043 -0.9310
19502SOL     OW59946   4.847   2.976   2.022 -0.4417  0.4920 -0.0418
19502SOL    HW159947   4.929   3.015   2.052 -0.9719 -0.8113  3.5356
19502SOL    HW259948   4.779   3.023   2.069 -1.4203 -1.2294  0.3504
19503SOL     OW59949   6.437   4.603   5.099  0.2620  0.2047 -0.1940
19503SOL    HW159950   6.435   4.563   5.186  1.6635  0.9436  0.2046
19503SOL    HW259951   6.347   4.595   5.067 -0.9050  2.0841  2.2982
19504SOL     OW59952   7.980   5.040   5.632 -0.1268  0.1183 -0.0708
19504SOL    HW159953   8.022   5.071   5.552 -2.1133 -0.7412 -1.5265
19504SOL    HW259954   8.016   4.953   5.647  1.8858  1.1223  1.2910
19505SOL     OW59955   5.026   1.320   2.150  0.0268  0.0002  0.0523
19505SOL    HW159956   5.042   1.253   2.083  1.2703 -0.3927  0.7072
19505SOL    HW259957   4.966   1.278   2.211  0.0819 -0.1987 -0.0280
19506SOL     OW59958   7.798   2.064   2.217 -0.5391 -0.4991  0.2221
19506SOL    HW159959   7.883   2.047   2.176  1.1866  0.2994  3.1713
19506SOL    HW259960   7.768   2.146   2.179 -0.3646 -1.1329 -1.3406
19507SOL     OW59961   5.794   3.866   0.750 -0.4783 -0.2945 -0.2869
19507SOL    HW159962   5.707   3.855   0.789  0.1866 -1.2104  1.0150
19507SOL    HW259963   5.826   3.949   0.785 -1.3929  0.8109 -1.9578
19508SOL     OW59964   6.717   1.911   2.832  0.8903 -0.8122 -0.6820
19508SOL    HW159965   6.792   1.957   2.869  0.3697 -1.0097  0.6587
19508SOL    HW259966   6.734   1.819   2.848  0.2086 -0.8364 -0.0583
19509SOL     OW59967   7.609   2.340   1.916 -0.1938  0.2772  0.5092
19509SOL    HW159968   7.675   2.295   1.864  1.5024  0.7397  2.1264
19509SOL    HW259969   7.541   2.274   1.930  0.0239 -0.3036 -0.9755
19510SOL     OW59970   5.287   3.589   3.017 -0.0399 -0.1578 -0.8100
19510SOL    HW159971   5.257   3.640   3.092 -0.8760  1.4194 -2.1523
19510SOL    HW259972   5.210   3.540   2.989  0.8883 -2.7503  0.8127
19511SOL     OW59973   5.944   4.235   3.520 -0.0859 -0.0411 -0.5933
19511SOL    HW159974   5.942   4.304   3.455 -0.0077  0.5263  0.0012
19511SOL    HW259975   5.852   4.208   3.529 -0.2580  0.7044 -0.0697
19512SOL     OW59976   4.769   2.748   1.573 -0.2973 -0.1871  0.1263
19512SOL    HW159977   4.823   2.784   1.644  0.0391  0.4529 -0.4363
19512SOL    HW259978   4.753   2.658   1.598 -1.3451  0.4112  1.6906
19513SOL     OW59979   7.100   1.914   2.565  0.7887 -0.1840  0.1715
19513SOL    HW159980   7.180   1.964   2.549  0.1266  0.6050 -0.7954
19513SOL    HW259981   7.129   1.823   2.572  1.9054  0.2165  1.0413
19514SOL     OW59982   6.316   2.329   2.054 -0.4427 -0.1515 -0.8092
19514SOL    HW159983   6.245   2.368   2.105 -0.3454 -1.5751  0.5008
19514SOL    HW259984   6.317   2.237   2.081  2.6887  0.0453  0.1870
19515SOL     OW59985   7.727   4.649   3.505 -0.1147  0.0184 -0.1445
19515SOL    HW159986   7.753   4.576   3.449 -2.2912  0.7060 -2.2460
19515SOL    HW259987   7.671   4.609   3.572 -0.5598 -0.3583 -0.7363
19516SOL     OW59988   5.933   5.084   1.158  0.3916 -0.0858  0.2298
19516SOL    HW159989   5.930   5.125   1.072  1.9825 -0.5382 -0.0866
19516SOL    HW259990   5.850   5.037   1.166 -0.8845  2.0346  0.0503
19517SOL     OW59991   7.263   2.521   0.457  0.0044 -0.1766 -0.2920
19517SOL    HW159992   7.302   2.523   0.544  0.8787 -0.4583 -0.6690
19517SOL    HW259993   7.246   2.428   0.440 -0.4662 -0.0936 -0.2978
19518SOL     OW59994   5.519   2.052   4.089  0.0177  0.2157 -0.0080
19518SOL    HW159995   5.430   2.019   4.103 -0.3923 -0.2099 -2.9692
19518SOL    HW259996   5.507   2.147   4.079 -0.2712  0.0740 -1.1870
19519SOL     OW59997   5.608   2.051   1.688 -0.2113  0.5414  0.1726
19519SOL    HW159998   5.661   2.035   1.765  1.1861  1.1612 -0.6346
19519SOL    HW259999   5.522   2.015   1.711  0.6947 -1.0606  1.2807
19520SOL     OW60000   7.309   2.858   2.858 -0.0997 -0.7804 -0.2192
19520SOL    HW160001   7.281   2.870   2.767  0.6523 -0.0314 -0.3651
19520SOL    HW260002   7.254   2.917   2.908  1.3376  0.9329 -0.5428
19521SOL     OW60003   6.029   3.161   4.044 -0.4810 -0.3366  0.3627
19521SOL    HW160004   6.012   3.070   4.068 -2.5531 -0.0066  0.3662
19521SOL    HW260005   5.966   3.179   3.973 -0.4703  1.2248  0.7186
19522SOL     OW60006   7.221   4.094   2.044 -0.4607 -0.3971  0.1601
19522SOL    HW160007   7.288   4.146   2.000 -0.4217 -1.3813 -1.0003
19522SOL    HW260008   7.250   4.003   2.033 -2.0179 -0.8524 -0.4612
19523SOL     OW60009   0.492   2.658   2.886 -0.3370  0.8250 -0.4758
19523SOL    HW160010   0.419   2.717   2.904 -0.6228  0.3887 -0.1905
19523SOL    HW260011   0.533   2.643   2.971  0.2268  1.2413 -0.6648
19524SOL     OW60012   0.791   3.516   2.663  0.5466  0.2255  0.1395
19524SOL    HW160013   0.842   3.478   2.734 -0.8347 -1.5469  0.2607
19524SOL    HW260014   0.700   3.498   2.688  0.0337 -0.5263 -2.1017
19525SOL     OW60015   5.226   2.036   4.435  0.3295 -0.3663 -0.0020
19525SOL    HW160016   5.256   2.126   4.423  1.9054 -0.5658  1.9490
19525SOL    HW260017   5.174   2.038   4.515 -0.1520 -1.0901 -0.2873
19526SOL     OW60018   6.134   4.109   2.558 -0.1219  0.1960 -0.4118
19526SOL    HW160019   6.062   4.111   2.621  0.4614 -0.8249  0.3238
19526SOL    HW260020   6.152   4.201   2.538  0.3569  0.6023  1.7235
19527SOL     OW60021   5.920   3.986   3.375 -0.1898  0.0801 -0.1287
19527SOL    HW160022   5.862   3.931   3.428  0.7607  0.3757  1.2569
19527SOL    HW260023   5.907   4.075   3.408  1.4882  0.0733  0.6642
19528SOL     OW60024   6.055   2.462   1.372 -0.0952  0.2612 -0.1204
19528SOL    HW160025   6.074   2.487   1.462 -0.9732  1.5909 -0.2783
19528SOL    HW260026   5.959   2.467   1.366 -0.0212  0.4894 -1.2106
19529SOL     OW60027   6.998   3.792   0.721 -0.0739  0.7037 -0.5294
19529SOL    HW160028   7.046   3.816   0.642  0.0823 -0.2182 -0.7230
19529SOL    HW260029   7.027   3.703   0.741 -1.5058  0.2064 -0.5263
19530SOL     OW60030   7.285   3.175   0.872  0.2090  0.7934 -0.2354
19530SOL    HW160031   7.349   3.202   0.807  1.4557  1.3682  1.1667
19530SOL    HW260032   7.333   3.113   0.927 -1.0392 -0.2505 -0.2832
19531SOL     OW60033   6.612   1.458   2.451 -0.3928  0.1439  0.0913
19531SOL    HW160034   6.666   1.513   2.394 -1.5867  0.3259 -0.9150
19531SOL    HW260035   6.671   1.429   2.520  0.8175  0.8498 -0.6180
19532SOL     OW60036   4.605   1.529   4.062 -0.1618 -0.2885 -0.3565
19532SOL    HW160037   4.534   1.510   4.001 -1.6877 -3.3921  2.0935
19532SOL    HW260038   4.666   1.456   4.052  0.5948  0.2228  0.4005
19533SOL     OW60039   7.078   3.800   2.211  0.2277  0.4572  0.3825
19533SOL    HW160040   7.008   3.798   2.145  0.8568 -1.2968 -0.2891
19533SOL    HW260041   7.052   3.870   2.270 -0.8934  1.4152 -1.1541
19534SOL     OW60042   0.012   2.967   5.317 -0.2167 -0.0392  0.3131
19534SOL    HW160043  -0.009   3.027   5.246  1.6539  1.6623  1.0959
19534SOL    HW260044  -0.050   2.991   5.387 -1.9173 -1.5752 -0.5884
19535SOL     OW60045   6.012   2.462   3.412  0.6157 -0.0121 -0.1784
19535SOL    HW160046   5.978   2.460   3.501  2.6038  0.5049  0.6627
19535SOL    HW260047   5.939   2.492   3.358 -0.2546  0.9578  1.4772
19536SOL     OW60048   5.445   3.043   2.300  0.1619 -0.2080 -0.1856
19536SOL    HW160049   5.472   3.132   2.320  1.2374 -0.5505 -0.0791
19536SOL    HW260050   5.417   3.046   2.209  2.1030 -0.1679 -0.8165
19537SOL     OW60051   3.484   2.265   4.732  0.0686 -0.3541  0.2920
19537SOL    HW160052   3.416   2.263   4.799  0.4583 -0.6714  0.6798
19537SOL    HW260053   3.534   2.344   4.750 -1.4324  1.0265 -1.2412
19538SOL     OW60054   5.743   2.067   1.925  0.1976  0.2233 -0.5999
19538SOL    HW160055   5.831   2.103   1.913  0.0558  0.3411 -1.3321
19538SOL    HW260056   5.716   2.098   2.011  1.5557 -1.2581  0.4245
19539SOL     OW60057   0.105   2.749   3.040 -0.2145 -0.0088 -0.2692
19539SOL    HW160058   0.142   2.663   3.023  0.1584 -0.4036  2.1236
19539SOL    HW260059   0.178   2.809   3.031 -0.0639 -0.1829 -0.2089
19540SOL     OW60060   6.322   2.962   3.002 -0.5267 -0.5316  0.0604
19540SOL    HW160061   6.389   2.987   2.938  0.8749 -0.2690  1.5604
19540SOL    HW260062   6.239   2.976   2.956  0.2589  3.1299 -0.5472
19541SOL     OW60063   5.110   2.208   2.625  0.1837  0.3829 -0.1470
19541SOL    HW160064   5.127   2.132   2.570 -0.7862  0.0587 -0.0091
19541SOL    HW260065   5.159   2.279   2.584 -0.2381  0.0656 -1.2174
19542SOL     OW60066   6.495   4.629   2.852  0.5654  0.2169 -0.1255
19542SOL    HW160067   6.524   4.700   2.794 -0.4643  1.4778  0.8586
19542SOL    HW260068   6.402   4.618   2.833  0.5336 -0.3197  0.3079
19543SOL     OW60069   5.630   3.346   4.087  1.1769  0.1293 -0.1927
19543SOL    HW160070   5.707   3.393   4.054  2.2444 -1.1842  0.3328
19543SOL    HW260071   5.665   3.264   4.122  0.0928  1.0161  3.4780
19544SOL     OW60072   7.579   2.931   1.738 -0.0453  0.9742  0.4378
19544SOL    HW160073   7.591   2.986   1.816 -0.8181  0.6627  0.7837
19544SOL    HW260074   7.614   2.845   1.764  1.8180  1.4439 -0.3334
19545SOL     OW60075   7.050   3.595   2.736  0.3432 -0.4086 -0.6138
19545SOL    HW160076   7.004   3.606   2.653  2.4208  0.4593 -1.7080
19545SOL    HW260077   7.056   3.683   2.772  0.6935 -0.5882 -0.2202
19546SOL     OW60078   5.636   4.714   2.935 -0.4558  0.0460  0.2240
19546SOL    HW160079   5.698   4.787   2.943  1.4355 -1.4267 -0.4019
19546SOL    HW260080   5.675   4.644   2.987 -0.9080 -1.3657 -1.2788
19547SOL     OW60081   7.219   2.741   2.318  0.4973  0.3176 -0.0736
19547SOL    HW160082   7.294   2.751   2.259  0.2571  0.5611 -0.3386
19547SOL    HW260083   7.144   2.730   2.260  0.5079 -1.4586  0.1881
19548SOL     OW60084   7.963   4.610   4.705  0.0261  0.1467 -0.9318
19548SOL    HW160085   7.885   4.588   4.756 -0.5067  1.6099 -1.0827
19548SOL    HW260086   8.023   4.536   4.720 -0.9057 -0.4169  0.1564
19549SOL     OW60087   7.230   4.120   3.336  0.0799 -0.4845 -0.1092
19549SOL    HW160088   7.162   4.053   3.340 -0.5606 -0.0757 -2.5780
19549SOL    HW260089   7.291   4.096   3.406 -0.7920 -2.8878 -0.0697
19550SOL     OW60090   5.779   1.307   2.440 -0.7839  0.2785  0.2850
19550SOL    HW160091   5.829   1.239   2.485  1.8749  1.8674 -0.0916
19550SOL    HW260092   5.735   1.355   2.510  0.6891  0.7258  0.9300
19551SOL     OW60093   5.729   3.537   1.687  0.3919  0.3734  0.3946
19551SOL    HW160094   5.824   3.531   1.683  0.2867 -1.0372 -0.8561
19551SOL    HW260095   5.698   3.464   1.633 -1.3762  2.1399 -1.1621
19552SOL     OW60096   3.538   4.183   1.290  0.1876  0.6060 -0.5162
19552SOL    HW160097   3.533   4.188   1.386  0.2949  1.8703 -0.5595
19552SOL    HW260098   3.626   4.215   1.269  1.2131 -2.2001 -0.9179
19553SOL     OW60099   7.362   2.906   1.283  0.4388 -0.2418  0.5008
19553SOL    HW160100   7.367   2.998   1.309  0.2751  0.7797 -2.5996
19553SOL    HW260101   7.406   2.859   1.353 -1.2967  1.9222  3.2413
19554SOL     OW60102   6.655   4.752   3.247 -0.2418  0.0988  0.0205
19554SOL    HW160103   6.604   4.807   3.307  0.6915 -0.2174  1.1544
19554SOL    HW260104   6.591   4.697   3.203 -1.0043  0.7430  0.3033
19555SOL     OW60105   7.367   3.673   2.631 -0.6637 -0.2615  0.3638
19555SOL    HW160106   7.370   3.669   2.727  0.8144 -2.2067  0.3077
19555SOL    HW260107   7.452   3.710   2.607 -1.1399  0.4721 -0.2016
19556SOL     OW60108   4.878   2.289   2.737  0.4626  0.3146  0.2749
19556SOL    HW160109   4.960   2.240   2.727  0.5966  0.8145 -1.4801
19556SOL    HW260110   4.881   2.354   2.666 -1.5792  0.1634  0.0094
19557SOL     OW60111   6.742   1.968   5.331  0.5393 -0.2482  0.6523
19557SOL    HW160112   6.712   1.878   5.339  1.4565 -0.9706 -2.4838
19557SOL    HW260113   6.686   2.006   5.263  2.5241  0.3056 -0.7663
19558SOL     OW60114   7.658   1.880   2.075 -0.2306  0.4023  0.0897
19558SOL    HW160115   7.677   1.927   2.157 -1.7707  0.8093  0.2433
19558SOL    HW260116   7.732   1.900   2.019  1.0730 -0.2168  1.5018
19559SOL     OW60117   7.649   0.482   2.427 -0.0069  0.1460  0.4736
19559SOL    HW160118   7.645   0.467   2.521  0.0755 -0.5501  0.3726
19559SOL    HW260119   7.694   0.405   2.392 -1.8598 -0.6295 -0.3509
19560SOL     OW60120   6.423   3.525   2.347 -0.2647  0.3293 -0.1262
19560SOL    HW160121   6.336   3.544   2.380 -0.4482  0.4546 -0.6779
19560SOL    HW260122   6.480   3.533   2.424 -0.7386  0.2133  0.2415
19561SOL     OW60123   7.152   2.985   5.685  0.1764 -0.1666 -0.0325
19561SOL    HW160124   7.093   3.018   5.618  0.4988 -1.7640 -1.1656
19561SOL    HW260125   7.094   2.947   5.752 -0.1184  0.6381  0.1858
19562SOL     OW60126   4.374   4.599   0.797 -0.6912 -0.1311 -0.0874
19562SOL    HW160127   4.297   4.646   0.764  0.1391  2.5634  1.5060
19562SOL    HW260128   4.418   4.662   0.853  2.4223 -1.7732 -0.4813
19563SOL     OW60129   0.387   3.048   4.799  0.1198  0.1590 -0.1956
19563SOL    HW160130   0.340   3.016   4.876 -1.9251  2.2996 -0.4134
19563SOL    HW260131   0.352   2.996   4.726 -1.0888  0.9192 -0.1857
19564SOL     OW60132   0.386   1.796   1.019 -0.8559 -0.0564  0.0535
19564SOL    HW160133   0.444   1.719   1.013  2.2016  1.8442  2.2308
19564SOL    HW260134   0.351   1.792   1.108 -1.3365  0.6278 -0.1062
19565SOL     OW60135   7.183   3.151   1.270  0.3331  0.0473  0.6416
19565SOL    HW160136   7.207   3.228   1.220  0.3153  1.0788  2.1495
19565SOL    HW260137   7.097   3.171   1.307 -0.3994 -1.3577 -0.2184
19566SOL     OW60138   4.991   1.942   1.849  0.1347 -0.4006  0.7753
19566SOL    HW160139   4.960   1.860   1.886 -0.6383 -0.6597 -0.3927
19566SOL    HW260140   5.079   1.922   1.817 -0.1019 -0.8285  0.3723
19567SOL     OW60141   6.446   2.470   3.232 -0.1944  0.1083  0.7014
19567SOL    HW160142   6.456   2.440   3.142 -1.3028  1.4596  0.0917
19567SOL    HW260143   6.533   2.503   3.256 -0.1122  0.6096 -0.2208
19568SOL     OW60144   7.757   2.663   2.969 -0.2110 -0.2121  0.9039
19568SOL    HW160145   7.764   2.723   3.043  1.3672 -1.6655  2.0008
19568SOL    HW260146   7.801   2.583   2.998  0.4485 -0.8386 -1.5852
19569SOL     OW60147   5.591   3.200   2.865  0.1789  0.3367  0.0274
19569SOL    HW160148   5.646   3.277   2.880  0.2989  0.3440 -0.4420
19569SOL    HW260149   5.502   3.230   2.888  0.0688  0.9161 -1.0607
19570SOL     OW60150   5.686   2.498   2.615 -0.0056 -0.1604 -0.6032
19570SOL    HW160151   5.724   2.585   2.623 -0.3649 -0.1266  1.1103
19570SOL    HW260152   5.650   2.495   2.526 -0.3074  1.5634 -0.5679
19571SOL     OW60153   7.904   3.984   3.012 -0.1493 -0.3203  0.1977
19571SOL    HW160154   7.998   3.998   2.996 -0.8222  0.9388 -3.5618
19571SOL    HW260155   7.861   4.050   2.959 -3.2469 -1.2311  1.3808
19572SOL     OW60156   0.428   3.796   2.076 -0.2378  0.3450 -0.2978
19572SOL    HW160157   0.376   3.737   2.132 -0.4392 -0.2595 -1.0948
19572SOL    HW260158   0.519   3.773   2.096 -0.3137 -0.3425 -0.6860
19573SOL     OW60159   6.272   2.450   3.786 -0.0113  0.5661  0.9354
19573SOL    HW160160   6.293   2.538   3.817  0.3244 -0.3679  3.6475
19573SOL    HW260161   6.338   2.394   3.828 -0.6838 -1.0713 -0.0930
19574SOL     OW60162   4.743   2.331   2.060 -0.5653  0.1477  0.4813
19574SOL    HW160163   4.780   2.244   2.045  2.3739  1.3617  0.0166
19574SOL    HW260164   4.728   2.335   2.155 -1.4871 -1.1182  0.4019
19575SOL     OW60165   7.722   0.958   2.860  0.0250 -0.5525  0.7585
19575SOL    HW160166   7.649   0.969   2.799  0.1591 -0.8053  0.5442
19575SOL    HW260167   7.790   0.914   2.808  0.0736 -0.9431  1.1376
19576SOL     OW60168   7.618   1.425   3.378 -0.6550 -0.1133 -0.5321
19576SOL    HW160169   7.585   1.507   3.414  0.0394 -0.1033  0.1181
19576SOL    HW260170   7.551   1.360   3.399 -0.9688  0.1857 -0.5985
19577SOL     OW60171   7.820   4.070   2.138  0.1110 -0.2221 -0.1128
19577SOL    HW160172   7.855   4.155   2.110  0.0260  0.1313  0.7943
19577SOL    HW260173   7.756   4.046   2.072 -1.5706  1.5492  0.7924
19578SOL     OW60174   7.659   2.483   2.780  0.4030 -0.4665  0.3106
19578SOL    HW160175   7.682   2.552   2.843 -1.5481 -1.0901  1.7978
19578SOL    HW260176   7.665   2.525   2.695  2.1170  0.6964  0.9457
19579SOL     OW60177   7.980   2.790   1.395 -0.4095  0.0924  0.2071
19579SOL    HW160178   7.938   2.848   1.460 -0.6022  1.6775 -1.2623
19579SOL    HW260179   8.070   2.822   1.389  0.5814 -2.0884  1.9478
19580SOL     OW60180   5.102   0.851   2.319 -0.3262  0.1262  0.2643
19580SOL    HW160181   5.181   0.891   2.284  1.3334 -1.6445  1.7616
19580SOL    HW260182   5.091   0.890   2.406 -0.6236 -0.2145  0.3819
19581SOL     OW60183   0.534   3.847   1.537 -0.8196  0.3326  0.3964
19581SOL    HW160184   0.589   3.925   1.534  2.0368 -1.5087  1.0624
19581SOL    HW260185   0.545   3.807   1.451 -0.2780 -0.5578  0.8666
19582SOL     OW60186   6.724   4.226   0.771  0.5605 -0.0914 -0.1572
19582SOL    HW160187   6.750   4.317   0.787  2.9102 -0.6702 -0.2941
19582SOL    HW260188   6.751   4.209   0.680  1.9884 -1.4647  0.4826
19583SOL     OW60189   6.140   3.818   2.020 -0.2004  0.0238 -0.9200
19583SOL    HW160190   6.104   3.808   1.932 -0.0035  0.4407 -1.0544
19583SOL    HW260191   6.076   3.873   2.066  0.3935  1.0276 -1.2542
19584SOL     OW60192   5.341   2.943   4.668 -0.6427  0.2769  0.2659
19584SOL    HW160193   5.307   3.019   4.621 -0.6946  0.0311 -0.1096
19584SOL    HW260194   5.396   2.979   4.737 -2.3105  0.7097  1.4115
19585SOL     OW60195   7.169   2.916   4.201 -0.3364 -0.2188 -0.6249
19585SOL    HW160196   7.169   2.982   4.270 -1.0023 -1.1617  0.3063
19585SOL    HW260197   7.079   2.917   4.168 -0.2510 -0.4056 -0.8625
19586SOL     OW60198   7.285   2.885   3.627 -0.5229  0.4299  0.0217
19586SOL    HW160199   7.343   2.809   3.636  2.2555  2.4073  0.0998
19586SOL    HW260200   7.274   2.895   3.533 -0.8497 -0.0134  0.0088
19587SOL     OW60201   6.165   2.724   3.336 -0.4537 -0.1831 -0.1451
19587SOL    HW160202   6.227   2.784   3.378  0.7125  0.1496 -2.1821
19587SOL    HW260203   6.125   2.776   3.266 -0.5332 -1.3532 -1.0078
19588SOL     OW60204   7.125   2.917   3.843  0.0214 -0.9478 -0.2215
19588SOL    HW160205   7.044   2.870   3.821 -1.3357  0.4854  1.4536
19588SOL    HW260206   7.174   2.918   3.761 -1.9361 -1.3275 -1.4878
19589SOL     OW60207   5.885   1.641   3.529  0.4895 -0.1946  0.5081
19589SOL    HW160208   5.793   1.612   3.527  0.1837  0.7224  0.6665
19589SOL    HW260209   5.887   1.708   3.598  0.8954  1.0224 -0.6346
19590SOL     OW60210   5.899   2.176   2.221 -0.2398 -0.3525  0.0405
19590SOL    HW160211   5.938   2.196   2.306  0.1110  0.0113 -0.2056
19590SOL    HW260212   5.972   2.178   2.160 -0.3705 -1.3631 -0.1577
19591SOL     OW60213   5.124   4.073   1.606 -0.2921  0.0612  0.4295
19591SOL    HW160214   5.070   4.066   1.685 -1.6591  0.3860 -0.4397
19591SOL    HW260215   5.211   4.044   1.634 -0.9219 -0.5513  1.8626
19592SOL     OW60216   3.663   2.752   1.593 -0.1391 -0.3083  0.0224
19592SOL    HW160217   3.634   2.670   1.554  0.3156 -0.5126  0.1080
19592SOL    HW260218   3.664   2.814   1.520  0.2540 -0.5725 -0.2019
19593SOL     OW60219   7.535   0.536   4.207  0.3132 -0.3286  0.2814
19593SOL    HW160220   7.605   0.508   4.266  1.0872 -1.1530 -0.9744
19593SOL    HW260221   7.579   0.550   4.123 -0.7242  0.9846 -0.0706
19594SOL     OW60222   7.007   3.168   4.023 -0.2931 -0.1703 -0.4485
19594SOL    HW160223   7.089   3.175   4.071 -1.2262  1.1661  1.0276
19594SOL    HW260224   6.985   3.075   4.027 -0.4414 -0.0885  1.9606
19595SOL     OW60225   0.350   4.402   1.336  0.4351 -0.0504  0.3438
19595SOL    HW160226   0.292   4.478   1.346  2.3279  1.2017  2.9942
19595SOL    HW260227   0.294   4.326   1.350 -0.8025  1.0458  1.5374
19596SOL     OW60228   5.141   2.535   3.280 -0.1509  0.1691  0.1311
19596SOL    HW160229   5.139   2.496   3.192 -1.3360  1.1643 -0.3075
19596SOL    HW260230   5.234   2.549   3.298  0.2040 -1.3061 -0.3794
19597SOL     OW60231   6.558   3.180   3.274  0.4824  0.5266 -0.2911
19597SOL    HW160232   6.635   3.212   3.321  1.4255 -1.0438 -0.6760
19597SOL    HW260233   6.588   3.100   3.231 -1.4465 -0.3010 -0.2084
19598SOL     OW60234   7.282   2.466   2.156  0.0164  0.0818  0.3861
19598SOL    HW160235   7.343   2.516   2.100  0.4111  0.0372  0.7692
19598SOL    HW260236   7.313   2.483   2.245  0.7548 -1.6271  0.4822
19599SOL     OW60237   7.537   3.455   1.673 -0.0943  0.3007 -0.0217
19599SOL    HW160238   7.502   3.368   1.692  1.4853 -0.5557 -0.7806
19599SOL    HW260239   7.507   3.474   1.584 -0.2832  0.4517  0.0740
19600SOL     OW60240   6.128   3.243   3.701  0.3347 -0.3436  0.2310
19600SOL    HW160241   6.193   3.192   3.750  1.0073  0.4214  0.1652
19600SOL    HW260242   6.066   3.178   3.668  0.1924 -0.9429  1.5978
19601SOL     OW60243   5.751   2.290   1.719 -0.1298  0.1018  0.4254
19601SOL    HW160244   5.832   2.263   1.675 -0.2890  1.6625 -0.9010
19601SOL    HW260245   5.698   2.210   1.721  0.2508 -0.2585 -1.4414
19602SOL     OW60246   7.128   4.767   4.075 -0.1793  0.5003 -0.0889
19602SOL    HW160247   7.097   4.808   3.994 -1.4445  1.1501  0.7022
19602SOL    HW260248   7.052   4.766   4.132  1.1948  2.0234  1.8795
19603SOL     OW60249   5.779   3.037   2.273  0.1338 -0.5460 -0.5576
19603SOL    HW160250   5.699   2.984   2.275  0.5843 -1.3138 -1.7338
19603SOL    HW260251   5.750   3.126   2.293 -1.3077 -0.5042 -2.5787
19604SOL     OW60252   6.373   2.907   4.857  0.1026  0.3872 -0.1751
19604SOL    HW160253   6.290   2.868   4.883  0.9350 -2.4703 -1.3766
19604SOL    HW260254   6.425   2.909   4.938 -0.3043 -0.1354  0.1075
19605SOL     OW60255   6.377   3.718   3.079 -0.6648 -0.6524 -0.0898
19605SOL    HW160256   6.356   3.698   3.170 -0.8497  2.4880  0.6753
19605SOL    HW260257   6.300   3.763   3.046  0.9700  2.2208 -0.3287
19606SOL     OW60258   6.094   3.099   2.805  0.0489 -0.1751 -0.0921
19606SOL    HW160259   6.035   3.155   2.755 -0.8455 -0.4714  0.5922
19606SOL    HW260260   6.176   3.099   2.755 -0.3818  0.6099 -0.8261
19607SOL     OW60261   6.669   2.735   0.635 -0.0428 -0.1405 -0.2613
19607SOL    HW160262   6.668   2.662   0.697 -2.1435 -0.4573 -0.5937
19607SOL    HW260263   6.669   2.813   0.690 -2.2532 -0.4164  0.2167
19608SOL     OW60264   5.180   2.984   2.768 -0.0377 -0.0744  0.2393
19608SOL    HW160265   5.090   3.009   2.789  0.5044  1.5481  0.8235
19608SOL    HW260266   5.204   3.040   2.694  0.1593 -1.2648 -0.6316
19609SOL     OW60267   6.500   3.973   3.001  0.0767  0.0960 -0.0713
19609SOL    HW160268   6.417   3.987   2.956 -0.7733 -1.1158  1.0407
19609SOL    HW260269   6.479   3.915   3.074  2.3610 -2.4760 -1.2721
19610SOL     OW60270   6.239   4.315   2.836  0.1977  0.2119 -0.6524
19610SOL    HW160271   6.259   4.297   2.744 -0.4395  0.2442 -0.7998
19610SOL    HW260272   6.210   4.406   2.837  1.0215  0.4816 -0.2834
19611SOL     OW60273   6.880   5.471   3.961  0.0601 -0.4958 -0.3051
19611SOL    HW160274   6.831   5.393   3.987  0.2172 -0.4701  0.0760
19611SOL    HW260275   6.964   5.463   4.006 -0.0861  0.1081  0.0932
19612SOL     OW60276   5.405   3.814   3.844  0.3951  0.8783  0.1061
19612SOL    HW160277   5.334   3.830   3.782  1.1561  0.1451 -0.9784
19612SOL    HW260278   5.364   3.763   3.914 -0.0697  0.1087 -0.7096
19613SOL     OW60279   7.950   3.214   2.302 -0.3071 -0.3698  0.3337
19613SOL    HW160280   7.992   3.185   2.383 -1.3846 -0.3136  0.9424
19613SOL    HW260281   8.007   3.282   2.268  0.4004 -0.7098  0.8047
19614SOL     OW60282   7.598   3.168   3.686  0.1312 -0.5098 -0.1859
19614SOL    HW160283   7.669   3.216   3.729 -0.2787 -0.1970  0.1542
19614SOL    HW260284   7.628   3.156   3.596  0.7814 -0.7260  0.0557
19615SOL     OW60285   6.015   4.265   4.180  0.2199  0.3627 -0.3726
19615SOL    HW160286   6.092   4.298   4.226  0.9142  0.0444 -1.2620
19615SOL    HW260287   5.965   4.218   4.247  0.8446  0.4934  0.1984
19616SOL     OW60288   7.796   4.108   4.570  0.3328 -0.0059  0.7007
19616SOL    HW160289   7.742   4.150   4.504 -1.0215 -0.4914  1.4530
19616SOL    HW260290   7.886   4.125   4.542 -0.1940  0.2291 -0.9695
19617SOL     OW60291   5.496   3.726   3.469 -0.8817  0.1650  0.2195
19617SOL    HW160292   5.517   3.692   3.556  0.2942 -2.0135 -0.8407
19617SOL    HW260293   5.401   3.730   3.467 -0.9088  0.7899  1.7861
19618SOL     OW60294   6.759   2.806   1.609  0.4529  0.0755 -0.0310
19618SOL    HW160295   6.678   2.855   1.622 -0.1802 -0.8291 -0.5242
19618SOL    HW260296   6.809   2.858   1.546  0.1935  0.5460  0.1453
19619SOL     OW60297   7.780   4.613   1.897 -0.4770 -0.0143  0.1106
19619SOL    HW160298   7.796   4.542   1.834  1.0203 -0.2208  0.6902
19619SOL    HW260299   7.866   4.629   1.937 -1.1675  0.9216  1.2575
19620SOL     OW60300   6.218   3.113   1.301  0.0892  0.0794 -0.1902
19620SOL    HW160301   6.130   3.085   1.277 -0.2815  0.2096  1.0045
19620SOL    HW260302   6.207   3.166   1.379  1.1618  0.6615 -0.4143
19621SOL     OW60303   4.621   1.057   3.124  0.4436 -0.0757  0.2710
19621SOL    HW160304   4.623   1.151   3.147 -2.8940  0.1140  0.3054
19621SOL    HW260305   4.574   1.054   3.041  0.5155 -1.7291  0.2714
19622SOL     OW60306   6.828   3.475   3.305 -0.6075 -0.3024 -0.2544
19622SOL    HW160307   6.901   3.519   3.348  0.0413 -0.9791 -0.6358
19622SOL    HW260308   6.826   3.513   3.217 -0.4921 -0.5208 -0.3535
19623SOL     OW60309   7.779   1.089   3.711 -0.7314 -0.1394 -0.5351
19623SOL    HW160310   7.688   1.110   3.734 -0.3025  0.3093  0.8129
19623SOL    HW260311   7.771   1.027   3.638 -2.1261 -0.3568 -0.2278
19624SOL     OW60312   7.011   4.497   3.047  0.0291  0.0539 -0.0217
19624SOL    HW160313   6.935   4.555   3.035 -0.1404 -0.1046  0.2923
19624SOL    HW260314   6.975   4.419   3.088  0.3902  0.0449  0.2790
19625SOL     OW60315   4.816   3.559   0.010  0.1956 -0.3749 -0.1290
19625SOL    HW160316   4.767   3.490  -0.033  0.2629 -0.0098 -0.8211
19625SOL    HW260317   4.906   3.548  -0.022 -0.0155  0.7581 -1.2478
19626SOL     OW60318   4.997   3.507   3.065  0.4524 -0.1247  0.1173
19626SOL    HW160319   5.002   3.566   3.140  0.1504  0.1396 -0.0674
19626SOL    HW260320   4.932   3.547   3.008  1.8823  0.5779 -1.0782
19627SOL     OW60321   6.995   2.074   3.829  0.0896  0.5548  0.5557
19627SOL    HW160322   6.905   2.045   3.820  0.5455 -1.4079  1.7908
19627SOL    HW260323   7.043   2.024   3.764  0.6026 -0.0775  1.4005
19628SOL     OW60324   7.848   4.162   3.387  0.7109 -0.2456 -0.2082
19628SOL    HW160325   7.813   4.251   3.392 -0.4061 -0.7159  0.5683
19628SOL    HW260326   7.867   4.150   3.294 -1.0326  0.1123 -0.6471
19629SOL     OW60327   5.118   2.272   4.229 -0.8351 -0.2121  0.0587
19629SOL    HW160328   5.049   2.330   4.198 -1.5797 -0.0407  1.8997
19629SOL    HW260329   5.190   2.331   4.253 -0.7598 -0.2287 -0.1297
19630SOL     OW60330   5.286   2.830   2.018  0.0530 -0.1646 -0.2583
19630SOL    HW160331   5.300   2.896   1.950 -1.5783  0.7905  0.2636
19630SOL    HW260332   5.231   2.763   1.977  2.3513 -1.6927 -1.0277
19631SOL     OW60333   0.029   0.970   4.318 -0.0502  0.2775 -0.1662
19631SOL    HW160334   0.067   0.994   4.402  0.1419  2.5624 -0.8540
19631SOL    HW260335   0.084   1.013   4.253 -1.2461  0.0472 -1.3831
19632SOL     OW60336   7.765   3.557   1.809  0.1342  0.5992  0.1545
19632SOL    HW160337   7.748   3.651   1.812 -0.8530  0.5967 -2.7261
19632SOL    HW260338   7.686   3.519   1.769  0.3995 -1.5305  1.4571
19633SOL     OW60339   6.061   1.933   2.667 -0.1249  1.1472  0.2547
19633SOL    HW160340   5.967   1.924   2.652 -0.1040  0.4238  0.5232
19633SOL    HW260341   6.099   1.857   2.624  0.2282  0.8061  1.1554
19634SOL     OW60342   5.033   3.090   3.972 -0.3828 -0.0283 -0.0413
19634SOL    HW160343   4.959   3.147   3.994 -0.5594 -0.6459  1.0042
19634SOL    HW260344   4.999   3.031   3.905 -0.2657  0.9003 -0.9648
19635SOL     OW60345   5.962   1.509   4.480 -0.5385  0.0115 -0.8056
19635SOL    HW160346   5.898   1.536   4.547  0.1592 -0.6007  0.1329
19635SOL    HW260347   6.047   1.531   4.519 -0.1013 -0.7357 -1.3240
19636SOL     OW60348   7.153   2.638   3.168 -0.3419 -0.6453  0.5102
19636SOL    HW160349   7.196   2.591   3.240  0.5201 -0.7068 -0.0240
19636SOL    HW260350   7.207   2.618   3.091 -1.0467 -0.2983 -0.0869
19637SOL     OW60351   7.256   3.158   1.967 -0.1378  0.1017  0.4232
19637SOL    HW160352   7.219   3.073   1.942 -2.5086  0.4283  2.4056
19637SOL    HW260353   7.326   3.136   2.029 -0.0522 -0.4323  0.1463
19638SOL     OW60354   4.439   3.252   4.873  0.5620  0.2403  0.2098
19638SOL    HW160355   4.357   3.234   4.827  0.1614 -1.2455  1.4401
19638SOL    HW260356   4.486   3.312   4.815 -0.4846 -0.5231 -1.4912
19639SOL     OW60357   6.123   3.791   3.022  0.4695  0.8202  0.3128
19639SOL    HW160358   6.113   3.771   2.929 -0.2021 -1.7127  0.8575
19639SOL    HW260359   6.062   3.863   3.038  1.6289  2.2919 -1.4436
19640SOL     OW60360   7.676   1.695   1.086  0.0608 -0.2322  0.3095
19640SOL    HW160361   7.679   1.667   1.177 -1.3919 -0.4285  0.3129
19640SOL    HW260362   7.628   1.625   1.041  0.2722  0.1334 -0.5060
19641SOL     OW60363   6.836   5.811   2.643  0.3585 -0.0258 -0.0200
19641SOL    HW160364   6.857   5.741   2.705 -0.2946 -0.4972 -0.3242
19641SOL    HW260365   6.811   5.885   2.698  3.5736  0.8901  0.4252
19642SOL     OW60366   7.341   4.708   3.882  0.4574  0.4719 -0.0075
19642SOL    HW160367   7.263   4.737   3.929 -0.8038  0.0211 -1.7246
19642SOL    HW260368   7.376   4.637   3.936 -0.1964  0.8150  0.8862
19643SOL     OW60369   6.439   4.194   2.197  0.1314 -0.0002  0.0710
19643SOL    HW160370   6.390   4.113   2.214  0.6556 -0.1611  0.9004
19643SOL    HW260371   6.373   4.263   2.199 -0.5518 -0.5088 -1.9910
19644SOL     OW60372   0.780   3.997   3.529 -0.3382 -0.1721 -0.0466
19644SOL    HW160373   0.838   3.971   3.601 -0.6415  2.2780  1.1919
19644SOL    HW260374   0.829   3.975   3.450  1.1925 -0.4920  0.9477
19645SOL     OW60375   7.988   1.674   2.322  0.0769 -0.4886  0.2702
19645SOL    HW160376   7.942   1.741   2.373 -1.5005 -0.7235 -0.7822
19645SOL    HW260377   7.931   1.597   2.328  0.6817 -1.0022 -0.5140
19646SOL     OW60378   1.660   3.544   2.287  0.4620  0.0587  0.1799
19646SOL    HW160379   1.656   3.565   2.381 -0.4979  0.4929  0.0597
19646SOL    HW260380   1.600   3.608   2.247 -2.7260 -2.8966 -0.2216
19647SOL     OW60381   7.041   4.534   4.581  0.3526 -0.0198 -0.3407
19647SOL    HW160382   7.090   4.461   4.618 -0.3487  0.1047  0.8747
19647SOL    HW260383   6.985   4.493   4.515  1.0872 -0.3463 -0.7802
19648SOL     OW60384   6.191   1.095   2.563 -0.2219 -0.2505 -0.0475
19648SOL    HW160385   6.237   1.177   2.577 -0.9801  0.0327  0.8983
19648SOL    HW260386   6.106   1.121   2.527 -0.3591 -0.6267 -0.0013
19649SOL     OW60387   6.472   4.251   0.888 -0.4238  0.3551  0.0481
19649SOL    HW160388   6.465   4.204   0.972  0.6946  0.7430  0.3860
19649SOL    HW260389   6.567   4.258   0.873 -0.6101  0.2258 -1.2951
19650SOL     OW60390   5.267   4.197   2.020  0.7926  0.3107 -0.0757
19650SOL    HW160391   5.183   4.222   1.981  0.3639 -0.1822  0.5126
19650SOL    HW260392   5.244   4.154   2.102  1.5481 -0.8941 -0.4588
19651SOL     OW60393   0.422   4.271   3.008  0.3049  0.5533  0.1763
19651SOL    HW160394   0.502   4.235   3.048  1.2216 -0.1368 -2.0962
19651SOL    HW260395   0.427   4.365   3.026  1.0960  0.3873  0.9148
19652SOL     OW60396   7.636   2.333   2.368  0.1037  0.4088  0.0100
19652SOL    HW160397   7.688   2.333   2.288 -0.6014 -0.4748 -0.4695
19652SOL    HW260398   7.623   2.240   2.388  1.2580  0.5945  1.8265
19653SOL     OW60399   4.756   1.826   1.582  0.0858  0.6340 -0.0860
19653SOL    HW160400   4.831   1.882   1.565 -0.1469  1.2193  0.7969
19653SOL    HW260401   4.683   1.886   1.596 -0.0483  0.1414  1.4547
19654SOL     OW60402   6.886   4.723   2.322  0.3283 -0.1576  0.1686
19654SOL    HW160403   6.912   4.656   2.259  1.3215  0.1072  0.2721
19654SOL    HW260404   6.860   4.675   2.400 -1.2065 -0.5063 -0.5260
19655SOL     OW60405   7.428   4.023   3.841  0.9991  0.4648 -0.5821
19655SOL    HW160406   7.515   3.987   3.822  2.2182  1.1260  2.9307
19655SOL    HW260407   7.392   3.963   3.907 -0.3926  1.2795 -0.5711
19656SOL     OW60408   7.415   5.398   1.725 -0.2693 -0.2740 -0.6371
19656SOL    HW160409   7.440   5.312   1.691 -0.3420 -0.5450 -0.0095
19656SOL    HW260410   7.321   5.404   1.705 -0.7163 -1.1647  1.0197
19657SOL     OW60411   0.572   3.034   3.752 -0.1364 -0.3689  0.4643
19657SOL    HW160412   0.550   3.084   3.673  0.4419  1.9227  1.6559
19657SOL    HW260413   0.615   2.955   3.719  2.8616  1.8819 -1.5515
19658SOL     OW60414   4.727   3.080   4.597  0.0873  0.1439 -0.1011
19658SOL    HW160415   4.665   3.064   4.668  1.7612 -0.3353  1.3065
19658SOL    HW260416   4.739   3.175   4.596 -0.0169  0.1600  0.1710
19659SOL     OW60417   7.619   2.771   4.035 -0.1438  0.4491  0.0487
19659SOL    HW160418   7.561   2.734   4.101  2.4422 -2.3228  0.9708
19659SOL    HW260419   7.641   2.858   4.069 -0.9874  0.1541  1.4312
19660SOL     OW60420   7.240   3.393   2.735  0.1452 -0.4359 -0.3014
19660SOL    HW160421   7.220   3.334   2.662 -1.3705  1.9438 -1.9906
19660SOL    HW260422   7.176   3.464   2.726  1.7642  1.4148  1.6430
19661SOL     OW60423   7.623   3.514   2.841  0.1252  0.1516 -0.1670
19661SOL    HW160424   7.640   3.601   2.878 -0.1768  0.3620 -0.5243
19661SOL    HW260425   7.546   3.483   2.888  0.2564  0.0609 -0.0115
19662SOL     OW60426   5.940   4.453   1.614  0.3854  0.4125 -0.4462
19662SOL    HW160427   6.028   4.488   1.599  0.5964 -0.3217 -1.0004
19662SOL    HW260428   5.923   4.470   1.707  1.2016  0.3581 -0.2779
19663SOL     OW60429   0.084   1.780   2.750 -0.1483  0.0930 -0.4156
19663SOL    HW160430   0.141   1.842   2.705  0.5570  0.1413  0.5072
19663SOL    HW260431   0.122   1.694   2.733  0.6601  0.1825  0.7966
19664SOL     OW60432   4.340   2.620   1.646  0.1589  0.2561 -0.1273
19664SOL    HW160433   4.346   2.678   1.722  0.2509 -0.5226  0.4719
19664SOL    HW260434   4.371   2.535   1.678  0.0035 -0.1316 -0.9817
19665SOL     OW60435   5.213   3.035   2.480  0.8330  0.4583  0.5085
19665SOL    HW160436   5.206   2.955   2.429  0.7383  0.6828  0.1663
19665SOL    HW260437   5.300   3.069   2.460  1.2545 -0.0636  1.4061
19666SOL     OW60438   7.857   1.799   2.574 -0.1546 -0.0718 -0.0884
19666SOL    HW160439   7.831   1.853   2.648 -0.4943 -0.6085  0.1879
19666SOL    HW260440   7.925   1.741   2.608  1.0857  0.9869 -0.6840
19667SOL     OW60441   5.116   3.825   2.084 -0.4434  0.1134 -0.0647
19667SOL    HW160442   5.113   3.801   1.992  1.1291 -0.9500  0.1258
19667SOL    HW260443   5.071   3.754   2.129 -1.7688  0.9445 -0.0436
19668SOL     OW60444   6.215   3.324   3.438 -0.1501  0.4156  0.5817
19668SOL    HW160445   6.153   3.302   3.508 -1.7286  0.5789 -0.7139
19668SOL    HW260446   6.299   3.289   3.468 -1.5882 -3.2723  0.7175
19669SOL     OW60447   6.120   3.431   2.791  0.0953  0.7832 -0.1354
19669SOL    HW160448   6.120   3.407   2.884 -0.0280  2.1236  0.2334
19669SOL    HW260449   6.084   3.520   2.790  0.0864  0.7764 -1.4725
19670SOL     OW60450   7.362   2.815   2.058  0.0022 -0.0207 -0.0464
19670SOL    HW160451   7.406   2.737   2.023  1.5218  1.0940 -0.7590
19670SOL    HW260452   7.306   2.845   1.987  0.5167  0.3366 -0.3069
19671SOL     OW60453   7.804   1.942   4.236 -0.2266  0.2133  0.4510
19671SOL    HW160454   7.716   1.972   4.212 -0.4190 -0.7662 -0.1231
19671SOL    HW260455   7.860   1.975   4.165 -0.0806  1.0556  0.9492
19672SOL     OW60456   5.015   3.085   4.816 -0.1255  0.4694 -0.4879
19672SOL    HW160457   4.942   3.023   4.818 -0.1157  0.4662 -0.1539
19672SOL    HW260458   4.980   3.164   4.857  0.0490  0.4758 -0.3465
19673SOL     OW60459   5.237   3.165   4.123  0.4881  0.1180  0.6369
19673SOL    HW160460   5.243   3.259   4.110  0.1664  0.0908  0.2649
19673SOL    HW260461   5.155   3.140   4.079  2.4690 -0.9188 -2.8834
19674SOL     OW60462   7.870   2.515   4.296  0.1020 -0.2172  0.1235
19674SOL    HW160463   7.920   2.438   4.319 -0.0497 -0.4832 -0.4216
19674SOL    HW260464   7.852   2.559   4.379 -1.8661 -2.0161  0.7327
19675SOL     OW60465   5.731   3.856   3.539 -0.4616 -0.1009  0.3623
19675SOL    HW160466   5.653   3.813   3.505  0.3809 -1.9297  0.6189
19675SOL    HW260467   5.704   3.947   3.553 -2.6193 -0.7317  0.7144
19676SOL     OW60468   6.885   2.395   3.112  0.1928 -0.1126  0.1945
19676SOL    HW160469   6.849   2.474   3.154 -1.1288  0.4375 -1.8307
19676SOL    HW260470   6.814   2.331   3.118 -0.0933  0.0327 -1.2431
19677SOL     OW60471   7.136   4.613   2.040 -0.3621  0.3569  0.3563
19677SOL    HW160472   7.203   4.567   1.988  0.4036 -1.5538  2.7993
19677SOL    HW260473   7.177   4.696   2.064  1.6567 -1.1091  2.4876
19678SOL     OW60474   5.678   2.690   3.736  0.2384 -0.1647  0.3007
19678SOL    HW160475   5.612   2.665   3.672  0.5405  0.2592 -0.1836
19678SOL    HW260476   5.752   2.633   3.717  0.0100 -0.6534  0.8560
19679SOL     OW60477   0.688   3.589   5.155 -0.0223  0.1423  0.2164
19679SOL    HW160478   0.741   3.666   5.134  3.2814 -1.6635  1.3482
19679SOL    HW260479   0.692   3.535   5.076  0.6980 -0.4307  0.6327
19680SOL     OW60480   1.785   2.663   3.400 -0.1755 -0.7181  0.4118
19680SOL    HW160481   1.699   2.621   3.406 -0.1124 -0.8111  0.6646
19680SOL    HW260482   1.843   2.594   3.369 -0.2805 -0.5341 -0.2118
19681SOL     OW60483   6.978   3.803   1.885 -0.5679 -0.4669  0.0950
19681SOL    HW160484   6.920   3.845   1.949  1.0543  0.3276  1.1019
19681SOL    HW260485   7.039   3.751   1.938  0.2451 -0.5192 -0.8655
19682SOL     OW60486   7.032   2.245   2.899  0.5519 -0.2680 -0.1688
19682SOL    HW160487   6.981   2.183   2.847  0.1325 -0.6386  0.6688
19682SOL    HW260488   6.978   2.262   2.977  0.4684  1.4582 -0.5490
19683SOL     OW60489   4.972   3.804   1.533 -0.3039 -0.1568  0.0690
19683SOL    HW160490   5.055   3.850   1.546 -0.2388 -0.1091 -0.4979
19683SOL    HW260491   4.913   3.870   1.499 -1.3265  0.4488  2.7653
19684SOL     OW60492   0.574   1.620   1.347 -0.2571 -0.2715 -0.5050
19684SOL    HW160493   0.635   1.689   1.373  0.0701 -0.3558 -1.0327
19684SOL    HW260494   0.601   1.544   1.398 -0.8050  0.0634  0.2985
19685SOL     OW60495   6.590   3.603   3.408 -0.2021 -0.0101 -0.1746
19685SOL    HW160496   6.630   3.685   3.381  0.2569  0.9533  3.0520
19685SOL    HW260497   6.652   3.535   3.378  0.9605  1.0429 -0.2274
19686SOL     OW60498   5.310   3.042   4.383 -0.2590 -0.4093 -0.0650
19686SOL    HW160499   5.305   3.103   4.309 -0.6074  1.7526  1.6482
19686SOL    HW260500   5.224   3.000   4.385 -0.1559 -0.7013 -1.0117
19687SOL     OW60501   6.789   4.331   1.920  0.3394  0.0153 -0.2260
19687SOL    HW160502   6.877   4.340   1.885  0.6903  1.0063  0.8569
19687SOL    HW260503   6.786   4.391   1.994 -0.9213 -0.7613  0.3901
19688SOL     OW60504   5.843   2.673   5.468 -0.3022 -0.2438 -0.1191
19688SOL    HW160505   5.762   2.672   5.520  0.7113  1.8348  1.6424
19688SOL    HW260506   5.855   2.581   5.442 -1.7492 -1.1109  1.9639
19689SOL     OW60507   6.500   2.442   2.967  0.5817  0.0934  0.3008
19689SOL    HW160508   6.525   2.361   2.922  0.1091  0.6372 -0.9844
19689SOL    HW260509   6.557   2.509   2.929  1.2004  0.3283  1.5962
19690SOL     OW60510   7.262   3.743   3.269 -0.1716  0.4494 -0.4795
19690SOL    HW160511   7.302   3.817   3.223  1.3033 -0.8381 -1.3804
19690SOL    HW260512   7.293   3.751   3.359  1.4723 -0.0158 -0.9654
19691SOL     OW60513   7.441   3.415   2.429  0.1487 -0.4252 -0.6191
19691SOL    HW160514   7.474   3.348   2.488  3.0508  1.4775  0.1721
19691SOL    HW260515   7.372   3.459   2.478  0.3078 -0.9215  0.0677
19692SOL     OW60516   5.870   3.242   4.579 -0.3601 -0.6821 -0.3103
19692SOL    HW160517   5.840   3.332   4.570  0.9907 -0.2749 -1.0242
19692SOL    HW260518   5.791   3.192   4.596 -1.0819  0.6914  0.5339
19693SOL     OW60519   6.415   3.644   0.251 -0.1191 -0.3063 -0.4309
19693SOL    HW160520   6.337   3.695   0.274 -0.4124 -0.8894 -0.1322
19693SOL    HW260521   6.454   3.621   0.336  1.1377  1.1284 -0.5754
19694SOL     OW60522   7.613   4.187   4.029  0.4698 -0.2639 -0.1603
19694SOL    HW160523   7.582   4.175   3.940  2.2557 -1.8174 -0.6469
19694SOL    HW260524   7.685   4.250   4.022  0.1254  0.1985  0.3191
19695SOL     OW60525   5.689   1.257   3.816  0.2501  0.0755  0.2687
19695SOL    HW160526   5.683   1.350   3.837 -0.4155 -0.2780  1.7708
19695SOL    HW260527   5.620   1.216   3.867 -0.1557 -1.1343 -1.1853
19696SOL     OW60528   7.201   1.390   3.103  0.1395 -0.2925 -0.5359
19696SOL    HW160529   7.196   1.362   3.012 -1.9493 -0.8319 -0.3066
19696SOL    HW260530   7.224   1.483   3.099  0.5835 -0.4421 -1.5731
19697SOL     OW60531   5.508   5.480   3.955  0.4295 -0.2841 -0.1741
19697SOL    HW160532   5.439   5.414   3.954  1.0489 -0.9384 -0.6629
19697SOL    HW260533   5.576   5.445   3.897  0.5323  1.0337 -0.8913
19698SOL     OW60534   7.222   3.967   0.797  0.3359  0.2097 -0.4794
19698SOL    HW160535   7.130   3.947   0.812  0.7113 -1.2918  0.0531
19698SOL    HW260536   7.223   4.014   0.714 -0.8165 -0.7646 -1.0776
19699SOL     OW60537   0.397   4.118   4.620  0.0005 -0.5328 -0.1323
19699SOL    HW160538   0.337   4.061   4.668  0.8300 -0.3977  1.1021
19699SOL    HW260539   0.441   4.169   4.687  0.4308  0.4354 -1.1184
19700SOL     OW60540   2.128   4.710   4.138  0.2468  0.9103  0.4552
19700SOL    HW160541   2.146   4.625   4.178 -1.2968  0.0199 -0.6567
19700SOL    HW260542   2.062   4.692   4.071  1.9705  2.4549 -1.8627
19701SOL     OW60543   3.717   2.454   2.340 -0.2079  0.0998  0.0144
19701SOL    HW160544   3.710   2.488   2.429 -0.7340 -1.2748  0.5260
19701SOL    HW260545   3.629   2.419   2.321  0.0005  0.0614 -0.8952
19702SOL     OW60546   6.760   4.468   0.885  0.1751 -0.1219 -0.3306
19702SOL    HW160547   6.675   4.511   0.874  0.1618 -0.1822 -0.4747
19702SOL    HW260548   6.821   4.540   0.898  0.0611 -0.0927  0.0562
19703SOL     OW60549   5.415   2.218   2.378  0.1439 -0.0390 -0.6295
19703SOL    HW160550   5.380   2.303   2.403 -1.0498 -0.8840  0.7827
19703SOL    HW260551   5.492   2.237   2.325 -0.4076  1.8998 -0.7830
19704SOL     OW60552   7.985   1.309   4.068  0.2008 -0.1290 -0.3258
19704SOL    HW160553   8.004   1.399   4.093 -3.0266  0.4941  0.2956
19704SOL    HW260554   8.069   1.263   4.077  1.9278  2.7468 -0.6123
19705SOL     OW60555   5.541   0.688   6.068 -0.1056 -0.0177 -0.1761
19705SOL    HW160556   5.590   0.612   6.101 -0.2014 -0.7028 -1.5143
19705SOL    HW260557   5.475   0.650   6.010  0.5091  1.1247 -1.7059
19706SOL     OW60558   5.237   1.680   5.307  0.1825  0.4072  0.2422
19706SOL    HW160559   5.310   1.698   5.248  0.8357  0.6317  1.1104
19706SOL    HW260560   5.220   1.763   5.351  0.2865  0.0191  1.0188
19707SOL     OW60561   6.638   4.045   3.763  0.1050  0.5954  0.2635
19707SOL    HW160562   6.574   3.973   3.763  0.5641  0.1863 -0.1153
19707SOL    HW260563   6.584   4.124   3.770 -0.5023  0.2963 -0.7738
19708SOL     OW60564   5.948   1.770   6.064  0.3472 -0.4012 -0.3706
19708SOL    HW160565   6.017   1.821   6.107 -0.5500 -0.3483  1.0798
19708SOL    HW260566   5.962   1.680   6.094 -1.4388 -0.0663  1.7121
19709SOL     OW60567   7.063   2.960   2.905 -0.5166 -0.1647  0.0418
19709SOL    HW160568   7.009   3.001   2.837  0.5390 -0.0394 -0.7419
19709SOL    HW260569   7.065   2.867   2.881 -0.6859 -0.2287  0.2763
19710SOL     OW60570   0.185   2.783   5.184  0.1398  0.2508 -0.1313
19710SOL    HW160571   0.118   2.733   5.138 -0.1669  1.3743 -0.9541
19710SOL    HW260572   0.137   2.830   5.252  0.4415 -0.6198  0.7048
19711SOL     OW60573   5.946   0.846   5.931  0.6365  0.6848  0.5971
19711SOL    HW160574   5.939   0.762   5.977  1.8444  0.5404  0.5503
19711SOL    HW260575   5.890   0.905   5.981  1.2228  0.3089  1.7442
19712SOL     OW60576   6.956   3.158   4.435 -0.2676 -0.2640  0.6547
19712SOL    HW160577   6.877   3.171   4.382  0.0733 -1.7213 -0.2587
19712SOL    HW260578   6.931   3.092   4.499  0.1173 -0.4727  0.5870
19713SOL     OW60579   5.330   4.247   6.622  0.2145 -0.3247 -0.2508
19713SOL    HW160580   5.273   4.295   6.682 -0.0588 -0.3932 -0.4566
19713SOL    HW260581   5.397   4.209   6.678  0.1781 -0.0726 -0.0326
19714SOL     OW60582   5.633   1.831   5.734  0.2157 -0.8320  0.4627
19714SOL    HW160583   5.706   1.885   5.702 -1.7631  0.6005 -2.0334
19714SOL    HW260584   5.599   1.880   5.809  0.0116  0.1141 -0.2208
19715SOL     OW60585   7.354   3.832   3.530 -0.1425 -0.8423 -0.0387
19715SOL    HW160586   7.381   3.809   3.619  1.7277 -1.1875 -0.6428
19715SOL    HW260587   7.383   3.922   3.518  0.1784 -0.9957 -0.4841
19716SOL     OW60588   5.211   3.462   6.694  0.0674 -0.0928 -0.3228
19716SOL    HW160589   5.271   3.389   6.711 -0.0131  0.0686  0.7231
19716SOL    HW260590   5.185   3.451   6.603  0.7609 -0.8514 -0.4400
19717SOL     OW60591   6.743   2.862   5.366  0.1236 -0.0121 -0.0588
19717SOL    HW160592   6.756   2.782   5.315 -0.1500  1.1170 -2.0152
19717SOL    HW260593   6.825   2.911   5.355 -0.1091  0.4507  0.2344
19718SOL     OW60594   5.079   3.280   4.615 -0.3976 -0.0108 -0.2095
19718SOL    HW160595   5.080   3.210   4.680 -0.5208 -0.5346 -0.7585
19718SOL    HW260596   4.989   3.313   4.617 -0.5922 -0.5092 -0.6162
19719SOL     OW60597   4.609   1.833   4.069 -0.2296  0.9255  0.3226
19719SOL    HW160598   4.702   1.823   4.046 -0.1764  2.1251 -0.0365
19719SOL    HW260599   4.580   1.744   4.088  0.7853  0.4241 -0.3647
19720SOL     OW60600   4.632   2.297   3.381  0.3358  0.0935 -0.8877
19720SOL    HW160601   4.712   2.318   3.429  0.2960  0.8896 -1.1458
19720SOL    HW260602   4.641   2.343   3.298 -0.4826  0.3876 -0.8276
19721SOL     OW60603   6.116   3.298   4.454  0.0697 -0.2140  0.5996
19721SOL    HW160604   6.039   3.282   4.508 -0.6397  3.4796  1.0092
19721SOL    HW260605   6.082   3.340   4.375  1.4759 -1.3529 -0.6907
19722SOL     OW60606   5.610   3.095   4.258  0.0976 -0.5640 -0.1634
19722SOL    HW160607   5.583   3.181   4.290  2.8236  1.0297 -1.7570
19722SOL    HW260608   5.585   3.034   4.328 -0.4623  1.7269  1.7554
19723SOL     OW60609   5.528   3.057   3.435 -0.1296 -0.2138  0.0578
19723SOL    HW160610   5.592   3.041   3.505 -0.2100 -1.1406 -0.0565
19723SOL    HW260611   5.443   3.040   3.475 -0.1116 -1.9343 -0.5335
19724SOL     OW60612   6.625   2.997   5.695 -0.0514  0.1278  0.6377
19724SOL    HW160613   6.718   3.010   5.676  0.1525 -1.3453  0.4879
19724SOL    HW260614   6.579   3.051   5.631  0.7039  0.8963  0.7331
19725SOL     OW60615   4.877   3.294   4.922 -0.3502  0.1836  0.2245
19725SOL    HW160616   4.845   3.296   4.831  0.6038 -0.3143 -0.1401
19725SOL    HW260617   4.809   3.337   4.973  0.0984  2.5259 -1.0299
19726SOL     OW60618   7.420   3.594   5.636  0.2337 -0.3762  0.7055
19726SOL    HW160619   7.386   3.505   5.644 -0.0952 -0.2813  0.3900
19726SOL    HW260620   7.489   3.600   5.702 -0.4528 -0.5297  1.4437
19727SOL     OW60621   5.172   4.099   3.455 -0.2334 -0.2263  0.1610
19727SOL    HW160622   5.194   4.110   3.548  1.0197  0.0992 -0.1556
19727SOL    HW260623   5.173   4.188   3.420  0.8354 -0.4668 -0.4726
19728SOL     OW60624   6.540   1.938   5.812 -0.0668 -0.3312  0.1378
19728SOL    HW160625   6.541   1.886   5.732 -1.3239  0.4393 -0.4111
19728SOL    HW260626   6.453   1.977   5.814  0.8036  1.7617  0.4935
19729SOL     OW60627   7.159   3.064   7.467 -0.0522  0.2296 -0.5182
19729SOL    HW160628   7.147   2.977   7.502 -1.2575  1.1333  1.4748
19729SOL    HW260629   7.092   3.072   7.399  1.3083 -0.9965 -2.0950
19730SOL     OW60630   5.150   2.695   4.404 -0.7054 -0.2361 -0.0084
19730SOL    HW160631   5.139   2.772   4.460  0.8206 -1.2836  1.8529
19730SOL    HW260632   5.140   2.621   4.463 -3.9783 -1.6429 -2.0845
19731SOL     OW60633   5.312   2.983   3.553  0.2377  0.6253 -0.1229
19731SOL    HW160634   5.225   3.007   3.523 -0.4932 -0.8187  0.7736
19731SOL    HW260635   5.299   2.946   3.640  1.4085 -1.9283 -0.9501
19732SOL     OW60636   7.594   2.938   4.910 -0.0615  1.1653  0.2271
19732SOL    HW160637   7.546   3.019   4.925  0.1265  1.3864 -0.3256
19732SOL    HW260638   7.608   2.935   4.815 -1.8603 -0.5381 -0.0466
19733SOL     OW60639   6.442   1.404   3.977 -0.1901  0.0978 -0.1139
19733SOL    HW160640   6.365   1.429   4.027 -1.7521  0.4728 -2.5297
19733SOL    HW260641   6.474   1.324   4.019 -1.9080 -0.0663  0.9461
19734SOL     OW60642   4.253   2.296   2.797  0.6182 -0.3871 -0.0660
19734SOL    HW160643   4.331   2.296   2.853 -0.1455  0.2537  1.0404
19734SOL    HW260644   4.220   2.386   2.803 -1.2820 -1.0881  1.0615
19735SOL     OW60645   5.912   3.444   3.702  0.4868 -0.4058 -0.2855
19735SOL    HW160646   6.003   3.416   3.717  0.2593  0.0535  2.4998
19735SOL    HW260647   5.862   3.362   3.703  0.7133 -0.5475 -0.3594
19736SOL     OW60648   7.674   1.833   3.814 -0.3502  0.4901 -0.4125
19736SOL    HW160649   7.663   1.862   3.723 -0.3494 -0.6768 -0.8062
19736SOL    HW260650   7.749   1.882   3.846  2.1717 -1.8324 -2.3227
19737SOL     OW60651   5.020   2.133   7.571  0.1986  0.3021 -0.2039
19737SOL    HW160652   5.052   2.209   7.523 -0.7176  1.8631  1.5236
19737SOL    HW260653   4.928   2.125   7.545 -0.0534  0.5947  0.5572
19738SOL     OW60654   7.218   3.965   4.848  0.4668 -0.4168 -0.2532
19738SOL    HW160655   7.135   3.972   4.801 -0.2221 -1.0197  0.8234
19738SOL    HW260656   7.198   3.910   4.924  2.0034 -1.1016 -0.3017
19739SOL     OW60657   7.494   6.020   5.816  0.0858  0.0136  0.2129
19739SOL    HW160658   7.505   6.055   5.728  0.8636 -1.8562 -0.4901
19739SOL    HW260659   7.404   5.988   5.818 -0.2180  0.8483  0.4300
19740SOL     OW60660   5.566   1.886   3.867 -0.0400 -0.6226 -0.8640
19740SOL    HW160661   5.569   1.808   3.922  0.0593  0.2110  0.3295
19740SOL    HW260662   5.547   1.958   3.927 -0.3308  0.2582 -1.9737
19741SOL     OW60663   5.547   2.963   5.257 -0.2546 -0.1982 -0.2150
19741SOL    HW160664   5.509   2.917   5.182 -0.3427  1.4828 -1.2654
19741SOL    HW260665   5.642   2.957   5.244 -0.2352 -1.1939  0.3659
19742SOL     OW60666   6.048   3.613   4.701 -0.1173  0.3140  0.3760
19742SOL    HW160667   6.109   3.565   4.757 -0.5173 -0.7460 -0.0505
19742SOL    HW260668   6.041   3.700   4.740  1.0000  0.1716  0.9104
19743SOL     OW60669   6.262   1.298   6.157  0.1649  0.9093 -0.3847
19743SOL    HW160670   6.323   1.233   6.122 -0.7141 -0.6112  0.7842
19743SOL    HW260671   6.305   1.331   6.235  0.1408  0.9499 -0.3887
19744SOL     OW60672   5.094   2.731   3.953  0.3307 -0.2031 -0.1968
19744SOL    HW160673   5.134   2.800   4.006  1.3969 -1.2432  0.3967
19744SOL    HW260674   5.025   2.776   3.904  0.1885  1.0528  1.0802
19745SOL     OW60675   5.927   2.061   6.192 -0.2251  0.0169  0.0563
19745SOL    HW160676   5.981   2.140   6.186 -0.1291 -0.1290 -1.1548
19745SOL    HW260677   5.860   2.083   6.257 -0.5224  1.3040 -0.6428
19746SOL     OW60678   7.083   0.664   6.048  0.5203 -0.2258 -0.4583
19746SOL    HW160679   7.105   0.744   6.000 -0.6833  0.3010 -0.1756
19746SOL    HW260680   7.096   0.594   5.984  0.8081  0.2725 -0.9647
19747SOL     OW60681   5.739   2.087   2.845 -0.2128 -0.1176  0.5937
19747SOL    HW160682   5.677   2.089   2.917 -0.5040 -0.6174  0.3571
19747SOL    HW260683   5.752   1.995   2.825  0.3968 -0.0100  0.4577
19748SOL     OW60684   4.822   3.238   4.037  0.1841 -0.0263  0.2978
19748SOL    HW160685   4.736   3.197   4.032 -0.1779  0.7149  0.3869
19748SOL    HW260686   4.822   3.304   3.968  0.3132  0.6477  0.9291
19749SOL     OW60687   7.653   3.405   6.044 -0.0752 -0.6017  0.1055
19749SOL    HW160688   7.656   3.482   6.102  1.1308 -0.7628  0.2669
19749SOL    HW260689   7.608   3.339   6.096 -1.4832  0.0929 -0.1759
19750SOL     OW60690   6.630   2.031   4.463 -0.5182 -0.1543  0.2167
19750SOL    HW160691   6.675   2.075   4.391  0.0486  0.6185  1.0140
19750SOL    HW260692   6.628   1.939   4.439  0.4386 -0.0243 -0.3816
19751SOL     OW60693   6.422   2.523   7.304 -0.0425 -0.0946 -0.5458
19751SOL    HW160694   6.425   2.619   7.299 -0.4373 -0.0792 -0.4753
19751SOL    HW260695   6.447   2.504   7.394  0.1172 -0.0628 -0.5827
19752SOL     OW60696   7.234   0.347   2.972  0.0060 -0.0834 -0.0749
19752SOL    HW160697   7.256   0.355   2.879  0.1831  1.4331  0.0665
19752SOL    HW260698   7.155   0.400   2.983  1.1488  1.4934  0.9946
19753SOL     OW60699   4.728   0.736   4.305  0.4504 -0.1745  0.0113
19753SOL    HW160700   4.636   0.747   4.281  0.4816 -2.3093 -1.3456
19753SOL    HW260701   4.769   0.820   4.282 -0.9743  0.4840 -0.2188
19754SOL     OW60702   7.440   3.501   3.773  0.3708  0.6481 -0.1817
19754SOL    HW160703   7.432   3.449   3.853  2.0169  1.2208  0.4027
19754SOL    HW260704   7.364   3.559   3.774  1.3445  2.0429  2.0705
19755SOL     OW60705   5.093   2.617   5.673 -0.3024 -0.1478  0.0610
19755SOL    HW160706   5.000   2.634   5.689 -0.4418 -1.4825  0.8384
19755SOL    HW260707   5.124   2.574   5.753  1.3455  1.5071  0.3749
19756SOL     OW60708   6.805   2.436   5.757 -0.6392  0.0834  0.2454
19756SOL    HW160709   6.775   2.351   5.788 -1.8664  0.0048 -1.0426
19756SOL    HW260710   6.884   2.454   5.807 -1.3733 -0.9739  1.8493
19757SOL     OW60711   7.008   3.382   5.370 -0.0191 -0.7661  0.3828
19757SOL    HW160712   6.982   3.427   5.290 -1.3442 -1.9691  0.0873
19757SOL    HW260713   7.096   3.415   5.389  0.0668  0.0160 -1.2024
19758SOL     OW60714   5.845   2.512   2.121 -0.4447  0.5372 -0.3162
19758SOL    HW160715   5.854   2.436   2.179 -0.6470  0.0770 -0.8797
19758SOL    HW260716   5.753   2.512   2.095 -0.4278  0.9339 -0.3849
19759SOL     OW60717   5.554   0.673   7.390  0.2783 -0.6810  0.1216
19759SOL    HW160718   5.644   0.646   7.405  1.0046  1.6976  0.5561
19759SOL    HW260719   5.544   0.672   7.294  1.3901  0.7207 -0.0388
19760SOL     OW60720   4.348   2.243   5.534  1.0806  0.4175  0.0158
19760SOL    HW160721   4.377   2.174   5.593 -0.1784  0.1016  0.2923
19760SOL    HW260722   4.385   2.220   5.449  0.7902 -0.5061  0.1373
19761SOL     OW60723   6.173   2.360   4.320 -0.4265  0.3407  0.1552
19761SOL    HW160724   6.224   2.440   4.309 -0.4776  0.4918  0.9304
19761SOL    HW260725   6.208   2.300   4.254  0.8514  0.3917  0.7552
19762SOL     OW60726   6.274   3.359   5.979 -0.1984  0.3036 -0.4240
19762SOL    HW160727   6.229   3.276   5.997 -0.8032  0.9251  1.1401
19762SOL    HW260728   6.250   3.415   6.052  2.4457  0.9801  0.0302
19763SOL     OW60729   0.993   3.054   3.212  0.1500  0.3191 -0.4127
19763SOL    HW160730   1.081   3.086   3.191  0.8578 -0.9515  0.5010
19763SOL    HW260731   0.939   3.133   3.215  1.5432  1.2769  0.3564
19764SOL     OW60732   7.828   3.135   3.080  0.2712  0.3030 -0.0285
19764SOL    HW160733   7.807   3.191   3.154  0.8512 -0.2180  0.5345
19764SOL    HW260734   7.755   3.073   3.076 -0.0045  0.6339 -0.2036
19765SOL     OW60735   4.834   3.163   3.041 -0.4841 -0.2919  0.5048
19765SOL    HW160736   4.907   3.155   3.102  0.1033 -0.8918 -0.2403
19765SOL    HW260737   4.809   3.072   3.022 -0.7965 -0.1107  0.0276
19766SOL     OW60738   5.024   3.225   5.790 -0.0816 -0.0347 -0.7297
19766SOL    HW160739   4.940   3.208   5.747  0.0618 -1.1746 -0.5652
19766SOL    HW260740   5.019   3.318   5.814 -1.7041 -0.3222  0.1822
19767SOL     OW60741   5.707   3.829   5.101 -0.5285  0.2647  0.8670
19767SOL    HW160742   5.612   3.813   5.104 -0.3422 -1.2618 -0.4233
19767SOL    HW260743   5.734   3.797   5.015  1.2906  0.0149  1.4981
19768SOL     OW60744   5.445   1.789   4.761  0.1008 -0.2075  0.3893
19768SOL    HW160745   5.519   1.836   4.801 -0.4631  0.0238  1.1872
19768SOL    HW260746   5.368   1.823   4.807 -0.4970 -0.4951 -0.3918
19769SOL     OW60747   4.886   0.615   3.026 -0.5228 -0.1309 -0.1096
19769SOL    HW160748   4.838   0.613   3.109  0.3311 -1.6603  0.3854
19769SOL    HW260749   4.820   0.639   2.961 -1.2809  0.7576  0.9547
19770SOL     OW60750   6.091   2.665   5.186  0.5130 -0.2547 -0.0215
19770SOL    HW160751   6.059   2.609   5.257  0.4415  0.4706  0.5315
19770SOL    HW260752   6.187   2.661   5.193  0.5074 -0.2624  0.0498
19771SOL     OW60753   6.673   4.688   4.551 -0.1928  0.3317  0.0929
19771SOL    HW160754   6.763   4.720   4.561  0.2812 -0.9431  0.1612
19771SOL    HW260755   6.650   4.654   4.637 -1.3520  2.0546  0.5149
19772SOL     OW60756   5.017   2.547   5.162  0.8914 -0.1302  0.5887
19772SOL    HW160757   4.975   2.526   5.246  1.5971  0.4342  1.0971
19772SOL    HW260758   4.949   2.531   5.097  0.8855 -2.3874  1.0659
19773SOL     OW60759   6.318   4.568   4.622  0.2893 -0.1626  0.1636
19773SOL    HW160760   6.294   4.476   4.636  1.8025 -0.7254 -0.6469
19773SOL    HW260761   6.409   4.564   4.590  0.3137  1.6041 -0.0767
19774SOL     OW60762   4.393   1.821   4.928  0.0207 -0.1397  0.2982
19774SOL    HW160763   4.417   1.845   4.839 -2.6487 -0.4098 -0.6007
19774SOL    HW260764   4.304   1.856   4.938  0.3889  0.2155  3.0162
19775SOL     OW60765   0.239   2.100   2.814 -0.0439  0.2384 -0.3525
19775SOL    HW160766   0.208   2.120   2.726 -0.6619 -1.9076 -0.6558
19775SOL    HW260767   0.314   2.043   2.801 -0.4247 -0.4834  0.5132
19776SOL     OW60768   6.884   4.992   4.400 -0.3197  0.4985  0.4956
19776SOL    HW160769   6.806   5.044   4.415 -1.5342  0.1986 -3.5596
19776SOL    HW260770   6.934   5.042   4.335 -0.8193 -2.4851 -2.4511
19777SOL     OW60771   6.366   0.451   3.508 -0.1092  0.5447 -0.3740
19777SOL    HW160772   6.454   0.483   3.486  0.9672 -1.2433  0.9919
19777SOL    HW260773   6.382   0.382   3.573 -2.2771 -1.9106 -2.2123
19778SOL     OW60774   6.665   3.603   4.781  0.0189 -0.2455  0.3984
19778SOL    HW160775   6.680   3.554   4.700 -3.4503 -1.1615  0.1669
19778SOL    HW260776   6.626   3.685   4.753 -2.4834 -1.1175  1.0759
19779SOL     OW60777   4.906   1.248   5.525 -0.6817 -0.1865  0.0596
19779SOL    HW160778   4.853   1.327   5.537 -0.6731 -0.0107 -0.9866
19779SOL    HW260779   4.854   1.179   5.564 -0.9746  0.2329  0.4279
19780SOL     OW60780   7.608   5.459   4.765  0.3869 -0.1470  0.4760
19780SOL    HW160781   7.562   5.441   4.682  1.8362  0.9153 -0.6023
19780SOL    HW260782   7.560   5.407   4.830  0.8594 -3.2860 -1.4561
19781SOL     OW60783   5.957   2.850   2.777  0.4680  0.1568 -0.5464
19781SOL    HW160784   5.935   2.878   2.688  0.9816  1.1555 -0.3748
19781SOL    HW260785   5.993   2.928   2.819 -0.4231 -0.0841  0.7673
19782SOL     OW60786   4.241   3.867   1.916  0.0672  0.0879 -0.1193
19782SOL    HW160787   4.175   3.849   1.984 -1.3269 -0.1952 -1.4820
19782SOL    HW260788   4.196   3.925   1.854  0.9060 -0.5621 -1.3758
19783SOL     OW60789   4.825   2.328   3.562 -0.1974 -0.0181  0.4834
19783SOL    HW160790   4.908   2.332   3.516  0.0619  0.5405  0.9845
19783SOL    HW260791   4.824   2.241   3.603 -0.1891 -0.3049 -0.1196
19784SOL     OW60792   5.819   2.393   4.653 -0.0712 -0.2720 -0.6248
19784SOL    HW160793   5.745   2.401   4.592  0.4473 -0.9450 -1.3615
19784SOL    HW260794   5.780   2.357   4.732 -0.3976 -1.5056 -1.3222
19785SOL     OW60795   6.959   2.617   2.943  0.3417 -0.8474 -0.2558
19785SOL    HW160796   6.941   2.534   2.988  0.5958 -0.9227 -0.2938
19785SOL    HW260797   7.007   2.669   3.007 -0.8402 -0.2759  0.1921
19786SOL     OW60798   6.254   2.499   6.277 -0.5023  0.1904  0.1578
19786SOL    HW160799   6.325   2.546   6.232  0.1359 -0.6609  0.2700
19786SOL    HW260800   6.258   2.531   6.367 -1.5974  1.6818 -0.2731
19787SOL     OW60801   5.810   2.192   5.374 -0.1671 -0.1560 -0.5858
19787SOL    HW160802   5.715   2.179   5.381 -0.1711  0.1868  0.0455
19787SOL    HW260803   5.845   2.105   5.356 -0.6126 -0.2559 -1.0072
19788SOL     OW60804   7.155   2.153   4.590  0.4574  0.6720  0.1283
19788SOL    HW160805   7.121   2.145   4.679 -1.8049  2.0376 -0.5351
19788SOL    HW260806   7.217   2.081   4.581  0.3343  0.1814  2.6063
19789SOL     OW60807   7.286   3.801   4.001  0.5329 -0.2237  0.6362
19789SOL    HW160808   7.292   3.791   4.096 -0.4932 -0.4065  0.6896
19789SOL    HW260809   7.298   3.712   3.966  1.9132 -0.0167  0.5218
19790SOL     OW60810   0.147   4.553   5.152  0.7720  0.1076  0.5256
19790SOL    HW160811   0.170   4.568   5.060  0.8822  0.2602  0.5786
19790SOL    HW260812   0.225   4.512   5.190  0.2646 -1.1646  0.2353
19791SOL     OW60813   7.815   3.420   4.199  0.1400 -0.3706  0.3081
19791SOL    HW160814   7.737   3.471   4.176 -0.7434 -1.8482 -0.1290
19791SOL    HW260815   7.888   3.479   4.181 -0.6726 -0.1797 -2.8719
19792SOL     OW60816   6.951   2.225   4.051  0.1378  0.0978  0.5079
19792SOL    HW160817   7.008   2.204   4.125  2.3789  2.8273 -0.2672
19792SOL    HW260818   6.991   2.180   3.977  0.7512  1.1463  0.1677
19793SOL     OW60819   0.030   0.548   2.574  0.0598 -0.5224  0.3558
19793SOL    HW160820  -0.038   0.613   2.591 -0.5776 -0.6324 -1.5538
19793SOL    HW260821   0.078   0.583   2.498  2.6525 -0.0833  2.0653
19794SOL     OW60822   7.290   2.907   6.319 -0.3155 -0.0669 -0.5560
19794SOL    HW160823   7.363   2.850   6.294 -1.2252 -1.4472 -0.1552
19794SOL    HW260824   7.212   2.856   6.300 -1.2316  1.6281 -1.5631
19795SOL     OW60825   4.599   1.927   5.975 -0.1281 -0.9957  0.5841
19795SOL    HW160826   4.626   2.001   5.921  1.4653 -2.0317 -0.1147
19795SOL    HW260827   4.677   1.872   5.982 -0.2262 -0.9308  4.0141
19796SOL     OW60828   7.313   5.165   4.454 -0.1563 -0.0019 -0.3646
19796SOL    HW160829   7.272   5.079   4.467 -0.5223  0.2844  0.4531
19796SOL    HW260830   7.240   5.227   4.459  0.0542  0.3407 -1.3095
19797SOL     OW60831   4.295   2.289   6.070  0.0704  0.0542 -0.3714
19797SOL    HW160832   4.302   2.324   5.981  1.8985 -1.2290 -0.8139
19797SOL    HW260833   4.327   2.360   6.126  0.4658  0.3115 -0.9074
19798SOL     OW60834   5.887   1.357   6.161 -0.4278  0.3461  0.3431
19798SOL    HW160835   5.836   1.301   6.103 -1.4027  2.5475 -1.0165
19798SOL    HW260836   5.822   1.405   6.212  0.3849  0.3734  1.3949
19799SOL     OW60837   5.195   2.674   2.982  0.2824  0.1298  0.4086
19799SOL    HW160838   5.266   2.622   3.018  0.8741 -0.1183 -1.0405
19799SOL    HW260839   5.239   2.746   2.937 -0.2413 -0.8777 -1.8654
19800SOL     OW60840   5.532   2.112   3.705  0.0379 -0.3049  0.7898
19800SOL    HW160841   5.444   2.098   3.668  0.2535  0.4609 -0.0357
19800SOL    HW260842   5.564   2.023   3.723  0.0487 -0.7480 -1.1664
19801SOL     OW60843   5.010   1.645   1.881 -0.3667 -0.2074 -0.0888
19801SOL    HW160844   5.011   1.605   1.968  0.5129 -1.2426 -0.5497
19801SOL    HW260845   5.100   1.634   1.849 -1.1471 -1.6973 -1.9479
19802SOL     OW60846   5.362   3.361   4.748 -0.2632 -0.0289 -0.2626
19802SOL    HW160847   5.273   3.390   4.729 -0.3560 -0.2827 -0.2174
19802SOL    HW260848   5.367   3.359   4.844  0.3985  1.8539 -0.2190
19803SOL     OW60849   6.275   1.772   4.003 -0.0321 -0.2796 -0.1423
19803SOL    HW160850   6.338   1.734   3.943 -0.8266  0.4374 -1.4731
19803SOL    HW260851   6.197   1.787   3.950 -1.1559 -0.6628  1.3346
19804SOL     OW60852   6.937   4.773   5.006 -0.1001 -0.4644  0.1274
19804SOL    HW160853   6.857   4.786   5.057  1.1865 -0.5768  2.3107
19804SOL    HW260854   6.963   4.683   5.025  1.0051 -0.1435  0.1815
19805SOL     OW60855   4.532   4.095   2.198  0.6988  0.1324 -0.9544
19805SOL    HW160856   4.541   4.136   2.283 -1.5134 -0.8819 -0.1497
19805SOL    HW260857   4.445   4.120   2.167 -1.6379 -4.9189  0.3642
19806SOL     OW60858   5.480   2.881   3.255 -0.5549  0.4098  0.1735
19806SOL    HW160859   5.505   2.945   3.322  0.0031 -0.5009  0.8530
19806SOL    HW260860   5.546   2.892   3.186 -1.6003  1.9184 -0.6494
19807SOL     OW60861   7.080   4.501   3.951 -0.5819 -0.4193 -0.3124
19807SOL    HW160862   7.113   4.572   4.007  0.5218  1.2400 -2.8906
19807SOL    HW260863   7.083   4.423   4.007 -0.0131  1.1910  2.0582
19808SOL     OW60864   6.972   4.043   4.037 -0.1780  0.6249 -0.9194
19808SOL    HW160865   6.901   4.104   4.020  0.0446  1.0365 -0.3810
19808SOL    HW260866   6.985   4.046   4.132  2.3134  2.5689 -1.2214
19809SOL     OW60867   5.281   2.442   3.958  0.1290  0.0852  0.1445
19809SOL    HW160868   5.278   2.399   3.872  1.8372  2.3102 -1.1527
19809SOL    HW260869   5.190   2.463   3.977 -0.4926 -1.9718 -0.2275
19810SOL     OW60870   6.438   4.769   4.841  0.3566 -0.5346  0.0895
19810SOL    HW160871   6.479   4.705   4.900 -1.0254 -0.5061  1.1245
19810SOL    HW260872   6.385   4.716   4.782  1.3383 -0.5221 -0.8294
19811SOL     OW60873   6.930   1.375   7.268 -0.6714 -0.4205  1.0881
19811SOL    HW160874   6.975   1.290   7.278  0.7532  0.1937  0.2001
19811SOL    HW260875   6.891   1.371   7.181  0.6734  0.3824  0.4235
19812SOL     OW60876   6.446   5.253   5.487  0.2114  0.0697  0.2595
19812SOL    HW160877   6.372   5.259   5.427  1.4912  0.0708 -1.3860
19812SOL    HW260878   6.429   5.174   5.537 -1.2642  0.4723  0.4567
19813SOL     OW60879   6.756   1.141   6.404 -0.0393  0.2205  0.1048
19813SOL    HW160880   6.770   1.235   6.392 -0.2572  0.1697 -0.5706
19813SOL    HW260881   6.688   1.119   6.341  0.2411 -0.4591  0.0360
19814SOL     OW60882   3.573   2.242   7.017  0.0328  0.2325 -0.3020
19814SOL    HW160883   3.491   2.193   7.019 -0.9100  1.7444 -0.2240
19814SOL    HW260884   3.568   2.300   7.093 -0.0590  2.2094 -1.7309
19815SOL     OW60885   5.822   2.583   3.240 -0.4586 -0.0832 -0.4086
19815SOL    HW160886   5.758   2.547   3.178  0.0810 -0.7480 -0.5946
19815SOL    HW260887   5.864   2.655   3.192 -0.3413 -0.3200 -0.6619
19816SOL     OW60888   6.697   2.199   4.682 -0.3371  0.1896 -0.0464
19816SOL    HW160889   6.788   2.174   4.671 -0.5243 -0.1629 -0.8516
19816SOL    HW260890   6.649   2.145   4.619 -1.0026  0.9590 -0.2221
19817SOL     OW60891   6.233   2.682   3.969  0.5920  0.0021 -0.2705
19817SOL    HW160892   6.199   2.739   3.900  1.0453 -0.2956 -0.7396
19817SOL    HW260893   6.155   2.640   4.006  0.2358  1.0261  0.1827
19818SOL     OW60894   5.372   0.956   4.278 -0.1817 -0.4306  0.5907
19818SOL    HW160895   5.361   0.933   4.185 -0.7160  1.0939  0.2532
19818SOL    HW260896   5.467   0.959   4.290 -0.1049  0.1369 -0.1108
19819SOL     OW60897   5.683   3.289   5.788  0.6223  0.0712 -0.5541
19819SOL    HW160898   5.702   3.246   5.871 -0.5573 -4.0642 -2.1656
19819SOL    HW260899   5.769   3.304   5.749  1.1582  1.4564  1.0391
19820SOL     OW60900   6.586   1.963   6.876  0.7515  0.3545 -1.1602
19820SOL    HW160901   6.569   2.057   6.878  0.4292  0.3277 -2.1192
19820SOL    HW260902   6.650   1.952   6.805  0.9202 -0.1320 -0.9371
19821SOL     OW60903   6.250   0.974   6.443 -0.6288  0.0134  0.5651
19821SOL    HW160904   6.282   0.985   6.354  0.3716 -1.5055  0.7042
19821SOL    HW260905   6.204   0.890   6.441 -0.3174 -0.1901  1.5354
19822SOL     OW60906   5.633   0.707   3.214 -0.4247  0.5140 -0.7221
19822SOL    HW160907   5.565   0.755   3.262 -0.7802 -0.7126  0.0489
19822SOL    HW260908   5.584   0.645   3.160  0.0504  0.4390 -1.0647
19823SOL     OW60909   6.690   2.191   3.669  0.2059 -0.2871 -0.3449
19823SOL    HW160910   6.697   2.100   3.699  0.3215 -0.3009 -0.4129
19823SOL    HW260911   6.779   2.225   3.674  0.0027  0.1440  0.6863
19824SOL     OW60912   5.440   1.713   4.280 -0.5071  0.5844  0.6564
19824SOL    HW160913   5.459   1.795   4.324 -1.8240  0.7337  1.0076
19824SOL    HW260914   5.381   1.667   4.340 -2.5146  0.8730 -0.9754
19825SOL     OW60915   5.573   3.673   5.873  0.2677 -0.4666  0.9369
19825SOL    HW160916   5.517   3.698   5.799  1.5311  0.0854  0.1452
19825SOL    HW260917   5.603   3.756   5.909  0.7680 -0.7620  1.2049
19826SOL     OW60918   5.897   3.360   6.491 -0.2299 -0.3926  0.1372
19826SOL    HW160919   5.876   3.280   6.443  2.0789 -0.7118 -0.4671
19826SOL    HW260920   5.878   3.431   6.429 -1.0909 -0.5438  0.2237
19827SOL     OW60921   5.811   3.535   5.335  0.2727  0.0268  0.5070
19827SOL    HW160922   5.732   3.491   5.304  1.1554  0.6791 -2.9967
19827SOL    HW260923   5.787   3.627   5.341  1.1080  0.4968 -2.2460
19828SOL     OW60924   7.150   2.456   2.757  0.4403 -0.8640  0.0838
19828SOL    HW160925   7.101   2.383   2.796  0.2860  0.1450  1.8709
19828SOL    HW260926   7.127   2.452   2.664 -0.8915 -2.0811  0.4161
19829SOL     OW60927   7.692   6.204   4.349  0.2578 -0.0173  0.3776
19829SOL    HW160928   7.679   6.240   4.262 -0.2458 -0.7337  0.1386
19829SOL    HW260929   7.774   6.241   4.380 -0.6646  2.0168  0.5240
19830SOL     OW60930   5.515   2.335   4.149 -0.1484 -0.4614  0.1153
19830SOL    HW160931   5.518   2.389   4.070 -3.3230  0.4466  0.4909
19830SOL    HW260932   5.600   2.349   4.190  0.0826  2.3050 -1.0800
19831SOL     OW60933   5.337   1.855   2.698 -0.0264  0.1851 -0.4623
19831SOL    HW160934   5.379   1.937   2.673  1.7163 -0.6493 -0.3814
19831SOL    HW260935   5.360   1.844   2.791  1.7566 -1.5084 -1.0380
19832SOL     OW60936   6.697   2.213   3.154  0.1208 -0.1821  0.3899
19832SOL    HW160937   6.659   2.213   3.242  0.9862 -0.3944  0.7718
19832SOL    HW260938   6.650   2.143   3.108  0.7302 -1.1236  1.1630
19833SOL     OW60939   7.648   3.838   6.129 -0.0255  0.1883  0.1466
19833SOL    HW160940   7.658   3.876   6.042 -2.3621 -0.4336 -0.4416
19833SOL    HW260941   7.562   3.866   6.158  0.0065 -1.0402  1.5401
19834SOL     OW60942   6.871   1.543   6.105 -0.2733  0.3441  0.3294
19834SOL    HW160943   6.779   1.557   6.125 -0.2242  0.5613  0.4042
19834SOL    HW260944   6.909   1.631   6.104 -0.3439  0.3837 -1.0153
19835SOL     OW60945   6.330   3.686   4.042  0.5639  0.1366 -0.3675
19835SOL    HW160946   6.342   3.614   4.103  0.4196  1.2714  1.0481
19835SOL    HW260947   6.323   3.644   3.956 -1.9654 -1.7247  0.6284
19836SOL     OW60948   5.733   2.581   4.004  0.1556 -0.2119 -0.2510
19836SOL    HW160949   5.740   2.496   3.963 -2.1777 -0.3454 -0.5078
19836SOL    HW260950   5.662   2.625   3.957  0.1375  1.1823  0.9907
19837SOL     OW60951   4.738   2.135   5.845 -0.2618  0.1560 -0.0676
19837SOL    HW160952   4.811   2.182   5.887  0.8275 -0.8725 -0.7528
19837SOL    HW260953   4.680   2.205   5.815  0.8299  1.0400 -0.2045
19838SOL     OW60954   6.655   1.810   3.977 -0.0413  0.0677  0.1910
19838SOL    HW160955   6.602   1.731   3.970  2.4528 -1.5767 -1.1414
19838SOL    HW260956   6.735   1.782   4.020 -0.1635  2.5227  2.2840
19839SOL     OW60957   6.554   1.740   2.069 -0.3472  0.1628 -0.2401
19839SOL    HW160958   6.629   1.800   2.070 -0.8577  0.8668  2.0514
19839SOL    HW260959   6.494   1.778   2.005  1.0690 -0.2392 -1.8879
19840SOL     OW60960   5.287   2.477   4.272  0.0922  0.2059 -0.6269
19840SOL    HW160961   5.278   2.565   4.309 -2.1808  0.6773 -2.1066
19840SOL    HW260962   5.366   2.481   4.219 -0.0281  1.3899 -0.7457
19841SOL     OW60963   7.428   4.735   5.673 -0.0175  0.6422 -0.2457
19841SOL    HW160964   7.481   4.808   5.705  0.2957  0.9334 -1.3857
19841SOL    HW260965   7.351   4.735   5.730  0.0227  1.8004 -0.1573
19842SOL     OW60966   6.477   2.871   5.430  0.2838  0.0474 -0.3291
19842SOL    HW160967   6.447   2.936   5.494 -0.9828 -1.5392  0.7886
19842SOL    HW260968   6.572   2.874   5.435  0.2355  1.3700  0.1459
19843SOL     OW60969   5.152   3.524   4.499  0.0184  0.0830  0.0968
19843SOL    HW160970   5.142   3.431   4.523  0.5546  0.2893  1.1591
19843SOL    HW260971   5.178   3.567   4.580 -0.1067  1.1564 -0.4183
19844SOL     OW60972   6.056   3.107   5.869  0.3034 -0.0949  0.1875
19844SOL    HW160973   5.974   3.112   5.821  0.7694 -1.4828 -0.8209
19844SOL    HW260974   6.036   3.145   5.955 -1.4952 -0.7414  0.0997
19845SOL     OW60975   5.553   2.103   5.348 -0.2444 -0.4720  0.2333
19845SOL    HW160976   5.502   2.110   5.429  0.2882 -1.5884  0.6739
19845SOL    HW260977   5.556   2.009   5.329 -2.5299 -0.1572 -2.4988
19846SOL     OW60978   6.540   3.999   5.692  0.2326 -0.0542  0.0838
19846SOL    HW160979   6.498   3.996   5.778 -0.0858  1.6616  0.0142
19846SOL    HW260980   6.588   3.916   5.686 -1.8063 -1.3532  0.8292
19847SOL     OW60981   5.737   1.806   5.034  0.1836 -0.6853  0.5179
19847SOL    HW160982   5.719   1.891   4.995 -1.2978  0.1693  2.8704
19847SOL    HW260983   5.831   1.810   5.056  0.1805  0.2608  0.4150
19848SOL     OW60984   0.012   1.596   6.555  0.0459 -0.2239 -0.2896
19848SOL    HW160985  -0.021   1.511   6.586  1.0268 -0.1178  1.1510
19848SOL    HW260986   0.106   1.583   6.546  0.1798  0.6567 -0.2128
19849SOL     OW60987   6.757   2.437   3.534 -1.0228  0.0885 -0.3302
19849SOL    HW160988   6.719   2.450   3.621 -1.6504  1.1732 -0.7443
19849SOL    HW260989   6.839   2.390   3.550 -0.3440  1.6309  1.0150
19850SOL     OW60990   7.638   1.898   4.489 -0.3846  0.0620  0.0379
19850SOL    HW160991   7.673   1.860   4.569 -0.6661  0.5835  0.4159
19850SOL    HW260992   7.688   1.979   4.478  0.9194 -0.8714 -1.3081
19851SOL     OW60993   4.259   1.477   5.370  0.4995 -0.4934 -0.1124
19851SOL    HW160994   4.291   1.495   5.459  0.4372  0.8099 -0.3245
19851SOL    HW260995   4.203   1.552   5.350 -0.9964 -1.6802 -0.5588
19852SOL     OW60996   5.386   2.260   4.385  0.5598 -0.0913 -0.0705
19852SOL    HW160997   5.463   2.285   4.334 -0.3625  0.4990 -1.2226
19852SOL    HW260998   5.336   2.341   4.394 -1.5809 -1.0413 -2.2708
19853SOL     OW60999   5.855   2.748   4.526 -0.8816  0.5070  0.3110
19853SOL    HW161000   5.906   2.826   4.549  0.9928 -0.5601 -0.0718
19853SOL    HW261001   5.791   2.779   4.462  0.4016  1.5759 -0.4984
19854SOL     OW61002   6.394   2.878   3.429 -0.0759  0.2588 -0.3807
19854SOL    HW161003   6.369   2.895   3.520 -0.7077 -0.4227 -0.4133
19854SOL    HW261004   6.489   2.885   3.428 -0.1700  2.3071 -0.1127
19855SOL     OW61005   7.503   5.076   4.297 -0.0254 -0.3169 -1.0349
19855SOL    HW161006   7.452   5.128   4.358  0.8594 -0.0809 -0.4701
19855SOL    HW261007   7.499   4.986   4.330  3.4739  0.2858  1.6607
19856SOL     OW61008   5.562   3.449   5.241 -0.0297 -0.7970 -0.3445
19856SOL    HW161009   5.554   3.417   5.152 -1.8259 -0.0394 -0.5047
19856SOL    HW261010   5.505   3.526   5.244  0.9895 -0.0422  1.1145
19857SOL     OW61011   6.729   3.065   3.793  0.0174  0.2154  0.0323
19857SOL    HW161012   6.673   2.999   3.752  1.0406  0.6143 -2.1413
19857SOL    HW261013   6.818   3.040   3.766  0.9137 -0.0303  2.8484
19858SOL     OW61014   5.650   3.467   4.891  0.3406  0.0701  0.0808
19858SOL    HW161015   5.666   3.559   4.873 -0.9324  0.1699 -0.7076
19858SOL    HW261016   5.555   3.459   4.895  0.4496 -0.9891  1.4405
19859SOL     OW61017   4.895   2.819   4.350  0.4140 -0.3786  0.0950
19859SOL    HW161018   4.957   2.747   4.346 -0.4921 -1.1653 -0.0493
19859SOL    HW261019   4.948   2.896   4.370  1.5279 -0.9156 -0.7118
19860SOL     OW61020   6.821   4.114   4.395 -0.1977 -0.3535 -0.2396
19860SOL    HW161021   6.916   4.128   4.399 -0.0859 -1.3768  2.3830
19860SOL    HW261022   6.811   4.019   4.386 -1.0526 -0.1002 -3.2953
19861SOL     OW61023   6.174   2.358   3.159  0.5107  0.9507 -0.3772
19861SOL    HW161024   6.119   2.280   3.169  0.5703  1.1103  1.3730
19861SOL    HW261025   6.199   2.357   3.066  0.9063 -1.3689 -0.2944
19862SOL     OW61026   7.020   2.248   4.827  0.0997  0.3260 -0.2635
19862SOL    HW161027   6.942   2.284   4.870  0.9451  1.5594  0.3000
19862SOL    HW261028   7.022   2.156   4.854 -0.4887  0.5899  0.7185
19863SOL     OW61029   5.979   3.752   4.451  0.4637 -0.3118  0.3081
19863SOL    HW161030   5.975   3.690   4.524 -1.1621 -0.1090  0.4167
19863SOL    HW261031   6.041   3.819   4.481  0.0358 -0.3809  1.4046
19864SOL     OW61032   6.010   1.822   5.093  0.0167 -0.2607 -0.0037
19864SOL    HW161033   6.086   1.766   5.107  0.6748  0.9100  1.3938
19864SOL    HW261034   6.039   1.887   5.029  0.2117  0.1906  0.5346
19865SOL     OW61035   7.289   3.074   3.995  0.5664  0.1572  0.4118
19865SOL    HW161036   7.296   3.019   4.073  0.1918 -1.4127 -0.6169
19865SOL    HW261037   7.229   3.026   3.937 -1.0836  2.4448  0.1014
19866SOL     OW61038   6.508   4.064   4.496  0.0045  0.3704  0.5424
19866SOL    HW161039   6.437   4.114   4.535 -0.8201  0.2395 -0.7309
19866SOL    HW261040   6.544   4.122   4.429 -1.6825 -1.0179 -1.7234
19867SOL     OW61041   7.774   3.482   3.450 -0.7520 -0.6131 -0.3679
19867SOL    HW161042   7.693   3.529   3.432  0.1567  0.9856 -0.5159
19867SOL    HW261043   7.822   3.484   3.367  0.1966  0.0500  0.1828
19868SOL     OW61044   5.903   2.919   3.899 -0.1396 -0.0436  0.3503
19868SOL    HW161045   5.914   2.824   3.907  0.3193  0.0190  0.4660
19868SOL    HW261046   5.824   2.938   3.950  2.2221  0.2406  4.3187
19869SOL     OW61047   5.462   0.792   5.497 -0.6332 -0.4164 -0.6712
19869SOL    HW161048   5.499   0.827   5.416  0.2887  1.2334  0.4199
19869SOL    HW261049   5.493   0.701   5.499  2.1468  0.4489 -0.5775
19870SOL     OW61050   5.596   4.293   4.840  0.3740  0.1179 -0.8124
19870SOL    HW161051   5.663   4.234   4.875  0.0657  0.5551  0.5825
19870SOL    HW261052   5.518   4.239   4.831 -0.1228  0.4136  1.1778
19871SOL     OW61053   0.776   2.682   5.030 -0.0097 -0.0069  0.1454
19871SOL    HW161054   0.713   2.693   5.101 -1.2274  2.8884 -1.2660
19871SOL    HW261055   0.724   2.660   4.953  0.7942  1.1427 -0.7690
19872SOL     OW61056   5.341   1.405   4.353  0.4246  0.1473 -0.0819
19872SOL    HW161057   5.428   1.397   4.393 -0.4833 -0.7852  1.8094
19872SOL    HW261058   5.290   1.454   4.417 -0.2727  1.3992 -1.5387
19873SOL     OW61059   7.943   4.195   7.816 -0.5274  0.1739 -0.2002
19873SOL    HW161060   8.011   4.251   7.778 -0.8645  1.0547  0.4571
19873SOL    HW261061   7.894   4.162   7.740  0.0832  0.2385 -0.6285
19874SOL     OW61062   6.106   1.968   6.434  0.0820  0.2394  0.2206
19874SOL    HW161063   6.041   2.015   6.383  1.4311  2.4017  0.3529
19874SOL    HW261064   6.117   1.884   6.389 -0.7135  0.9960 -1.4342
19875SOL     OW61065   5.548   3.496   2.411 -0.3609 -0.4358  0.2875
19875SOL    HW161066   5.504   3.540   2.339 -0.9812  0.5400  1.2218
19875SOL    HW261067   5.517   3.542   2.489  1.1428 -0.7233  1.0966
19876SOL     OW61068   5.384   2.708   5.855  0.2416  0.3326  0.0397
19876SOL    HW161069   5.305   2.761   5.862 -0.5011 -0.7703  0.2253
19876SOL    HW261070   5.433   2.727   5.935 -0.3491  0.2250  0.4314
19877SOL     OW61071   7.602   2.519   4.607 -0.0589  0.0038  0.2917
19877SOL    HW161072   7.604   2.423   4.616 -0.0755  0.0382  0.6885
19877SOL    HW261073   7.508   2.540   4.602 -0.0878  0.0684  1.0274
19878SOL     OW61074   7.067   3.395   4.521 -0.0418  0.4389 -0.1298
19878SOL    HW161075   7.023   3.310   4.519  1.0754 -0.1557 -0.1108
19878SOL    HW261076   7.155   3.376   4.554  0.1127  1.6559  0.2190
19879SOL     OW61077   6.380   2.619   6.033 -0.4310 -0.4608 -0.2876
19879SOL    HW161078   6.353   2.540   5.985 -1.1968  0.0441 -0.7161
19879SOL    HW261079   6.419   2.675   5.966  0.5814 -0.6704  0.1068
19880SOL     OW61080   7.339   4.034   4.266  0.1085 -0.7268 -0.0415
19880SOL    HW161081   7.433   4.028   4.251  0.1014 -2.0304  0.3175
19880SOL    HW261082   7.321   3.969   4.335 -1.2558 -1.5399 -1.1047
19881SOL     OW61083   5.302   1.683   7.088  0.0795  0.0276  0.2713
19881SOL    HW161084   5.394   1.704   7.106  0.2508 -1.1935  0.8803
19881SOL    HW261085   5.253   1.758   7.123  0.7197 -0.1839  1.6856
19882SOL     OW61086   7.908   2.024   3.226  0.3836  0.0684  0.1447
19882SOL    HW161087   7.828   1.983   3.259  0.8677 -0.4041  0.7509
19882SOL    HW261088   7.921   1.986   3.139 -1.2845  1.8335 -0.9758
19883SOL     OW61089   7.360   3.333   3.966 -0.0808 -0.0155 -0.4573
19883SOL    HW161090   7.322   3.245   3.964 -3.0168  1.1622 -1.1848
19883SOL    HW261091   7.323   3.373   4.045  1.6293  0.4597  0.1474
19884SOL     OW61092   5.120   2.400   4.537  0.0341  0.1180 -0.9723
19884SOL    HW161093   5.027   2.421   4.526 -0.2927 -1.5478 -1.5462
19884SOL    HW261094   5.125   2.357   4.623  0.5592  1.6161 -0.2124
19885SOL     OW61095   6.631   2.491   3.748 -0.2157  0.1869 -0.0641
19885SOL    HW161096   6.567   2.432   3.788  0.6757 -0.4985  0.3883
19885SOL    HW261097   6.700   2.499   3.813  2.1279 -2.3049 -1.9937
19886SOL     OW61098   3.350   2.460   3.891  0.6198 -0.2797  0.1642
19886SOL    HW161099   3.317   2.453   3.980 -0.7898 -0.5277 -0.3438
19886SOL    HW261100   3.345   2.554   3.871  0.6747 -0.2583  0.2505
19887SOL     OW61101   6.731   1.658   5.342  0.4104  0.0977 -0.8014
19887SOL    HW161102   6.818   1.636   5.377  0.4829  0.3839 -0.7915
19887SOL    HW261103   6.704   1.581   5.293  0.3987 -0.2334 -0.2836
19888SOL     OW61104   7.157   3.841   4.434 -0.6868  0.0081 -0.0844
19888SOL    HW161105   7.093   3.795   4.489  0.9712  0.6111  2.5325
19888SOL    HW261106   7.128   3.932   4.434  1.0238  0.6747  2.7242
19889SOL     OW61107   7.770   3.945   3.518 -0.1515 -0.3587 -0.0401
19889SOL    HW161108   7.786   4.030   3.477 -1.0200 -0.6734 -1.0690
19889SOL    HW261109   7.818   3.882   3.465 -0.5286 -0.6546 -0.0428
19890SOL     OW61110   6.334   2.608   4.356  0.3130 -0.5178 -0.1108
19890SOL    HW161111   6.409   2.643   4.405  0.0169 -2.4442  1.8777
19890SOL    HW261112   6.289   2.685   4.322  2.1903  0.7681  0.1335
19891SOL     OW61113   6.518   3.292   4.513  0.1678 -0.2811  0.3574
19891SOL    HW161114   6.565   3.359   4.562  0.2706 -0.4296  0.4641
19891SOL    HW261115   6.490   3.229   4.580  3.2393 -2.3270 -0.0261
19892SOL     OW61116   5.915   2.116   3.480 -0.5634 -0.4716 -0.0496
19892SOL    HW161117   5.905   2.021   3.468  0.8774 -0.8112  1.1723
19892SOL    HW261118   5.939   2.148   3.393 -0.2741 -1.3544 -0.3105
19893SOL     OW61119   5.804   3.531   4.609  0.0759 -0.2008 -0.2135
19893SOL    HW161120   5.762   3.585   4.676 -0.2837 -0.3856 -0.2832
19893SOL    HW261121   5.896   3.530   4.633  0.0797  0.3882 -0.1726
19894SOL     OW61122   5.553   3.540   6.849 -0.3939  0.3236  0.6959
19894SOL    HW161123   5.525   3.598   6.779  0.6589 -0.2994 -0.2724
19894SOL    HW261124   5.622   3.588   6.895  1.2696 -0.5155 -0.7931
19895SOL     OW61125   5.498   3.992   4.649 -0.7489  0.5657 -0.1474
19895SOL    HW161126   5.457   4.005   4.563 -2.5426  1.4755  0.7832
19895SOL    HW261127   5.426   3.966   4.706  0.3291  0.4304  1.1906
19896SOL     OW61128   6.168   2.954   5.414 -0.3080  0.0749 -0.1303
19896SOL    HW161129   6.238   2.967   5.351 -0.2128 -1.9238 -0.4793
19896SOL    HW261130   6.213   2.942   5.498 -0.3440  0.7472 -0.0087
19897SOL     OW61131   6.987   3.356   6.716 -0.6779 -0.2579 -0.1851
19897SOL    HW161132   7.023   3.429   6.666  2.2033 -0.1337  1.7863
19897SOL    HW261133   6.952   3.396   6.795  0.9209 -0.8888  0.9107
19898SOL     OW61134   6.063   0.380   2.483  0.4344 -0.7804  0.4147
19898SOL    HW161135   6.153   0.375   2.515 -0.3413 -2.2528  2.5614
19898SOL    HW261136   6.014   0.318   2.537 -1.6959 -0.8167 -1.4001
19899SOL     OW61137   4.582   1.805   5.422 -0.8702 -0.5075 -0.4152
19899SOL    HW161138   4.656   1.847   5.378  1.0934  0.3462  3.2561
19899SOL    HW261139   4.535   1.760   5.352  3.2100 -1.3169 -3.0326
19900SOL     OW61140   3.111   2.106   6.010 -0.0630  0.0610 -0.7541
19900SOL    HW161141   3.142   2.128   6.098 -0.5324 -1.0481 -0.2857
19900SOL    HW261142   3.101   2.190   5.966  0.4956  0.6111  0.1498
19901SOL     OW61143   7.448   4.101   3.510 -0.0872  0.1796  0.3736
19901SOL    HW161144   7.486   4.157   3.443  0.8398 -0.9176 -0.0455
19901SOL    HW261145   7.493   4.125   3.591 -0.4571  0.7694  0.4092
19902SOL     OW61146   7.203   1.918   4.313 -0.0340 -0.0780 -0.8010
19902SOL    HW161147   7.171   2.008   4.307 -0.5102 -0.2282 -0.5234
19902SOL    HW261148   7.245   1.902   4.228 -3.4195 -0.9191 -2.5050
19903SOL     OW61149   7.658   2.217   2.706 -0.2556  0.2431 -0.0082
19903SOL    HW161150   7.650   2.214   2.611 -1.8647  0.0813  0.1068
19903SOL    HW261151   7.678   2.309   2.726 -0.6302  0.4230 -0.4561
19904SOL     OW61152   4.918   2.683   2.974  0.2544 -0.0756 -0.1882
19904SOL    HW161153   5.013   2.677   2.985  0.1408 -1.3057  0.2450
19904SOL    HW261154   4.897   2.774   2.995  1.3939  0.3611 -0.8374
19905SOL     OW61155   5.803   4.098   5.798 -0.0821  0.1779 -0.4975
19905SOL    HW161156   5.863   4.032   5.763  0.8463  0.9839 -0.4693
19905SOL    HW261157   5.752   4.127   5.722 -0.0699 -0.1390 -0.6271
19906SOL     OW61158   0.822   3.058   4.914 -0.8603  0.0137 -0.2899
19906SOL    HW161159   0.773   2.996   4.860  0.7215 -0.6450 -1.0226
19906SOL    HW261160   0.867   3.003   4.978 -0.0261  0.4537 -0.4846
19907SOL     OW61161   7.277   2.662   5.837  0.0838  0.7203 -0.1689
19907SOL    HW161162   7.337   2.707   5.896  0.6444 -0.7281  0.3842
19907SOL    HW261163   7.202   2.722   5.831 -0.6553  0.3626  3.1470
19908SOL     OW61164   0.523   3.624   3.956  0.0242 -0.0641 -0.3914
19908SOL    HW161165   0.528   3.538   3.914 -1.4433 -0.5354  0.3394
19908SOL    HW261166   0.433   3.630   3.988 -0.1617  2.1164 -1.1870
19909SOL     OW61167   5.362   2.665   3.413 -0.2904 -0.0481 -0.4158
19909SOL    HW161168   5.445   2.618   3.409 -1.0091 -1.5964  1.5423
19909SOL    HW261169   5.383   2.753   3.383  2.8987  0.7171  3.3082
19910SOL     OW61170   4.774   2.489   5.024  0.1300 -0.5824  0.1599
19910SOL    HW161171   4.715   2.545   5.073  0.4190 -0.8032  0.7747
19910SOL    HW261172   4.716   2.429   4.976 -0.1467 -0.8078  0.7673
19911SOL     OW61173   5.437   2.630   6.383 -0.0749  0.3240  0.0261
19911SOL    HW161174   5.465   2.717   6.413  1.5015 -0.4125  0.8337
19911SOL    HW261175   5.353   2.616   6.427 -0.8437  1.8196 -0.8939
19912SOL     OW61176   5.911   3.950   6.704  0.3982  0.4623  0.2519
19912SOL    HW161177   5.829   3.970   6.660 -0.2283 -0.3476  1.0094
19912SOL    HW261178   5.957   3.891   6.644  0.3124  0.7155 -0.0628
19913SOL     OW61179   6.313   3.082   6.828  0.2107 -0.3340  0.6038
19913SOL    HW161180   6.245   3.015   6.819  1.0541 -1.1159 -0.0844
19913SOL    HW261181   6.361   3.057   6.908  0.2476 -0.2983  0.5932
19914SOL     OW61182   5.828   4.834   5.859 -0.1747 -0.1751 -0.1811
19914SOL    HW161183   5.887   4.789   5.919  0.5512  1.1044  0.1132
19914SOL    HW261184   5.740   4.811   5.889  0.0584 -3.3135 -1.5216
19915SOL     OW61185   6.168   3.876   5.911 -0.7607 -0.5637  0.6466
19915SOL    HW161186   6.117   3.824   5.849  0.2149 -0.9461  0.1427
19915SOL    HW261187   6.115   3.877   5.991 -1.8343 -0.4287 -0.0476
19916SOL     OW61188   7.527   3.949   6.549  0.2105  0.6295  0.1870
19916SOL    HW161189   7.578   3.982   6.474  0.2337 -0.1155 -0.1348
19916SOL    HW261190   7.458   4.013   6.560  1.6015  2.0463  1.0792
19917SOL     OW61191   5.961   3.330   7.721 -0.3780  0.5121  0.2245
19917SOL    HW161192   5.867   3.337   7.706 -0.1016  1.6636 -1.1518
19917SOL    HW261193   5.976   3.237   7.734 -1.6822  0.2951  0.3165
19918SOL     OW61194   5.317   1.223   7.770  0.0828  0.6724  0.3116
19918SOL    HW161195   5.231   1.222   7.728  0.3546 -2.4336 -0.4327
19918SOL    HW261196   5.370   1.280   7.715 -1.3519  2.3501  0.5791
19919SOL     OW61197   7.189   2.901   9.092 -0.2641  0.3528  0.2777
19919SOL    HW161198   7.185   2.968   9.023  0.7019  0.6245  0.4670
19919SOL    HW261199   7.194   2.951   9.173  0.6516  0.0744  0.4112
19920SOL     OW61200   5.368   3.951   6.657 -0.2979  0.2608 -0.8962
19920SOL    HW161201   5.388   3.977   6.567  0.6977 -1.2267 -1.1262
19920SOL    HW261202   5.308   3.877   6.648  0.4864 -0.4465 -0.3562
19921SOL     OW61203   6.206   4.275   7.353 -0.1648 -0.0706  0.0091
19921SOL    HW161204   6.119   4.309   7.375  0.4610  1.5450  0.1693
19921SOL    HW261205   6.219   4.202   7.413 -1.3228 -0.2088  0.1219
19922SOL     OW61206   4.631   2.072   8.919  0.3218 -0.4733 -0.0613
19922SOL    HW161207   4.541   2.101   8.936  0.2008 -0.9982  0.2231
19922SOL    HW261208   4.628   1.977   8.933  0.9668 -0.4643  0.1633
19923SOL     OW61209   7.379   2.188   6.372 -0.2971  0.4934 -0.1159
19923SOL    HW161210   7.461   2.216   6.331 -0.1231 -0.0999 -0.1705
19923SOL    HW261211   7.390   2.208   6.465 -0.1077  0.4534 -0.1307
19924SOL     OW61212   6.048   4.661   5.939  0.0326 -0.3501  0.4424
19924SOL    HW161213   6.109   4.679   6.010  0.2239  0.8449 -0.0050
19924SOL    HW261214   6.102   4.660   5.860 -0.3418 -0.5466  0.1814
19925SOL     OW61215   6.262   1.356   6.423  0.5754  0.2277 -0.3956
19925SOL    HW161216   6.198   1.318   6.483 -0.2271  1.2050 -0.6176
19925SOL    HW261217   6.344   1.356   6.473  0.2622 -0.4094  0.1348
19926SOL     OW61218   6.564   2.770   8.461 -0.9708 -0.2062  0.6951
19926SOL    HW161219   6.481   2.817   8.462 -0.0011  1.5855  0.7832
19926SOL    HW261220   6.542   2.681   8.488 -2.7317  0.4258  1.4472
19927SOL     OW61221   7.054   3.757   5.376 -0.6335  0.5629  0.1984
19927SOL    HW161222   7.019   3.795   5.457 -0.9187  1.4671 -0.3379
19927SOL    HW261223   7.145   3.785   5.374  0.1972 -1.7352  1.5599
19928SOL     OW61224   5.365   1.950   5.653  0.1767 -0.6258 -0.6562
19928SOL    HW161225   5.452   1.910   5.646  0.5567  0.1880 -0.7259
19928SOL    HW261226   5.378   2.040   5.623 -0.8990 -0.7721 -1.6221
19929SOL     OW61227   5.730   4.055   7.453  0.3403 -0.2416 -0.0531
19929SOL    HW161228   5.687   3.986   7.402 -1.6685  0.8753  0.0382
19929SOL    HW261229   5.676   4.132   7.439  1.9505  1.0806  0.6838
19930SOL     OW61230   6.042   4.020   6.966  0.2780 -0.2057 -0.0078
19930SOL    HW161231   6.004   3.986   6.885  2.0174 -1.0719 -0.5148
19930SOL    HW261232   5.981   3.991   7.034 -0.4383 -0.7736 -0.8554
19931SOL     OW61233   7.342   1.384   4.224  0.4352  0.0587 -0.2575
19931SOL    HW161234   7.354   1.290   4.207  2.9475  0.6335 -2.1501
19931SOL    HW261235   7.313   1.420   4.141  0.6596  1.1427  0.1244
19932SOL     OW61236   6.289   1.757   8.114 -0.1403 -0.3354  0.2674
19932SOL    HW161237   6.291   1.662   8.104 -0.0647 -0.2739 -0.3979
19932SOL    HW261238   6.245   1.772   8.197  0.6532 -0.9718  0.8107
19933SOL     OW61239   5.584   2.174   7.277 -0.3694  0.2869 -0.2162
19933SOL    HW161240   5.671   2.212   7.290  0.5095 -0.5488 -2.9745
19933SOL    HW261241   5.533   2.206   7.351  1.7457  2.4104  0.4597
19934SOL     OW61242   5.862   3.448   6.756 -0.3537  1.1046 -0.6104
19934SOL    HW161243   5.841   3.426   6.665 -0.1685  1.3367 -0.7134
19934SOL    HW261244   5.936   3.509   6.749  0.9672 -0.3772 -0.2350
19935SOL     OW61245   6.228   4.051   5.720 -0.5156 -0.1454 -0.7109
19935SOL    HW161246   6.280   4.123   5.756 -1.2228  0.4312 -0.8026
19935SOL    HW261247   6.209   3.995   5.796  0.6627 -0.6437 -0.7727
19936SOL     OW61248   5.201   2.493   8.910 -0.0671  0.9135 -0.5651
19936SOL    HW161249   5.203   2.409   8.956 -2.7565  0.9392 -0.2514
19936SOL    HW261250   5.252   2.478   8.830 -1.0102 -1.2314 -0.8353
19937SOL     OW61251   5.683   2.276   3.516  0.2770 -0.0230  0.0870
19937SOL    HW161252   5.629   2.211   3.562  0.8136 -1.2446 -0.9264
19937SOL    HW261253   5.760   2.227   3.487  0.3672  0.8841 -1.3196
19938SOL     OW61254   6.203   3.809   6.408  0.5167 -0.1541 -0.9182
19938SOL    HW161255   6.258   3.820   6.331  2.1551  0.5585  0.2814
19938SOL    HW261256   6.219   3.888   6.460 -0.3202 -0.7334  0.2748
19939SOL     OW61257   4.929   2.633   3.415 -0.5385  0.2761 -0.4881
19939SOL    HW161258   4.977   2.570   3.361 -0.4462 -0.3833  0.3446
19939SOL    HW261259   4.837   2.612   3.399 -0.5112 -1.3847  1.2439
19940SOL     OW61260   5.811   5.081   5.997  0.4527  0.1350 -0.2871
19940SOL    HW161261   5.798   4.998   5.951  0.0486 -0.0887  0.2228
19940SOL    HW261262   5.906   5.091   6.003  0.5260 -1.1531  1.1758
19941SOL     OW61263   6.084   0.566   5.541 -0.4635 -0.1117 -0.1755
19941SOL    HW161264   6.175   0.587   5.521 -0.9760  2.0243 -0.5559
19941SOL    HW261265   6.033   0.626   5.486 -2.0986 -0.9023  0.4095
19942SOL     OW61266   5.534   2.049   8.362 -0.0147  0.2789  0.4868
19942SOL    HW161267   5.493   2.119   8.312 -0.2345 -0.2689 -0.1273
19942SOL    HW261268   5.600   2.092   8.416 -1.7352  1.2738  1.9221
19943SOL     OW61269   7.505   2.635   4.917  0.2410  0.1124 -0.1943
19943SOL    HW161270   7.463   2.619   4.833 -0.2386  0.6748 -0.0645
19943SOL    HW261271   7.516   2.730   4.922 -0.4502  0.1640  0.7046
19944SOL     OW61272   6.412   4.077   8.981  0.0500 -0.3705  0.2562
19944SOL    HW161273   6.420   3.984   9.001  0.0000 -0.2050  1.0723
19944SOL    HW261274   6.324   4.086   8.943  0.1029 -0.6674  0.0534
19945SOL     OW61275   6.289   7.987   7.194 -0.3644 -0.6264  0.8479
19945SOL    HW161276   6.337   8.047   7.137 -0.4258 -1.1483  0.2391
19945SOL    HW261277   6.322   8.006   7.282 -1.3779  1.2697  0.8682
19946SOL     OW61278   5.251   4.186   5.118 -0.5568 -0.3841  0.1345
19946SOL    HW161279   5.237   4.275   5.085  0.7877  0.1553  0.9502
19946SOL    HW261280   5.163   4.155   5.140 -1.2136  0.1575 -1.5300
19947SOL     OW61281   7.485   3.411   6.510 -0.3568  0.1743  0.0264
19947SOL    HW161282   7.395   3.408   6.542  0.1964 -0.4935  1.5838
19947SOL    HW261283   7.495   3.501   6.477 -1.1658  0.6763  1.0923
19948SOL     OW61284   6.046   1.664   7.314 -0.0267 -0.0654 -0.2741
19948SOL    HW161285   6.112   1.729   7.338 -0.2186  0.2854 -0.6731
19948SOL    HW261286   5.963   1.701   7.345 -0.2479  0.2966 -1.2488
19949SOL     OW61287   5.584   2.388   6.760 -0.1941  0.3924 -0.4631
19949SOL    HW161288   5.496   2.385   6.722 -0.4402 -1.7910  0.1350
19949SOL    HW261289   5.569   2.379   6.854  0.6808 -0.3709 -0.3922
19950SOL     OW61290   6.934   3.323   6.236  0.3397 -0.8351 -0.7641
19950SOL    HW161291   6.894   3.381   6.301 -1.6642  0.8197 -3.2474
19950SOL    HW261292   6.916   3.235   6.267  0.6712 -0.1446  1.5466
19951SOL     OW61293   7.399   3.150   7.301  0.2708 -0.0512 -0.4802
19951SOL    HW161294   7.317   3.101   7.310 -0.1346  0.6035 -0.4581
19951SOL    HW261295   7.454   3.095   7.246  0.1525 -0.9079  0.2428
19952SOL     OW61296   4.131   1.286   6.752 -0.3369  0.0158  0.5787
19952SOL    HW161297   4.127   1.380   6.770  1.9056  0.2083  0.3855
19952SOL    HW261298   4.084   1.275   6.670 -1.6294  0.7631  1.1851
19953SOL     OW61299   5.995   4.309   6.986  0.6193  0.3066  0.0645
19953SOL    HW161300   5.914   4.294   6.936  0.4545 -2.5866  0.9656
19953SOL    HW261301   6.032   4.221   6.996  4.4099  1.6010 -1.0716
19954SOL     OW61302   6.567   0.313   6.613  0.3208  0.0472  0.0424
19954SOL    HW161303   6.661   0.293   6.614 -0.4253 -4.4670 -0.5502
19954SOL    HW261304   6.547   0.337   6.703  1.8063 -0.4299  0.5410
19955SOL     OW61305   6.287   3.229   5.711  0.0388  0.2702 -0.2692
19955SOL    HW161306   6.319   3.293   5.775  0.5241 -0.3456  0.1196
19955SOL    HW261307   6.197   3.211   5.739  1.3350 -2.8625  2.7027
19956SOL     OW61308   5.731   3.234   6.053  0.2344 -0.0697  0.3194
19956SOL    HW161309   5.715   3.213   6.145 -0.3345 -0.3399  0.1589
19956SOL    HW261310   5.818   3.274   6.053 -0.0107  0.4813  1.0538
19957SOL     OW61311   5.783   3.152   6.334  0.1513 -0.4779  0.1238
19957SOL    HW161312   5.836   3.075   6.354  0.5017 -0.3103 -0.1417
19957SOL    HW261313   5.709   3.147   6.395  0.8869 -0.2892  1.0570
19958SOL     OW61314   3.845   1.421   6.243 -0.1973  0.2245 -0.1968
19958SOL    HW161315   3.929   1.459   6.271  1.1196 -0.9414 -2.2810
19958SOL    HW261316   3.870   1.354   6.179 -2.6877 -0.9467 -0.0500
19959SOL     OW61317   6.827   2.554   8.350 -0.3473  0.3708 -0.2111
19959SOL    HW161318   6.768   2.483   8.322 -1.7117  0.1377  2.8521
19959SOL    HW261319   6.905   2.509   8.382  0.1330  0.4965 -1.1539
19960SOL     OW61320   6.819   3.179   6.506 -0.4540  0.1142 -0.1624
19960SOL    HW161321   6.834   3.268   6.536  2.2171 -0.5635  0.7955
19960SOL    HW261322   6.766   3.138   6.574  0.8029  0.1772  0.8828
19961SOL     OW61323   5.760   2.214   7.651  0.3017  0.0618 -0.4299
19961SOL    HW161324   5.694   2.152   7.681 -0.3627  1.5600  1.4048
19961SOL    HW261325   5.727   2.246   7.568  0.2348 -1.3794 -0.9833
19962SOL     OW61326   7.250   4.058   6.587 -0.6085 -0.5611  0.3062
19962SOL    HW161327   7.214   4.104   6.663  0.1869  0.4055  0.1151
19962SOL    HW261328   7.188   3.987   6.571 -1.0135 -0.5277  1.5959
19963SOL     OW61329   5.992   3.692   7.521 -0.0509 -0.1539 -0.1851
19963SOL    HW161330   6.009   3.783   7.497 -1.3091  0.0816 -0.2022
19963SOL    HW261331   5.920   3.696   7.583 -0.4263 -1.1832 -0.5332
19964SOL     OW61332   0.233   3.101   7.788  0.0525 -0.3217 -0.0498
19964SOL    HW161333   0.217   3.074   7.878  0.7295  0.1526  0.2205
19964SOL    HW261334   0.191   3.186   7.781 -0.0527 -0.3855 -0.2070
19965SOL     OW61335   6.866   3.927   7.171  0.4378  1.5152 -0.8091
19965SOL    HW161336   6.859   4.006   7.118 -1.8747  0.9651 -1.4177
19965SOL    HW261337   6.784   3.923   7.220  0.5229 -0.4861 -0.7462
19966SOL     OW61338   6.000   1.689   5.647  0.0580 -0.0581 -0.0634
19966SOL    HW161339   5.935   1.635   5.692 -0.3082  0.7055  0.3510
19966SOL    HW261340   5.957   1.774   5.636  0.5190  0.0716 -0.9577
19967SOL     OW61341   6.145   3.461   7.136  0.1541  0.1137 -0.1261
19967SOL    HW161342   6.215   3.419   7.085 -0.3506 -1.3770  0.3441
19967SOL    HW261343   6.065   3.417   7.107 -0.6457  1.9376 -0.8093
19968SOL     OW61344   5.532   1.800   7.265  0.7662 -0.0463  0.1574
19968SOL    HW161345   5.522   1.705   7.276 -2.6355 -0.0457 -1.6067
19968SOL    HW261346   5.535   1.834   7.354 -0.7933 -1.6407  0.8880
19969SOL     OW61347   6.722   3.899   5.978  0.3339 -0.0138  0.2586
19969SOL    HW161348   6.772   3.908   6.059  0.3132  2.3961  0.0759
19969SOL    HW261349   6.632   3.889   6.006  0.4069  0.1201  0.5441
19970SOL     OW61350   5.756   2.746   5.836 -0.2440  0.2643 -0.0175
19970SOL    HW161351   5.713   2.787   5.911 -0.9016 -1.9956  0.9494
19970SOL    HW261352   5.818   2.811   5.804 -0.7156  1.6920  1.8223
19971SOL     OW61353   7.009   2.848   5.460 -0.4061  0.1338 -0.3334
19971SOL    HW161354   6.973   2.936   5.474 -0.1329  0.5079 -1.8173
19971SOL    HW261355   7.008   2.808   5.547  1.0226  2.1901  0.7284
19972SOL     OW61356   5.027   2.808   6.431  0.0343 -0.6136 -0.4153
19972SOL    HW161357   5.048   2.783   6.340  0.7533 -1.1152 -0.1242
19972SOL    HW261358   4.988   2.895   6.423 -0.0751 -0.7240 -1.2266
19973SOL     OW61359   7.641   0.930   6.437 -0.2989  0.4220  0.7384
19973SOL    HW161360   7.725   0.971   6.459  0.3513 -1.1538  1.3129
19973SOL    HW261361   7.599   0.916   6.522 -0.7038  0.2840  0.5146
19974SOL     OW61362   7.188   4.872   7.740  0.1028  0.1978 -0.7170
19974SOL    HW161363   7.246   4.947   7.733 -0.3623  0.7587  0.9979
19974SOL    HW261364   7.185   4.853   7.834 -0.9234 -1.0552 -0.9824
19975SOL     OW61365   5.803   5.411   5.866  0.3424 -0.0728  0.2424
19975SOL    HW161366   5.743   5.486   5.869 -0.0639 -0.4235  1.4308
19975SOL    HW261367   5.746   5.335   5.879  0.7189 -0.6191 -1.1848
19976SOL     OW61368   6.519   3.195   6.310  0.5607 -0.4944  0.4691
19976SOL    HW161369   6.497   3.288   6.313 -1.9810 -1.0268  0.2294
19976SOL    HW261370   6.542   3.174   6.400  0.6032  0.2398  0.6407
19977SOL     OW61371   7.745   2.433   8.008 -0.0485  0.4152  0.3444
19977SOL    HW161372   7.725   2.470   7.921 -1.2188 -0.0961  0.3713
19977SOL    HW261373   7.711   2.498   8.070 -1.3095 -0.2638  0.3945
19978SOL     OW61374   4.431   0.047   7.163  0.6967  0.2811 -0.2930
19978SOL    HW161375   4.495   0.112   7.135 -0.3337  1.1083 -0.8106
19978SOL    HW261376   4.481  -0.015   7.216  1.4847  2.2379  1.3851
19979SOL     OW61377   6.507   2.832   8.077  0.3912  0.7085 -0.3258
19979SOL    HW161378   6.534   2.811   7.988  1.5043 -1.5030  0.4431
19979SOL    HW261379   6.573   2.789   8.132 -1.0002  0.8876  1.5726
19980SOL     OW61380   0.318   3.035   3.854 -0.0418  0.0178  0.4351
19980SOL    HW161381   0.406   3.064   3.827 -0.2154  0.7559  0.6546
19980SOL    HW261382   0.334   2.984   3.934  0.3395 -1.1321 -0.3411
19981SOL     OW61383   5.249   1.926   9.086  0.0725 -0.8173 -0.6111
19981SOL    HW161384   5.161   1.923   9.048  0.4968  2.1004 -2.2127
19981SOL    HW261385   5.291   1.845   9.058 -1.4028 -1.1975 -1.8436
19982SOL     OW61386   7.333   2.481   5.634  0.0155  0.0828 -0.0362
19982SOL    HW161387   7.286   2.500   5.553  0.9323  0.4272 -0.5031
19982SOL    HW261388   7.304   2.550   5.695  0.1904  0.5196 -0.4372
19983SOL     OW61389   5.973   4.255   6.473 -0.3656  0.0489 -0.3478
19983SOL    HW161390   5.985   4.318   6.545  1.5545 -1.1960  0.5164
19983SOL    HW261391   6.007   4.172   6.508 -0.9922 -1.0094 -2.1212
19984SOL     OW61392   7.241   1.637   6.456  0.4017  0.2219  0.0571
19984SOL    HW161393   7.255   1.651   6.362  0.4791 -0.1076  0.0203
19984SOL    HW261394   7.323   1.664   6.496  0.2493  0.6949  0.0642
19985SOL     OW61395   5.480   1.569   5.819  0.3875 -0.0281  0.4154
19985SOL    HW161396   5.426   1.625   5.874 -3.5179  0.2238 -3.1161
19985SOL    HW261397   5.530   1.630   5.765  0.8365 -0.1249  0.7237
19986SOL     OW61398   4.630   2.374   6.073  0.2534 -0.8651  0.4606
19986SOL    HW161399   4.620   2.463   6.106  0.2140 -0.9310  0.6264
19986SOL    HW261400   4.602   2.378   5.982  0.9483 -0.5492  0.2560
19987SOL     OW61401   5.661   2.876   6.417  0.1453  0.3402 -0.0151
19987SOL    HW161402   5.673   2.897   6.324  2.2351  2.7108  0.7032
19987SOL    HW261403   5.616   2.951   6.454 -0.3008 -0.3974  1.0056
19988SOL     OW61404   6.496   2.429   7.547 -0.2066  0.1442 -0.4645
19988SOL    HW161405   6.565   2.475   7.592  0.1007  0.6843 -1.4542
19988SOL    HW261406   6.517   2.336   7.558  0.6946  0.3078 -0.7916
19989SOL     OW61407   5.365   4.161   6.352 -0.2054  0.2725 -0.2269
19989SOL    HW161408   5.330   4.200   6.432  0.6516  0.3894  0.1038
19989SOL    HW261409   5.309   4.195   6.282 -1.3990 -0.3772  0.3828
19990SOL     OW61410   4.256   2.715   5.725  0.6151  0.3558  0.0924
19990SOL    HW161411   4.269   2.767   5.804  0.5247  0.7943 -0.1813
19990SOL    HW261412   4.336   2.726   5.675 -0.0807  1.6691 -0.7882
19991SOL     OW61413   6.625   5.625   5.683 -0.0470 -0.1985  0.3284
19991SOL    HW161414   6.578   5.703   5.655  1.2327  0.3688 -0.3111
19991SOL    HW261415   6.632   5.571   5.604  0.1075 -0.4205  0.4915
19992SOL     OW61416   6.823   2.205   6.610  0.7149 -0.0788  0.4112
19992SOL    HW161417   6.813   2.112   6.631  0.5239 -0.1206  0.1324
19992SOL    HW261418   6.870   2.206   6.527 -0.6358  0.0379 -0.3790
19993SOL     OW61419   5.839   3.855   7.932  0.2116 -0.0693  0.1067
19993SOL    HW161420   5.929   3.833   7.907  0.2233  1.0480 -0.9575
19993SOL    HW261421   5.807   3.908   7.858 -1.8485 -1.7224 -0.2451
19994SOL     OW61422   7.588   2.733   8.629  0.4234  0.0817 -0.5283
19994SOL    HW161423   7.560   2.644   8.609 -0.9725 -0.5493  3.3321
19994SOL    HW261424   7.526   2.789   8.582 -1.8726 -1.1722  0.7976
19995SOL     OW61425   6.459   2.869   6.232 -0.0882  0.0800 -0.1529
19995SOL    HW161426   6.373   2.847   6.266 -0.3622  0.0670 -0.8503
19995SOL    HW261427   6.443   2.931   6.161  0.4657  0.0298 -0.3346
19996SOL     OW61428   1.273   0.800   5.577  0.1018  0.4996  0.4796
19996SOL    HW161429   1.317   0.783   5.494  1.5962  0.6283  1.2119
19996SOL    HW261430   1.268   0.714   5.620 -0.5584  0.4529  0.3264
19997SOL     OW61431   6.999   2.915   5.892 -0.3217  0.9512  0.3466
19997SOL    HW161432   7.020   2.883   5.980 -0.3035  0.7242  0.2626
19997SOL    HW261433   6.942   2.990   5.906  0.7522  1.7512  0.5907
19998SOL     OW61434   7.910   1.608   6.945  0.0907 -0.7060 -0.4894
19998SOL    HW161435   7.858   1.608   7.025  0.4300  0.5522 -0.2511
19998SOL    HW261436   7.988   1.558   6.967  0.6827  0.5431  0.3168
19999SOL     OW61437   6.763   4.166   6.189  0.2627 -0.0475  0.6269
19999SOL    HW161438   6.844   4.175   6.239  0.5693 -0.4518  0.2123
19999SOL    HW261439   6.749   4.252   6.151  0.2895  0.1296  1.0107
20000SOL     OW61440   4.513   2.677   6.371 -0.0916 -0.3835  0.3478
20000SOL    HW161441   4.518   2.756   6.317  0.2155  0.2342  1.2507
20000SOL    HW261442   4.563   2.699   6.450  0.0283 -1.4948  0.5978
20001SOL     OW61443   1.075   4.391   5.742 -0.0083 -0.0861  0.0411
20001SOL    HW161444   1.099   4.311   5.789 -0.9224 -0.9820 -0.9599
20001SOL    HW261445   1.073   4.459   5.809  0.6289 -0.9327  0.9402
20002SOL     OW61446   6.503   2.591   4.053 -0.3601 -0.2264  0.2404
20002SOL    HW161447   6.508   2.501   4.087 -1.4288 -0.3745  0.0458
20002SOL    HW261448   6.413   2.618   4.070 -0.2120  0.6032 -0.2366
20003SOL     OW61449   5.323   3.946   5.626 -0.6178  0.1958 -0.0738
20003SOL    HW161450   5.252   3.888   5.652 -0.5415 -0.1299 -0.5852
20003SOL    HW261451   5.289   3.993   5.549 -0.3264  0.1293 -0.2448
20004SOL     OW61452   6.832   3.979   7.562 -0.9533  0.4672  0.2187
20004SOL    HW161453   6.806   4.038   7.632  0.2250  0.5914  0.5778
20004SOL    HW261454   6.905   4.025   7.519 -1.5076  0.2943 -0.9479
20005SOL     OW61455   7.294   2.194   7.087 -0.2753  0.5756 -0.6408
20005SOL    HW161456   7.329   2.112   7.051 -1.8563  0.4512 -1.9889
20005SOL    HW261457   7.359   2.260   7.064  1.4686 -0.3405  1.2048
20006SOL     OW61458   7.083   3.003   6.988 -0.9532 -0.0746  0.0349
20006SOL    HW161459   7.015   3.001   6.921 -0.3451 -0.2502 -0.5917
20006SOL    HW261460   7.139   3.077   6.963  0.2953 -1.2133 -0.7026
20007SOL     OW61461   6.300   2.175   7.926 -0.2976 -0.4080  0.6945
20007SOL    HW161462   6.248   2.096   7.912 -1.2839  0.1861  0.9544
20007SOL    HW261463   6.256   2.221   7.998  0.1497  0.4746  0.4165
20008SOL     OW61464   6.875   2.336   7.130 -0.0293 -0.0625 -0.4250
20008SOL    HW161465   6.890   2.254   7.084 -0.3517 -0.3867  0.0510
20008SOL    HW261466   6.786   2.329   7.164  0.5390 -0.2309  1.0825
20009SOL     OW61467   5.871   1.944   5.677 -0.9449  0.2214 -0.0658
20009SOL    HW161468   5.847   1.998   5.753 -2.5849  0.7073 -0.8666
20009SOL    HW261469   5.914   2.005   5.617 -2.4600  0.6200 -0.8098
20010SOL     OW61470   5.784   4.430   5.549  0.0268 -0.2673  0.0723
20010SOL    HW161471   5.830   4.456   5.629  0.3379  0.4245 -0.3249
20010SOL    HW261472   5.733   4.353   5.575 -0.0860  0.1108  1.0064
20011SOL     OW61473   6.500   3.911   4.156 -0.5269 -0.3024  0.3862
20011SOL    HW161474   6.437   3.840   4.145 -1.2940  0.5140 -0.7514
20011SOL    HW261475   6.456   3.972   4.215 -0.0847 -0.5185  0.9462
20012SOL     OW61476   5.903   2.435   5.310 -0.4117 -0.0359  0.2241
20012SOL    HW161477   5.849   2.480   5.246  0.4712 -1.7826 -1.8636
20012SOL    HW261478   5.858   2.352   5.326  0.0887 -0.2109  0.7804
20013SOL     OW61479   7.429   1.294   6.476 -0.3573 -0.5629 -0.2528
20013SOL    HW161480   7.464   1.355   6.411  1.0033  0.5665  1.4403
20013SOL    HW261481   7.416   1.212   6.428  0.2440  0.3184 -2.0077
20014SOL     OW61482   5.518   3.584   8.716  0.7507  0.2058 -0.0772
20014SOL    HW161483   5.426   3.589   8.691  0.9125  0.2564 -0.6930
20014SOL    HW261484   5.563   3.637   8.650  1.1722  0.5513  0.4818
20015SOL     OW61485   5.637   1.852   5.298 -0.2722 -0.3365  0.2799
20015SOL    HW161486   5.678   1.821   5.217  0.9715 -0.6895  1.0082
20015SOL    HW261487   5.688   1.811   5.368  0.6465  2.3052  1.2853
20016SOL     OW61488   6.313   2.105   7.148 -0.8431  0.3555  0.0180
20016SOL    HW161489   6.257   2.178   7.172 -1.5068 -0.8445  2.4009
20016SOL    HW261490   6.270   2.065   7.072 -2.1698  0.6249  0.6016
20017SOL     OW61491   0.104   3.490   6.703  0.4824  0.7149  0.3684
20017SOL    HW161492   0.015   3.457   6.692  1.6547 -2.0277 -3.0667
20017SOL    HW261493   0.108   3.567   6.645  0.5476  0.2440 -0.2690
20018SOL     OW61494   0.486   3.495   6.170 -0.0673 -0.7080  0.0526
20018SOL    HW161495   0.553   3.466   6.231 -1.1735 -1.3073  1.0204
20018SOL    HW261496   0.482   3.426   6.104  3.2604  1.3280 -2.5482
20019SOL     OW61497   6.177   2.352   4.985  0.3838 -0.1909  0.1558
20019SOL    HW161498   6.081   2.361   4.986  0.5204  1.4279  1.5896
20019SOL    HW261499   6.207   2.422   4.927  0.7626  0.3708  1.0074
20020SOL     OW61500   5.514   2.254   5.120 -0.3216  0.1059 -0.0603
20020SOL    HW161501   5.451   2.324   5.133 -0.2337  0.4573 -1.3864
20020SOL    HW261502   5.523   2.214   5.206 -1.8593  0.4617  0.3050
20021SOL     OW61503   5.912   2.909   6.249 -0.3760  0.1801 -0.1291
20021SOL    HW161504   5.952   2.932   6.165  1.3260 -0.5351  0.4241
20021SOL    HW261505   5.912   2.813   6.249 -0.9565  0.1780  0.4202
20022SOL     OW61506   7.156   2.421   7.758 -0.2569  0.2771 -0.5704
20022SOL    HW161507   7.112   2.342   7.727 -1.2474  1.3923 -2.1655
20022SOL    HW261508   7.120   2.435   7.846 -1.1020 -0.3162 -0.8065
20023SOL     OW61509   7.506   7.982   6.643 -0.1035 -0.1234 -0.7502
20023SOL    HW161510   7.426   7.986   6.696  0.1177 -0.5526 -0.3761
20023SOL    HW261511   7.568   7.933   6.697  0.6180  0.7363 -0.7805
20024SOL     OW61512   6.243   3.331   7.918 -0.0913  0.8249 -0.1441
20024SOL    HW161513   6.184   3.407   7.922 -1.3532 -0.1446  0.2847
20024SOL    HW261514   6.219   3.278   7.994 -0.1504 -0.6657 -1.1784
20025SOL     OW61515   6.807   3.466   6.427  0.4695  0.1070 -0.5538
20025SOL    HW161516   6.834   3.556   6.409 -0.2968  0.2722 -0.9463
20025SOL    HW261517   6.725   3.475   6.476  0.0988 -0.3692 -1.0619
20026SOL     OW61518   5.975   3.042   6.990 -0.1695 -0.3427 -0.4055
20026SOL    HW161519   5.924   2.972   7.031 -0.3835  0.1431  0.1681
20026SOL    HW261520   6.037   2.997   6.933 -0.4136 -0.9880 -0.1617
20027SOL     OW61521   4.839   1.084   7.415 -1.0128 -0.6704  0.7342
20027SOL    HW161522   4.750   1.083   7.449 -1.4702 -0.4002 -0.3865
20027SOL    HW261523   4.864   1.177   7.416 -0.2224 -0.8665  2.2767
20028SOL     OW61524   6.630   2.352   7.250  0.4547 -0.1897  0.2627
20028SOL    HW161525   6.591   2.269   7.278  2.0832 -1.0800 -0.0273
20028SOL    HW261526   6.591   2.417   7.308  0.8047 -1.4606  1.9898
20029SOL     OW61527   7.253   3.920   9.755 -0.1718 -0.0466 -0.6809
20029SOL    HW161528   7.314   3.985   9.720  0.1479 -0.3626 -0.7165
20029SOL    HW261529   7.205   3.966   9.824  2.2628 -0.6003  1.5282
20030SOL     OW61530   6.961   3.036   7.275 -0.3488 -0.1923 -0.4762
20030SOL    HW161531   6.896   2.978   7.314 -0.2921  0.5077  0.7428
20030SOL    HW261532   6.961   3.015   7.182 -2.2459 -0.2696 -0.4814
20031SOL     OW61533   5.643   3.102   4.615 -0.1698  0.2808  0.1602
20031SOL    HW161534   5.637   3.090   4.709  1.2474  1.1809  0.3885
20031SOL    HW261535   5.623   3.016   4.578  1.2268 -0.5881  1.3643
20032SOL     OW61536   0.314   0.792   6.718  0.1979  0.4625 -0.2079
20032SOL    HW161537   0.249   0.818   6.784 -0.0233 -0.1248 -0.1885
20032SOL    HW261538   0.290   0.843   6.640 -0.2380  0.3126 -0.1766
20033SOL     OW61539   6.833   2.143   8.054 -0.0507  0.4360  0.0103
20033SOL    HW161540   6.744   2.154   8.022  0.1838  2.2375 -0.1266
20033SOL    HW261541   6.856   2.053   8.031 -2.1731 -0.4131  0.9590
20034SOL     OW61542   7.913   3.941   7.941  0.7466 -0.0205 -0.0469
20034SOL    HW161543   7.822   3.962   7.958  0.8113  1.1280 -1.0070
20034SOL    HW261544   7.945   4.012   7.886  2.3072 -0.2443  0.5017
20035SOL     OW61545   0.940   4.096   8.307 -0.2722 -0.5837 -0.4251
20035SOL    HW161546   0.973   4.045   8.233  1.1867  0.1851 -0.3344
20035SOL    HW261547   0.859   4.136   8.274  0.9395  0.6668 -2.0325
20036SOL     OW61548   5.991   2.155   6.996  0.3140  0.1409  0.0718
20036SOL    HW161549   6.007   2.248   7.012 -0.1053  0.2020  0.1485
20036SOL    HW261550   6.005   2.113   7.081  0.1042  0.1878  0.1290
20037SOL     OW61551   6.491   2.212   6.921 -0.6288 -0.1290 -0.4660
20037SOL    HW161552   6.415   2.210   6.863 -0.9175  0.4649 -0.1121
20037SOL    HW261553   6.455   2.233   7.007 -0.1683 -0.7286 -0.1239
20038SOL     OW61554   5.782   2.356   4.229  0.2100  0.1921  0.1916
20038SOL    HW161555   5.856   2.314   4.185  1.3542  2.6486 -0.3852
20038SOL    HW261556   5.822   2.411   4.296 -1.2337  0.2530  1.0415
20039SOL     OW61557   7.485   3.067   6.800 -0.6319  0.1110  0.4096
20039SOL    HW161558   7.405   3.044   6.847 -1.0819  0.0035 -0.3805
20039SOL    HW261559   7.463   3.055   6.707  0.3995 -0.2297  0.1892
20040SOL     OW61560   5.345   1.728   5.972 -0.0554 -0.4235 -0.1652
20040SOL    HW161561   5.344   1.748   6.066 -0.1217 -0.3641 -0.1778
20040SOL    HW261562   5.391   1.802   5.933  1.3413 -1.1811 -0.0208
20041SOL     OW61563   4.015   2.413   7.198 -0.3656 -0.2929 -0.0611
20041SOL    HW161564   3.967   2.442   7.275  0.4976  0.0517  0.3625
20041SOL    HW261565   4.034   2.494   7.151 -0.9631 -0.5074 -0.6954
20042SOL     OW61566   0.243   2.113   7.485  0.0814  0.1190  0.1406
20042SOL    HW161567   0.297   2.191   7.491 -0.4182  0.3607  2.7145
20042SOL    HW261568   0.256   2.081   7.396  1.1602  2.4927 -0.6314
20043SOL     OW61569   6.765   1.159   6.671 -0.2771 -0.0011  0.4871
20043SOL    HW161570   6.768   1.254   6.660  0.3290  0.0560  1.1057
20043SOL    HW261571   6.773   1.125   6.582 -0.5913  0.5256  0.2500
20044SOL     OW61572   4.969   2.280   5.897 -0.1605 -0.4700 -0.4342
20044SOL    HW161573   4.977   2.374   5.915  0.6419 -0.3974 -1.1227
20044SOL    HW261574   5.050   2.257   5.852 -1.1659 -1.0792 -2.0117
20045SOL     OW61575   5.266   3.517   7.346 -0.0366 -0.4281  0.2183
20045SOL    HW161576   5.198   3.478   7.291  0.0610 -0.4825  0.1373
20045SOL    HW261577   5.251   3.479   7.433  0.4790 -1.1653 -0.0058
20046SOL     OW61578   5.883   3.754   6.037  0.3808 -0.3096  0.1570
20046SOL    HW161579   5.936   3.815   6.089 -0.6084  1.1472 -0.4756
20046SOL    HW261580   5.812   3.808   6.001  0.1792 -1.5718 -1.4835
20047SOL     OW61581   7.700   5.744   8.454  0.1656  0.3265 -0.7244
20047SOL    HW161582   7.758   5.818   8.470 -2.8806  2.5060  1.6290
20047SOL    HW261583   7.650   5.769   8.376 -2.0521  1.7666  1.0358
20048SOL     OW61584   6.260   3.110   6.263 -0.0461  0.4201 -0.2671
20048SOL    HW161585   6.346   3.150   6.269 -0.5830  1.4703  0.8080
20048SOL    HW261586   6.235   3.094   6.354 -0.4144 -1.1599 -0.6155
20049SOL     OW61587   7.522   4.769   7.854  0.1816 -0.4553 -0.1519
20049SOL    HW161588   7.445   4.718   7.882 -0.8657  2.0361  1.9260
20049SOL    HW261589   7.591   4.744   7.916  0.0861 -0.3569 -0.0055
20050SOL     OW61590   7.064   3.277   8.056 -0.2798 -0.3704  0.3990
20050SOL    HW161591   7.120   3.279   7.978 -0.9511  0.5309 -0.0759
20050SOL    HW261592   7.122   3.303   8.127  0.3370 -1.1805  0.2129
20051SOL     OW61593   6.764   0.949   6.124 -0.1146 -0.0144  0.2385
20051SOL    HW161594   6.834   0.895   6.160 -0.7413 -0.1858  1.2358
20051SOL    HW261595   6.803   0.990   6.047  0.6321 -1.2426 -0.0728
20052SOL     OW61596   5.939   3.316   5.670 -0.0475  0.7136  0.8588
20052SOL    HW161597   5.933   3.259   5.593  0.5022  0.4932  0.9765
20052SOL    HW261598   5.953   3.404   5.633 -0.2448  0.6784  0.6969
20053SOL     OW61599   5.755   4.564   8.389 -0.2877  0.7191  0.1624
20053SOL    HW161600   5.697   4.509   8.441 -0.4400  0.1607 -0.5960
20053SOL    HW261601   5.842   4.527   8.404 -0.3663  0.3835 -0.1988
20054SOL     OW61602   7.708   2.486   7.252  0.2469 -0.0319 -0.0148
20054SOL    HW161603   7.800   2.469   7.270 -0.2455 -1.0557  1.7785
20054SOL    HW261604   7.708   2.533   7.169  2.3820  0.1040  0.0116
20055SOL     OW61605   7.305   5.033   6.845 -0.2340 -0.3042  0.0786
20055SOL    HW161606   7.229   5.073   6.803  0.0149 -0.3936 -0.4692
20055SOL    HW261607   7.366   5.017   6.773  0.3113 -0.2159  0.5161
20056SOL     OW61608   5.578   4.388   8.466 -0.7488  0.1960  0.5221
20056SOL    HW161609   5.612   4.298   8.467 -3.4154 -0.9445 -0.7198
20056SOL    HW261610   5.563   4.406   8.373 -0.1579  2.0314  0.7491
20057SOL     OW61611   5.202   1.713   6.223 -0.3732  0.3125 -0.2279
20057SOL    HW161612   5.227   1.805   6.231 -1.2111  0.6233 -0.9962
20057SOL    HW261613   5.145   1.697   6.298  0.8971  0.0022  0.7095
20058SOL     OW61614   6.422   3.372   7.257 -0.5868  0.6349 -0.3817
20058SOL    HW161615   6.443   3.403   7.169  1.7739  2.3535  0.6699
20058SOL    HW261616   6.373   3.444   7.297  0.6680  1.0364  0.5090
20059SOL     OW61617   6.539   2.742   5.821  0.0625 -0.0862  0.0371
20059SOL    HW161618   6.531   2.674   5.754 -1.1160  0.5594 -0.5109
20059SOL    HW261619   6.574   2.818   5.774 -1.5756  0.6377 -0.0800
20060SOL     OW61620   7.227   2.404   8.446  0.2276  0.2095 -0.2832
20060SOL    HW161621   7.213   2.499   8.446  0.3070  0.2219 -0.5798
20060SOL    HW261622   7.152   2.369   8.494 -0.4366  0.3365 -1.1866
20061SOL     OW61623   0.313   3.712   6.112  0.3714  0.0258  0.1287
20061SOL    HW161624   0.236   3.662   6.082 -0.2112  1.4668 -0.9282
20061SOL    HW261625   0.377   3.646   6.136 -0.7804 -1.2205 -0.1082
20062SOL     OW61626   6.938   3.360   4.930 -0.1027  0.2190 -0.7142
20062SOL    HW161627   6.869   3.420   4.958  0.5508  0.7468 -0.1984
20062SOL    HW261628   6.894   3.276   4.920 -1.0014  0.7412 -1.2791
20063SOL     OW61629   5.615   3.716   8.051 -0.1460  0.0216  0.1936
20063SOL    HW161630   5.537   3.685   8.003 -0.7952  1.3989  0.3137
20063SOL    HW261631   5.641   3.796   8.005  1.5824 -0.7290 -0.2067
20064SOL     OW61632   7.745   1.581   7.184 -0.1645  0.0936 -0.0346
20064SOL    HW161633   7.777   1.641   7.251  2.1732 -1.7635  0.6506
20064SOL    HW261634   7.664   1.545   7.220 -0.3501  1.0860  0.5667
20065SOL     OW61635   0.741   4.884   6.233  0.1812  0.0140  0.8402
20065SOL    HW161636   0.816   4.845   6.277  1.1585  1.2390  0.3237
20065SOL    HW261637   0.757   4.978   6.236 -1.1495  0.2809  0.3807
20066SOL     OW61638   4.949   3.939   8.131 -0.8029  0.3030 -0.2900
20066SOL    HW161639   4.976   3.935   8.040 -1.2423  1.3675 -0.4733
20066SOL    HW261640   4.853   3.940   8.128 -0.9040 -1.9979  0.2932
20067SOL     OW61641   6.554   2.120   6.193  0.2146 -0.1899 -0.0029
20067SOL    HW161642   6.566   2.044   6.136 -0.2564  1.6727 -2.7881
20067SOL    HW261643   6.465   2.111   6.226  0.6823 -1.5836  1.0198
20068SOL     OW61644   6.424   3.139   4.736 -0.4636 -0.1766  0.2899
20068SOL    HW161645   6.401   3.209   4.797  1.0193  0.2342  0.4214
20068SOL    HW261646   6.392   3.059   4.779  0.6649  0.0900  1.7092
20069SOL     OW61647   7.263   1.108   6.001  0.2568  0.0015  0.1907
20069SOL    HW161648   7.252   1.189   5.951  1.2532  1.4896  2.2422
20069SOL    HW261649   7.353   1.082   5.985  0.6152  0.5485  1.2681
20070SOL     OW61650   6.337   4.018   6.217 -0.1648  0.0346 -0.6686
20070SOL    HW161651   6.353   4.059   6.132  1.1843  0.6232 -0.1468
20070SOL    HW261652   6.423   3.997   6.251 -0.6354  0.5065  0.8992
20071SOL     OW61653   0.037   0.912   5.796 -0.4184 -0.1565 -0.0341
20071SOL    HW161654   0.072   0.899   5.884  0.6368 -2.5053 -0.7174
20071SOL    HW261655  -0.058   0.899   5.806 -0.3770  0.1582  0.8314
20072SOL     OW61656   7.479   2.973   7.537  0.4486 -0.1707 -0.3743
20072SOL    HW161657   7.522   3.019   7.609  0.6775  0.2232 -0.7579
20072SOL    HW261658   7.455   3.042   7.475  0.6321 -0.5430 -0.8719
20073SOL     OW61659   7.829   3.928   5.546 -0.1876 -0.5703 -0.0887
20073SOL    HW161660   7.847   4.022   5.551  1.2771 -0.7365 -1.4794
20073SOL    HW261661   7.775   3.918   5.468  1.5453 -1.0946 -1.2670
20074SOL     OW61662   6.879   3.153   7.728  0.1076 -0.6300  0.3442
20074SOL    HW161663   6.826   3.127   7.803  0.4984 -2.8581 -0.0842
20074SOL    HW261664   6.967   3.121   7.748  0.6701  0.4923 -0.2163
20075SOL     OW61665   6.758   1.955   3.758 -0.4647  0.6722 -0.4046
20075SOL    HW161666   6.704   1.911   3.822 -1.1603  0.8881 -0.8333
20075SOL    HW261667   6.786   1.885   3.698  2.5453 -0.1034  1.6382
20076SOL     OW61668   6.480   2.674   4.730  0.1721 -0.4105 -0.0961
20076SOL    HW161669   6.406   2.733   4.747 -0.7998 -1.6769  0.1759
20076SOL    HW261670   6.497   2.632   4.815  1.4225  0.0908 -0.0793
20077SOL     OW61671   5.586   3.672   6.602 -0.0162 -0.0503 -0.5329
20077SOL    HW161672   5.661   3.706   6.553  0.3263  0.3845  0.2755
20077SOL    HW261673   5.510   3.697   6.550  0.3744 -0.0457 -1.1046
20078SOL     OW61674   6.215   2.458   5.878 -0.3983  0.3801 -0.1138
20078SOL    HW161675   6.125   2.426   5.886 -0.4196  0.5939  0.6135
20078SOL    HW261676   6.263   2.386   5.838 -0.5898 -0.2997  0.8417
20079SOL     OW61677   0.119   4.943   7.251  0.3589  0.1476 -0.5252
20079SOL    HW161678   0.142   4.923   7.160  0.9600  0.1506 -0.3770
20079SOL    HW261679   0.033   4.986   7.245  0.8258  1.0185 -1.1760
20080SOL     OW61680   5.508   0.418   6.633  0.0175  0.7886 -0.3746
20080SOL    HW161681   5.425   0.462   6.613  0.9476  2.7800 -0.0420
20080SOL    HW261682   5.562   0.431   6.555  0.8048  1.4923  0.2710
20081SOL     OW61683   6.162   3.728   7.248  0.0013 -0.2487  0.0121
20081SOL    HW161684   6.166   3.642   7.208  0.0300 -1.2925  2.1195
20081SOL    HW261685   6.069   3.740   7.270 -0.1362  0.6282 -0.9856
20082SOL     OW61686   0.376   2.293   6.618  0.6569 -0.3548  0.3654
20082SOL    HW161687   0.297   2.331   6.655 -0.6001 -0.4325 -2.0040
20082SOL    HW261688   0.361   2.198   6.623  1.2544 -0.4172  1.1652
20083SOL     OW61689   4.336   2.067   5.808 -0.1008  0.0709  0.0455
20083SOL    HW161690   4.365   1.979   5.831 -3.0939 -0.7573  1.1521
20083SOL    HW261691   4.311   2.107   5.892 -1.6135  0.8217 -0.7089
20084SOL     OW61692   6.280   2.590  10.008 -0.2729  0.1416 -0.0692
20084SOL    HW161693   6.201   2.625   9.967  0.0288 -0.6249 -1.3593
20084SOL    HW261694   6.327   2.667  10.039 -0.2921  0.8057 -1.5824
20085SOL     OW61695   6.659   1.389   7.328 -0.3893 -0.0277  0.1690
20085SOL    HW161696   6.659   1.444   7.406  2.1051  1.7928 -0.9895
20085SOL    HW261697   6.751   1.377   7.307 -0.9811 -0.7391 -2.3331
20086SOL     OW61698   5.076   2.308   4.802  0.8778 -0.1540 -0.1065
20086SOL    HW161699   5.102   2.261   4.881  2.0362  1.0010  0.2295
20086SOL    HW261700   5.082   2.400   4.826 -3.4623  0.3326 -0.0139
20087SOL     OW61701   4.951   2.746   6.888 -0.1117  0.0747 -0.3988
20087SOL    HW161702   4.886   2.681   6.911  0.4096 -0.6131 -0.8173
20087SOL    HW261703   4.934   2.820   6.947 -1.6952  0.1931 -0.9753
20088SOL     OW61704   6.502   2.138   6.538 -0.8738  0.3713  0.0811
20088SOL    HW161705   6.432   2.173   6.593 -0.5120 -0.2519  0.9755
20088SOL    HW261706   6.566   2.208   6.532 -1.7205  1.0784 -1.0479
20089SOL     OW61707   7.368   4.526   6.190  0.0493  0.0169  0.0867
20089SOL    HW161708   7.317   4.476   6.254  0.1670 -0.1733  0.0313
20089SOL    HW261709   7.303   4.558   6.127 -0.0260 -0.0692  0.1203
20090SOL     OW61710   7.000   4.973   6.864 -0.5687  0.6834 -0.2178
20090SOL    HW161711   7.083   4.980   6.912 -0.1982 -0.2578 -0.6910
20090SOL    HW261712   6.943   5.039   6.904  0.5405  1.6455 -0.1774
20091SOL     OW61713   5.817   2.473   5.960 -0.4807  0.3821 -0.1755
20091SOL    HW161714   5.874   2.420   5.905  1.8677  2.0241  0.5150
20091SOL    HW261715   5.782   2.540   5.901 -0.9605 -0.0488 -0.3928
20092SOL     OW61716   6.179   1.768   6.243 -0.1788 -0.4413  0.0330
20092SOL    HW161717   6.191   1.695   6.182  3.1492  0.2050 -0.3254
20092SOL    HW261718   6.159   1.727   6.327 -2.3171 -1.4809 -0.9320
20093SOL     OW61719   7.988   2.138   7.510 -0.2006 -0.5771  0.0968
20093SOL    HW161720   7.961   2.063   7.456  0.0770 -1.0511  0.5987
20093SOL    HW261721   8.081   2.124   7.524 -0.3196 -0.6200  0.9233
20094SOL     OW61722   5.847   1.786   7.417 -0.1937  0.4944 -0.2872
20094SOL    HW161723   5.802   1.845   7.356  0.5189  0.2119 -1.1013
20094SOL    HW261724   5.811   1.809   7.503 -1.0572  1.0459 -0.7814
20095SOL     OW61725   7.447   2.604   7.315 -0.0152 -0.0863 -0.0124
20095SOL    HW161726   7.410   2.539   7.375 -0.8693 -0.6571 -1.1225
20095SOL    HW261727   7.541   2.584   7.313 -0.0041 -0.1807  0.9727
20096SOL     OW61728   7.016   1.805   6.557 -0.0466 -0.3846 -0.1614
20096SOL    HW161729   7.063   1.886   6.538 -0.8470  0.2812  0.5805
20096SOL    HW261730   7.085   1.741   6.577  0.5621  0.5459  0.8387
20097SOL     OW61731   6.195   1.694   5.863 -0.0279 -0.0545 -0.5047
20097SOL    HW161732   6.131   1.721   5.797 -0.0974  0.8014 -0.0969
20097SOL    HW261733   6.144   1.645   5.927 -0.3468  0.9453  0.0110
20098SOL     OW61734   6.974   1.286   7.653  0.0691 -0.5920  0.6251
20098SOL    HW161735   7.003   1.275   7.743  0.0344  0.3889  0.7721
20098SOL    HW261736   7.021   1.364   7.623  0.7365 -1.3957 -0.4848
20099SOL     OW61737   5.939   2.994   7.536  0.6254  0.4718  0.4682
20099SOL    HW161738   6.030   2.973   7.515  0.3892 -1.0662  0.8868
20099SOL    HW261739   5.922   3.076   7.489  1.3556 -0.6741 -1.9278
20100SOL     OW61740   6.976   1.815   4.472  0.1267 -0.1707 -0.4616
20100SOL    HW161741   7.054   1.847   4.425  0.8746 -1.5092 -0.1746
20100SOL    HW261742   6.995   1.833   4.565 -0.4976  0.6947 -0.4885
20101SOL     OW61743   7.270   3.448   5.982 -0.0037 -0.4181 -0.0290
20101SOL    HW161744   7.311   3.375   6.028  1.8734  1.1455  0.9366
20101SOL    HW261745   7.298   3.438   5.890  1.6433 -0.0629  0.3929
20102SOL     OW61746   7.361   4.322   6.831  0.2698 -0.6699 -0.0445
20102SOL    HW161747   7.274   4.300   6.797  0.2251 -0.2474 -0.1999
20102SOL    HW261748   7.411   4.349   6.755  0.0903  0.5390  0.2438
20103SOL     OW61749   7.197   1.753   6.969  0.2051 -0.4778  0.1706
20103SOL    HW161750   7.270   1.692   6.980  0.1581 -0.3973  1.0026
20103SOL    HW261751   7.228   1.815   6.903 -0.4951 -2.5098 -2.2244
20104SOL     OW61752   0.332   3.430   5.154  0.4697 -0.5772 -0.3317
20104SOL    HW161753   0.247   3.421   5.112  0.3474  1.3063 -0.5654
20104SOL    HW261754   0.376   3.346   5.138 -1.4938 -1.7855  0.2441
20105SOL     OW61755   4.967   2.593   5.930 -0.9697  0.1100  0.9059
20105SOL    HW161756   5.010   2.649   5.995 -0.0320 -0.2392  0.6014
20105SOL    HW261757   4.873   2.608   5.944 -0.8042 -0.1433  2.5131
20106SOL     OW61758   6.570   2.597   6.304  0.1484  0.1344  0.6540
20106SOL    HW161759   6.627   2.635   6.370 -1.1176  2.6624  0.4196
20106SOL    HW261760   6.523   2.672   6.267 -0.6963 -1.4257 -1.6598
20107SOL     OW61761   7.052   2.095   7.189  0.0274 -0.5382  0.1791
20107SOL    HW161762   7.144   2.117   7.172 -0.4753  1.2832 -0.3763
20107SOL    HW261763   7.054   2.001   7.209  1.6024 -1.2959 -2.9243
20108SOL     OW61764   3.938   1.773   7.938 -0.0876  0.4678  0.7322
20108SOL    HW161765   3.924   1.752   8.030 -0.9450  0.5551  0.6272
20108SOL    HW261766   3.851   1.766   7.898  0.1766  1.0083  0.0461
20109SOL     OW61767   5.979   3.440   4.210 -0.1641 -0.4191  0.4788
20109SOL    HW161768   5.946   3.428   4.121 -1.2069 -0.9242  0.9132
20109SOL    HW261769   5.923   3.509   4.247 -0.4527 -0.9798  1.0930
20110SOL     OW61770   6.261   4.043   7.472 -0.7095 -0.0314  0.2916
20110SOL    HW161771   6.301   4.094   7.543 -0.4140  2.3382 -1.4770
20110SOL    HW261772   6.327   3.978   7.448 -1.0459 -1.3071  2.4991
20111SOL     OW61773   6.299   3.902   7.100 -0.1330 -0.3731 -0.2437
20111SOL    HW161774   6.220   3.939   7.061 -0.8831  0.9864  2.2972
20111SOL    HW261775   6.267   3.846   7.171  1.1582 -0.5196  0.2602
20112SOL     OW61776   5.492   2.765   7.086  0.1889  0.7242 -0.0790
20112SOL    HW161777   5.521   2.709   7.158 -0.1777  0.4298 -0.1566
20112SOL    HW261778   5.538   2.848   7.100 -2.1081  1.7446  2.2491
20113SOL     OW61779   7.294   2.503   7.524 -0.1072  0.4496 -0.0849
20113SOL    HW161780   7.265   2.483   7.613 -0.0112 -0.7911 -0.3143
20113SOL    HW261781   7.299   2.418   7.480 -0.6289  1.0831 -1.4290
20114SOL     OW61782   6.845   2.788   6.680  0.3383  0.0270  0.3506
20114SOL    HW161783   6.835   2.751   6.592 -2.0000 -1.8612  1.2943
20114SOL    HW261784   6.850   2.711   6.738 -0.6636  1.1804  2.0752
20115SOL     OW61785   6.131   5.297   6.801  0.1525 -0.4504  0.0464
20115SOL    HW161786   6.188   5.305   6.877 -0.6728 -2.6557  0.9871
20115SOL    HW261787   6.179   5.241   6.740  0.2833  0.2880 -0.5495
20116SOL     OW61788   4.943   1.982   6.347 -0.0051  0.4462  0.2712
20116SOL    HW161789   4.965   2.007   6.257  0.6196  0.0817  0.3180
20116SOL    HW261790   4.943   1.886   6.346  0.9861  0.4200  0.8800
20117SOL     OW61791   7.002   1.737   7.515 -0.5711  0.5782  0.1728
20117SOL    HW161792   7.015   1.719   7.608  1.1497 -2.1119 -0.4826
20117SOL    HW261793   7.023   1.655   7.471  0.3530  2.2194 -2.7569
20118SOL     OW61794   6.246   1.685   5.547 -0.0368 -0.6838 -0.2100
20118SOL    HW161795   6.259   1.666   5.454 -2.1435 -0.3623 -0.6111
20118SOL    HW261796   6.151   1.684   5.559  0.1970 -1.1914  2.0569
20119SOL     OW61797   0.393   2.656   7.521 -0.1956 -0.6621  0.0118
20119SOL    HW161798   0.307   2.638   7.482 -0.5954  0.2691  0.4162
20119SOL    HW261799   0.374   2.675   7.613  0.3413  0.2735 -0.0520
20120SOL     OW61800   6.491   1.104   4.604  0.0053 -0.1431  0.5170
20120SOL    HW161801   6.440   1.041   4.655 -1.9435  0.4948 -0.5343
20120SOL    HW261802   6.577   1.064   4.594 -0.1813 -1.1895  2.5299
20121SOL     OW61803   7.115   4.335   5.452 -0.3632  0.6659 -0.1249
20121SOL    HW161804   7.043   4.388   5.415 -0.7112 -0.8460 -1.7822
20121SOL    HW261805   7.149   4.287   5.376  0.3181 -1.0170  1.2074
20122SOL     OW61806   6.168   2.507   8.673  0.3577  0.3414 -0.4467
20122SOL    HW161807   6.166   2.419   8.711 -2.2596  0.1782 -0.7856
20122SOL    HW261808   6.261   2.525   8.658  1.1626 -1.3144  1.9861
20123SOL     OW61809   4.737   1.846   6.975 -0.0370  0.2452  0.4214
20123SOL    HW161810   4.655   1.801   6.955  0.1469  0.3837 -0.7283
20123SOL    HW261811   4.794   1.779   7.014 -0.3821 -0.0649  0.3916
20124SOL     OW61812   5.704   2.535   9.331 -0.1479  0.0872  0.5005
20124SOL    HW161813   5.710   2.629   9.346  0.7152 -0.0526  1.0860
20124SOL    HW261814   5.645   2.504   9.400  0.4886  0.0474  1.0435
20125SOL     OW61815   6.188   2.107   9.439  0.0683  0.1779  0.2886
20125SOL    HW161816   6.238   2.034   9.475  1.1665  0.8013  0.0781
20125SOL    HW261817   6.097   2.088   9.462  0.2710 -1.4681 -0.1394
20126SOL     OW61818   6.500   2.424   8.901  0.1822  0.2902 -0.6231
20126SOL    HW161819   6.419   2.389   8.862  0.0570 -0.4848  0.2951
20126SOL    HW261820   6.493   2.403   8.994 -0.1369  3.2844  0.1152
20127SOL     OW61821   5.442   1.945   8.770 -0.2679  0.2772  0.4895
20127SOL    HW161822   5.397   1.885   8.829 -0.9189  0.8327  0.5708
20127SOL    HW261823   5.395   2.028   8.779  0.5007  0.7529  0.2386
20128SOL     OW61824   7.166   3.347   7.446 -0.0661  0.0547 -0.5452
20128SOL    HW161825   7.210   3.263   7.458  0.5395  0.5053  0.5667
20128SOL    HW261826   7.074   3.327   7.463  0.2763 -0.0990  1.4574
20129SOL     OW61827   6.708   4.154   7.739  0.0398  0.0616 -0.2062
20129SOL    HW161828   6.692   4.200   7.656  0.3361 -0.2581 -0.4451
20129SOL    HW261829   6.621   4.145   7.778  0.0885  1.9337  0.4549
20130SOL     OW61830   7.090   2.025   8.459 -0.0680  0.1399 -0.2184
20130SOL    HW161831   7.153   1.954   8.450  0.4266  0.4263  0.8157
20130SOL    HW261832   7.109   2.084   8.387  0.8709  0.2369  0.1024
20131SOL     OW61833   6.808   2.053   7.689 -0.0850 -0.1508  0.0458
20131SOL    HW161834   6.815   1.995   7.613  0.3918  0.2278 -0.2015
20131SOL    HW261835   6.858   2.131   7.665 -1.3797  0.7220  0.0422
20132SOL     OW61836   4.784   1.722   9.657 -0.2090  0.5890  0.1058
20132SOL    HW161837   4.814   1.668   9.583 -0.5206  1.8936 -1.0185
20132SOL    HW261838   4.862   1.734   9.711 -0.1001 -0.8269  0.2798
20133SOL     OW61839   6.061   1.600   9.978  0.5113 -0.0407 -0.4092
20133SOL    HW161840   6.119   1.645   9.917 -0.0141 -0.9131 -1.5787
20133SOL    HW261841   5.987   1.572   9.925 -0.1494 -0.4817  0.7082
20134SOL     OW61842   7.151   1.883  10.091 -0.3964  0.0076 -0.0843
20134SOL    HW161843   7.132   1.933  10.170  1.1486 -1.9695  1.6374
20134SOL    HW261844   7.066   1.848  10.064 -0.7687 -0.3563  1.4865
20135SOL     OW61845   6.453   0.898   7.658 -0.7912  0.3254 -0.1905
20135SOL    HW161846   6.456   0.803   7.650 -2.9398  0.3498 -2.6227
20135SOL    HW261847   6.446   0.914   7.752  0.0054 -1.8741  0.3037
20136SOL     OW61848   6.707   1.105   7.179  0.0617 -0.2657 -0.1098
20136SOL    HW161849   6.749   1.078   7.260  0.7349  1.3016  0.1167
20136SOL    HW261850   6.664   1.026   7.145  0.9788 -1.2778  1.0225
20137SOL     OW61851   4.805   2.234   9.327  0.1360 -0.5095 -0.4814
20137SOL    HW161852   4.746   2.177   9.377  0.7689 -0.4706  0.3237
20137SOL    HW261853   4.841   2.178   9.259  0.8473 -1.1200  0.3767
20138SOL     OW61854   4.600   2.965   9.298  0.5919 -0.0502  0.0217
20138SOL    HW161855   4.569   2.976   9.387  0.6890  0.8742 -0.0479
20138SOL    HW261856   4.628   3.053   9.271 -2.1351  0.3432 -1.9236
20139SOL     OW61857   5.971   2.683   7.699 -0.2806  0.3963 -0.3144
20139SOL    HW161858   5.966   2.587   7.704  3.3118  0.0463 -0.7749
20139SOL    HW261859   5.919   2.713   7.773 -0.0141 -2.0005  0.9643
20140SOL     OW61860   5.556   1.599   8.356 -0.0646 -0.2020  0.1254
20140SOL    HW161861   5.519   1.521   8.314 -1.5113  0.3645  0.2697
20140SOL    HW261862   5.605   1.566   8.431 -1.2834 -0.9371  0.6231
20141SOL     OW61863   7.218   5.132   8.308 -0.1176  0.2507 -0.0065
20141SOL    HW161864   7.127   5.105   8.315  0.7008 -2.7556  0.4624
20141SOL    HW261865   7.249   5.092   8.227  0.8518  1.0856 -0.0720
20142SOL     OW61866   4.855   3.380   8.556 -0.2849  0.0942  0.1152
20142SOL    HW161867   4.875   3.473   8.559 -0.1514  0.1158 -0.9201
20142SOL    HW261868   4.760   3.375   8.568 -0.0582  0.1996  2.2061
20143SOL     OW61869   7.534   0.455   9.524 -0.5410 -0.2871 -0.2335
20143SOL    HW161870   7.584   0.374   9.519  1.6558  0.8458  1.6106
20143SOL    HW261871   7.500   0.468   9.436  1.3266 -1.8395 -1.2522
20144SOL     OW61872   5.385   1.824   6.751  0.4831 -0.4779  0.2843
20144SOL    HW161873   5.398   1.915   6.779  1.0664 -0.1671 -0.9244
20144SOL    HW261874   5.470   1.798   6.714 -0.2884 -0.7868 -1.3362
20145SOL     OW61875   7.691   4.514   7.188  0.2010  0.1721 -0.0530
20145SOL    HW161876   7.610   4.514   7.238 -0.2895  0.5734 -0.8251
20145SOL    HW261877   7.692   4.429   7.144 -0.3873  0.6242 -0.9555
20146SOL     OW61878   4.762   2.803   7.914  1.2434 -0.6308 -0.1133
20146SOL    HW161879   4.811   2.811   7.996 -0.8878 -0.4822  1.2034
20146SOL    HW261880   4.733   2.892   7.894 -2.1147 -1.1995  1.5440
20147SOL     OW61881   0.007   2.433   9.078 -0.3253 -0.3955  0.7135
20147SOL    HW161882   0.077   2.498   9.089 -0.3542 -0.2105 -0.1690
20147SOL    HW261883   0.050   2.360   9.032 -0.7886 -0.1461 -0.1246
20148SOL     OW61884   6.225   3.679   7.672 -0.9044  0.0028  0.3137
20148SOL    HW161885   6.208   3.760   7.721 -0.8225  0.5900 -0.5988
20148SOL    HW261886   6.145   3.665   7.621 -0.4090  0.2480 -0.5358
20149SOL     OW61887   6.444   2.689   9.103 -0.4180 -0.4073 -0.4190
20149SOL    HW161888   6.457   2.784   9.099 -0.0700 -0.3769  0.7860
20149SOL    HW261889   6.528   2.656   9.135 -0.6143 -1.0984 -0.6184
20150SOL     OW61890   6.216   1.978   6.900 -0.1801 -0.1106  0.0198
20150SOL    HW161891   6.226   1.954   6.808 -0.7491 -1.9842  0.4017
20150SOL    HW261892   6.143   2.040   6.901 -1.9276 -2.0475 -0.5568
20151SOL     OW61893   6.260   2.243   9.192  0.3307 -0.4214  0.7221
20151SOL    HW161894   6.224   2.221   9.278  0.0258  0.0769  0.7246
20151SOL    HW261895   6.348   2.277   9.210  0.3023 -0.4056  0.8264
20152SOL     OW61896   5.983   2.718   7.417 -0.2339 -0.1241 -0.0158
20152SOL    HW161897   5.984   2.712   7.512  0.8466  1.7454  0.1348
20152SOL    HW261898   5.991   2.811   7.398 -0.8255 -0.4219 -1.9450
20153SOL     OW61899   4.090   0.633  10.478 -0.7214  0.1418 -0.3472
20153SOL    HW161900   4.060   0.724  10.470  0.2857  0.6084  0.8732
20153SOL    HW261901   4.061   0.606  10.565  0.2005 -0.2231 -0.1390
20154SOL     OW61902   7.008   5.435   7.445  0.8726  0.1253 -0.5722
20154SOL    HW161903   6.926   5.459   7.488  0.4578  1.5947 -2.1197
20154SOL    HW261904   6.982   5.401   7.360  1.8801  1.1952 -1.3317
20155SOL     OW61905   7.269   1.748   9.897  0.2352 -0.0506 -0.5210
20155SOL    HW161906   7.239   1.822   9.950  2.8987  0.1655  0.8191
20155SOL    HW261907   7.285   1.786   9.811 -1.8659  0.0872 -0.9234
20156SOL     OW61908   5.096   1.241   8.335  0.5279  0.0135 -0.0869
20156SOL    HW161909   5.087   1.156   8.378  0.3580 -0.1345 -0.4108
20156SOL    HW261910   5.167   1.229   8.272  0.0819 -0.0826 -0.5835
20157SOL     OW61911   7.424   3.564   8.050  0.0499 -0.3697  0.0274
20157SOL    HW161912   7.337   3.573   8.010  0.3076 -1.6986 -0.8937
20157SOL    HW261913   7.417   3.613   8.132 -0.5912  2.2200 -1.4537
20158SOL     OW61914   7.086   4.495   7.561  0.5251  0.4552 -0.0780
20158SOL    HW161915   7.149   4.505   7.632 -0.1373  0.2444  0.5492
20158SOL    HW261916   7.139   4.468   7.486  1.0412 -0.9783  0.7612
20159SOL     OW61917   5.337   2.546   9.363 -0.1284  0.4576  0.1108
20159SOL    HW161918   5.270   2.615   9.362 -0.9735 -0.3346 -0.1859
20159SOL    HW261919   5.363   2.540   9.454 -1.6374 -0.2820  0.5309
20160SOL     OW61920   5.847   2.068   8.037  0.2611  0.4244 -0.3458
20160SOL    HW161921   5.854   2.156   8.074 -0.9169  0.6672 -0.6546
20160SOL    HW261922   5.934   2.031   8.047  0.7714  1.6150 -0.1718
20161SOL     OW61923   6.806   5.595   8.247  0.1277 -0.5455 -0.4603
20161SOL    HW161924   6.872   5.554   8.191 -0.0249  0.0439 -1.0852
20161SOL    HW261925   6.841   5.683   8.263 -0.0760 -0.5391 -0.0456
20162SOL     OW61926   6.316   0.598   8.397 -0.1066  0.7256 -0.2473
20162SOL    HW161927   6.315   0.675   8.341 -2.7410  1.7590  1.0276
20162SOL    HW261928   6.375   0.622   8.469 -1.3179  1.8891  0.4295
20163SOL     OW61929   6.216   0.858  10.144 -0.2101  0.4226  0.4675
20163SOL    HW161930   6.122   0.849  10.162  0.1286 -0.8780  1.7644
20163SOL    HW261931   6.249   0.913  10.216  0.4551 -1.4192  1.6520
20164SOL     OW61932   5.672   1.379   9.151  0.4068  0.5873 -0.1355
20164SOL    HW161933   5.745   1.340   9.103 -1.8456 -3.4348 -0.7213
20164SOL    HW261934   5.624   1.429   9.086 -0.5298 -1.7088 -1.3225
20165SOL     OW61935   6.702   3.830   8.878  0.0614 -0.1088 -0.1722
20165SOL    HW161936   6.796   3.821   8.865  0.0057 -0.4028 -0.3826
20165SOL    HW261937   6.677   3.907   8.825  0.0083 -0.6763 -0.9941
20166SOL     OW61938   5.111   2.364   7.920  0.3279  0.3179 -0.1103
20166SOL    HW161939   5.053   2.403   7.854  1.4146 -2.0273 -2.6932
20166SOL    HW261940   5.060   2.366   8.001 -2.6661  0.0098 -1.8278
20167SOL     OW61941   6.635   3.675   9.081  0.3984  0.0581  0.3073
20167SOL    HW161942   6.657   3.727   9.158 -0.8273  0.1313  0.6249
20167SOL    HW261943   6.645   3.735   9.007 -0.0945  0.4784  0.5796
20168SOL     OW61944   5.328   2.905   8.042 -0.7383  0.3129 -0.4004
20168SOL    HW161945   5.272   2.964   7.992 -0.3992  1.4242  0.4921
20168SOL    HW261946   5.269   2.835   8.071 -0.9724 -0.2419 -2.1506
20169SOL     OW61947   6.539   3.662   8.741 -0.7410  0.0616 -0.2432
20169SOL    HW161948   6.583   3.724   8.799 -0.4073  0.2728 -0.7183
20169SOL    HW261949   6.608   3.628   8.685 -0.7129 -1.5725  0.7263
20170SOL     OW61950   4.472   2.620   8.280 -0.0799 -0.9870 -0.0713
20170SOL    HW161951   4.506   2.704   8.311  0.6320 -0.9706 -0.8608
20170SOL    HW261952   4.419   2.642   8.204 -0.9291 -1.1363  0.4651
20171SOL     OW61953   6.814   2.668   8.607  0.1033 -0.4285 -0.0861
20171SOL    HW161954   6.823   2.750   8.560  0.3992  0.0920  0.8432
20171SOL    HW261955   6.807   2.601   8.539 -1.7044  0.5083 -0.8878
20172SOL     OW61956   6.158   2.662   9.358 -0.6292 -0.6870  0.2047
20172SOL    HW161957   6.088   2.597   9.368 -1.2121 -0.1039 -0.0011
20172SOL    HW261958   6.113   2.746   9.362 -0.0407 -0.3180 -0.7136
20173SOL     OW61959   5.847   2.266   7.376  0.1721  0.2572  0.0791
20173SOL    HW161960   5.905   2.200   7.338  0.9034  0.2615  1.1592
20173SOL    HW261961   5.906   2.336   7.404 -0.5326  1.0720 -0.4223
20174SOL     OW61962   6.691   1.609   7.845 -0.4361  0.4775 -0.5083
20174SOL    HW161963   6.662   1.686   7.895  0.2143  0.3165  0.1196
20174SOL    HW261964   6.770   1.580   7.889 -0.5905 -0.4684 -0.8418
20175SOL     OW61965   7.201   3.539   9.602 -0.2923 -0.5642 -0.2723
20175SOL    HW161966   7.286   3.575   9.579  0.2819 -0.5883  1.6031
20175SOL    HW261967   7.189   3.465   9.543  1.0098 -0.5837 -0.5404
20176SOL     OW61968   4.480   2.705   7.827  0.1374  0.6754  0.1316
20176SOL    HW161969   4.568   2.697   7.790  0.1750 -0.4743  0.4143
20176SOL    HW261970   4.454   2.795   7.809  0.6214  0.5089 -1.6394
20177SOL     OW61971   3.831   1.818   7.597 -0.1595  0.0132  0.1132
20177SOL    HW161972   3.774   1.772   7.658 -0.3167  0.6840  0.4783
20177SOL    HW261973   3.771   1.864   7.538 -0.0038 -0.1924 -0.2065
20178SOL     OW61974   5.925   2.684   9.116 -0.1329 -0.2372 -0.3502
20178SOL    HW161975   5.842   2.731   9.108 -0.6132 -0.9970  0.1275
20178SOL    HW261976   5.902   2.599   9.152  0.5986 -1.2599 -2.1383
20179SOL     OW61977   6.045   4.398   8.414  0.1636  0.4976  0.2181
20179SOL    HW161978   6.035   4.303   8.420  0.5857  0.3870 -0.6925
20179SOL    HW261979   6.137   4.412   8.394 -0.0327  1.0704 -0.3163
20180SOL     OW61980   5.770   1.604   8.988 -0.6841 -0.0181 -0.5658
20180SOL    HW161981   5.820   1.621   9.068 -2.1293 -0.7558  0.5540
20180SOL    HW261982   5.836   1.586   8.921  0.5513 -0.3982  0.7045
20181SOL     OW61983   7.780   3.558   8.215 -0.3205  0.1981 -0.6082
20181SOL    HW161984   7.790   3.561   8.119 -0.8889 -0.4723 -0.7060
20181SOL    HW261985   7.717   3.627   8.235 -0.3168  0.2412 -0.7457
20182SOL     OW61986   6.276   3.048   8.035  0.5120 -0.4262 -0.3081
20182SOL    HW161987   6.310   2.967   8.072  1.2950 -0.6973 -1.5859
20182SOL    HW261988   6.287   3.038   7.941 -0.7770  0.5447 -0.5866
20183SOL     OW61989   0.225   0.566   9.494 -0.1899 -0.5633  0.0409
20183SOL    HW161990   0.199   0.516   9.417  1.2004  1.0005 -1.5568
20183SOL    HW261991   0.241   0.654   9.460 -0.6067  0.4709  2.3547
20184SOL     OW61992   6.792   3.634   7.538 -0.4398  0.0648  0.0389
20184SOL    HW161993   6.884   3.647   7.558 -0.1781 -0.1069 -0.9879
20184SOL    HW261994   6.777   3.686   7.459 -0.5957 -1.8592 -1.2518
20185SOL     OW61995   5.312   3.374   9.415 -0.2765  0.3166 -0.1903
20185SOL    HW161996   5.383   3.368   9.351 -0.8763 -2.9658 -0.7337
20185SOL    HW261997   5.236   3.337   9.370 -1.1955 -0.3063  1.7648
20186SOL     OW61998   6.779   3.039   7.982  0.1001  0.5915  0.4241
20186SOL    HW161999   6.853   3.030   8.042 -0.9006  0.6306  1.6988
20186SOL    HW262000   6.704   3.060   8.038 -1.5823 -2.5015 -0.3787
20187SOL     OW62001   5.722   3.171   9.405 -0.0772  0.5443  0.3644
20187SOL    HW162002   5.752   3.262   9.400  0.3849  0.3323 -1.4478
20187SOL    HW262003   5.653   3.165   9.339 -1.8854  0.1785  2.2214
20188SOL     OW62004   6.159   7.748   7.158  0.3491  0.5878  0.3677
20188SOL    HW162005   6.211   7.828   7.150  0.2932  0.4582 -1.9165
20188SOL    HW262006   6.072   7.778   7.182 -0.3270  1.5472 -2.8365
20189SOL     OW62007   6.951   2.774  10.340 -0.3848  0.0621  0.1683
20189SOL    HW162008   7.022   2.742  10.395  0.0278  0.0287 -0.3764
20189SOL    HW262009   6.980   2.758  10.250 -0.1779  1.8544 -0.1362
20190SOL     OW62010   7.099   3.788   9.569  0.7418 -0.0042 -0.7246
20190SOL    HW162011   7.113   3.695   9.587  0.1159 -0.1084 -0.7551
20190SOL    HW262012   7.151   3.834   9.635  2.6789 -0.3565 -1.9510
20191SOL     OW62013   7.676   3.078  10.446  0.4008  0.3439  0.2926
20191SOL    HW162014   7.654   3.054  10.356  1.0444  0.1827  0.1748
20191SOL    HW262015   7.600   3.050  10.497 -0.8138  2.1699 -0.4306
20192SOL     OW62016   0.084   3.531   7.287  0.3369  0.6686 -0.4874
20192SOL    HW162017   0.037   3.614   7.290 -0.2699  0.3351 -0.6272
20192SOL    HW262018   0.177   3.555   7.294  0.1683  1.3562 -0.6165
20193SOL     OW62019   7.607   3.316  10.172 -0.4182 -0.4131 -0.0661
20193SOL    HW162020   7.534   3.259  10.191 -0.6531  0.0899  0.5957
20193SOL    HW262021   7.601   3.386  10.238 -0.6648  0.8578 -1.3810
20194SOL     OW62022   4.126   1.221   8.594  0.5163 -0.1250  0.2642
20194SOL    HW162023   4.126   1.234   8.689  1.3006  0.3385  0.2082
20194SOL    HW262024   4.094   1.303   8.558  0.1514 -0.3253  0.1211
20195SOL     OW62025   5.832   4.546   6.235 -0.2683  0.3661  0.2431
20195SOL    HW162026   5.842   4.479   6.167  0.4363 -0.1260  0.8214
20195SOL    HW262027   5.741   4.577   6.225  0.0706  0.9064 -1.4528
20196SOL     OW62028   5.442   2.435   5.823  0.0883  0.2544 -0.1064
20196SOL    HW162029   5.431   2.530   5.812 -2.1731  0.1641  0.8456
20196SOL    HW262030   5.496   2.409   5.748  2.1873  2.4944  0.5101
20197SOL     OW62031   7.730   3.264   8.143 -0.6972  0.7436 -0.3364
20197SOL    HW162032   7.772   3.340   8.184  0.0941  0.0865  0.1108
20197SOL    HW262033   7.639   3.269   8.171 -0.1344  0.1773  1.7776
20198SOL     OW62034   6.038   1.691   7.859  0.7435 -0.1929 -0.0817
20198SOL    HW162035   6.107   1.649   7.910  0.2262 -2.7493 -1.3451
20198SOL    HW262036   5.963   1.695   7.918  1.6065  1.8452  1.0214
20199SOL     OW62037   6.854   4.408   8.318 -0.0661  0.2377 -0.6402
20199SOL    HW162038   6.792   4.381   8.251  0.4035  0.9329 -1.3670
20199SOL    HW262039   6.841   4.502   8.327  0.8150  0.3797 -0.7373
20200SOL     OW62040   5.949   3.849   8.179  0.1974  0.6091 -0.5940
20200SOL    HW162041   5.907   3.779   8.229  0.4843 -0.4684 -1.8202
20200SOL    HW262042   5.882   3.878   8.118  0.1656  1.2306 -0.2682
20201SOL     OW62043   7.026   2.732  10.071 -0.0915 -0.0695 -0.6243
20201SOL    HW162044   6.952   2.755  10.015 -0.4325 -1.2761 -0.7048
20201SOL    HW262045   7.071   2.814  10.087 -1.2284  0.6246 -0.9017
20202SOL     OW62046   7.570   3.521   7.825 -0.4677 -0.2801 -0.1150
20202SOL    HW162047   7.636   3.454   7.842 -0.8753 -0.1169  2.4639
20202SOL    HW262048   7.531   3.539   7.911 -1.7315  1.8560 -1.0552
20203SOL     OW62049   3.622   0.491   9.751  0.1346 -0.3074  0.6515
20203SOL    HW162050   3.660   0.565   9.797  1.0425 -0.3317 -0.0326
20203SOL    HW262051   3.641   0.416   9.808  2.0910 -0.4806 -0.1656
20204SOL     OW62052   5.194   2.317   7.415  0.5083 -0.5373  0.2487
20204SOL    HW162053   5.265   2.274   7.462  0.4961  0.8726  1.6384
20204SOL    HW262054   5.222   2.408   7.406 -0.8200 -0.0929  0.2532
20205SOL     OW62055   7.036   1.131   6.132  0.3095 -0.3728 -0.2927
20205SOL    HW162056   7.016   1.197   6.066  2.0151  1.2399  0.7060
20205SOL    HW262057   7.114   1.086   6.098 -1.1255 -2.3188 -1.2097
20206SOL     OW62058   5.438   1.115   5.863 -0.7523 -0.1840 -0.1457
20206SOL    HW162059   5.356   1.071   5.887 -1.1565  0.1215 -0.9333
20206SOL    HW262060   5.420   1.208   5.876  0.3476 -0.2412  2.2527
20207SOL     OW62061   5.125   2.065   8.415  0.3850  0.1018 -0.7035
20207SOL    HW162062   5.170   2.064   8.330 -1.1028  0.0017 -1.5366
20207SOL    HW262063   5.056   1.999   8.406  1.1087 -0.9687  1.1404
20208SOL     OW62064   6.230   1.869   7.325 -0.0877  0.7240  0.1208
20208SOL    HW162065   6.248   1.832   7.238  1.2527  0.7596  0.3635
20208SOL    HW262066   6.316   1.876   7.366 -0.6677  1.0927  1.3063
20209SOL     OW62067   6.991   3.792   8.506 -0.1996  0.1906 -0.0600
20209SOL    HW162068   6.957   3.764   8.591  0.0799  1.2937  0.4358
20209SOL    HW262069   6.998   3.888   8.513 -0.9069  0.3784 -1.6077
20210SOL     OW62070   4.603   3.596   8.768  0.3974  0.5078  0.6092
20210SOL    HW162071   4.556   3.576   8.688  2.2301  1.6441 -0.8190
20210SOL    HW262072   4.692   3.566   8.752  0.9880  1.4642  1.9158
20211SOL     OW62073   5.569   3.093   8.639 -0.1255  0.0532 -0.1752
20211SOL    HW162074   5.504   3.027   8.614 -0.5009  0.3439  0.0068
20211SOL    HW262075   5.517   3.163   8.679  0.1634  0.8370 -1.1220
20212SOL     OW62076   6.136   2.388   8.412 -0.7194  0.1321  0.0141
20212SOL    HW162077   6.130   2.419   8.321 -0.6834 -0.9928 -0.3832
20212SOL    HW262078   6.099   2.460   8.464 -1.6067  0.4101 -0.9712
20213SOL     OW62079   5.596   2.344   7.028 -0.8181  0.1367 -0.3913
20213SOL    HW162080   5.598   2.253   7.060  1.0591 -0.5851 -2.3098
20213SOL    HW262081   5.578   2.396   7.106  1.1765 -1.6652  1.4160
20214SOL     OW62082   7.445   2.354   8.154  0.6707  0.0259  0.5395
20214SOL    HW162083   7.491   2.438   8.154 -0.2759  0.5577  0.7041
20214SOL    HW262084   7.352   2.377   8.156  0.3669 -1.0110 -0.3043
20215SOL     OW62085   4.750   3.727  10.660 -0.3678  0.2257 -0.2216
20215SOL    HW162086   4.807   3.803  10.675 -2.1418  1.4752  0.5072
20215SOL    HW262087   4.689   3.729  10.734  0.7788 -3.1635  0.9936
20216SOL     OW62088   7.202   1.251   8.968 -0.5359 -0.1663  0.0269
20216SOL    HW162089   7.224   1.248   9.061 -0.9710  0.7325  0.1669
20216SOL    HW262090   7.184   1.343   8.950 -1.1423 -0.4281 -0.7860
20217SOL     OW62091   6.769   2.862   8.962 -0.0959 -0.0148 -0.5111
20217SOL    HW162092   6.714   2.791   8.929  0.0577 -0.1931 -0.3873
20217SOL    HW262093   6.852   2.851   8.916  0.1694 -0.3540  0.0386
20218SOL     OW62094   6.229   2.332   9.636 -0.1965  0.0348 -0.1751
20218SOL    HW162095   6.146   2.340   9.683 -0.9869 -2.8405 -0.8704
20218SOL    HW262096   6.204   2.318   9.545  1.2299  2.5115 -1.0382
20219SOL     OW62097   6.591   7.772   8.117 -0.1251 -0.0645 -0.3180
20219SOL    HW162098   6.642   7.691   8.109  0.9507  0.7694 -2.9697
20219SOL    HW262099   6.593   7.791   8.211  1.3445 -2.0105  0.1334
20220SOL     OW62100   5.414   2.152   7.798 -0.3497 -0.0821 -0.0622
20220SOL    HW162101   5.319   2.143   7.793 -0.3164  0.0888 -1.0614
20220SOL    HW262102   5.438   2.100   7.875 -1.1488 -0.9350 -0.3662
20221SOL     OW62103   6.182   2.536   6.971  0.0866 -0.4193  0.9998
20221SOL    HW162104   6.231   2.455   6.986  0.9256 -0.1416 -0.1195
20221SOL    HW262105   6.176   2.577   7.057  0.0154 -1.4517  1.5099
20222SOL     OW62106   6.272   3.063   7.767  0.3167 -0.0494  0.3515
20222SOL    HW162107   6.178   3.060   7.781  0.5728 -0.0122  2.3042
20222SOL    HW262108   6.293   3.156   7.758  0.2044 -0.0401  0.1903
20223SOL     OW62109   6.383   0.788   9.404  0.6455 -0.0212 -0.1766
20223SOL    HW162110   6.313   0.839   9.445  2.5603  1.0760  1.9820
20223SOL    HW262111   6.413   0.843   9.331  0.9589  0.7236  0.5024
20224SOL     OW62112   6.139   2.684   8.872 -0.1292  0.3392  0.0344
20224SOL    HW162113   6.053   2.657   8.906 -0.0339 -1.0622 -0.7350
20224SOL    HW262114   6.145   2.640   8.787  0.8320  1.4391 -0.4905
20225SOL     OW62115   5.217   3.384   7.603 -0.0052  0.7012  0.0717
20225SOL    HW162116   5.133   3.404   7.645  0.0898  1.3130 -0.0282
20225SOL    HW262117   5.218   3.288   7.598 -1.2977  0.7234 -1.1682
20226SOL     OW62118   5.623   0.652   8.415  0.1894  0.1677 -0.3035
20226SOL    HW162119   5.530   0.638   8.395 -0.9194  1.1419  3.2750
20226SOL    HW262120   5.638   0.745   8.399 -0.5654  0.8348  2.2886
20227SOL     OW62121   5.074   2.864   9.974 -0.1805 -0.0350  0.1195
20227SOL    HW162122   5.094   2.916   9.896 -1.6400 -1.1040 -1.0246
20227SOL    HW262123   5.094   2.774   9.948  0.2796 -0.2988  1.3429
20228SOL     OW62124   6.431   2.879   7.675 -0.1725 -0.1999 -0.4562
20228SOL    HW162125   6.382   2.800   7.699  0.0112 -0.2737 -0.3193
20228SOL    HW262126   6.376   2.952   7.705  1.0969 -0.2790  2.4490
20229SOL     OW62127   7.829   4.052   7.618 -0.3669  0.2120  0.1310
20229SOL    HW162128   7.756   3.993   7.634 -0.7506  1.1014  1.9475
20229SOL    HW262129   7.817   4.082   7.528 -0.9178 -1.3925 -0.3620
20230SOL     OW62130   5.956   3.067   9.560  0.2264 -0.2621  0.4371
20230SOL    HW162131   5.954   3.140   9.621 -0.1873 -1.8429  2.3916
20230SOL    HW262132   5.876   3.076   9.508  0.3318  0.8093  0.4469
20231SOL     OW62133   5.005   1.824   9.786 -0.3188 -0.2975  0.0653
20231SOL    HW162134   4.975   1.899   9.837 -1.1115 -0.7111  0.2211
20231SOL    HW262135   5.093   1.849   9.756  0.5539 -0.3751  2.3196
20232SOL     OW62136   6.575   4.149   8.324 -0.4973 -0.2411 -0.0412
20232SOL    HW162137   6.638   4.094   8.278 -0.3720 -1.4846  1.5308
20232SOL    HW262138   6.628   4.202   8.384 -0.8923 -1.2441  1.2377
20233SOL     OW62139   6.718   0.270   9.005 -0.2990 -0.0872  0.0493
20233SOL    HW162140   6.773   0.306   8.935 -0.4366 -1.8053 -1.0002
20233SOL    HW262141   6.635   0.252   8.962 -0.6476 -0.4535  0.8614
20234SOL     OW62142   4.561   3.420  11.584  0.4190  0.1222  0.4309
20234SOL    HW162143   4.593   3.372  11.508 -1.0313 -0.2422  0.0134
20234SOL    HW262144   4.635   3.422  11.645  1.8121  0.9617 -1.2206
20235SOL     OW62145   5.387   0.905   8.911 -0.0248 -0.0144  0.5549
20235SOL    HW162146   5.384   0.927   9.004 -0.5018  0.1425  0.5024
20235SOL    HW262147   5.360   0.985   8.866  0.2864 -0.0618  0.2743
20236SOL     OW62148   7.621   1.333   8.891  0.6517 -0.6199 -0.1161
20236SOL    HW162149   7.640   1.369   8.804 -2.2754  0.3480 -0.4694
20236SOL    HW262150   7.563   1.259   8.874 -1.6141  0.7967  1.0106
20237SOL     OW62151   6.837   2.128   9.437 -0.1446 -0.1208 -0.2523
20237SOL    HW162152   6.806   2.201   9.490  1.0620  1.0741 -1.1163
20237SOL    HW262153   6.757   2.085   9.407 -0.9566  1.6312 -0.7683
20238SOL     OW62154   4.483   3.055   6.774 -0.0105 -0.3131 -0.5057
20238SOL    HW162155   4.538   3.132   6.760  0.2019 -0.5111 -0.7650
20238SOL    HW262156   4.528   3.005   6.842  1.2184 -1.4859 -2.0955
20239SOL     OW62157   4.796   1.376   7.539 -0.0888  0.8891 -0.7168
20239SOL    HW162158   4.854   1.400   7.611  1.0658 -2.1591 -0.4768
20239SOL    HW262159   4.709   1.370   7.579  0.4885 -0.4461  0.3933
20240SOL     OW62160   6.669   3.909   7.362  0.5720 -0.8724  0.2869
20240SOL    HW162161   6.714   3.941   7.440  0.6695  1.9111 -0.7976
20240SOL    HW262162   6.582   3.884   7.393  0.3355  0.9433  1.2315
20241SOL     OW62163   5.684   2.315  10.157  0.1372 -0.0499  0.4266
20241SOL    HW162164   5.609   2.349  10.206  0.3022  0.4161  0.3626
20241SOL    HW262165   5.660   2.326  10.065  0.0232 -0.4877  0.4015
20242SOL     OW62166   6.966   2.564   7.612 -0.1783  0.5738 -0.0381
20242SOL    HW162167   6.979   2.526   7.525  1.4605 -0.5083  0.6160
20242SOL    HW262168   7.051   2.554   7.655 -0.6313  2.0821  1.3249
20243SOL     OW62169   7.709   0.576   8.448 -0.5905 -0.1569  0.0061
20243SOL    HW162170   7.668   0.626   8.377  1.0818  1.3479  0.0440
20243SOL    HW262171   7.771   0.518   8.405  0.3614  0.6936  0.1945
20244SOL     OW62172   5.253   2.232   9.018  0.1556 -0.4505 -1.0366
20244SOL    HW162173   5.282   2.148   9.054 -0.7284  0.2031  1.3616
20244SOL    HW262174   5.191   2.266   9.082 -1.0810  1.1233 -2.9360
20245SOL     OW62175   6.129   2.452   9.098  0.1251 -0.5889  0.0605
20245SOL    HW162176   6.174   2.368   9.093 -0.0498 -0.7641  1.2932
20245SOL    HW262177   6.060   2.439   9.162 -1.0607 -0.0190 -1.0458
20246SOL     OW62178   7.031   3.868   8.163  0.8021  0.3804  0.4236
20246SOL    HW162179   7.026   3.781   8.124  0.7718  0.6323 -0.1426
20246SOL    HW262180   7.018   3.853   8.257 -0.0685 -0.1354  0.2350
20247SOL     OW62181   4.295   2.587  10.329 -0.3036  0.5167 -0.4358
20247SOL    HW162182   4.384   2.583  10.365 -1.1867  2.5565  2.4035
20247SOL    HW262183   4.295   2.665  10.274  0.0459 -0.4686 -1.8946
20248SOL     OW62184   6.256   1.118   6.958 -0.1891  0.7867 -0.4627
20248SOL    HW162185   6.160   1.125   6.952 -0.4455 -0.0117  1.6810
20248SOL    HW262186   6.278   1.044   6.902 -0.7158  1.3737 -1.4879
20249SOL     OW62187   5.337   1.852   8.502  0.0854 -0.5334 -0.0457
20249SOL    HW162188   5.354   1.942   8.475  0.1901 -1.1165 -2.1035
20249SOL    HW262189   5.397   1.837   8.575 -0.0381  1.0871  0.4271
20250SOL     OW62190   5.924   4.195   9.531  0.3507  0.0329  0.2762
20250SOL    HW162191   5.831   4.202   9.552  0.3373 -0.7271  0.4903
20250SOL    HW262192   5.933   4.237   9.446 -0.3901 -0.9013 -0.2787
20251SOL     OW62193   4.833   1.941   8.276 -0.2803  0.6906 -0.2762
20251SOL    HW162194   4.833   1.871   8.211  1.6629  0.6545 -0.2866
20251SOL    HW262195   4.828   2.022   8.225 -0.3674  0.6226 -0.3751
20252SOL     OW62196   6.592   3.287   7.928  0.0436 -0.1944  0.8548
20252SOL    HW162197   6.548   3.312   8.009 -0.4321  1.6041  0.1027
20252SOL    HW262198   6.525   3.238   7.879 -0.7607  1.3470  0.3073
20253SOL     OW62199   6.708   3.714   8.379 -0.1652 -0.2278 -0.0285
20253SOL    HW162200   6.617   3.702   8.406  0.4635 -0.3448  2.2134
20253SOL    HW262201   6.759   3.681   8.452  1.7095 -0.6893 -1.4787
20254SOL     OW62202   4.670   2.003   7.396  0.0880 -0.2444  0.0010
20254SOL    HW162203   4.581   2.006   7.360  0.2040  0.7392 -0.2365
20254SOL    HW262204   4.691   2.094   7.416  0.4116 -0.6596  1.6485
20255SOL     OW62205   6.533   4.545   7.403  0.2101  0.6829 -0.3606
20255SOL    HW162206   6.452   4.536   7.453 -1.1017  2.6320 -1.9639
20255SOL    HW262207   6.595   4.584   7.465  0.0207 -0.8828  0.9064
20256SOL     OW62208   4.764   2.589   8.510 -0.0782  0.1822 -0.1948
20256SOL    HW162209   4.832   2.626   8.454 -0.0687  2.0465  0.9667
20256SOL    HW262210   4.789   2.497   8.520  1.3153  0.4168 -1.1942
20257SOL     OW62211   5.800   4.169   8.527  0.0508 -0.0114  0.1480
20257SOL    HW162212   5.780   4.160   8.621 -0.2402  0.3728  0.1242
20257SOL    HW262213   5.896   4.165   8.522  0.0369 -3.1825  0.1415
20258SOL     OW62214   5.012   1.325   7.170  0.3465  0.2627 -0.2717
20258SOL    HW162215   4.939   1.382   7.194 -0.7213 -0.3454 -1.8868
20258SOL    HW262216   5.090   1.370   7.204 -0.8800 -0.4748  4.0990
20259SOL     OW62217   4.995   3.175   9.269 -0.9190  0.2335 -0.0817
20259SOL    HW162218   4.994   3.127   9.187 -1.5926  0.1925 -0.0591
20259SOL    HW262219   4.996   3.267   9.243 -1.3756  0.2252 -0.1478
20260SOL     OW62220   6.392   7.367   8.657  0.0849  0.5153 -0.1476
20260SOL    HW162221   6.395   7.417   8.738  0.3957 -2.5081  1.8844
20260SOL    HW262222   6.456   7.297   8.670  0.4696  0.1677 -3.2340
20261SOL     OW62223   6.982   0.314  10.060  0.2382 -0.5692 -0.1452
20261SOL    HW162224   7.036   0.386  10.094  0.9330 -0.6148 -1.0986
20261SOL    HW262225   7.042   0.240  10.053  0.2340 -0.4763 -1.7261
20262SOL     OW62226   6.104   1.985   8.106  0.8114  0.4862 -0.5396
20262SOL    HW162227   6.154   1.904   8.091 -0.2142 -0.9669  2.8115
20262SOL    HW262228   6.138   2.019   8.189 -1.1095  1.5627 -0.1339
20263SOL     OW62229   6.807   1.173   9.348 -0.3910  0.0701 -0.5236
20263SOL    HW162230   6.717   1.196   9.323 -0.1769 -0.2728 -1.6244
20263SOL    HW262231   6.838   1.250   9.396 -1.2876  0.1696 -0.0699
20264SOL     OW62232   4.677   0.895   9.329  0.3200  1.0275 -0.9552
20264SOL    HW162233   4.726   0.834   9.273  0.5948  0.8603 -0.5358
20264SOL    HW262234   4.600   0.919   9.277 -0.3318 -0.4768 -0.7280
20265SOL     OW62235   6.328   1.045   8.504  0.0763 -0.1921  0.0682
20265SOL    HW162236   6.282   1.098   8.570  0.4249 -1.1062  1.0747
20265SOL    HW262237   6.258   1.003   8.454 -0.1949  0.4590 -0.1068
20266SOL     OW62238   6.952   2.284   9.229  0.5362 -0.2135 -0.4348
20266SOL    HW162239   6.905   2.217   9.279  0.7544 -1.2975 -1.6218
20266SOL    HW262240   7.022   2.313   9.288 -0.2834 -0.1619  0.5319
20267SOL     OW62241   6.903   3.339   7.209  0.7947  0.2158 -0.0190
20267SOL    HW162242   6.957   3.263   7.231  1.2397  0.4752 -0.2107
20267SOL    HW262243   6.815   3.314   7.236  0.9431 -0.3608 -0.0578
20268SOL     OW62244   5.190   2.754   9.531 -0.0431 -0.2073  0.2071
20268SOL    HW162245   5.162   2.814   9.462  0.6607  0.9795  0.8987
20268SOL    HW262246   5.138   2.781   9.607  1.7169  0.9725  1.0828
20269SOL     OW62247   7.850   3.301   8.577  0.3985  0.0416 -0.0273
20269SOL    HW162248   7.906   3.283   8.653  0.3931 -1.4780 -0.3453
20269SOL    HW262249   7.789   3.228   8.574  1.5249 -0.9438 -2.4938
20270SOL     OW62250   7.418   1.425   7.493 -0.1216  0.3891 -0.5709
20270SOL    HW162251   7.451   1.443   7.581 -1.5096  0.6267 -0.0624
20270SOL    HW262252   7.370   1.343   7.502  1.4800 -0.7237 -1.6182
20271SOL     OW62253   5.686   1.900   9.182  0.3973 -0.1709 -0.0145
20271SOL    HW162254   5.616   1.956   9.148 -0.1067 -1.1246 -0.6007
20271SOL    HW262255   5.697   1.833   9.114 -0.2970 -1.8585  1.4788
20272SOL     OW62256   5.553   0.887   9.541 -0.0162 -0.1707  0.0644
20272SOL    HW162257   5.464   0.879   9.506 -1.0315 -0.6134  2.5300
20272SOL    HW262258   5.590   0.799   9.534  0.6297  0.2057 -1.8072
20273SOL     OW62259   6.858   4.092   9.447 -0.3471 -0.3840 -0.1329
20273SOL    HW162260   6.874   4.018   9.505  0.2025  1.0373  1.6305
20273SOL    HW262261   6.770   4.121   9.469 -1.3021 -1.5552 -2.1183
20274SOL     OW62262   0.493   3.194   7.437 -0.2964 -0.0869 -0.4254
20274SOL    HW162263   0.405   3.184   7.402 -0.9273  3.6392 -0.3330
20274SOL    HW262264   0.540   3.245   7.371  2.3439 -3.0071 -1.0716
20275SOL     OW62265   0.845   2.082   7.495  0.0980 -0.3041  0.6639
20275SOL    HW162266   0.750   2.077   7.506 -0.1442 -3.2201 -1.4138
20275SOL    HW262267   0.857   2.127   7.411  0.3254 -2.1223 -0.3368
20276SOL     OW62268   6.839   4.482   7.679 -0.1172 -0.2120 -0.0853
20276SOL    HW162269   6.820   4.397   7.640  1.4254 -0.3243 -0.6423
20276SOL    HW262270   6.927   4.504   7.649  0.1778  0.8173  1.3941
20277SOL     OW62271   4.942   4.384  11.989  0.0796 -0.0677  0.1888
20277SOL    HW162272   4.903   4.380  11.901  1.1404  1.7194 -0.4340
20277SOL    HW262273   4.999   4.308  11.993 -0.3416 -0.4393 -0.4801
20278SOL     OW62274   6.742   1.281   9.043 -0.3580 -0.0009 -0.0016
20278SOL    HW162275   6.716   1.216   8.978 -1.0928  0.7999 -0.5267
20278SOL    HW262276   6.813   1.330   9.000  1.1104 -1.2439  0.8791
20279SOL     OW62277   5.984   3.070   7.787 -0.2806 -0.0342  0.1407
20279SOL    HW162278   5.953   3.002   7.847  0.4402 -0.3932  0.1221
20279SOL    HW262279   5.944   3.049   7.703  0.4896 -0.8655 -0.0385
20280SOL     OW62280   5.429   4.609   7.703  0.3175  0.0744  0.0864
20280SOL    HW162281   5.464   4.552   7.772  0.1952  0.3646  0.3955
20280SOL    HW262282   5.342   4.573   7.684  0.1092  0.3434  0.5108
20281SOL     OW62283   6.259   2.431  10.572 -0.1896 -0.6485  0.5210
20281SOL    HW162284   6.184   2.433  10.632 -0.3342 -0.8819  0.3496
20281SOL    HW262285   6.327   2.482  10.616 -0.2456 -0.9388  0.9515
20282SOL     OW62286   6.933   1.578   8.658 -0.9560 -0.4801 -0.5531
20282SOL    HW162287   6.958   1.667   8.683 -2.0598 -0.5883  1.1024
20282SOL    HW262288   6.922   1.582   8.563 -1.4063  1.2692 -0.4640
20283SOL     OW62289   7.595   4.374   6.347 -0.2467  0.5289  0.6228
20283SOL    HW162290   7.572   4.403   6.436  0.0747  1.9728  0.2557
20283SOL    HW262291   7.522   4.405   6.293  0.6075  1.6146  0.0613
20284SOL     OW62292   6.753   3.698   7.064  0.1378 -0.0167 -0.5267
20284SOL    HW162293   6.747   3.766   6.998  1.1968  0.1438 -0.4599
20284SOL    HW262294   6.827   3.723   7.119 -1.6415  0.6839  1.6857
20285SOL     OW62295   3.754   2.039   7.816 -0.3248  0.5397  0.4628
20285SOL    HW162296   3.694   2.103   7.853 -0.7419 -0.1240  0.9674
20285SOL    HW262297   3.706   1.956   7.822  0.4892  0.0672  0.4866
20286SOL     OW62298   7.024   3.104   6.723  0.0086  0.1518 -0.1507
20286SOL    HW162299   6.957   3.050   6.681  0.3160 -0.1987 -0.1874
20286SOL    HW262300   6.977   3.184   6.746  0.2326  1.1109 -2.7332
20287SOL     OW62301   6.626   2.659   8.827  0.5478 -0.0989 -0.4436
20287SOL    HW162302   6.678   2.632   8.751  1.8263  1.3889 -0.1629
20287SOL    HW262303   6.588   2.578   8.861  1.4317 -1.0331 -1.5983
20288SOL     OW62304   6.867   2.925   8.495  0.4797 -0.2104  0.2155
20288SOL    HW162305   6.817   2.953   8.418 -1.0940 -1.0438  0.8792
20288SOL    HW262306   6.854   2.996   8.559 -1.0812 -1.0328  0.8725
20289SOL     OW62307   0.345   3.706   8.718 -0.2244 -0.0502 -0.2556
20289SOL    HW162308   0.273   3.749   8.766 -1.7571 -0.2822 -2.2111
20289SOL    HW262309   0.306   3.626   8.683  1.4134 -0.8989 -0.2212
20290SOL     OW62310   7.931   2.673   9.217  0.3415  0.1843  0.2429
20290SOL    HW162311   7.950   2.588   9.176  0.3435  0.3914 -0.1819
20290SOL    HW262312   7.847   2.699   9.179  0.5805  0.6069  0.0052
20291SOL     OW62313   6.661   1.313   7.973  0.4960  0.5410 -0.1170
20291SOL    HW162314   6.740   1.355   7.938  0.9172 -0.7706 -0.8559
20291SOL    HW262315   6.618   1.277   7.895 -0.5767  0.8002  0.3402
20292SOL     OW62316   5.660   1.082   6.814  0.7896 -0.4136  0.4007
20292SOL    HW162317   5.569   1.062   6.837  0.4789 -2.3363 -2.0730
20292SOL    HW262318   5.661   1.084   6.719  3.1644  0.7163  0.3702
20293SOL     OW62319   7.532   0.642   8.237 -0.1434  0.0389 -0.5592
20293SOL    HW162320   7.459   0.686   8.192  1.0593  0.8028 -1.8731
20293SOL    HW262321   7.497   0.556   8.259 -2.3941  1.3521  1.5573
20294SOL     OW62322   5.756   1.937   7.214 -0.5490 -0.1157 -0.3255
20294SOL    HW162323   5.731   2.029   7.223  0.0038  0.0721 -0.6815
20294SOL    HW262324   5.677   1.888   7.237 -0.2343  0.3913  2.0219
20295SOL     OW62325   4.410   2.668   9.954  0.3344  0.5437 -0.1481
20295SOL    HW162326   4.361   2.587   9.952 -0.6202  1.0877  0.4374
20295SOL    HW262327   4.345   2.735   9.975  1.2178  1.3632  0.0545
20296SOL     OW62328   6.448   0.906   7.936 -0.0143 -0.0746  0.3999
20296SOL    HW162329   6.506   0.953   7.996  0.1231 -0.3370  0.4728
20296SOL    HW262330   6.409   0.837   7.989 -1.1676  0.7094  0.6137
20297SOL     OW62331   4.758   2.633   7.298 -0.1158  0.0981 -0.1678
20297SOL    HW162332   4.672   2.659   7.267 -0.0199 -0.4914 -0.9534
20297SOL    HW262333   4.741   2.585   7.379 -0.7278 -1.8535 -1.3934
20298SOL     OW62334   6.317   0.750   8.680  0.5769  0.3647  0.2123
20298SOL    HW162335   6.382   0.795   8.626  0.4456 -1.5091 -1.6726
20298SOL    HW262336   6.348   0.659   8.683 -1.4394 -0.3736  0.0596
20299SOL     OW62337   5.488   2.731   7.570 -0.7851 -0.0816  0.0888
20299SOL    HW162338   5.567   2.751   7.619 -1.4923  0.3582  1.0911
20299SOL    HW262339   5.437   2.812   7.571 -1.3637 -0.4303 -0.2964
20300SOL     OW62340   5.316   2.478   8.666 -0.8370 -0.0466 -0.3389
20300SOL    HW162341   5.309   2.508   8.576 -2.1435 -0.6002 -0.4389
20300SOL    HW262342   5.324   2.382   8.658  0.2110 -0.0162  0.1019
20301SOL     OW62343   5.030   1.522   9.275 -0.2747 -0.2266 -0.2716
20301SOL    HW162344   5.100   1.541   9.213 -0.3792 -0.8724 -0.5892
20301SOL    HW262345   5.031   1.427   9.285  0.2825 -0.0613  1.3645
20302SOL     OW62346   7.553   3.407  11.103  0.0030 -0.0766  0.1214
20302SOL    HW162347   7.582   3.354  11.178  0.8339  0.8451  0.4758
20302SOL    HW262348   7.543   3.495  11.139 -3.0575 -0.2491 -0.0618
20303SOL     OW62349   6.705   2.350   8.193  0.0902 -0.1312  0.0954
20303SOL    HW162350   6.611   2.359   8.183  0.2534  0.2194 -1.2235
20303SOL    HW262351   6.728   2.275   8.138  0.5774 -0.3029  0.5166
20304SOL     OW62352   7.216   3.089  10.443  0.3701  0.5947 -0.1547
20304SOL    HW162353   7.218   3.054  10.353 -0.5053  0.5752 -0.1797
20304SOL    HW262354   7.231   3.183  10.432  0.4518  0.5655 -0.3062
20305SOL     OW62355   5.027   1.838   8.005  0.1231  0.5249 -0.5554
20305SOL    HW162356   4.987   1.922   8.029  1.3565  0.3621  2.5618
20305SOL    HW262357   5.113   1.862   7.971  0.1965  0.5850 -0.3351
20306SOL     OW62358   6.408   2.377   8.245  0.2414 -0.7230  0.9437
20306SOL    HW162359   6.345   2.307   8.257  0.0138 -0.8286 -0.6055
20306SOL    HW262360   6.358   2.448   8.203  0.8963 -0.4010  0.6791
20307SOL     OW62361   7.088   1.204   7.970 -0.2894 -0.1602  0.4881
20307SOL    HW162362   7.111   1.121   7.929 -0.3479 -0.4541  1.0465
20307SOL    HW262363   7.001   1.190   8.007  0.0417 -0.1162  1.2963
20308SOL     OW62364   0.638   0.685   7.832  0.0798  0.4215 -0.3947
20308SOL    HW162365   0.705   0.618   7.817 -0.5077 -0.6797  1.6171
20308SOL    HW262366   0.688   0.764   7.854  0.8002 -0.4754  1.4363
20309SOL     OW62367   7.100   2.013  10.320 -0.5405  0.2089 -0.8829
20309SOL    HW162368   7.043   2.069  10.373 -1.3742 -1.4138 -0.0080
20309SOL    HW262369   7.160   1.973  10.383 -1.7424 -1.9813 -1.0577
20310SOL     OW62370   5.864   3.870   8.474 -0.2125 -0.2108  0.3303
20310SOL    HW162371   5.779   3.841   8.507 -0.6487 -0.6403 -1.0973
20310SOL    HW262372   5.860   3.965   8.476 -0.7191 -0.2305  0.2828
20311SOL     OW62373   6.178   2.917   9.157  0.7991 -0.1012 -0.1973
20311SOL    HW162374   6.131   2.926   9.240 -0.5712 -0.6701 -0.8841
20311SOL    HW262375   6.224   3.001   9.147 -0.5034  0.7033  0.2524
20312SOL     OW62376   4.001   5.017   9.399 -0.2116  0.3487 -0.1725
20312SOL    HW162377   3.956   4.954   9.455 -0.3988 -0.8303 -1.5786
20312SOL    HW262378   3.984   4.986   9.310  1.4963  1.1712 -0.8331
20313SOL     OW62379   5.801   4.315   9.006  0.0403 -0.0269 -0.1951
20313SOL    HW162380   5.766   4.282   8.923  1.4729 -0.4332 -0.6542
20313SOL    HW262381   5.857   4.388   8.982 -0.3115  0.4985  0.5220
20314SOL     OW62382   7.578   1.514   8.067  0.2720 -0.5963 -0.0417
20314SOL    HW162383   7.580   1.494   8.161  1.0910  0.1040  0.1061
20314SOL    HW262384   7.662   1.482   8.034  0.7773  0.7901 -0.1668
20315SOL     OW62385   7.900   5.423   8.685  0.7719 -0.0171  0.6918
20315SOL    HW162386   7.952   5.432   8.605  0.4275 -2.0136  0.1835
20315SOL    HW262387   7.929   5.495   8.741  2.3049  0.3639 -0.5234
20316SOL     OW62388   4.131   2.308   8.829  0.1896  0.3116  0.4297
20316SOL    HW162389   4.135   2.395   8.869 -1.1727  0.7046 -0.2368
20316SOL    HW262390   4.117   2.326   8.736 -0.7146 -0.6248  0.3792
20317SOL     OW62391   6.429   0.377   8.280 -0.0087 -0.1946  0.0647
20317SOL    HW162392   6.406   0.403   8.190 -2.9060 -0.8474  0.5006
20317SOL    HW262393   6.401   0.451   8.333  0.7748 -0.2264  0.5337
20318SOL     OW62394   6.870   3.157   8.966  0.1786 -0.1420 -0.2182
20318SOL    HW162395   6.817   3.190   8.894 -0.4103 -0.1558  0.2086
20318SOL    HW262396   6.870   3.062   8.956  0.2658 -0.1326 -0.3134
20319SOL     OW62397   6.309   2.254   8.751  0.2375 -0.0548  0.2901
20319SOL    HW162398   6.288   2.192   8.821 -0.6514  0.2139  0.2778
20319SOL    HW262399   6.342   2.199   8.680  0.4377 -0.4071  0.6492
20320SOL     OW62400   4.155   2.034   8.874  0.1303 -0.6119  0.6125
20320SOL    HW162401   4.143   2.126   8.851  1.3886 -0.3855  0.7941
20320SOL    HW262402   4.097   1.986   8.815 -0.2798  0.2727  0.2895
20321SOL     OW62403   7.077   3.010   9.857 -0.3482 -0.6901 -0.0773
20321SOL    HW162404   7.027   2.945   9.808 -1.2689 -0.6868  0.8220
20321SOL    HW262405   7.040   3.094   9.832 -0.4024 -0.6469  0.1401
20322SOL     OW62406   4.198   0.975   8.481  0.1132  0.0803 -0.1640
20322SOL    HW162407   4.125   0.924   8.517  0.5563  0.1496  0.8581
20322SOL    HW262408   4.179   1.065   8.506  0.6674  0.0685  0.3103
20323SOL     OW62409   5.299   4.471   8.058  0.0444 -0.1909  0.2145
20323SOL    HW162410   5.321   4.389   8.101  1.6189 -1.0384 -2.0310
20323SOL    HW262411   5.205   4.482   8.074 -0.3814 -2.8312 -0.0628
20324SOL     OW62412   7.014   2.305   7.388 -0.0851  0.1431  0.2948
20324SOL    HW162413   7.109   2.294   7.384 -0.2743 -1.5141 -0.3334
20324SOL    HW262414   6.986   2.304   7.297 -0.9474 -2.0445  0.5366
20325SOL     OW62415   5.946   3.086   8.884 -0.6004  0.0754 -0.3058
20325SOL    HW162416   5.961   3.181   8.876  1.2839  0.0473  1.9180
20325SOL    HW262417   5.971   3.051   8.799 -0.0795  1.4499 -0.7542
20326SOL     OW62418   5.871   2.833   7.903 -0.9229 -0.0871 -0.4125
20326SOL    HW162419   5.783   2.864   7.924 -1.1583 -0.2586 -1.1375
20326SOL    HW262420   5.903   2.796   7.986 -0.8304  1.5671  0.3494
20327SOL     OW62421   5.344   4.438  10.501 -0.5099  0.6999 -0.0650
20327SOL    HW162422   5.267   4.387  10.477 -0.0674 -0.9546  1.7634
20327SOL    HW262423   5.405   4.374  10.537  0.4767  2.3816  1.4410
20328SOL     OW62424   6.789   0.610   8.492  0.2412  0.3145  0.2558
20328SOL    HW162425   6.862   0.629   8.433  0.5447 -0.4316  0.3681
20328SOL    HW262426   6.713   0.652   8.451  0.7541  1.2197  0.2124
20329SOL     OW62427   7.474   1.957   8.398  0.0573 -0.0082  0.0658
20329SOL    HW162428   7.452   1.931   8.308 -1.1016 -1.7943  0.8199
20329SOL    HW262429   7.468   2.053   8.397 -0.8163 -0.0444 -1.5341
20330SOL     OW62430   6.900   1.514   7.981 -0.4899  0.2769 -0.1050
20330SOL    HW162431   6.904   1.586   8.043 -0.0394 -0.6318  0.9530
20330SOL    HW262432   6.990   1.504   7.950 -0.9046  1.4685 -1.8169
20331SOL     OW62433   4.393   2.982   8.032  0.4364 -0.0628 -0.0278
20331SOL    HW162434   4.467   3.016   8.082 -0.7137  0.2194  1.5695
20331SOL    HW262435   4.320   3.038   8.057 -0.5611 -1.0141 -0.7185
20332SOL     OW62436   6.990   2.332   8.562 -0.0590  0.1133  0.3504
20332SOL    HW162437   6.978   2.238   8.547 -1.8975  0.3432  0.1764
20332SOL    HW262438   6.935   2.351   8.638  0.5226  1.0027  0.5612
20333SOL     OW62439   4.485   3.308  11.197  0.0211  0.5900  0.2852
20333SOL    HW162440   4.487   3.303  11.101  0.0511 -1.1779  0.3383
20333SOL    HW262441   4.430   3.234  11.223  0.6960  0.5455  1.6646
20334SOL     OW62442   5.494   2.787  11.102 -1.0107 -0.0187  0.6236
20334SOL    HW162443   5.448   2.715  11.058  0.1956 -0.2956 -0.2101
20334SOL    HW262444   5.578   2.793  11.057 -1.2479  2.1867  0.4028
20335SOL     OW62445   5.609   7.991   8.920  0.4214  0.0668  0.4726
20335SOL    HW162446   5.658   7.927   8.972  1.1882  2.1727  2.5256
20335SOL    HW262447   5.669   8.017   8.851  0.4509 -0.7007  0.1966
20336SOL     OW62448   5.508   4.677   9.419 -0.7505 -0.2957 -0.2987
20336SOL    HW162449   5.421   4.699   9.385 -0.9359 -1.3079 -0.5040
20336SOL    HW262450   5.496   4.668   9.513 -1.0149 -1.0731 -0.4009
20337SOL     OW62451   6.260   3.302  10.722 -0.0729  0.8573 -0.0766
20337SOL    HW162452   6.230   3.366  10.657 -0.0419  1.0885  0.1381
20337SOL    HW262453   6.317   3.243  10.672 -0.6317  0.5951 -0.4191
20338SOL     OW62454   6.039   3.083   9.971  0.4950 -0.1893 -0.2051
20338SOL    HW162455   6.132   3.100   9.958  0.4421  0.2000 -0.1063
20338SOL    HW262456   5.995   3.148   9.915  0.2795 -1.3701 -1.4643
20339SOL     OW62457   6.438   2.524   8.504 -0.5787  0.4647  0.2266
20339SOL    HW162458   6.410   2.492   8.418 -1.0724  0.4771  0.3791
20339SOL    HW262459   6.513   2.468   8.527 -0.1877  0.7256 -0.3817
20340SOL     OW62460   5.404   3.199  10.645 -0.0485  0.0289  0.2533
20340SOL    HW162461   5.452   3.246  10.577 -0.2383 -0.3004 -0.1144
20340SOL    HW262462   5.361   3.127  10.598 -1.1651  0.5106  0.5207
20341SOL     OW62463   6.081   0.526   9.751 -0.3372  0.4034 -0.5380
20341SOL    HW162464   6.113   0.440   9.726  0.3642  0.3932  0.3339
20341SOL    HW262465   6.158   0.571   9.785 -0.5740  1.5718 -1.4768
20342SOL     OW62466   5.931   3.739  10.035 -0.3124  0.0181  0.1310
20342SOL    HW162467   5.888   3.763   9.953 -0.9352 -1.0106  0.1388
20342SOL    HW262468   6.019   3.711  10.009 -0.2837  0.3368 -0.1110
20343SOL     OW62469   5.834   1.889  11.117 -0.2373  0.4655 -0.0815
20343SOL    HW162470   5.772   1.943  11.167  0.6895  1.0892  0.4295
20343SOL    HW262471   5.814   1.909  11.026 -1.0424  0.3688  0.0684
20344SOL     OW62472   6.823   3.878   9.603  0.2643  0.4385 -0.1529
20344SOL    HW162473   6.822   3.855   9.696 -2.5140 -0.7930 -0.3857
20344SOL    HW262474   6.818   3.794   9.557 -0.8990  1.0997 -1.3127
20345SOL     OW62475   0.070   2.318   9.558 -0.1673  0.1627  0.1006
20345SOL    HW162476   0.157   2.288   9.588  0.3983  1.6616  0.0251
20345SOL    HW262477   0.077   2.322   9.463  0.4421  2.3860  0.1883
20346SOL     OW62478   5.432   2.838  10.740 -0.3134 -0.6130 -0.1222
20346SOL    HW162479   5.338   2.844  10.756 -0.3809  1.9707 -0.9713
20346SOL    HW262480   5.471   2.883  10.815  0.1723 -0.6574 -0.3474
20347SOL     OW62481   7.797   2.207   9.028  0.2017  0.5341 -0.5287
20347SOL    HW162482   7.742   2.237   9.101 -1.4604 -0.5795 -1.2668
20347SOL    HW262483   7.862   2.277   9.017 -0.0071  1.0995  1.4762
20348SOL     OW62484   4.777   4.459   9.414 -0.2082  0.2626 -0.1720
20348SOL    HW162485   4.815   4.386   9.364 -1.5597 -1.2812  0.9917
20348SOL    HW262486   4.694   4.426   9.446  0.5150  1.2333  3.0002
20349SOL     OW62487   7.132   1.839   0.338 -0.1456  0.1564 -0.3207
20349SOL    HW162488   7.076   1.770   0.374 -0.0756  1.1181  1.7472
20349SOL    HW262489   7.071   1.905   0.305 -0.2241  0.2383 -0.0123
20350SOL     OW62490   4.784   2.727   9.727 -0.5716 -0.4205  0.2336
20350SOL    HW162491   4.819   2.777   9.652 -0.9622  2.3930  1.7689
20350SOL    HW262492   4.693   2.755   9.735 -0.2533  0.2250  2.3646
20351SOL     OW62493   6.376   3.746   9.428  0.1478 -0.6729 -0.1832
20351SOL    HW162494   6.434   3.821   9.420 -0.4162 -0.3727 -1.7200
20351SOL    HW262495   6.353   3.744   9.521 -0.1367  1.3038 -0.1603
20352SOL     OW62496   6.115   3.857  10.415 -0.1163  0.3259 -0.2734
20352SOL    HW162497   6.024   3.845  10.387 -0.5339  0.9555  0.7802
20352SOL    HW262498   6.164   3.864  10.333 -0.9444 -0.4698 -0.8624
20353SOL     OW62499   7.200   2.207  10.937 -0.1050 -0.0480  0.3206
20353SOL    HW162500   7.252   2.274  10.982 -0.5899  1.1163 -0.7977
20353SOL    HW262501   7.128   2.188  10.997  0.0115  0.4686  0.6343
20354SOL     OW62502   7.425   3.009  10.637  0.2449 -0.5105  0.4349
20354SOL    HW162503   7.432   2.916  10.617 -0.3307 -0.4565 -0.0070
20354SOL    HW262504   7.354   3.041  10.582 -0.7647 -0.1771  1.8863
20355SOL     OW62505   5.664   3.620  10.959 -0.1109  0.8150  0.0734
20355SOL    HW162506   5.715   3.668  10.894 -0.1953  0.7400 -0.0487
20355SOL    HW262507   5.711   3.634  11.041 -0.9580  2.3905  0.3296
20356SOL     OW62508   0.647   2.247  10.400  0.1484  0.2053  0.5919
20356SOL    HW162509   0.646   2.201  10.316  1.0161 -2.0608  1.7120
20356SOL    HW262510   0.662   2.177  10.465  1.0474  2.0352  2.4898
20357SOL     OW62511   4.367   4.511   9.353  0.2728 -0.0251 -0.5442
20357SOL    HW162512   4.435   4.515   9.286 -0.9405  1.8980 -1.7524
20357SOL    HW262513   4.309   4.439   9.324  0.2233  0.2343 -1.0970
20358SOL     OW62514   7.016   1.707  10.326 -0.5080 -0.2984 -0.0753
20358SOL    HW162515   6.938   1.703  10.270 -1.7811 -2.9880  1.6701
20358SOL    HW262516   6.990   1.764  10.399 -0.8073 -1.0087  0.3881
20359SOL     OW62517   1.923   2.840  10.902  0.0877 -0.3224  0.1584
20359SOL    HW162518   1.833   2.807  10.903 -0.0154 -0.0589  1.8299
20359SOL    HW262519   1.928   2.890  10.821 -1.2373 -0.4450 -0.0339
20360SOL     OW62520   5.202   1.472  10.557 -0.0484 -0.1297  0.0833
20360SOL    HW162521   5.252   1.484  10.476  0.8069 -0.5777  0.5356
20360SOL    HW262522   5.155   1.555  10.569 -1.1791 -0.4922 -1.5328
20361SOL     OW62523   6.497   2.569  10.378 -0.6177  0.0111  1.1366
20361SOL    HW162524   6.513   2.654  10.420 -0.6915 -0.2753  1.7633
20361SOL    HW262525   6.407   2.548  10.401 -0.4856 -0.4006  1.2782
20362SOL     OW62526   6.612   5.393  11.755 -0.2706  0.0700 -0.2588
20362SOL    HW162527   6.645   5.331  11.818 -0.8409 -2.3174 -2.1557
20362SOL    HW262528   6.679   5.398  11.687 -1.1657 -0.1992 -1.1980
20363SOL     OW62529   5.107   4.820   9.746 -0.2556  0.0519  0.1427
20363SOL    HW162530   5.031   4.855   9.700  0.0070  2.1344  1.1730
20363SOL    HW262531   5.181   4.838   9.688 -0.5714 -3.5046 -1.6722
20364SOL     OW62532   5.556   2.705  11.858 -0.2203  0.5212  0.0480
20364SOL    HW162533   5.623   2.751  11.908  0.4583 -2.5047  2.2549
20364SOL    HW262534   5.595   2.692  11.772  1.6854 -0.1959  0.9379
20365SOL     OW62535   6.890   2.627   9.548 -0.5633 -0.0250 -0.0063
20365SOL    HW162536   6.873   2.700   9.489 -0.1485  1.1483  1.2674
20365SOL    HW262537   6.970   2.586   9.514 -1.8128 -1.0987 -1.8079
20366SOL     OW62538   0.151   2.012  11.340  0.2483 -0.4511  0.1713
20366SOL    HW162539   0.165   2.105  11.321  0.7369 -0.0656  2.1489
20366SOL    HW262540   0.057   2.003  11.352  0.1924 -0.2321 -0.1119
20367SOL     OW62541   7.019   1.631   0.437  0.2263 -0.4643 -0.3418
20367SOL    HW162542   6.951   1.606   0.500  0.3541 -0.0387 -0.0331
20367SOL    HW262543   7.073   1.553   0.428  2.0905  0.3374  2.4715
20368SOL     OW62544   7.605   1.215  11.776  0.6942  0.1937 -0.1991
20368SOL    HW162545   7.690   1.188  11.741  1.7366 -1.7525  3.2870
20368SOL    HW262546   7.625   1.289  11.834  0.0261 -0.1449  0.4864
20369SOL     OW62547   7.208   4.234  10.617  0.0469 -0.1640 -0.0160
20369SOL    HW162548   7.164   4.255  10.535 -0.8121 -0.8057  0.2703
20369SOL    HW262549   7.182   4.144  10.636  1.5510 -0.5856  0.1344
20370SOL     OW62550   5.988   1.948   9.547 -0.1638  0.4146  0.6525
20370SOL    HW162551   5.927   1.940   9.474 -0.0667 -0.7546  0.6843
20370SOL    HW262552   5.982   1.864   9.592 -0.3121  1.1579  2.0692
20371SOL     OW62553   7.544   2.408  11.380 -0.4634  0.1671  0.4823
20371SOL    HW162554   7.600   2.476  11.343 -0.5652  0.6816  1.2381
20371SOL    HW262555   7.469   2.455  11.415 -0.7024 -0.3679  0.7107
20372SOL     OW62556   0.254   3.055   9.391 -0.1079 -0.1565 -0.4747
20372SOL    HW162557   0.168   3.043   9.430 -0.1037  0.0770 -0.3936
20372SOL    HW262558   0.280   3.144   9.415 -1.2484  1.0214 -3.1655
20373SOL     OW62559   7.334   2.272  10.680 -0.3203  0.4326 -0.8645
20373SOL    HW162560   7.252   2.229  10.657  0.6726 -2.2807  0.2200
20373SOL    HW262561   7.343   2.258  10.774  2.2730 -1.1970 -1.2408
20374SOL     OW62562   7.519   2.407   9.626 -0.5708  0.9527  0.4695
20374SOL    HW162563   7.450   2.360   9.579  0.3708 -1.2021  1.1276
20374SOL    HW262564   7.481   2.429   9.711 -0.9698  1.2713  0.2107
20375SOL     OW62565   7.429   1.675  10.899  0.0357 -0.0343  0.0755
20375SOL    HW162566   7.453   1.582  10.907  0.8745  0.1714  0.1156
20375SOL    HW262567   7.470   1.717  10.974 -1.3773  0.1920  0.7334
20376SOL     OW62568   7.897   3.909   9.930  0.2664 -0.3982  0.0276
20376SOL    HW162569   7.985   3.905   9.893  0.4365 -0.0614  0.3905
20376SOL    HW262570   7.904   3.864  10.014  0.2727  0.2592  0.3899
20377SOL     OW62571   5.686   1.255   9.578  0.0705  0.2650 -0.6427
20377SOL    HW162572   5.746   1.181   9.589  0.7010  0.9206  0.5649
20377SOL    HW262573   5.615   1.221   9.523  0.2431 -1.2965  0.0513
20378SOL     OW62574   7.117   2.514   9.407 -0.6713  0.7897 -0.6980
20378SOL    HW162575   7.128   2.607   9.389  0.5982  0.4293 -1.9521
20378SOL    HW262576   7.153   2.470   9.330 -0.3447 -0.7577  0.2913
20379SOL     OW62577   7.970   3.666  11.058 -0.3961 -0.0027  0.1282
20379SOL    HW162578   8.058   3.638  11.086 -0.1081 -1.0036 -1.6586
20379SOL    HW262579   7.912   3.601  11.097 -0.2548  0.1118  0.5368
20380SOL     OW62580   5.472   3.519  11.506 -0.5563 -0.0149 -0.1806
20380SOL    HW162581   5.420   3.518  11.587 -1.3086  1.1170 -0.6265
20380SOL    HW262582   5.421   3.468  11.444 -0.1031 -0.6686 -0.0204
20381SOL     OW62583   1.841   4.161  10.027  0.4471  0.0412 -0.3920
20381SOL    HW162584   1.816   4.069  10.031  1.3180 -0.2589 -1.2915
20381SOL    HW262585   1.823   4.195  10.114  2.4070 -1.5926  0.7362
20382SOL     OW62586   6.089   2.683  11.541  0.1588  0.4364 -0.0223
20382SOL    HW162587   6.062   2.754  11.483 -1.8994 -0.2132  0.0537
20382SOL    HW262588   6.178   2.662  11.514 -0.0088  1.5234 -1.5561
20383SOL     OW62589   4.456   4.702  10.980  0.2339  0.3166  0.3738
20383SOL    HW162590   4.533   4.702  11.036 -0.1573 -0.4954  0.9341
20383SOL    HW262591   4.464   4.621  10.929  0.9447  1.3823 -1.2696
20384SOL     OW62592   6.259   2.063   8.935  0.4496 -0.4570  0.1578
20384SOL    HW162593   6.182   2.015   8.904 -0.1483  0.1041  0.7573
20384SOL    HW262594   6.240   2.084   9.026  2.0624 -1.8295  0.8758
20385SOL     OW62595   5.946   2.616   8.346 -0.8859  0.0356  0.4166
20385SOL    HW162596   5.945   2.690   8.286  1.8482  1.6926  2.1401
20385SOL    HW262597   5.912   2.651   8.428 -2.1696 -1.4610  0.5779
20386SOL     OW62598   7.151   1.377   8.186 -0.3317  1.0570 -0.3836
20386SOL    HW162599   7.170   1.312   8.118 -0.7771  1.4546 -0.8995
20386SOL    HW262600   7.066   1.352   8.221 -1.6228  2.6264 -2.1744
20387SOL     OW62601   5.387   2.565  11.405 -0.2023 -0.1925  0.1157
20387SOL    HW162602   5.481   2.547  11.414 -0.2054 -0.3026 -0.0719
20387SOL    HW262603   5.355   2.496  11.347 -0.7567 -1.2896  1.6614
20388SOL     OW62604   4.981   1.460   9.861  0.2438 -0.0375 -0.4229
20388SOL    HW162605   4.960   1.512   9.783 -0.3898  1.8045  0.9191
20388SOL    HW262606   5.058   1.410   9.835 -0.5908 -0.3408 -2.5975
20389SOL     OW62607   6.366   3.818  10.050  0.3565 -0.3006  0.2870
20389SOL    HW162608   6.331   3.750   9.993  0.9244  0.9026 -1.6054
20389SOL    HW262609   6.312   3.895  10.031  0.9274  0.2768  0.9502
20390SOL     OW62610   7.790   4.097  11.349 -0.0164 -0.1205 -0.2500
20390SOL    HW162611   7.839   4.046  11.286  2.1180 -0.8699  1.8794
20390SOL    HW262612   7.833   4.182  11.350 -1.2178  0.5440 -1.0591
20391SOL     OW62613   6.364   4.980   9.088  0.0545  0.1091 -0.0241
20391SOL    HW162614   6.335   4.931   9.011 -0.3843 -0.6702  0.6051
20391SOL    HW262615   6.282   5.009   9.129  0.3122  1.4754 -0.4295
20392SOL     OW62616   7.385   0.862  10.054 -0.0441 -0.0523 -0.2842
20392SOL    HW162617   7.317   0.796  10.072  1.4209 -1.1931  1.4630
20392SOL    HW262618   7.410   0.894  10.141  1.9944 -0.0576 -0.8282
20393SOL     OW62619   7.818   1.602  10.397  0.4370 -0.2451  0.9145
20393SOL    HW162620   7.833   1.603  10.303 -1.3348 -0.9236  0.5919
20393SOL    HW262621   7.723   1.607  10.407  0.6285  0.8798  2.7073
20394SOL     OW62622   7.595   5.534   9.788  0.4308  0.3801  0.0911
20394SOL    HW162623   7.660   5.574   9.730  0.4260  1.0250  0.5074
20394SOL    HW262624   7.576   5.449   9.749  0.9097  0.5307 -0.4879
20395SOL     OW62625   5.061   2.598   9.853 -0.0255  0.2294 -0.3738
20395SOL    HW162626   4.979   2.643   9.835  0.7658  2.0650  0.4059
20395SOL    HW262627   5.086   2.560   9.769 -2.0010 -1.0112 -0.4712
20396SOL     OW62628   6.979   2.068   9.785 -0.5860 -0.0954  0.5900
20396SOL    HW162629   7.016   1.991   9.742 -0.7620  0.3095 -0.2920
20396SOL    HW262630   6.885   2.052   9.785 -0.6335  0.1863  0.2829
20397SOL     OW62631   4.128   3.016  10.398 -0.6123 -0.4859  0.5482
20397SOL    HW162632   4.084   3.090  10.440 -0.3382 -1.2601  2.3195
20397SOL    HW262633   4.200   2.995  10.457 -1.0574 -2.5497  0.4368
20398SOL     OW62634   7.562   1.824  11.573  0.1575  0.4265 -0.5888
20398SOL    HW162635   7.477   1.868  11.572  0.7787  1.7298 -2.4466
20398SOL    HW262636   7.541   1.731  11.576 -1.3360  0.7318 -0.7414
20399SOL     OW62637   4.749   2.571   7.572 -0.3560 -0.3812 -0.1981
20399SOL    HW162638   4.713   2.658   7.554  0.8542 -0.0651 -1.3184
20399SOL    HW262639   4.836   2.588   7.608 -1.0236 -1.1258  1.8891
20400SOL     OW62640   7.201   0.831  12.149 -0.0572 -0.1581 -0.2040
20400SOL    HW162641   7.261   0.774  12.101  0.8461 -0.0626  0.7780
20400SOL    HW262642   7.181   0.783  12.229  0.5295  0.7806  0.5289
20401SOL     OW62643   6.493   1.975  10.816  0.3595  0.6574  0.3769
20401SOL    HW162644   6.419   1.962  10.756  1.8706  1.6910 -1.8710
20401SOL    HW262645   6.508   1.889  10.855  0.8141 -0.8096 -2.6954
20402SOL     OW62646   6.577   3.265  10.250 -0.1341  0.8321  0.2066
20402SOL    HW162647   6.598   3.308  10.333 -2.1684 -1.3006  1.9653
20402SOL    HW262648   6.482   3.254  10.252 -0.0443 -0.8020 -1.6395
20403SOL     OW62649   5.844   0.123   8.770  0.1586  0.4828  0.1034
20403SOL    HW162650   5.845   0.216   8.746  1.0394  0.5508  0.3758
20403SOL    HW262651   5.856   0.122   8.865 -0.0095  0.0896  0.1239
20404SOL     OW62652   6.664   1.159  10.023  0.5037  0.5573  0.0687
20404SOL    HW162653   6.712   1.192   9.947  0.4222  0.5057 -0.0050
20404SOL    HW262654   6.622   1.079   9.992 -0.3630  1.0737 -0.1182
20405SOL     OW62655   4.926   1.212   9.602 -0.4205  0.5390 -0.4322
20405SOL    HW162656   4.890   1.174   9.683 -0.8652  0.9375 -0.4401
20405SOL    HW262657   4.871   1.177   9.532  0.8863 -1.0061 -0.7388
20406SOL     OW62658   6.005   1.982   8.847  0.1589  0.0750  0.2672
20406SOL    HW162659   5.912   1.994   8.824  0.1477 -0.5615 -0.0272
20406SOL    HW262660   6.042   1.933   8.774  0.8416  0.7284  0.1713
20407SOL     OW62661   5.629   3.045  10.078 -0.2302  0.2263 -0.2972
20407SOL    HW162662   5.594   3.080   9.996 -1.4352  0.7615  0.4240
20407SOL    HW262663   5.578   2.965  10.093 -0.9276  0.8260  0.5878
20408SOL     OW62664   6.207   0.957   9.539 -0.6868  0.2017  0.4040
20408SOL    HW162665   6.122   0.935   9.501 -1.0175  0.8990  0.7293
20408SOL    HW262666   6.210   0.907   9.621 -0.7554  0.1342  0.3661
20409SOL     OW62667   6.352   3.295   0.277 -0.0762 -0.3587  0.9127
20409SOL    HW162668   6.352   3.390   0.271  2.8648 -0.3210 -0.0893
20409SOL    HW262669   6.314   3.266   0.193  0.1102 -0.0651  0.7252
20410SOL     OW62670   6.849   3.509   9.716  0.2534  0.7060  0.1162
20410SOL    HW162671   6.770   3.540   9.760  1.4025  1.3019  1.8494
20410SOL    HW262672   6.857   3.564   9.638 -2.0425 -0.6383 -1.1970
20411SOL     OW62673   3.250   3.130  10.633  0.1146  0.1563  0.8923
20411SOL    HW162674   3.334   3.129  10.586 -0.8211 -0.7098 -0.8346
20411SOL    HW262675   3.258   3.060  10.697  0.0032 -1.3243 -0.6477
20412SOL     OW62676   7.572   4.224   9.465 -0.7455  1.1796 -0.0500
20412SOL    HW162677   7.490   4.177   9.447 -1.1913  1.8615  0.1693
20412SOL    HW262678   7.626   4.160   9.510 -0.6005  0.2617 -1.4577
20413SOL     OW62679   5.975   0.515   9.053  0.4042 -0.0342 -0.1866
20413SOL    HW162680   6.020   0.534   8.971  0.3221 -1.5289 -0.6116
20413SOL    HW262681   6.031   0.451   9.098 -1.3219 -2.1410 -0.8496
20414SOL     OW62682   6.042   2.883  11.360 -0.6648  0.0822  0.3200
20414SOL    HW162683   5.963   2.899  11.309 -0.8085 -2.2054 -0.3073
20414SOL    HW262684   6.111   2.870  11.294  0.2157  1.7582  0.8520
20415SOL     OW62685   7.478   1.863  12.341  0.4069 -0.1065  0.5413
20415SOL    HW162686   7.418   1.850  12.268  1.6728 -0.0505 -0.5414
20415SOL    HW262687   7.524   1.780  12.350  1.9819  0.6381 -0.3540
20416SOL     OW62688   6.603   1.974   9.298 -0.0155 -0.5448  0.0141
20416SOL    HW162689   6.579   1.913   9.368 -1.7309 -0.8520 -0.8037
20416SOL    HW262690   6.551   2.053   9.317 -0.4774 -0.6240 -0.8789
20417SOL     OW62691   5.871   7.648  10.131  0.2926 -0.3413  0.4782
20417SOL    HW162692   5.947   7.632  10.075 -0.2532  1.1273 -0.7323
20417SOL    HW262693   5.906   7.694  10.207  0.6836 -0.0781  0.1427
20418SOL     OW62694   7.827   2.795  10.701 -0.0895  0.6558 -0.1991
20418SOL    HW162695   7.919   2.813  10.717 -0.1799  0.0842  1.1309
20418SOL    HW262696   7.781   2.875  10.728 -0.0677  0.5098  0.2765
20419SOL     OW62697   6.790   0.970  10.367 -0.3303  0.9202 -0.2200
20419SOL    HW162698   6.740   0.984  10.447 -3.9767  0.7122 -2.2425
20419SOL    HW262699   6.809   1.059  10.335  1.4619  1.0053  0.9784
20420SOL     OW62700   5.436   3.306   8.740  0.2228 -0.2658  0.1928
20420SOL    HW162701   5.356   3.317   8.689 -0.1060 -0.4951  0.6451
20420SOL    HW262702   5.486   3.385   8.724 -0.3822  0.1707  0.3913
20421SOL     OW62703   6.683   5.306   9.012 -0.0144  0.1222  0.2946
20421SOL    HW162704   6.681   5.397   8.981  0.0271  1.0297  2.7501
20421SOL    HW262705   6.726   5.311   9.097  0.4586 -2.3101  0.2626
20422SOL     OW62706   5.771   3.172  12.301 -0.0911 -0.8557  0.1948
20422SOL    HW162707   5.824   3.104  12.259  0.2350 -0.7600  0.4487
20422SOL    HW262708   5.822   3.252  12.289 -0.5959 -0.6101 -0.3278
20423SOL     OW62709   6.617   1.761   9.956 -0.3500  0.0140  0.2030
20423SOL    HW162710   6.539   1.764  10.011 -1.1692 -1.0378 -0.8351
20423SOL    HW262711   6.588   1.716   9.876  1.2494 -0.1323 -0.3348
20424SOL     OW62712   5.410   2.626   9.650 -0.3975 -0.4181  0.0180
20424SOL    HW162713   5.452   2.678   9.718  0.2452  0.6111 -1.1261
20424SOL    HW262714   5.335   2.678   9.622  0.2399 -0.0827 -1.1200
20425SOL     OW62715   6.976   2.695   8.838  0.6789 -0.4472 -0.1827
20425SOL    HW162716   7.057   2.722   8.795 -0.3458  0.9786 -1.3628
20425SOL    HW262717   6.915   2.680   8.765 -0.6800  0.5088  0.7250
20426SOL     OW62718   7.101   4.107  10.003 -0.0056  0.1240  0.1150
20426SOL    HW162719   7.081   4.163   9.928  0.1142  1.8148  1.3015
20426SOL    HW262720   7.188   4.135  10.031  0.3295 -1.1029  0.3921
20427SOL     OW62721   7.428   3.794  10.641 -0.3080  0.7091  0.3478
20427SOL    HW162722   7.355   3.852  10.618  0.1359  0.9376 -0.5283
20427SOL    HW262723   7.402   3.709  10.607 -0.9652  0.3583  1.6446
20428SOL     OW62724   5.787   3.676  11.194  0.3365  0.4581  0.3467
20428SOL    HW162725   5.798   3.615  11.268  2.3750 -1.9443 -1.7625
20428SOL    HW262726   5.876   3.696  11.166 -0.3620  0.2676 -2.2382
20429SOL     OW62727   0.693   2.485  12.460 -0.2075  0.0399  1.0377
20429SOL    HW162728   0.657   2.466  12.373  0.5056  1.8958  0.2926
20429SOL    HW262729   0.617   2.480  12.519 -0.9150 -0.1029  0.1383
20430SOL     OW62730   6.821   0.551   9.698  0.4906 -0.0599  0.9618
20430SOL    HW162731   6.753   0.561   9.764 -2.1907  2.5978 -1.8669
20430SOL    HW262732   6.833   0.639   9.662  0.3507 -1.5804 -3.3211
20431SOL     OW62733   6.143   1.882  12.305  0.0697  0.2068  0.2349
20431SOL    HW162734   6.086   1.836  12.365 -0.2325  0.4936  0.1713
20431SOL    HW262735   6.113   1.973  12.308  0.8874  0.4771  0.6371
20432SOL     OW62736   5.084   3.320  10.407  0.3724  0.3153  0.5293
20432SOL    HW162737   5.030   3.260  10.356 -0.0287  0.5471  0.6671
20432SOL    HW262738   5.100   3.274  10.490  0.4382  0.2192  0.4626
20433SOL     OW62739   7.338   2.343  10.068 -0.5841 -0.1884 -0.1775
20433SOL    HW162740   7.283   2.287  10.013 -0.5866 -0.1351 -0.2296
20433SOL    HW262741   7.279   2.410  10.101 -0.8075 -0.8113  0.7290
20434SOL     OW62742   7.345   3.063   9.932  0.2710 -0.3884  1.0504
20434SOL    HW162743   7.410   3.002   9.898  1.1795  0.2378  1.6231
20434SOL    HW262744   7.261   3.027   9.902  0.9639 -0.0046 -1.6326
20435SOL     OW62745   5.757   4.261  10.670 -0.1423  0.3752  0.1491
20435SOL    HW162746   5.717   4.332  10.620  0.4406 -1.2491 -2.8611
20435SOL    HW262747   5.689   4.234  10.732 -1.3573  1.7758 -0.5158
20436SOL     OW62748   5.447   2.234   8.071  0.4634 -0.0956 -0.6572
20436SOL    HW162749   5.504   2.291   8.122  0.3473 -0.2284 -0.3754
20436SOL    HW262750   5.414   2.289   8.000 -1.3602  0.8332  0.8162
20437SOL     OW62751   6.960   3.383  10.733  0.2672  0.2996 -0.2109
20437SOL    HW162752   6.911   3.430  10.665 -0.7802  0.6090  0.7332
20437SOL    HW262753   7.003   3.312  10.686 -0.9434  0.1322 -1.1197
20438SOL     OW62754   5.961   3.275  10.631  0.6395  0.0866  0.9331
20438SOL    HW162755   5.892   3.324  10.677  1.1166  0.3855  1.3517
20438SOL    HW262756   6.035   3.336  10.629  1.3812 -0.7610  1.8414
20439SOL     OW62757   5.836   1.713  11.484  0.0415  0.0186 -0.0715
20439SOL    HW162758   5.895   1.748  11.551 -0.5662 -1.0956  1.0840
20439SOL    HW262759   5.749   1.739  11.514 -0.2757 -0.9249 -0.1483
20440SOL     OW62760   7.440   1.635   8.980  0.2075 -0.2418 -0.1897
20440SOL    HW162761   7.370   1.632   9.045  0.7509 -0.8434  0.3895
20440SOL    HW262762   7.405   1.586   8.905 -0.2139 -0.0206 -0.1390
20441SOL     OW62763   3.354   3.361  10.334  0.1437 -0.1577 -0.2294
20441SOL    HW162764   3.379   3.269  10.341  1.2059  0.1442  0.1708
20441SOL    HW262765   3.409   3.406  10.398 -0.4862  0.7369 -0.2983
20442SOL     OW62766   4.425   2.033  12.315 -0.0820  0.4805  0.2325
20442SOL    HW162767   4.352   1.976  12.340 -1.1185  0.9389 -1.5891
20442SOL    HW262768   4.481   1.978  12.261  0.9689  0.1398  1.5984
20443SOL     OW62769   0.415   2.218  12.032  0.3531  0.3177 -0.1070
20443SOL    HW162770   0.384   2.262  11.953 -2.9733  0.1795  0.9739
20443SOL    HW262771   0.397   2.280  12.103  1.0950 -0.4700  0.8010
20444SOL     OW62772   7.080   2.576  11.253  0.1024  0.0117  0.5422
20444SOL    HW162773   7.159   2.620  11.220  0.0706 -1.8018 -2.3438
20444SOL    HW262774   7.110   2.488  11.277 -0.7005 -0.0427  1.4000
20445SOL     OW62775   0.643   3.916  10.993  0.2249  0.3874 -0.0863
20445SOL    HW162776   0.588   3.983  10.950  0.8798  0.7203 -0.4152
20445SOL    HW262777   0.727   3.959  11.007  0.4602 -0.1751  0.2687
20446SOL     OW62778   4.701   3.203   9.855 -0.6269 -0.0418 -0.2101
20446SOL    HW162779   4.662   3.269   9.912 -1.2498 -1.7866  1.4829
20446SOL    HW262780   4.790   3.191   9.888  0.0015  0.9771 -1.4608
20447SOL     OW62781   6.416   3.384  11.041  0.0760 -0.3828  0.2467
20447SOL    HW162782   6.333   3.401  10.995  0.1173 -2.9328 -0.9390
20447SOL    HW262783   6.484   3.401  10.976  0.2487 -1.8924 -0.0070
20448SOL     OW62784   5.375   0.405   8.612  0.4877 -0.4647 -0.1698
20448SOL    HW162785   5.457   0.435   8.574 -0.2364  1.2384 -0.5020
20448SOL    HW262786   5.369   0.313   8.588  1.7826 -0.3450 -1.0476
20449SOL     OW62787   6.377   3.074   9.940 -0.3803  0.2497  0.4340
20449SOL    HW162788   6.338   3.056   9.854  1.6037  1.0303 -0.6912
20449SOL    HW262789   6.447   3.137   9.922  0.8667 -0.4752  2.4609
20450SOL     OW62790   5.106   3.116  10.677 -0.1863  0.2379 -0.3165
20450SOL    HW162791   5.131   3.074  10.595 -3.1817 -1.5066 -0.4563
20450SOL    HW262792   5.012   3.103  10.684 -0.6048  3.2454  1.8318
20451SOL     OW62793   5.694   1.968   9.444 -0.1840  0.6478 -0.3667
20451SOL    HW162794   5.709   1.957   9.350 -1.5003  0.8670 -0.6225
20451SOL    HW262795   5.652   1.886   9.471  1.6660 -0.0942  0.3882
20452SOL     OW62796   6.205   3.861  11.998 -0.0997 -0.2164 -0.1017
20452SOL    HW162797   6.189   3.784  11.943 -0.9357 -0.0947 -0.0523
20452SOL    HW262798   6.144   3.851  12.071  0.5087 -0.0184  0.4331
20453SOL     OW62799   5.369   1.468  10.305 -0.0704  0.0371  0.2424
20453SOL    HW162800   5.348   1.411  10.231  0.1312  0.8366 -0.4542
20453SOL    HW262801   5.462   1.451  10.323 -0.4523 -1.1424  1.2122
20454SOL     OW62802   7.914   1.541   8.421 -0.7130 -0.2148 -0.0642
20454SOL    HW162803   7.925   1.596   8.344 -2.9378 -0.0581 -0.3512
20454SOL    HW262804   7.841   1.580   8.468  0.7413 -0.1625  2.3081
20455SOL     OW62805   6.243   1.335  11.154 -0.0495 -0.2657  0.8769
20455SOL    HW162806   6.224   1.241  11.149  1.7277 -0.6449  0.7799
20455SOL    HW262807   6.312   1.349  11.090  0.2940  0.9543  1.4924
20456SOL     OW62808   5.717   3.244  10.233 -0.4111 -0.0247 -0.1413
20456SOL    HW162809   5.713   3.174  10.168  1.3471 -0.4920  0.2155
20456SOL    HW262810   5.737   3.322  10.182 -0.1453 -0.1852 -0.2820
20457SOL     OW62811   1.813   2.745  10.661  0.1888  0.8668 -0.1214
20457SOL    HW162812   1.743   2.763  10.598 -0.5556 -0.7638  0.1931
20457SOL    HW262813   1.777   2.677  10.718  1.1389  1.7136  1.5799
20458SOL     OW62814   5.578   3.222  11.589 -0.4986 -0.8693 -0.2120
20458SOL    HW162815   5.620   3.308  11.583  0.5409 -1.3518 -0.0136
20458SOL    HW262816   5.500   3.229  11.534 -1.1818  0.6380  0.8741
20459SOL     OW62817   7.879   2.489   9.619  0.8595  0.0914 -0.6362
20459SOL    HW162818   7.860   2.420   9.683  1.9308  0.6639  0.3445
20459SOL    HW262819   7.963   2.464   9.582  0.8941  0.4806 -0.8160
20460SOL     OW62820   5.152   0.703   8.937 -0.6179  0.3725 -0.0444
20460SOL    HW162821   5.156   0.789   8.979 -0.3126  0.1053  0.4908
20460SOL    HW262822   5.162   0.721   8.844  2.3281  0.7334  0.2514
20461SOL     OW62823   7.033   3.099  10.720  0.6504 -0.1168  0.1174
20461SOL    HW162824   7.086   3.032  10.761  2.0206 -0.2201 -1.7252
20461SOL    HW262825   7.056   3.096  10.627 -1.4097  0.9234 -0.5013
20462SOL     OW62826   5.097   2.065  10.124  0.1118  0.1883  0.4724
20462SOL    HW162827   5.077   1.982  10.166 -1.1025  0.1938 -0.0622
20462SOL    HW262828   5.172   2.046  10.067 -1.1483 -0.9828 -0.8848
20463SOL     OW62829   4.291   3.060  11.282  0.1109  0.4015 -0.2233
20463SOL    HW162830   4.285   2.990  11.217  1.4870  0.4967 -0.4813
20463SOL    HW262831   4.350   3.025  11.349 -0.7983  0.5491  0.6785
20464SOL     OW62832   6.135   2.642  10.461 -0.6068 -0.5533 -0.0424
20464SOL    HW162833   6.179   2.568  10.504 -0.5389 -0.3760  0.1939
20464SOL    HW262834   6.064   2.602  10.412 -1.3360 -0.6592  1.0709
20465SOL     OW62835   6.798   2.052  11.135  0.3120  0.1126  0.2986
20465SOL    HW162836   6.708   2.087  11.142  0.2437 -0.3025  1.7407
20465SOL    HW262837   6.803   1.985  11.202  1.3356 -0.7480 -0.6061
20466SOL     OW62838   4.199   4.690   9.774  0.4817 -0.2411 -0.4216
20466SOL    HW162839   4.166   4.602   9.756 -1.7218  0.3447  0.4245
20466SOL    HW262840   4.219   4.688   9.868 -0.7254  0.4538 -0.1254
20467SOL     OW62841   5.028   2.731  11.049 -0.1351 -0.2421 -0.0582
20467SOL    HW162842   5.042   2.636  11.053 -1.9558 -0.5654 -0.3518
20467SOL    HW262843   5.039   2.760  11.139 -0.1303 -0.8339  0.1387
20468SOL     OW62844   6.717   1.990   9.820  0.1491 -0.4662 -0.2201
20468SOL    HW162845   6.677   2.075   9.805 -0.4030 -0.4520  1.1423
20468SOL    HW262846   6.663   1.950   9.889 -0.2390 -2.3633 -1.5507
20469SOL     OW62847   6.689   2.166  10.306  0.4903  0.3998 -0.2345
20469SOL    HW162848   6.629   2.092  10.301  0.1025  0.6237  0.8381
20469SOL    HW262849   6.747   2.155  10.231 -0.0784 -0.5335 -0.5532
20470SOL     OW62850   5.121   2.327   9.249 -0.2488 -0.4518  0.0804
20470SOL    HW162851   5.180   2.402   9.256 -0.6568 -0.1156 -0.0276
20470SOL    HW262852   5.140   2.274   9.327 -0.0435 -0.1761  0.2200
20471SOL     OW62853   6.231   2.101   0.012 -0.8624 -0.0621 -0.0746
20471SOL    HW162854   6.291   2.035  -0.023 -0.6220  0.7722 -1.3072
20471SOL    HW262855   6.283   2.149   0.076 -1.1684 -1.3108  1.1675
20472SOL     OW62856   6.839   2.840  12.212  0.5218  0.0187  0.7606
20472SOL    HW162857   6.889   2.916  12.180 -0.6516 -0.1599 -1.7588
20472SOL    HW262858   6.896   2.765  12.193 -0.6585 -0.2278 -2.5125
20473SOL     OW62859   5.332   2.196   8.745  0.0721 -0.0441 -0.0580
20473SOL    HW162860   5.304   2.224   8.832  2.0833  0.3268  0.5138
20473SOL    HW262861   5.255   2.153   8.708 -1.9180  2.6612  0.5781
20474SOL     OW62862   5.999   2.875   9.360 -0.4009 -0.6101 -0.4478
20474SOL    HW162863   5.993   2.947   9.423  0.1874 -0.3734 -0.6563
20474SOL    HW262864   5.911   2.867   9.324 -0.3158  0.4598 -0.9198
20475SOL     OW62865   5.934   3.029  12.123  0.5443  0.1376 -0.1515
20475SOL    HW162866   6.023   3.063  12.136 -0.9483  4.2506  0.8325
20475SOL    HW262867   5.916   3.044  12.031  0.7715 -0.6483 -0.3380
20476SOL     OW62868   7.380   2.359  11.081  0.1811 -0.0057 -0.0087
20476SOL    HW162869   7.379   2.452  11.105  3.1576 -0.1381  1.0138
20476SOL    HW262870   7.449   2.353  11.015  0.5584 -1.6182  0.5081
20477SOL     OW62871   5.701   2.795  10.731 -0.7615  0.5699  0.1858
20477SOL    HW162872   5.737   2.746  10.657 -1.5454 -1.4165  1.0500
20477SOL    HW262873   5.610   2.810  10.708 -1.1386 -0.4749  0.8933
20478SOL     OW62874   6.144   1.475   7.620  0.1159  0.0261  0.0486
20478SOL    HW162875   6.062   1.514   7.589  0.7703  1.2344 -0.1988
20478SOL    HW262876   6.211   1.539   7.598  1.1295 -0.9149  0.3256
20479SOL     OW62877   5.640   4.078  11.056  0.0686  0.5293 -0.0952
20479SOL    HW162878   5.713   4.042  11.006 -1.1404 -1.6730 -0.4390
20479SOL    HW262879   5.681   4.134  11.122  2.1116 -0.9726  0.0227
20480SOL     OW62880   5.427   4.679  11.105 -0.1071  0.0187 -0.0413
20480SOL    HW162881   5.356   4.615  11.111 -0.0614 -0.0814 -0.5147
20480SOL    HW262882   5.383   4.763  11.094 -0.2078  0.2723  1.9775
20481SOL     OW62883   7.241   1.225   9.237  0.2496  0.1151 -0.0515
20481SOL    HW162884   7.314   1.166   9.220  0.3166  0.1415  0.1337
20481SOL    HW262885   7.214   1.205   9.327  2.1940  2.3653  1.1654
20482SOL     OW62886   6.767   1.469  10.114 -0.2570 -0.2460  0.3876
20482SOL    HW162887   6.836   1.489  10.051  0.0170  0.0032  0.7583
20482SOL    HW262888   6.806   1.403  10.171 -0.4067 -0.2760  0.4547
20483SOL     OW62889   6.706   1.622  11.148  0.1756 -0.6606 -0.6527
20483SOL    HW162890   6.799   1.599  11.149  0.1067 -1.1145  1.8282
20483SOL    HW262891   6.684   1.637  11.240 -1.7265  1.5794 -1.3655
20484SOL     OW62892   5.770   3.493  10.130  0.3095 -0.1632 -0.5430
20484SOL    HW162893   5.805   3.580  10.110 -0.4528  0.5350  0.9965
20484SOL    HW262894   5.682   3.509  10.164  1.2279 -1.2069  2.7170
20485SOL     OW62895   6.996   2.756   9.254  0.0375 -0.1629 -0.0442
20485SOL    HW162896   7.041   2.799   9.181 -1.2030  2.3535  0.5384
20485SOL    HW262897   6.982   2.666   9.225  0.8322  0.3820 -2.3154
20486SOL     OW62898   1.224   1.849  11.280 -0.3207  0.0824 -0.6113
20486SOL    HW162899   1.245   1.759  11.256  0.5422  0.1492 -0.1576
20486SOL    HW262900   1.247   1.856  11.372 -0.2452  0.7972 -0.6747
20487SOL     OW62901   5.211   4.170   9.505  0.3951 -0.5547  0.3519
20487SOL    HW162902   5.227   4.239   9.568  0.3829 -0.3874  0.1722
20487SOL    HW262903   5.190   4.216   9.423 -0.8295 -0.7596  0.5341
20488SOL     OW62904   3.230   4.027  11.366  0.2859 -0.0245 -0.1239
20488SOL    HW162905   3.241   4.096  11.432 -2.8308  1.1433 -0.6902
20488SOL    HW262906   3.205   3.950  11.417  3.6121 -0.8508  0.4955
20489SOL     OW62907   6.665   1.892   9.571 -0.0277  0.2138  0.7228
20489SOL    HW162908   6.756   1.867   9.562  0.2961  1.0930  1.3494
20489SOL    HW262909   6.657   1.921   9.662 -0.7073  1.0004  0.4289
20490SOL     OW62910   6.323   4.265  10.951 -0.1740 -0.6431 -1.0522
20490SOL    HW162911   6.306   4.330  11.019 -1.3954 -0.7263 -1.2608
20490SOL    HW262912   6.415   4.280  10.926  0.2869 -0.5759  0.5571
20491SOL     OW62913   4.990   3.067   9.030  0.4127 -0.3716 -0.0219
20491SOL    HW162914   5.051   3.103   8.965 -2.3875  0.4613 -2.4069
20491SOL    HW262915   4.952   2.990   8.987 -1.3841  0.0940  0.6288
20492SOL     OW62916   7.147   4.369  10.960 -0.5737  0.2233  0.0474
20492SOL    HW162917   7.210   4.410  10.901 -0.1634  0.0951  0.3838
20492SOL    HW262918   7.124   4.438  11.022 -1.7171  0.6248 -0.8137
20493SOL     OW62919   0.902   2.887  10.217  0.5781  0.8962 -0.0769
20493SOL    HW162920   0.899   2.919  10.127 -1.0566  3.4508  0.7853
20493SOL    HW262921   0.813   2.857  10.235  1.2554 -1.1073  0.2790
20494SOL     OW62922   6.823   1.234   9.824  0.6911 -0.5299  0.2792
20494SOL    HW162923   6.908   1.223   9.782  0.8224 -0.0176  0.4062
20494SOL    HW262924   6.808   1.329   9.825 -0.2789 -0.6512 -0.5260
20495SOL     OW62925   6.593   2.205   7.926 -0.0634 -0.0424 -0.1280
20495SOL    HW162926   6.590   2.249   7.840 -0.7243  0.6714  0.2479
20495SOL    HW262927   6.501   2.186   7.946  0.1046 -0.3577  0.3490
20496SOL     OW62928   6.121   2.377  11.418 -0.2025  0.4258 -0.4941
20496SOL    HW162929   6.183   2.447  11.396  0.2674  0.9467  2.1400
20496SOL    HW262930   6.163   2.330  11.489 -1.5058 -1.2021 -0.7607
20497SOL     OW62931   5.553   2.132   9.077 -0.4465 -0.0689  0.4641
20497SOL    HW162932   5.521   2.212   9.120 -0.6190 -0.9499  2.0624
20497SOL    HW262933   5.569   2.158   8.987 -0.9799  1.6476  0.8249
20498SOL     OW62934   6.272   3.193   9.253  0.2491  0.0321  0.0417
20498SOL    HW162935   6.302   3.169   9.340  1.6880  0.4901 -0.2985
20498SOL    HW262936   6.347   3.175   9.195  0.2323  2.0645 -0.7083
20499SOL     OW62937   6.240   1.584  10.182 -0.1831  0.2531 -0.6324
20499SOL    HW162938   6.281   1.504  10.149 -0.7433 -0.4502  0.3170
20499SOL    HW262939   6.153   1.585  10.141  0.3281  1.1216 -1.7269
20500SOL     OW62940   7.470   0.942  12.447  0.6566  0.0944  0.1054
20500SOL    HW162941   7.480   0.884  12.521 -0.3438 -0.5083 -0.2214
20500SOL    HW262942   7.453   1.028  12.486 -1.5989 -0.5168  0.6133
20501SOL     OW62943   0.602   0.739   8.987  0.3186  0.1223  0.6413
20501SOL    HW162944   0.592   0.787   8.905  1.6510  1.2760  1.1122
20501SOL    HW262945   0.524   0.684   8.993  0.1303  0.1252 -1.3089
20502SOL     OW62946   6.752   1.781  10.222  0.9936 -0.3853  0.0793
20502SOL    HW162947   6.679   1.841  10.236 -0.0759 -1.5601 -0.3139
20502SOL    HW262948   6.735   1.741  10.137  1.5210 -1.4745  0.4668
20503SOL     OW62949   6.375   4.223   8.132 -0.1355 -0.3588  0.0769
20503SOL    HW162950   6.391   4.207   8.225  1.6426  2.3556  0.3670
20503SOL    HW262951   6.315   4.298   8.131  0.4538  0.1130 -0.9478
20504SOL     OW62952   6.641   0.564   9.924  0.0885  0.4333  0.1038
20504SOL    HW162953   6.657   0.485   9.976 -1.6661 -1.0476 -1.4285
20504SOL    HW262954   6.560   0.600   9.959  0.7761  1.4889  0.6648
20505SOL     OW62955   5.646   2.848   9.746 -0.0557 -0.2485 -0.1708
20505SOL    HW162956   5.626   2.904   9.671  1.4988  0.4749 -0.0786
20505SOL    HW262957   5.561   2.831   9.786 -0.6199  1.7761 -0.4044
20506SOL     OW62958   3.844   3.570  10.900 -0.5105  0.1075 -0.1319
20506SOL    HW162959   3.884   3.568  10.813 -2.2874  1.8720 -1.0584
20506SOL    HW262960   3.811   3.659  10.909 -0.6354 -0.1316  2.2537
20507SOL     OW62961   6.793   1.619  10.481 -0.2726 -0.5005  0.2311
20507SOL    HW162962   6.759   1.654  10.399 -2.7375 -0.3416  1.2310
20507SOL    HW262963   6.834   1.694  10.524 -1.2561  0.0390  0.2499
20508SOL     OW62964   3.923   4.644  10.013  0.1738 -0.3236  0.2821
20508SOL    HW162965   4.017   4.650  10.000  0.3461 -1.3131  0.9645
20508SOL    HW262966   3.905   4.550  10.012 -1.1206 -0.1454 -1.9628
20509SOL     OW62967   7.648   0.959   9.911  0.1154  0.0992  0.2825
20509SOL    HW162968   7.620   0.944   9.821  0.0742 -0.7311  0.4262
20509SOL    HW262969   7.740   0.986   9.903 -0.0486  0.5831 -0.0359
20510SOL     OW62970   4.336   3.639  10.551 -0.1371  0.4233  0.4080
20510SOL    HW162971   4.271   3.704  10.525  0.2624  0.8149  0.3818
20510SOL    HW262972   4.403   3.644  10.482 -0.9910 -1.3167 -0.6218
20511SOL     OW62973   5.737   1.283   8.724 -0.1142 -0.1607  0.0576
20511SOL    HW162974   5.654   1.330   8.714 -0.1657 -0.1715  0.4314
20511SOL    HW262975   5.765   1.302   8.813  1.1880  1.3071 -0.6195
20512SOL     OW62976   5.754   2.242  10.851  0.7724 -0.1952  0.3202
20512SOL    HW162977   5.819   2.228  10.781  0.4322  2.1841 -0.5838
20512SOL    HW262978   5.719   2.155  10.869 -0.2892 -0.8244 -3.6847
20513SOL     OW62979   6.935   2.936  10.933  0.7989 -0.0172 -0.7749
20513SOL    HW162980   6.865   3.001  10.935  1.3980  0.6730 -1.6350
20513SOL    HW262981   7.011   2.982  10.968  0.4249 -1.3223  2.0685
20514SOL     OW62982   5.641   2.387   9.889  0.3751 -0.5238  0.1906
20514SOL    HW162983   5.715   2.448   9.882  0.8522 -1.1348 -0.1363
20514SOL    HW262984   5.641   2.338   9.807  0.8297 -1.8916  0.9767
20515SOL     OW62985   3.156   4.079  10.909  0.2615 -0.1500  0.0253
20515SOL    HW162986   3.129   3.987  10.909  0.5387 -0.2632 -1.8215
20515SOL    HW262987   3.078   4.127  10.882 -0.3935  0.3894  2.6234
20516SOL     OW62988   4.032   2.615  11.323  0.3363 -0.4070 -0.4085
20516SOL    HW162989   4.017   2.710  11.326  1.4834 -0.1652 -1.4434
20516SOL    HW262990   4.022   2.592  11.231  0.9123 -1.1412 -0.2988
20517SOL     OW62991   1.821   0.914  10.762  0.2476  0.4458 -0.2447
20517SOL    HW162992   1.797   0.983  10.823 -1.0951 -0.0116 -0.2252
20517SOL    HW262993   1.832   0.959  10.678  1.7357  1.0184  0.2247
20518SOL     OW62994   6.171   3.083   7.216 -0.0863  0.3317  0.2227
20518SOL    HW162995   6.089   3.069   7.265  0.5863 -3.6935  0.5932
20518SOL    HW262996   6.150   3.058   7.126  0.2640  1.2487 -0.1174
20519SOL     OW62997   7.083   1.174  10.589 -0.2511 -0.5480 -0.0146
20519SOL    HW162998   7.028   1.252  10.577  1.1158  0.3717 -0.6153
20519SOL    HW262999   7.170   1.202  10.559  0.1049 -2.5446 -0.9688
20520SOL     OW63000   0.209   3.347  10.946  0.1451 -0.3050 -0.4985
20520SOL    HW163001   0.260   3.266  10.947 -0.8056 -0.9277 -1.1330
20520SOL    HW263002   0.135   3.330  11.005  0.1866  0.2667 -0.2725
20521SOL     OW63003   7.548   2.238  10.478 -0.2985 -0.5412  0.0768
20521SOL    HW163004   7.612   2.297  10.518  1.4905 -1.5886 -1.1005
20521SOL    HW263005   7.477   2.232  10.543  1.4281 -0.4251  2.0853
20522SOL     OW63006   4.647   2.901  11.159 -0.7129  0.0685  0.2078
20522SOL    HW163007   4.652   2.926  11.252 -1.3679  1.9694 -0.2098
20522SOL    HW263008   4.659   2.806  11.159 -1.4282 -0.0863  2.3040
20523SOL     OW63009   5.857   2.771   8.539  0.3493  0.0040 -0.4941
20523SOL    HW163010   5.822   2.736   8.620  1.6504  0.5638  0.3430
20523SOL    HW263011   5.787   2.825   8.503  0.4014  1.2997  1.2533
20524SOL     OW63012   6.188   1.250  12.224  0.3591 -0.3617  0.3474
20524SOL    HW163013   6.222   1.299  12.149  0.8738  0.7735  1.2698
20524SOL    HW263014   6.265   1.237  12.279 -0.2798  0.2572  1.4227
20525SOL     OW63015   7.241   2.606   9.007  0.7180  0.1382  0.1383
20525SOL    HW163016   7.211   2.531   8.956  0.4579  0.0617  0.3983
20525SOL    HW263017   7.174   2.673   8.994  0.5939  0.0808  0.4597
20526SOL     OW63018   7.817   1.951   9.327 -0.0877 -0.0889  0.4663
20526SOL    HW163019   7.724   1.928   9.338 -0.6116  0.8574 -1.4413
20526SOL    HW263020   7.824   2.040   9.363 -0.1243  0.1425 -0.0804
20527SOL     OW63021   5.647   2.486  11.355  0.0547 -0.4882 -0.1882
20527SOL    HW163022   5.665   2.479  11.261  2.7965  1.9844  0.0143
20527SOL    HW263023   5.728   2.460  11.398  0.1442  1.9183  1.2960
20528SOL     OW63024   7.317   3.558  10.550  0.4217 -0.0892  0.2096
20528SOL    HW163025   7.309   3.501  10.473 -2.6589  2.0087 -1.2472
20528SOL    HW263026   7.227   3.585  10.569  1.3307  1.1934  3.2758
20529SOL     OW63027   6.832   3.514  10.532 -0.2701 -0.1702  0.0630
20529SOL    HW163028   6.838   3.550  10.443 -0.1155  0.3940  0.2973
20529SOL    HW263029   6.808   3.589  10.586  0.6453 -0.2910  0.6503
20530SOL     OW63030   0.495   1.402  10.964  0.1325  0.2529 -0.2395
20530SOL    HW163031   0.502   1.322  11.016  0.1762 -0.2500 -0.9994
20530SOL    HW263032   0.543   1.468  11.014  2.2079 -0.7842 -0.7769
20531SOL     OW63033   5.000   1.980  10.485 -0.0301  0.1389 -0.5599
20531SOL    HW163034   4.973   2.048  10.423 -0.6093  2.2707  1.8584
20531SOL    HW263035   4.919   1.948  10.524  0.4141  0.9222  1.1162
20532SOL     OW63036   7.358   3.548   9.839  0.2138  0.5047  0.5672
20532SOL    HW163037   7.290   3.542   9.772  1.8170  2.0386 -1.3051
20532SOL    HW263038   7.406   3.465   9.833 -0.4491  0.1010  0.7523
20533SOL     OW63039   4.633   1.820   8.858 -0.4551 -0.0178  0.6503
20533SOL    HW163040   4.546   1.791   8.830 -0.6237 -0.0699  1.2194
20533SOL    HW263041   4.693   1.758   8.816 -0.7981 -1.0649  1.6457
20534SOL     OW63042   7.393   4.484   9.937 -0.2516  0.3448 -0.4366
20534SOL    HW163043   7.461   4.541   9.902  0.8499 -0.3969  0.4472
20534SOL    HW263044   7.342   4.540   9.995  0.6957  0.5004  0.2641
20535SOL     OW63045   6.312   3.006   9.678  0.1418  0.2359 -0.4106
20535SOL    HW163046   6.347   3.069   9.616 -3.4603  1.8537 -1.0729
20535SOL    HW263047   6.323   2.921   9.635 -1.1164  1.1820 -2.7767
20536SOL     OW63048   7.246   2.657   9.763 -0.3239 -0.0654 -0.1090
20536SOL    HW163049   7.161   2.625   9.795 -1.4533 -1.3005 -3.9112
20536SOL    HW263050   7.223   2.727   9.701  1.3448 -0.9412 -1.8056
20537SOL     OW63051   0.634   3.449  11.032 -0.1866  0.6186 -0.6257
20537SOL    HW163052   0.695   3.441  11.105  0.2437  1.6259 -0.8528
20537SOL    HW263053   0.648   3.370  10.980 -2.3381 -1.4631  1.6620
20538SOL     OW63054   5.040   3.962   9.524 -0.0453  0.8200  0.3362
20538SOL    HW163055   5.013   3.933   9.437  0.9840  0.9263 -0.0313
20538SOL    HW263056   5.103   4.033   9.508 -0.4124  1.3455  1.1802
20539SOL     OW63057   7.886   1.125   7.961  0.0165  0.1910 -0.1052
20539SOL    HW163058   7.975   1.153   7.938  0.6815 -1.3889  0.4076
20539SOL    HW263059   7.848   1.201   8.004  0.4672  1.5111 -1.9287
20540SOL     OW63060   6.990   0.545   8.857  0.5630 -0.2700  0.2651
20540SOL    HW163061   6.989   0.485   8.782  0.2433 -1.6002  1.2849
20540SOL    HW263062   6.904   0.585   8.857  1.7090  2.5562 -2.1643
20541SOL     OW63063   6.107   2.159  11.256  0.4199  0.0725 -0.0852
20541SOL    HW163064   6.105   2.236  11.312 -0.0317 -0.3730  0.5332
20541SOL    HW263065   6.100   2.085  11.317  0.4377 -0.4418 -0.6936
20542SOL     OW63066   6.658   2.831   9.911  0.6997 -0.0668  0.0300
20542SOL    HW163067   6.616   2.909   9.875 -1.0771 -1.1805 -0.4349
20542SOL    HW263068   6.590   2.787   9.961  1.3952 -1.7635 -0.4159
20543SOL     OW63069   6.870   2.584  11.440 -0.1158  0.3158 -0.3338
20543SOL    HW163070   6.943   2.595  11.379  0.4155 -1.8313 -0.1682
20543SOL    HW263071   6.875   2.661  11.498  0.7243  1.2482 -1.5967
20544SOL     OW63072   5.286   3.101  11.867  0.6209 -0.2625 -0.3744
20544SOL    HW163073   5.341   3.047  11.924  0.0828 -1.6514 -1.1255
20544SOL    HW263074   5.335   3.182  11.857  1.2728 -0.4349  1.1164
20545SOL     OW63075   5.679   3.706  12.419  0.0738 -0.2440  0.1946
20545SOL    HW163076   5.606   3.737  12.473 -1.1916  0.4801 -1.8312
20545SOL    HW263077   5.638   3.655  12.349  1.6039 -0.6893 -0.4248
20546SOL     OW63078   5.682   1.831  10.461 -0.0826  0.4049 -0.0408
20546SOL    HW163079   5.665   1.832  10.367 -0.8122 -0.9524  0.0424
20546SOL    HW263080   5.746   1.761  10.473 -1.6529 -1.0015  0.6609
20547SOL     OW63081   6.979   2.608  12.221 -0.4466  0.2051 -0.6436
20547SOL    HW163082   7.058   2.606  12.276 -0.8677 -0.6183 -0.0524
20547SOL    HW263083   6.993   2.538  12.157  0.1501  1.3138 -1.7821
20548SOL     OW63084   6.579   2.369   0.113  0.1390  0.1219  0.7307
20548SOL    HW163085   6.641   2.301   0.138 -0.1560 -0.0213  1.0785
20548SOL    HW263086   6.495   2.339   0.146 -0.9613 -1.6507 -3.1021
20549SOL     OW63087   7.322   0.340  10.958 -0.1334  0.2576  0.2403
20549SOL    HW163088   7.261   0.413  10.969 -0.2961 -0.0273  1.3854
20549SOL    HW263089   7.407   0.382  10.943 -0.3150  0.6799  0.3766
20550SOL     OW63090   5.471   2.932   0.624  0.6711 -0.3255 -0.0519
20550SOL    HW163091   5.466   3.028   0.622  0.2330 -0.3622 -0.9134
20550SOL    HW263092   5.523   2.913   0.702 -0.2419  0.5760  0.8101
20551SOL     OW63093   6.015   2.218   0.475  0.4006 -0.5972 -0.1097
20551SOL    HW163094   6.107   2.230   0.498  0.1822  2.8401 -0.4638
20551SOL    HW263095   6.006   2.261   0.389 -1.8800  1.1800  0.9062
20552SOL     OW63096   6.954   2.534  11.771 -0.0922 -0.1278 -0.6456
20552SOL    HW163097   6.952   2.630  11.769  2.5542  0.0268 -0.2037
20552SOL    HW263098   6.884   2.510  11.831 -1.3341  1.4671 -1.3752
20553SOL     OW63099   0.348   1.927   0.302 -0.0745 -0.2974  0.0909
20553SOL    HW163100   0.300   1.948   0.222 -2.0588 -0.7973  1.0944
20553SOL    HW263101   0.315   1.989   0.367  0.9846 -0.3586  0.7151
20554SOL     OW63102   6.156   3.906  11.152  0.0745  0.0715  0.1864
20554SOL    HW163103   6.229   3.924  11.093  0.0924  3.2879  0.9981
20554SOL    HW263104   6.119   3.823  11.120  1.4920  0.4521 -2.7999
20555SOL     OW63105   5.384   3.741  12.323  0.2852 -0.0766  0.5593
20555SOL    HW163106   5.414   3.653  12.300 -0.7793 -0.1584 -0.6639
20555SOL    HW263107   5.391   3.791  12.242 -1.2857  0.3186  0.6294
20556SOL     OW63108   6.918   1.817  12.199  0.0042 -0.5694 -0.2031
20556SOL    HW163109   6.880   1.901  12.225 -1.0507 -1.1219  0.1013
20556SOL    HW263110   6.866   1.788  12.125 -1.9458 -2.5414  1.7819
20557SOL     OW63111   5.553   2.186   9.628 -0.0292 -0.1701  0.2314
20557SOL    HW163112   5.605   2.106   9.628  0.9634  0.4497  1.3292
20557SOL    HW263113   5.476   2.164   9.576  1.0183 -1.3051 -0.9202
20558SOL     OW63114   0.194   4.298  11.456 -0.0294 -0.0020 -0.0448
20558SOL    HW163115   0.259   4.354  11.499 -0.8928  1.4087 -0.5320
20558SOL    HW263116   0.226   4.209  11.471  1.7105  0.6289  0.2125
20559SOL     OW63117   2.263   2.527   0.078  0.2900 -0.5926 -0.0064
20559SOL    HW163118   2.203   2.546   0.006 -1.1411 -1.8285  0.8057
20559SOL    HW263119   2.233   2.443   0.113  2.4304 -1.1985  0.5325
20560SOL     OW63120   5.145   3.195  11.609 -0.3449 -0.1403  0.2627
20560SOL    HW163121   5.131   3.199  11.704 -1.5416 -1.9998  0.2211
20560SOL    HW263122   5.065   3.155  11.575 -0.4666  1.6219 -1.7116
20561SOL     OW63123   5.556   3.585   0.308  0.2183  0.1977  0.1716
20561SOL    HW163124   5.475   3.622   0.343 -1.1486  0.8365 -3.2501
20561SOL    HW263125   5.540   3.491   0.303 -0.8613  0.4245 -1.5253
20562SOL     OW63126   6.515   1.808  11.712 -0.0291 -0.3710  0.2022
20562SOL    HW163127   6.545   1.729  11.668 -0.4566 -0.4525  0.0544
20562SOL    HW263128   6.590   1.867  11.709 -0.7111  0.4962 -2.6262
20563SOL     OW63129   4.254   2.816   1.375 -0.1865  0.0592 -0.5580
20563SOL    HW163130   4.213   2.732   1.396  0.7378 -0.2983 -0.1255
20563SOL    HW263131   4.237   2.871   1.453  0.5442 -0.2444 -0.1747
20564SOL     OW63132   6.175   3.380   0.031  0.2464  0.2304 -0.3266
20564SOL    HW163133   6.217   3.413  -0.049 -2.7312 -1.5191 -2.8501
20564SOL    HW263134   6.099   3.437   0.043 -0.2879 -0.5866  0.2147
20565SOL     OW63135   7.214   1.711  11.751 -0.6879  0.3904  0.1181
20565SOL    HW163136   7.205   1.635  11.808  0.7367 -0.5484 -0.8386
20565SOL    HW263137   7.126   1.729  11.719 -0.9824 -1.1196  0.0429
20566SOL     OW63138   4.378   2.357  12.299  0.1558 -0.3410 -0.2764
20566SOL    HW163139   4.384   2.319  12.211 -3.0851 -1.4377 -0.1734
20566SOL    HW263140   4.361   2.282  12.356  1.7335  0.4170  1.2625
20567SOL     OW63141   6.264   1.449  12.025  0.4397 -0.0212  0.5697
20567SOL    HW163142   6.272   1.539  12.056  1.1636  0.1013  0.0495
20567SOL    HW263143   6.192   1.450  11.963  0.3930  0.1770  0.6277
20568SOL     OW63144   7.264   2.163   0.126  0.4364  0.7209 -0.7689
20568SOL    HW163145   7.334   2.191   0.184  0.2108  0.7256 -0.4943
20568SOL    HW263146   7.262   2.228   0.056  0.6653  0.7520 -0.7466
20569SOL     OW63147   0.284   2.639  12.472  0.0210 -0.0320  0.0715
20569SOL    HW163148   0.324   2.564  12.516 -0.8237  0.1796  1.2714
20569SOL    HW263149   0.212   2.665  12.530  1.2962  2.7561  0.5738
20570SOL     OW63150   5.426   2.087  11.724  0.4749  0.0001 -0.2813
20570SOL    HW163151   5.435   1.992  11.735  0.5456 -0.0463 -0.7593
20570SOL    HW263152   5.482   2.109  11.650  1.7371  0.6576  0.8164
20571SOL     OW63153   0.022   1.850  11.582  0.1939 -0.8458  0.8982
20571SOL    HW163154  -0.032   1.828  11.659 -0.6706  0.1725  0.6017
20571SOL    HW263155   0.037   1.944  11.589 -1.5804 -0.3287 -1.1806
20572SOL     OW63156   0.043   2.602  11.707  0.0744  0.2935  0.0060
20572SOL    HW163157   0.078   2.574  11.792 -0.3649  1.4582  0.5829
20572SOL    HW263158  -0.013   2.529  11.680 -1.6113  0.8033  1.8187
20573SOL     OW63159   7.026   1.910  11.399 -0.3213 -0.6416  0.5841
20573SOL    HW163160   7.079   1.929  11.322  0.4291 -0.9395  1.0149
20573SOL    HW263161   6.938   1.939  11.376 -0.0493 -0.4921 -0.2854
20574SOL     OW63162   7.919   3.136  12.127  0.4280 -0.3432 -0.2079
20574SOL    HW163163   7.951   3.117  12.039  1.1648 -0.3162  0.0460
20574SOL    HW263164   7.996   3.124  12.184  0.4115  1.2870  0.2251
20575SOL     OW63165   6.415   1.391   0.822  0.3040  0.2579  0.4974
20575SOL    HW163166   6.438   1.473   0.865  1.0995  0.4488 -0.2451
20575SOL    HW263167   6.473   1.326   0.861  1.1462  0.4631 -0.3592
20576SOL     OW63168   5.626   0.646  10.803  0.3009  0.1671 -0.0520
20576SOL    HW163169   5.627   0.732  10.845  1.9437 -0.8080  2.0949
20576SOL    HW263170   5.702   0.648  10.744 -0.6017  0.7012 -1.2330
20577SOL     OW63171   6.943   3.077   0.281  0.0087 -0.5709 -0.4950
20577SOL    HW163172   6.973   3.144   0.342  0.2263 -0.8848 -0.2541
20577SOL    HW263173   6.909   3.007   0.336 -1.4534 -0.1065 -0.7726
20578SOL     OW63174   6.227   0.975   0.817 -0.6051 -0.3927  0.4297
20578SOL    HW163175   6.241   0.884   0.791 -0.5765  0.0876 -1.3942
20578SOL    HW263176   6.206   1.020   0.735  0.8876  1.5304  1.0199
20579SOL     OW63177   5.826   2.920  11.219 -0.5209 -0.8013 -0.0844
20579SOL    HW163178   5.813   2.888  11.130 -0.6826  1.3654 -0.8973
20579SOL    HW263179   5.745   2.899  11.265 -2.2727  1.8368 -1.7071
20580SOL     OW63180   1.182   2.633   0.415  0.1452  0.4610  0.1393
20580SOL    HW163181   1.196   2.661   0.506  0.8487 -0.3246  0.2866
20580SOL    HW263182   1.100   2.674   0.390  0.6309  1.8183  0.6734
20581SOL     OW63183   6.488   2.334  11.339 -0.2227 -0.8456 -0.2571
20581SOL    HW163184   6.545   2.395  11.292 -1.6742  0.0222 -0.9937
20581SOL    HW263185   6.468   2.265  11.275 -1.0144 -0.4532 -0.4484
20582SOL     OW63186   6.102   1.817  12.028 -0.5047 -0.1012  0.1554
20582SOL    HW163187   6.125   1.817  12.121 -2.4178 -2.9282  0.7587
20582SOL    HW263188   6.183   1.793  11.983  0.3290  0.8453  1.0779
20583SOL     OW63189   7.916   4.884  12.079  0.7128  0.2103 -0.3147
20583SOL    HW163190   7.914   4.964  12.132  0.0037  0.6274 -0.9376
20583SOL    HW263191   7.909   4.813  12.142  2.7702  0.5547  0.3722
20584SOL     OW63192   6.534   1.570  12.119 -0.6193 -0.4294 -0.1051
20584SOL    HW163193   6.499   1.586  12.206 -0.4085 -1.2960  0.1573
20584SOL    HW263194   6.605   1.507  12.133 -0.0513  0.0359 -0.8118
20585SOL     OW63195   5.724   2.598  10.541 -0.1382 -0.0723 -0.1098
20585SOL    HW163196   5.704   2.619  10.450 -0.6406 -0.0319  0.0044
20585SOL    HW263197   5.639   2.579  10.580 -0.1498  1.5365  0.7544
20586SOL     OW63198   7.381   2.097   1.522 -0.2972 -0.0556 -0.1662
20586SOL    HW163199   7.389   2.192   1.510 -1.1100 -0.0771 -0.9561
20586SOL    HW263200   7.444   2.077   1.591  0.3945  0.9490 -0.4765
20587SOL     OW63201   5.644   4.261  11.864 -0.0492 -0.2464  0.0440
20587SOL    HW163202   5.735   4.254  11.835  0.2219 -1.0373  1.0430
20587SOL    HW263203   5.636   4.349  11.899  0.7367 -0.6182  1.2231
20588SOL     OW63204   5.222   2.590  10.277  0.2436 -0.1556 -0.3213
20588SOL    HW163205   5.175   2.518  10.234  0.2604  0.5529 -1.5649
20588SOL    HW263206   5.296   2.548  10.320 -0.6421 -1.0896  0.3558
20589SOL     OW63207   5.355   1.469  12.091 -0.4868 -0.5686  0.0365
20589SOL    HW163208   5.332   1.380  12.116  0.7393 -1.7546 -2.6536
20589SOL    HW263209   5.436   1.488  12.140 -0.9364 -0.7679  0.8759
20590SOL     OW63210   7.448   2.299  12.297  0.2567  0.0307 -0.1361
20590SOL    HW163211   7.479   2.211  12.275  0.7783  0.2591 -0.3344
20590SOL    HW263212   7.527   2.346  12.323 -0.0180  0.4452 -0.0456
20591SOL     OW63213   6.265   2.588  12.224  0.2628  0.1560  0.0776
20591SOL    HW163214   6.353   2.563  12.252  0.3421  0.1074 -0.2143
20591SOL    HW263215   6.271   2.682  12.206  0.7207 -0.1649 -1.6595
20592SOL     OW63216   6.143   3.619  11.916 -0.0158  0.3001 -0.0715
20592SOL    HW163217   6.053   3.622  11.883 -0.4146 -3.0933  0.3066
20592SOL    HW263218   6.144   3.545  11.976  2.8985  0.6472  0.4597
20593SOL     OW63219   6.335   0.944  10.406 -0.1279  0.4286 -0.2168
20593SOL    HW163220   6.371   0.856  10.410  0.5086  0.5556 -1.9537
20593SOL    HW263221   6.328   0.972  10.497  0.5161 -1.0643  0.3219
20594SOL     OW63222   6.915   3.332  11.599  0.2285  0.2327 -0.0359
20594SOL    HW163223   6.838   3.361  11.646  0.5053 -0.2586  0.7393
20594SOL    HW263224   6.881   3.280  11.526 -0.1709  0.0717  0.2657
20595SOL     OW63225   7.488   1.180  11.467 -0.1073 -1.2740  0.3865
20595SOL    HW163226   7.413   1.188  11.526 -0.9620 -0.6014 -0.7641
20595SOL    HW263227   7.476   1.097  11.423  1.2722 -2.4638  2.0965
20596SOL     OW63228   7.741   1.996   0.733  0.4827  0.2406  0.0354
20596SOL    HW163229   7.706   2.072   0.687  2.8814  0.5607 -1.4576
20596SOL    HW263230   7.797   2.034   0.801 -0.5511 -0.2398  1.1851
20597SOL     OW63231   0.768   3.309   0.028 -0.0743  0.0901 -0.1925
20597SOL    HW163232   0.722   3.339   0.107  0.4112  0.2499  0.0306
20597SOL    HW263233   0.701   3.313  -0.041  0.0232  1.9160 -0.2235
20598SOL     OW63234   5.482   1.220  10.883 -0.0570 -0.0447  0.1344
20598SOL    HW163235   5.471   1.151  10.818  1.7495 -0.4812  0.2297
20598SOL    HW263236   5.573   1.212  10.912  0.0231  1.9688  0.6206
20599SOL     OW63237   7.566   2.385  10.882  0.0287 -0.3080  0.8148
20599SOL    HW163238   7.566   2.370  10.787  1.2193  1.4968  0.4637
20599SOL    HW263239   7.659   2.386  10.906 -0.1777  0.8631  1.6817
20600SOL     OW63240   0.179   1.734   9.583  0.2275 -0.5211  0.3442
20600SOL    HW163241   0.274   1.742   9.585  0.3463 -1.9125  1.0223
20600SOL    HW263242   0.150   1.811   9.533  1.6710  0.0869  0.3944
20601SOL     OW63243   6.787   2.585   0.032  0.2520 -0.3766  0.7078
20601SOL    HW163244   6.725   2.606   0.102 -0.0774  0.7708  0.0995
20601SOL    HW263245   6.872   2.580   0.076 -0.1355 -0.9522  1.3894
20602SOL     OW63246   4.652   0.951  11.873 -0.4008 -0.0302 -0.1108
20602SOL    HW163247   4.591   0.919  11.807 -1.9121  0.4319  0.9998
20602SOL    HW263248   4.606   0.940  11.956  1.0467  0.3182  0.7795
20603SOL     OW63249   5.973   1.331  11.487  0.0975 -0.2517  0.0071
20603SOL    HW163250   5.898   1.385  11.463 -0.5887 -0.3896  1.6901
20603SOL    HW263251   5.936   1.244  11.501  0.5022 -0.2671  1.0949
20604SOL     OW63252   0.744   2.846  11.898 -0.2336  0.5157 -0.3718
20604SOL    HW163253   0.821   2.838  11.955  0.1972 -0.6259 -1.0740
20604SOL    HW263254   0.731   2.758  11.863 -4.3740 -0.5521  2.8989
20605SOL     OW63255   6.966   0.823  11.979  0.3717  0.0186 -0.1576
20605SOL    HW163256   6.913   0.891  12.020 -1.0345 -0.5287 -1.0199
20605SOL    HW263257   7.041   0.812  12.038 -0.7172  0.4568  1.3586
20606SOL     OW63258   0.295   2.184  10.840  0.3105 -0.3145  0.4480
20606SOL    HW163259   0.209   2.162  10.804  0.6157 -0.7897 -0.0117
20606SOL    HW263260   0.297   2.279  10.841 -0.2107 -0.3004  0.4331
20607SOL     OW63261   4.581   4.572  11.525  0.4889  0.4732  0.4544
20607SOL    HW163262   4.639   4.630  11.477  1.7198  1.0296  2.4963
20607SOL    HW263263   4.516   4.630  11.564 -0.8176 -0.0275 -0.8614
20608SOL     OW63264   1.354   3.128   0.571  0.5824 -0.4297  0.0955
20608SOL    HW163265   1.442   3.091   0.577  1.1977  0.9151 -0.2602
20608SOL    HW263266   1.309   3.094   0.648  1.7763 -0.2325  0.9160
20609SOL     OW63267   6.629   2.614  11.637 -0.2316  0.0535 -0.0801
20609SOL    HW163268   6.549   2.564  11.630 -0.8751  1.2748 -3.0220
20609SOL    HW263269   6.699   2.553  11.615 -0.3825 -0.7696  1.5655
20610SOL     OW63270   6.525   1.244  10.260 -0.1196  0.5546  0.1497
20610SOL    HW163271   6.466   1.312  10.230 -1.4384 -1.4673 -2.2457
20610SOL    HW263272   6.573   1.216  10.182  0.2892 -1.3038  0.9858
20611SOL     OW63273   5.879   2.873   0.076  0.0186  0.3943  0.0304
20611SOL    HW163274   5.947   2.841   0.135 -0.6561 -0.7607  0.2214
20611SOL    HW263275   5.921   2.943   0.026  1.0726  0.2996  0.7606
20612SOL     OW63276   0.348   3.930  11.846  0.2523  0.2486 -0.7599
20612SOL    HW163277   0.350   4.007  11.904 -1.0332  1.6370 -2.4497
20612SOL    HW263278   0.264   3.889  11.863  0.6717 -0.4428 -0.3154
20613SOL     OW63279   6.993   3.749  12.185  0.4372  0.0729  0.0161
20613SOL    HW163280   6.919   3.689  12.195  0.7238 -0.6125 -1.5868
20613SOL    HW263281   7.070   3.691  12.188  0.6735  0.1528 -2.6332
20614SOL     OW63282   5.684   2.975   0.819 -0.5604 -0.2644 -0.0130
20614SOL    HW163283   5.684   3.062   0.859  1.3556 -0.0675 -0.3350
20614SOL    HW263284   5.759   2.976   0.759 -0.6153 -2.0638 -0.1768
20615SOL     OW63285   6.578   1.683   1.355 -0.1093 -0.4594 -0.0917
20615SOL    HW163286   6.493   1.642   1.337 -0.1357 -0.2951 -0.3500
20615SOL    HW263287   6.640   1.632   1.302 -0.1796 -0.0028 -0.6214
20616SOL     OW63288   5.365   3.250  11.432  0.1874 -0.1673 -0.1614
20616SOL    HW163289   5.359   3.237  11.337  0.6126 -1.4648 -0.0306
20616SOL    HW263290   5.280   3.222  11.466  0.2800 -0.3734 -0.0980
20617SOL     OW63291   0.327   2.590  11.123  0.2324  0.6409  0.8002
20617SOL    HW163292   0.238   2.595  11.157  0.2628 -0.2874  1.0524
20617SOL    HW263293   0.378   2.557  11.197  0.6861  0.6266  0.4840
20618SOL     OW63294   7.298   2.992  11.577  0.8485  0.0701 -0.2384
20618SOL    HW163295   7.226   3.025  11.630  0.8826  2.5533 -1.6038
20618SOL    HW263296   7.330   2.915  11.625 -1.4083  0.0588  1.3990
20619SOL     OW63297   7.547   3.838  12.262  0.3809 -0.3103  0.9602
20619SOL    HW163298   7.563   3.865  12.171  0.8762  0.1363  1.1717
20619SOL    HW263299   7.452   3.825  12.267  0.5416 -2.3105 -0.1537
20620SOL     OW63300   5.751   3.270   0.082 -0.3823 -0.0532  0.2367
20620SOL    HW163301   5.722   3.187   0.120 -1.8830  0.5050  0.3842
20620SOL    HW263302   5.774   3.248  -0.008 -1.0862 -0.5915  0.1748
20621SOL     OW63303   6.287   3.569  12.347 -0.3797 -0.0430  0.2653
20621SOL    HW163304   6.359   3.589  12.287  0.7158 -1.3113  1.1149
20621SOL    HW263305   6.258   3.655  12.379  2.0282  0.4459  1.3505
20622SOL     OW63306   6.529   3.015  11.329  0.2603  0.5069  0.4021
20622SOL    HW163307   6.460   3.045  11.270  0.5639 -0.1102 -0.2972
20622SOL    HW263308   6.532   2.920  11.315  0.7853  0.4417  0.9197
20623SOL     OW63309   7.057   3.154  11.783  0.1153  0.4332 -0.6950
20623SOL    HW163310   7.138   3.205  11.785  1.0351 -0.9604  0.4855
20623SOL    HW263311   7.000   3.200  11.722  1.9080  1.3083 -1.7931
20624SOL     OW63312   6.336   2.707  11.464  0.2108 -0.3617  0.5621
20624SOL    HW163313   6.383   2.718  11.381 -0.9766  0.3053 -0.0525
20624SOL    HW263314   6.369   2.777  11.520  0.2825 -0.1797  0.2948
20625SOL     OW63315   5.949   1.015  11.981  0.3862 -0.2732  0.4059
20625SOL    HW163316   5.863   1.044  11.950 -0.3093 -0.5515  1.9717
20625SOL    HW263317   6.011   1.072  11.936 -0.7921  1.9749  1.4958
20626SOL     OW63318   5.592   2.201  12.357  0.0264 -0.0229  0.7379
20626SOL    HW163319   5.600   2.168  12.446 -1.1010 -0.5966  0.6426
20626SOL    HW263320   5.503   2.177  12.330  0.2796  0.3177 -0.4674
20627SOL     OW63321   4.220   1.880  12.387 -0.1145 -0.5983 -0.2331
20627SOL    HW163322   4.144   1.844  12.341 -0.2300 -1.0546  0.2984
20627SOL    HW263323   4.195   1.878  12.480 -0.2569  1.2031 -0.1921
20628SOL     OW63324   6.156   2.034  10.434 -0.1335  0.3102 -0.2806
20628SOL    HW163325   6.217   2.108  10.438 -0.9094  1.0917 -1.8667
20628SOL    HW263326   6.074   2.072  10.401 -0.5700 -1.2386 -1.1055
20629SOL     OW63327   2.048   3.129  11.564  0.5502  0.6660  0.6858
20629SOL    HW163328   2.057   3.064  11.495 -0.2767  2.1629 -0.9230
20629SOL    HW263329   1.983   3.092  11.624  0.2117 -0.0560 -0.1064
20630SOL     OW63330   7.147   1.305  11.508  0.0264  0.3570  0.2283
20630SOL    HW163331   7.078   1.254  11.551 -0.3378  0.8685  0.2641
20630SOL    HW263332   7.228   1.273  11.546  0.2277 -3.1906 -2.6939
20631SOL     OW63333   0.828   1.955  11.759 -0.1589  0.2082 -0.1675
20631SOL    HW163334   0.806   1.862  11.756 -1.2807  0.4784 -1.2081
20631SOL    HW263335   0.796   1.985  11.845 -0.2453 -0.2617 -0.0367
20632SOL     OW63336   7.314   3.185  10.850 -0.0132  0.0259  0.0645
20632SOL    HW163337   7.333   3.111  10.792  0.6606  0.5708 -0.4367
20632SOL    HW263338   7.236   3.158  10.899 -0.5799 -0.4724 -1.0652
20633SOL     OW63339   5.773   2.670  12.269 -0.2201  0.5051  0.1150
20633SOL    HW163340   5.739   2.723  12.341  1.6106 -1.0216  2.2328
20633SOL    HW263341   5.734   2.584  12.282 -0.3373  0.3595 -1.1069
20634SOL     OW63342   5.777   1.676   0.713  0.3126 -0.0482  0.4343
20634SOL    HW163343   5.709   1.627   0.759 -0.1623  1.0986  0.9845
20634SOL    HW263344   5.738   1.698   0.628  1.0477 -1.8221 -0.4262
20635SOL     OW63345   7.344   1.985   0.443 -0.3480  0.1838 -0.6281
20635SOL    HW163346   7.408   1.928   0.486 -1.9565 -1.0892  0.1803
20635SOL    HW263347   7.277   1.926   0.409 -1.4882  1.4990 -0.7748
20636SOL     OW63348   0.591   1.442   0.577 -0.0130  0.3650 -0.4689
20636SOL    HW163349   0.673   1.449   0.528  1.2953 -0.7832  1.4026
20636SOL    HW263350   0.587   1.522   0.629  0.7385 -0.2620  0.5758
20637SOL     OW63351   6.495   2.372  11.602 -0.2917  0.0419 -0.4986
20637SOL    HW163352   6.579   2.345  11.640  0.3482  0.1012 -1.7885
20637SOL    HW263353   6.504   2.352  11.509 -1.4872  0.6244 -0.7606
20638SOL     OW63354   6.006   3.674  11.057 -0.0729 -0.1808 -0.5333
20638SOL    HW163355   6.024   3.581  11.076  1.4074  0.0592 -0.6362
20638SOL    HW263356   5.975   3.674  10.966 -4.3616 -1.0006  0.6872
20639SOL     OW63357   5.896   4.061  12.035  0.1641  0.3453 -0.6984
20639SOL    HW163358   5.918   4.096  11.949 -0.9156 -0.2239 -1.2237
20639SOL    HW263359   5.942   4.117  12.097 -0.8437  2.1860 -1.5427
20640SOL     OW63360   4.585   3.152  12.238  0.0209  0.1641  0.1729
20640SOL    HW163361   4.606   3.096  12.163 -0.0112  1.0081 -0.4894
20640SOL    HW263362   4.510   3.204  12.209  1.3209  2.0156 -0.0280
20641SOL     OW63363   4.015   2.134   1.485  0.0248 -0.0466  0.0811
20641SOL    HW163364   3.993   2.071   1.554 -0.1921  0.0111  0.0672
20641SOL    HW263365   4.110   2.131   1.479  0.0434 -0.0677  0.3692
20642SOL     OW63366   7.166   1.262  11.117 -0.2764  0.2144  0.8565
20642SOL    HW163367   7.168   1.275  11.022 -1.3390  0.3156  0.8266
20642SOL    HW263368   7.236   1.318  11.151 -0.2991  0.6678  0.1758
20643SOL     OW63369   7.110   2.034  10.709 -0.2184 -0.0125 -0.3051
20643SOL    HW163370   7.162   2.075  10.778 -0.3028  0.0301 -0.2650
20643SOL    HW263371   7.168   1.970  10.669 -0.7912 -1.5564  1.1838
20644SOL     OW63372   5.004   3.433  11.913 -0.0385  0.7601  0.6550
20644SOL    HW163373   5.008   3.519  11.871  2.1971  0.5443  0.2951
20644SOL    HW263374   5.094   3.415  11.940 -0.1435 -1.9968 -0.3906
20645SOL     OW63375   5.539   0.321   1.268 -0.0485  0.2721  0.2869
20645SOL    HW163376   5.547   0.416   1.283  2.3546  0.2574 -0.5213
20645SOL    HW263377   5.592   0.282   1.338  1.2358 -0.3072 -0.9633
20646SOL     OW63378   6.726   1.972  11.955 -0.4974 -0.3876 -0.4267
20646SOL    HW163379   6.776   2.053  11.966  1.6021 -1.5966 -0.4637
20646SOL    HW263380   6.720   1.960  11.861 -1.0063 -0.1792 -0.4237
20647SOL     OW63381   5.549   3.945   1.330  0.0055  0.3489 -0.0912
20647SOL    HW163382   5.582   3.871   1.381 -2.2440 -1.1170 -0.6117
20647SOL    HW263383   5.621   3.969   1.272  0.9092 -1.2097  0.3313
20648SOL     OW63384   0.102   2.126   0.966 -0.1668 -0.1335  0.0810
20648SOL    HW163385   0.196   2.111   0.965  0.1217  1.4505 -1.3437
20648SOL    HW263386   0.081   2.160   0.879 -1.9005  0.4147  0.6540
20649SOL     OW63387   0.543   2.436   1.627  0.2528 -0.1249 -0.2198
20649SOL    HW163388   0.601   2.372   1.586  0.9604  0.4846 -0.1728
20649SOL    HW263389   0.456   2.396   1.621  0.5521 -0.6770 -1.0344
20650SOL     OW63390   7.498   0.831  11.746 -0.6075  0.3753 -0.6655
20650SOL    HW163391   7.587   0.807  11.771 -0.8267  0.0038 -0.2210
20650SOL    HW263392   7.490   0.924  11.768 -0.3659  0.3801 -0.6011
20651SOL     OW63393   6.732   1.636  11.433 -0.1311 -0.1154 -0.1653
20651SOL    HW163394   6.814   1.592  11.459 -0.2674 -0.4118 -0.2314
20651SOL    HW263395   6.666   1.600  11.492 -0.0954  0.6328  0.3460
20652SOL     OW63396   0.658   2.969  11.662 -0.3525  0.1011 -0.3795
20652SOL    HW163397   0.691   2.928  11.742 -0.8227 -1.5493 -1.0022
20652SOL    HW263398   0.568   2.938  11.653 -0.7221  1.2354 -0.9248
20653SOL     OW63399   6.034   2.904   1.208 -0.1535  0.2405  0.7780
20653SOL    HW163400   5.965   2.841   1.184  0.8829 -0.0722 -1.6167
20653SOL    HW263401   6.115   2.854   1.203  0.3961  0.8567  2.6271
20654SOL     OW63402   6.318   2.695   0.650  0.4218  0.4130  0.1777
20654SOL    HW163403   6.379   2.758   0.613  0.0844  1.2873  1.0589
20654SOL    HW263404   6.373   2.621   0.677  0.6977 -0.1356 -1.7617
20655SOL     OW63405   6.473   2.561  10.676  0.0889 -0.3162  0.5443
20655SOL    HW163406   6.556   2.517  10.660  0.4927  0.5763  0.1155
20655SOL    HW263407   6.495   2.635  10.733  0.0599  1.3826 -1.5134
20656SOL     OW63408   7.499   2.824   1.500  0.0511  0.3431 -0.0729
20656SOL    HW163409   7.495   2.842   1.594  1.8768 -0.1964  0.1642
20656SOL    HW263410   7.531   2.734   1.495  1.3855  0.8333 -1.1726
20657SOL     OW63411   1.742   2.037  12.051 -0.6644  0.3891  0.5923
20657SOL    HW163412   1.724   2.083  11.970 -2.8650  1.4630  1.5825
20657SOL    HW263413   1.668   1.977  12.061 -0.5498  0.4215  1.8657
20658SOL     OW63414   6.599   3.151  12.303  0.7716  0.1970 -0.6889
20658SOL    HW163415   6.691   3.176  12.295  0.8563  0.0340 -0.2413
20658SOL    HW263416   6.576   3.169  12.394  0.8036 -1.2337 -0.3699
20659SOL     OW63417   7.787   3.581  10.318 -0.7969 -0.3664  0.0721
20659SOL    HW163418   7.735   3.651  10.359 -0.7870 -0.3453  0.0486
20659SOL    HW263419   7.777   3.506  10.377  0.0293 -0.0481  0.6461
20660SOL     OW63420   5.651   2.403  11.077 -0.1426  0.2902 -0.0680
20660SOL    HW163421   5.570   2.442  11.044 -0.2098  0.1354 -0.0892
20660SOL    HW263422   5.701   2.381  10.999 -0.6945 -0.9114 -0.1118
20661SOL     OW63423   5.571   2.894  11.350 -0.5391  0.0681  0.3515
20661SOL    HW163424   5.509   2.967  11.353 -0.0232  0.5565 -0.4371
20661SOL    HW263425   5.534   2.834  11.286 -0.4511  0.1222  0.2498
20662SOL     OW63426   0.212   1.650  12.214  0.3275  0.3453  0.0216
20662SOL    HW163427   0.292   1.610  12.179  0.4986  0.6950  0.0084
20662SOL    HW263428   0.141   1.594  12.183  0.4451  0.7895 -1.1033
20663SOL     OW63429   6.923   1.378  10.432  0.0306  0.1386  0.3719
20663SOL    HW163430   6.878   1.317  10.374  0.3436 -0.6604  0.9354
20663SOL    HW263431   6.884   1.463  10.414 -0.0808 -0.1411 -0.7844
20664SOL     OW63432   7.879   1.726   9.703  0.3959 -0.3513 -1.2515
20664SOL    HW163433   7.818   1.701   9.634  0.8190 -0.5019 -1.5779
20664SOL    HW263434   7.843   1.807   9.739 -0.2771 -0.7174 -1.0783
20665SOL     OW63435   5.521   3.050  12.253 -0.0888  0.0278  0.3631
20665SOL    HW163436   5.467   3.126  12.230 -0.1060  0.3423  1.3800
20665SOL    HW263437   5.610   3.085  12.259 -0.1046 -0.0069  0.8872
20666SOL     OW63438   7.163   2.413   0.025 -0.6413 -0.2792 -0.5144
20666SOL    HW163439   7.140   2.487   0.081 -1.2450 -0.6117 -0.3019
20666SOL    HW263440   7.183   2.452  -0.060 -1.6239  0.0883 -0.5963
20667SOL     OW63441   5.353   3.950  10.777 -0.1640 -0.1502 -0.0810
20667SOL    HW163442   5.388   3.861  10.781  0.2707  0.0179 -0.0937
20667SOL    HW263443   5.415   4.003  10.827 -0.8405  0.0176  0.5934
20668SOL     OW63444   6.365   1.382  10.042  0.7437 -0.0938 -0.1370
20668SOL    HW163445   6.359   1.396   9.948 -1.3885  3.8037  0.3653
20668SOL    HW263446   6.443   1.431  10.069 -0.1690  1.1246  0.3738
20669SOL     OW63447   6.274   4.079  10.550  0.3589 -0.1505  0.4103
20669SOL    HW163448   6.213   4.101  10.621 -0.4015 -1.2965  0.1353
20669SOL    HW263449   6.219   4.038  10.483  1.4337 -1.1720  0.1366
20670SOL     OW63450   0.339   2.825  10.604  0.4142 -0.2436  0.0622
20670SOL    HW163451   0.396   2.897  10.629  0.5630 -0.3928  0.1564
20670SOL    HW263452   0.392   2.772  10.544 -0.0181  0.2339 -0.7521
20671SOL     OW63453   7.301   4.328  12.106  0.1567  0.0324 -0.4001
20671SOL    HW163454   7.334   4.282  12.029  0.1635  1.1687 -1.0960
20671SOL    HW263455   7.206   4.325  12.098  0.1602  0.4046 -0.6200
20672SOL     OW63456   7.783   3.934   0.779  0.1216  0.6284 -0.3042
20672SOL    HW163457   7.755   3.845   0.759 -1.7212  1.3021 -0.9626
20672SOL    HW263458   7.752   3.986   0.706  1.8863  1.7282 -0.3277
20673SOL     OW63459   0.827   1.542  12.079 -0.2243 -0.1379  0.1577
20673SOL    HW163460   0.775   1.497  12.012  0.2923 -0.9053  0.2535
20673SOL    HW263461   0.917   1.534  12.047  0.2628 -2.1302  1.7905
20674SOL     OW63462   7.943   0.099  11.949  0.5670  0.4793 -0.0625
20674SOL    HW163463   7.920   0.127  11.860  1.9480 -0.4912 -0.7739
20674SOL    HW263464   8.029   0.137  11.964  1.1480 -0.8370  0.1156
20675SOL     OW63465   7.320   1.612   0.219 -0.1654 -0.1998  0.1718
20675SOL    HW163466   7.290   1.702   0.204  1.0152 -0.1856 -2.7870
20675SOL    HW263467   7.254   1.574   0.275 -0.9011  2.3972  1.2346
20676SOL     OW63468   6.331   2.714   0.026 -0.4872  0.1554 -0.5478
20676SOL    HW163469   6.377   2.675  -0.048 -0.8032  1.8845 -1.7193
20676SOL    HW263470   6.401   2.746   0.083 -0.2399  0.0003 -0.7613
20677SOL     OW63471   6.894   4.106  10.648  0.0399  0.3110 -0.0714
20677SOL    HW163472   6.811   4.082  10.688  0.1633 -0.5201 -0.2855
20677SOL    HW263473   6.955   4.038  10.677  0.3365  0.1922 -0.9318
20678SOL     OW63474   7.028   1.726   2.206 -0.0003 -0.5604 -0.4267
20678SOL    HW163475   6.939   1.692   2.207  0.6133 -2.3403  1.8184
20678SOL    HW263476   7.079   1.660   2.159  0.4995 -0.6377  0.2109
20679SOL     OW63477   6.553   2.738  12.185  0.3479  0.2415 -0.2198
20679SOL    HW163478   6.613   2.670  12.213  1.6481  1.1465 -0.7154
20679SOL    HW263479   6.600   2.820  12.201 -1.5589  1.1205  1.3285
20680SOL     OW63480   6.938   3.954   0.190 -0.0118  0.3392  0.6085
20680SOL    HW163481   6.846   3.941   0.210  0.0516  0.4977  1.0159
20680SOL    HW263482   6.941   3.966   0.096 -0.5205  1.2990  0.7048
20681SOL     OW63483   7.602   4.237  11.141 -0.0653  0.1158  0.2518
20681SOL    HW163484   7.693   4.267  11.148 -0.3488  0.8878  0.7771
20681SOL    HW263485   7.583   4.239  11.047  1.3509 -2.8683 -0.2497
20682SOL     OW63486   7.225   1.311   0.938  0.4693  0.2529  0.2147
20682SOL    HW163487   7.228   1.389   0.994  0.3407  1.1270 -0.9615
20682SOL    HW263488   7.211   1.239   0.999  1.2139  1.0711  1.4029
20683SOL     OW63489   7.128   2.850   0.381  0.4324 -0.0910  0.4386
20683SOL    HW163490   7.034   2.840   0.397 -0.1454  2.8164 -0.5708
20683SOL    HW263491   7.134   2.909   0.306  3.0275  1.0595  1.4071
20684SOL     OW63492   7.591   4.542  12.162 -0.0024 -0.0160 -0.3918
20684SOL    HW163493   7.669   4.494  12.189  0.7268  1.7330  0.7426
20684SOL    HW263494   7.597   4.546  12.066  1.4494  0.3262 -0.2952
20685SOL     OW63495   7.764   4.028  10.882  0.1654  0.3789  0.3884
20685SOL    HW163496   7.705   3.972  10.830 -1.4772  1.1034  1.3785
20685SOL    HW263497   7.726   4.116  10.874  0.0305  0.5552  2.5287
20686SOL     OW63498   0.060   0.044   1.007  0.1328  0.0997  0.5228
20686SOL    HW163499   0.027  -0.040   0.975 -1.1514  0.9004 -0.3601
20686SOL    HW263500   0.007   0.109   0.961  1.0440  1.3953  1.2549
20687SOL     OW63501   7.986   0.377   0.224  0.7110  0.0520  0.3102
20687SOL    HW163502   7.986   0.461   0.271 -0.2913 -0.0782  0.5700
20687SOL    HW263503   8.001   0.312   0.292 -2.2440 -0.2688  0.7901
20688SOL     OW63504   6.836   1.556   8.926  0.2676 -0.4374  0.6528
20688SOL    HW163505   6.811   1.648   8.932  1.6987  0.1240 -1.1622
20688SOL    HW263506   6.850   1.541   8.833  0.8780 -2.2818  0.9992
20689SOL     OW63507   7.927   1.195   0.732 -0.1827 -0.0106 -0.1449
20689SOL    HW163508   7.946   1.156   0.817 -1.1125  0.7840  0.4481
20689SOL    HW263509   7.947   1.288   0.743 -2.8594  0.6280  0.1071
20690SOL     OW63510   1.778   1.541  12.420 -0.5671 -0.2901  0.0694
20690SOL    HW163511   1.724   1.588  12.356 -0.8177  1.0027  1.1911
20690SOL    HW263512   1.862   1.530  12.376 -1.6088 -2.1295 -1.6148
20691SOL     OW63513   7.845   0.841  12.128  0.1923  0.0693  0.1965
20691SOL    HW163514   7.793   0.825  12.206  0.3389  2.5162  0.8761
20691SOL    HW263515   7.826   0.931  12.104  2.8994  0.5667 -0.4535
20692SOL     OW63516   6.094   4.251  11.311  0.4022 -0.4083  0.3036
20692SOL    HW163517   6.146   4.235  11.390  0.0999 -2.2960  0.1745
20692SOL    HW263518   6.035   4.175  11.306  0.6442 -0.5064 -1.9130
20693SOL     OW63519   6.012   3.630   0.321  0.3554  0.0053 -0.7599
20693SOL    HW163520   6.000   3.578   0.241  0.0635  1.5730 -1.7893
20693SOL    HW263521   5.930   3.619   0.369  1.0720 -2.1065  0.0874
20694SOL     OW63522   7.678   3.928  11.516  0.1169 -0.0986  0.2787
20694SOL    HW163523   7.753   3.912  11.574  0.4160 -1.9857 -0.5696
20694SOL    HW263524   7.711   3.991  11.451  0.1822  0.9836  1.3153
20695SOL     OW63525   5.726   3.814   2.080 -0.1201 -1.0970  0.0730
20695SOL    HW163526   5.654   3.786   2.022 -1.5355 -0.8800  1.6458
20695SOL    HW263527   5.688   3.885   2.132  0.9961 -1.4717  1.4519
20696SOL     OW63528   5.846   4.320   0.576  0.3212 -0.7175  0.3012
20696SOL    HW163529   5.874   4.406   0.546  0.1946 -1.1111 -1.0187
20696SOL    HW263530   5.852   4.264   0.498  1.6523 -2.2149  1.4254
20697SOL     OW63531   6.962   4.359   1.101  0.3102 -0.1249  0.2368
20697SOL    HW163532   7.013   4.334   1.024  0.1032 -0.6974  0.2794
20697SOL    HW263533   6.879   4.312   1.091  0.9010 -1.5133  1.6194
20698SOL     OW63534   0.517   5.355  11.115 -0.0636  0.3285 -0.0629
20698SOL    HW163535   0.602   5.359  11.160  0.0831  3.9329 -0.3579
20698SOL    HW263536   0.539   5.337  11.024  0.1988 -0.6599  0.1884
20699SOL     OW63537   7.068   3.534   0.730 -0.6116 -0.1298  0.4239
20699SOL    HW163538   7.016   3.467   0.774 -1.1194 -0.1159 -0.1596
20699SOL    HW263539   7.159   3.507   0.745 -0.8025 -2.2929 -1.8351
20700SOL     OW63540   0.135   3.436  11.416  0.3035 -0.1538  0.0425
20700SOL    HW163541   0.040   3.444  11.425  0.5165  1.5940  1.3627
20700SOL    HW263542   0.169   3.457  11.503  1.8667 -2.1705 -0.0199
20701SOL     OW63543   6.723   3.242  11.934 -0.0415  0.2024 -0.6946
20701SOL    HW163544   6.755   3.331  11.948  0.2903 -0.0685  0.3386
20701SOL    HW263545   6.800   3.187  11.946 -0.8816 -0.5028  2.3375
20702SOL     OW63546   6.404   5.026   1.817  0.4962  0.3900  0.2446
20702SOL    HW163547   6.313   5.051   1.826  0.2891  0.5243 -1.8293
20702SOL    HW263548   6.428   4.990   1.903 -2.1059 -1.6067  0.2416
20703SOL     OW63549   0.116   4.986   0.522  0.0229  0.0463 -0.3273
20703SOL    HW163550   0.040   5.026   0.565  0.3509 -0.0132  0.3274
20703SOL    HW263551   0.150   5.055   0.466 -0.9317 -0.1545 -1.1820
20704SOL     OW63552   3.999   7.500   2.530 -0.5940  0.4688 -0.3387
20704SOL    HW163553   3.949   7.450   2.466 -1.3612  1.0679 -0.2168
20704SOL    HW263554   4.078   7.448   2.545 -0.6899  0.0223 -1.3110
20705SOL     OW63555   7.360   4.464  12.322  0.4356 -0.2096 -0.0254
20705SOL    HW163556   7.451   4.474  12.292  0.5612 -0.5108  0.2532
20705SOL    HW263557   7.318   4.415  12.251  0.3165  0.5166 -0.4700
20706SOL     OW63558   5.895   4.957   0.725 -0.0142  0.6431 -0.0915
20706SOL    HW163559   5.945   5.024   0.679 -0.9633  0.0233 -2.1380
20706SOL    HW263560   5.956   4.883   0.733  0.0683  0.6374 -0.6957
20707SOL     OW63561   5.413   4.428   0.536  0.0421  0.4502 -0.1648
20707SOL    HW163562   5.492   4.481   0.526 -0.6038  1.0649 -2.9538
20707SOL    HW263563   5.352   4.464   0.471 -1.3802 -2.0192 -0.3215
20708SOL     OW63564   7.796   5.123  11.729 -0.1994  0.7975 -0.1384
20708SOL    HW163565   7.857   5.050  11.725  0.7791  1.6076 -0.2948
20708SOL    HW263566   7.834   5.183  11.792 -1.1371  1.0580  0.1956
20709SOL     OW63567   6.402   7.599  11.918  0.1547  0.3253 -0.5341
20709SOL    HW163568   6.421   7.678  11.869  0.9521  0.8537  0.5807
20709SOL    HW263569   6.309   7.605  11.939  0.1840  0.9033 -0.5709
20710SOL     OW63570   7.313   3.674  12.098  0.0413  0.6359 -0.6376
20710SOL    HW163571   7.310   3.623  12.179  0.8730 -0.6289 -1.3734
20710SOL    HW263572   7.295   3.764  12.126  1.0775  0.3639  1.0696
20711SOL     OW63573   6.947   2.925  11.256 -0.0457 -0.2222 -0.6576
20711SOL    HW163574   7.013   2.965  11.199 -0.3465  0.1192 -0.7678
20711SOL    HW263575   6.899   2.865  11.200 -1.1592  1.0169 -1.0971
20712SOL     OW63576   4.365   4.203   0.368 -0.0438  0.5435  0.4120
20712SOL    HW163577   4.344   4.294   0.391 -0.6258  0.1774  1.3678
20712SOL    HW263578   4.319   4.188   0.286 -0.2410  1.0006  0.4310
20713SOL     OW63579   6.346   5.365  12.466  0.0873  0.3094 -0.2294
20713SOL    HW163580   6.385   5.288  12.507 -0.7604 -0.2547 -0.4552
20713SOL    HW263581   6.380   5.439  12.517 -0.5428 -0.3367  1.2118
20714SOL     OW63582   6.614   3.867   0.244  0.1926 -0.4488  0.0869
20714SOL    HW163583   6.690   3.829   0.289  0.7535 -2.1620 -2.0775
20714SOL    HW263584   6.553   3.793   0.236 -1.2082  0.6036  0.6958
20715SOL     OW63585   7.077   2.139   1.497  0.6712  0.0756  0.4121
20715SOL    HW163586   7.008   2.073   1.508  1.0422 -0.2105  1.1759
20715SOL    HW263587   7.155   2.096   1.532  0.5996  1.4700  2.4553
20716SOL     OW63588   7.324   4.788   0.015  0.1632 -0.1581  0.4666
20716SOL    HW163589   7.309   4.881   0.032  0.3084  0.2045 -1.1722
20716SOL    HW263590   7.283   4.773  -0.071  0.2171 -1.5909  0.6656
20717SOL     OW63591   7.358   7.037  11.467 -0.1613  0.2279 -0.3563
20717SOL    HW163592   7.417   7.110  11.488  1.8557 -1.0976 -1.1701
20717SOL    HW263593   7.270   7.076  11.471  0.8138  2.6140 -0.4271
20718SOL     OW63594   6.812   4.991  11.700 -0.2045 -0.5673  0.7203
20718SOL    HW163595   6.748   5.018  11.634 -1.0087  0.9827  2.0718
20718SOL    HW263596   6.842   4.905  11.671 -0.6292 -0.0033 -1.5799
20719SOL     OW63597   7.163   5.526   0.923 -0.4974 -0.0008 -0.2204
20719SOL    HW163598   7.206   5.471   0.988 -1.9601 -1.1903 -0.1935
20719SOL    HW263599   7.234   5.561   0.870  0.5168 -4.2852 -2.1348
20720SOL     OW63600   7.982   4.727   0.114  0.0876  0.5405  0.6480
20720SOL    HW163601   7.899   4.767   0.141 -0.1016  1.5220 -1.2089
20720SOL    HW263602   7.983   4.737   0.019  1.8774 -0.3864  0.5368
20721SOL     OW63603   5.464   7.002   1.445  0.3223 -0.6286 -0.3589
20721SOL    HW163604   5.411   7.062   1.497  1.1986  0.4463 -0.6736
20721SOL    HW263605   5.508   6.946   1.510  0.6458  0.0574  0.0230
20722SOL     OW63606   7.686   6.400  11.221 -0.4400  0.5766  0.2121
20722SOL    HW163607   7.661   6.478  11.171  1.3319  1.3468  0.4448
20722SOL    HW263608   7.634   6.406  11.302 -1.6569  0.5245 -0.5412
20723SOL     OW63609   7.010   5.580  12.447  0.6802 -0.2278  0.4952
20723SOL    HW163610   7.087   5.584  12.389 -0.1984  1.3469 -0.6242
20723SOL    HW263611   6.939   5.552  12.389 -0.0054  0.3434  1.0633
20724SOL     OW63612   5.872   5.874   0.876 -0.2662  0.4035 -0.3640
20724SOL    HW163613   5.963   5.893   0.854  0.2259  0.4483  1.5598
20724SOL    HW263614   5.836   5.834   0.796  1.9828 -1.4502 -0.5678
20725SOL     OW63615   6.248   6.125   1.385  0.1045 -0.0787 -0.5648
20725SOL    HW163616   6.297   6.105   1.464  0.8133 -1.8362 -1.3888
20725SOL    HW263617   6.166   6.163   1.416  0.3111 -0.8648  1.0131
20726SOL     OW63618   7.989   2.661   0.134 -0.6242 -0.2980  0.3776
20726SOL    HW163619   7.991   2.672   0.229  2.4075 -0.8871  0.4934
20726SOL    HW263620   7.981   2.566   0.121 -1.4234 -0.1910 -0.0062
20727SOL     OW63621   5.922   4.877   2.105 -0.0883  0.2070  0.1964
20727SOL    HW163622   5.898   4.883   2.012 -0.5000 -0.4600  0.2478
20727SOL    HW263623   5.977   4.953   2.121 -0.9902  0.9844 -0.3004
20728SOL     OW63624   6.721   5.726   2.353 -0.4986  0.2527 -0.2535
20728SOL    HW163625   6.766   5.730   2.437  1.7104  1.5886 -1.4250
20728SOL    HW263626   6.660   5.653   2.362  1.3967 -1.2004  1.6775
20729SOL     OW63627   6.872   5.118   0.180  0.0566  0.1353  0.6947
20729SOL    HW163628   6.830   5.198   0.147  1.1164 -0.0288 -1.2535
20729SOL    HW263629   6.942   5.149   0.237  0.8615  0.6816 -0.5366
20730SOL     OW63630   6.499   6.167   0.576 -0.0754  0.5186  0.0273
20730SOL    HW163631   6.477   6.082   0.616  1.6579 -0.1982 -0.4253
20730SOL    HW263632   6.560   6.207   0.638  0.0657  0.8872 -0.3457
20731SOL     OW63633   6.207   3.432   0.515  0.4382  0.1113  0.1078
20731SOL    HW163634   6.137   3.367   0.517  0.0933  0.4838  0.3973
20731SOL    HW263635   6.176   3.500   0.456  0.7790  0.0355 -0.1628
20732SOL     OW63636   1.310   4.655   0.681  0.6515  0.1607 -0.3696
20732SOL    HW163637   1.366   4.653   0.758  0.9807 -0.7600 -0.6204
20732SOL    HW263638   1.332   4.575   0.633 -1.3018 -0.5396 -0.1757
20733SOL     OW63639   6.978   5.354  12.251  0.4640  0.0721  0.6734
20733SOL    HW163640   6.957   5.304  12.172  0.5223 -0.2411  0.8514
20733SOL    HW263641   6.893   5.372  12.292  0.4112  0.5205  0.3701
20734SOL     OW63642   6.673   4.890   2.286 -0.5447  0.0960  0.4532
20734SOL    HW163643   6.731   4.814   2.285  0.3163  0.7428 -0.3613
20734SOL    HW263644   6.677   4.923   2.376 -0.0661 -0.1771  0.5344
20735SOL     OW63645   7.547   5.309   0.803 -0.2955 -0.1237 -0.7612
20735SOL    HW163646   7.544   5.400   0.776  1.4205  0.5464  1.0104
20735SOL    HW263647   7.494   5.305   0.883  0.5258 -0.3726 -0.2021
20736SOL     OW63648   6.642   5.636  11.518 -0.2524 -0.0427 -0.4245
20736SOL    HW163649   6.692   5.633  11.599 -1.5432  1.7734  0.5083
20736SOL    HW263650   6.709   5.647  11.449  0.8419 -1.4927  0.3585
20737SOL     OW63651   0.636   1.566  12.266 -0.4134  0.2525 -0.6001
20737SOL    HW163652   0.713   1.538  12.218 -1.2140 -1.7921 -0.8043
20737SOL    HW263653   0.563   1.553  12.205 -1.0369  1.2910 -0.1105
20738SOL     OW63654   7.417   4.287   0.920 -0.1212 -0.0371 -0.1544
20738SOL    HW163655   7.396   4.216   0.980  1.7100 -0.5535 -0.0480
20738SOL    HW263656   7.437   4.243   0.837  2.6393  0.0949  0.3304
20739SOL     OW63657   4.873   3.465   0.617  0.0874  0.0805  0.1345
20739SOL    HW163658   4.808   3.502   0.677  0.5352  2.0312 -0.4924
20739SOL    HW263659   4.950   3.451   0.672 -0.4236 -1.0020  0.6061
20740SOL     OW63660   4.742   6.594   2.507 -0.0921  0.0054 -0.1906
20740SOL    HW163661   4.794   6.661   2.463 -2.5633  1.2658 -1.3992
20740SOL    HW263662   4.739   6.521   2.445 -0.2445  0.1551 -0.3584
20741SOL     OW63663   0.074   3.565  11.699  0.2528  0.4320 -0.6380
20741SOL    HW163664   0.070   3.478  11.739 -0.2764 -0.0054 -1.6032
20741SOL    HW263665  -0.018   3.588  11.681  0.3415  1.4186  0.0538
20742SOL     OW63666   0.129   4.315   2.248  0.8930 -0.0959  0.2411
20742SOL    HW163667   0.158   4.343   2.335  1.6769 -0.3536  0.0659
20742SOL    HW263668   0.125   4.220   2.254 -1.7717 -0.0192  0.8336
20743SOL     OW63669   7.402   7.138  12.377  0.3629 -0.1553  0.4630
20743SOL    HW163670   7.417   7.095  12.293  0.3548  0.7359  0.0008
20743SOL    HW263671   7.479   7.115  12.429  2.1604  2.1777 -0.9903
20744SOL     OW63672   6.046   4.646   1.133  0.2312  0.5213  0.5446
20744SOL    HW163673   6.047   4.554   1.106  1.5426  1.0004 -1.2447
20744SOL    HW263674   5.958   4.676   1.110 -0.2329 -0.2840  1.2052
20745SOL     OW63675   7.001   5.147  12.034  0.4778  0.4083  0.1594
20745SOL    HW163676   7.008   5.053  12.021 -2.7945 -0.0889  1.1219
20745SOL    HW263677   7.013   5.185  11.947  2.4949 -0.7651 -0.1313
20746SOL     OW63678   6.853   4.925  12.487  0.6085 -0.2920  0.4346
20746SOL    HW163679   6.849   4.839  12.530 -0.1814  0.3691  1.7491
20746SOL    HW263680   6.874   4.986  12.558 -0.9892  0.8773 -0.0435
20747SOL     OW63681   7.731   7.807  11.614 -0.2315  0.1617 -0.1105
20747SOL    HW163682   7.820   7.832  11.590 -0.2425  1.3712  0.9519
20747SOL    HW263683   7.691   7.779  11.532  1.8377 -2.8633 -0.2339
20748SOL     OW63684   6.034   6.728   1.685  0.0521 -0.3778 -0.3203
20748SOL    HW163685   5.971   6.800   1.680  0.7465  0.2650  0.1374
20748SOL    HW263686   6.015   6.684   1.768  1.2773  0.8473  0.6600
20749SOL     OW63687   6.175   5.051  12.154  0.5097 -0.7604  0.0549
20749SOL    HW163688   6.171   4.990  12.228  0.9452 -1.3532 -0.4047
20749SOL    HW263689   6.253   5.104  12.171  0.3499 -0.5904  0.2572
20750SOL     OW63690   6.528   5.760  12.451 -0.0304  0.1013  0.4052
20750SOL    HW163691   6.501   5.769  12.359 -0.2711  0.0973  0.4775
20750SOL    HW263692   6.492   5.675  12.478 -0.5569  0.4215  0.7146
20751SOL     OW63693   4.765   6.565   0.962  0.6158  0.5325  0.8243
20751SOL    HW163694   4.733   6.585   0.874  0.6889 -2.5920 -0.0454
20751SOL    HW263695   4.708   6.615   1.020 -0.3887  1.5614 -0.9344
20752SOL     OW63696   0.818   5.371   0.070  0.3863  0.5543 -0.0778
20752SOL    HW163697   0.901   5.386   0.115 -0.0725  1.6131  0.4663
20752SOL    HW263698   0.831   5.290   0.020  1.4313  0.2130  0.7217
20753SOL     OW63699   5.052   5.148   2.719  0.3851  0.0742 -0.3330
20753SOL    HW163700   5.017   5.064   2.690 -0.9434  0.7829 -0.8627
20753SOL    HW263701   5.121   5.169   2.655 -1.4549  0.8763 -2.1873
20754SOL     OW63702   6.405   5.208  12.224 -0.2722  0.1171 -0.2194
20754SOL    HW163703   6.399   5.257  12.306 -1.5309 -0.5712  0.1264
20754SOL    HW263704   6.372   5.269  12.157 -4.2405 -0.9206  0.5414
20755SOL     OW63705   5.990   6.260   0.868 -0.6650 -0.7030 -0.0323
20755SOL    HW163706   6.078   6.226   0.859  0.5294  1.9490  0.5012
20755SOL    HW263707   5.943   6.228   0.791  1.3431 -0.5583 -1.3800
20756SOL     OW63708   6.144   3.421  12.123  0.7023  0.0478  0.4138
20756SOL    HW163709   6.175   3.461  12.204  1.0491 -0.6151  0.6163
20756SOL    HW263710   6.049   3.431  12.127  0.6320 -0.7525  1.3365
20757SOL     OW63711   6.618   5.875   0.296  0.1375 -0.5901 -0.1156
20757SOL    HW163712   6.681   5.817   0.253 -0.3568 -0.8741 -0.4635
20757SOL    HW263713   6.664   5.907   0.374  1.4946  0.8281 -1.4151
20758SOL     OW63714   6.352   6.611   0.130 -0.0147  0.3293 -0.2096
20758SOL    HW163715   6.319   6.608   0.219  2.3562 -1.0345  0.7162
20758SOL    HW263716   6.414   6.539   0.125  2.2272  2.2269 -1.9947
20759SOL     OW63717   6.778   5.238   0.948  0.1027 -0.3707  0.1309
20759SOL    HW163718   6.746   5.204   1.032  1.2866  0.5809  1.0038
20759SOL    HW263719   6.813   5.161   0.903  1.6722 -0.5683  1.5695
20760SOL     OW63720   6.299   3.926   2.679 -0.2175 -0.2719  0.1162
20760SOL    HW163721   6.361   3.991   2.713 -1.1389  0.6519  0.1054
20760SOL    HW263722   6.230   3.979   2.637 -1.3149 -1.2275  0.6527
20761SOL     OW63723   4.851   2.520  11.238 -0.2328 -0.3404  0.3367
20761SOL    HW163724   4.895   2.584  11.294 -0.3810  0.6970 -0.7013
20761SOL    HW263725   4.879   2.435  11.272  1.0067  0.2798  0.9253
20762SOL     OW63726   7.304   4.967   1.529  0.0784 -0.1350  0.3639
20762SOL    HW163727   7.225   4.963   1.583 -1.2008  2.2050 -1.1666
20762SOL    HW263728   7.322   4.876   1.506 -1.7264 -0.7991  1.3652
20763SOL     OW63729   6.619   6.190   2.098  0.5559  0.2513  0.3647
20763SOL    HW163730   6.679   6.252   2.057  2.8540 -1.9480  0.1296
20763SOL    HW263731   6.651   6.179   2.187  0.1476 -0.5191  0.4322
20764SOL     OW63732   0.755   5.024   2.622  0.3623  0.1700 -0.0144
20764SOL    HW163733   0.769   5.118   2.613  1.0601  0.1296  0.5824
20764SOL    HW263734   0.671   5.008   2.579 -0.1419  1.1908  0.5609
20765SOL     OW63735   7.715   5.223  12.126  0.2721  0.0071  0.2285
20765SOL    HW163736   7.682   5.157  12.188 -0.2577  0.3566  0.3256
20765SOL    HW263737   7.647   5.230  12.059  1.1063 -0.7878 -0.7205
20766SOL     OW63738   7.157   3.535   2.047 -0.1190  0.1873 -0.5695
20766SOL    HW163739   7.165   3.512   1.954  2.8168  0.1517 -0.4120
20766SOL    HW263740   7.231   3.490   2.089 -2.0561 -0.8120  2.0405
20767SOL     OW63741   7.067   3.560   0.440 -0.7425  0.0068  0.3232
20767SOL    HW163742   7.051   3.547   0.533  0.5338 -0.6464  0.4765
20767SOL    HW263743   7.131   3.493   0.417 -0.0852  0.9485 -0.7389
20768SOL     OW63744   6.474   6.823   0.499 -0.4768 -0.2017  0.1435
20768SOL    HW163745   6.464   6.734   0.535  1.2515 -0.1717  0.7897
20768SOL    HW263746   6.567   6.829   0.477 -0.4392  1.6449  0.6369
20769SOL     OW63747   6.594   5.930  11.763  0.2866 -0.1898  0.3835
20769SOL    HW163748   6.634   5.984  11.831  0.6747 -0.6043  0.4949
20769SOL    HW263749   6.657   5.932  11.691  0.8610 -1.4123  0.8233
20770SOL     OW63750   6.708   3.726   1.787  0.2394  0.3106  0.0022
20770SOL    HW163751   6.791   3.763   1.818  0.8622  0.5909 -1.8511
20770SOL    HW263752   6.731   3.639   1.755 -0.4563 -0.1312  0.6698
20771SOL     OW63753   6.715   5.201   2.720 -0.8320  0.6038  0.5342
20771SOL    HW163754   6.750   5.165   2.801 -0.5603 -1.0648 -0.2817
20771SOL    HW263755   6.682   5.288   2.745 -0.7592  0.1452  2.4160
20772SOL     OW63756   7.926   4.353  11.344 -0.5518 -0.5369  0.7858
20772SOL    HW163757   8.019   4.353  11.365 -0.5411  2.0547  1.0362
20772SOL    HW263758   7.923   4.348  11.249  0.0885  2.6948  0.4773
20773SOL     OW63759   5.302   5.968  12.488 -0.0350 -0.1522 -0.2222
20773SOL    HW163760   5.264   5.912  12.421 -2.1835  0.8301  0.0845
20773SOL    HW263761   5.244   5.958  12.564  0.7017  0.9280  0.5223
20774SOL     OW63762   5.674   6.140   1.294  0.1863 -0.0061  0.0688
20774SOL    HW163763   5.736   6.088   1.346 -0.1820 -1.5107 -0.9428
20774SOL    HW263764   5.706   6.132   1.204 -0.2825  0.9600 -0.1883
20775SOL     OW63765   7.776   4.195  12.147  0.4761 -0.0581 -0.0235
20775SOL    HW163766   7.787   4.280  12.188 -0.7162  0.1378 -0.0691
20775SOL    HW263767   7.722   4.145  12.209 -1.4786  0.2860 -1.3538
20776SOL     OW63768   5.837   5.986   1.125  0.3466 -0.3698 -0.2836
20776SOL    HW163769   5.845   5.916   1.060  3.6587 -1.3044  0.9197
20776SOL    HW263770   5.887   6.059   1.088 -1.1583  0.5956 -0.5018
20777SOL     OW63771   5.531   4.340   1.490 -0.3469  0.3037 -0.4632
20777SOL    HW163772   5.590   4.415   1.498  3.0726 -2.2282  0.7241
20777SOL    HW263773   5.545   4.290   1.571 -1.4126 -2.3005 -1.7630
20778SOL     OW63774   7.919   4.530   1.195 -1.0318 -0.6326  0.1669
20778SOL    HW163775   7.980   4.566   1.260 -0.1475 -1.3003 -0.2589
20778SOL    HW263776   7.975   4.475   1.139 -1.4969  1.0630 -2.0645
20779SOL     OW63777   5.158   6.843  11.631 -0.2273  0.8050 -0.1053
20779SOL    HW163778   5.220   6.835  11.704  1.7878  0.1653 -1.7585
20779SOL    HW263779   5.127   6.753  11.616 -0.2025  0.8374 -0.3638
20780SOL     OW63780   7.029   5.750   0.746 -0.2810 -0.3735  0.1532
20780SOL    HW163781   7.081   5.787   0.817  1.2743 -0.9369 -0.6355
20780SOL    HW263782   7.079   5.673   0.718 -0.4408  0.2479 -2.0181
20781SOL     OW63783   6.963   5.717   1.792 -0.1602 -0.4946  0.0269
20781SOL    HW163784   6.936   5.808   1.802  1.3168 -0.0900  0.5748
20781SOL    HW263785   6.992   5.690   1.879 -0.0959 -1.3188 -0.2365
20782SOL     OW63786   0.828   3.549   1.044 -0.0957  0.6085 -0.2005
20782SOL    HW163787   0.813   3.568   1.136  2.6950 -0.1753  0.5073
20782SOL    HW263788   0.901   3.607   1.019  1.9164 -1.9525 -0.6878
20783SOL     OW63789   0.089   3.965  11.278  0.1205  0.4502  0.4262
20783SOL    HW163790   0.073   3.904  11.205 -1.5736  0.2566  0.9151
20783SOL    HW263791   0.116   4.046  11.236 -1.5332  0.5654 -0.5256
20784SOL     OW63792   6.677   6.480   0.989 -0.0906 -0.4355 -0.4311
20784SOL    HW163793   6.709   6.454   1.075 -1.3089 -0.4258  0.0394
20784SOL    HW263794   6.741   6.545   0.959  0.2498 -0.2991  0.5441
20785SOL     OW63795   5.839   3.626   0.874  0.5883  0.2343  0.1277
20785SOL    HW163796   5.899   3.697   0.855  0.6982 -0.0247 -0.5299
20785SOL    HW263797   5.782   3.660   0.944 -0.1678  1.4337 -1.0210
20786SOL     OW63798   6.789   2.652   2.017  0.0614  0.2814 -0.2044
20786SOL    HW163799   6.746   2.566   2.017  1.0112 -0.2097  0.0381
20786SOL    HW263800   6.838   2.654   1.935  1.0799  0.0426  0.3799
20787SOL     OW63801   6.878   4.604  11.907  0.3720 -0.0620  0.2341
20787SOL    HW163802   6.831   4.529  11.942  2.4752 -1.6619 -0.1192
20787SOL    HW263803   6.875   4.591  11.812 -2.1429  2.2300 -0.0947
20788SOL     OW63804   7.880   6.161   2.727  0.4906 -0.1370  0.4809
20788SOL    HW163805   7.816   6.229   2.705 -0.7366 -0.5600  2.5520
20788SOL    HW263806   7.938   6.203   2.790  0.1586 -0.7769  1.2244
20789SOL     OW63807   4.460   6.162   0.413 -0.5766 -0.3839  0.2634
20789SOL    HW163808   4.438   6.255   0.412  0.1151 -0.2055 -0.9962
20789SOL    HW263809   4.383   6.119   0.376 -0.3721 -0.1597 -0.4424
20790SOL     OW63810   7.287   2.840  11.332  0.2621  0.1333  0.3705
20790SOL    HW163811   7.281   2.908  11.399 -1.0673  0.3735  0.0248
20790SOL    HW263812   7.362   2.787  11.359  0.6049  1.0521  1.2736
20791SOL     OW63813   7.356   5.375   1.085  0.2217  0.1622 -0.1801
20791SOL    HW163814   7.301   5.366   1.163 -1.5930  0.1708 -1.3728
20791SOL    HW263815   7.389   5.287   1.068  0.0193  0.0132  0.1895
20792SOL     OW63816   7.805   3.976   2.528  0.3564 -0.3077 -0.6458
20792SOL    HW163817   7.717   3.940   2.514 -0.3406  0.5623  1.1939
20792SOL    HW263818   7.807   4.055   2.474 -1.0528  1.1647  1.3096
20793SOL     OW63819   7.247   4.069   0.220 -0.4933  0.6023  0.0509
20793SOL    HW163820   7.179   4.008   0.190 -1.7224  1.6870  0.5249
20793SOL    HW263821   7.205   4.155   0.218  1.4291  1.5939 -1.3783
20794SOL     OW63822   6.513   3.481  11.490 -0.4453 -0.5526 -0.4775
20794SOL    HW163823   6.466   3.488  11.407  1.5311 -1.2277 -1.7194
20794SOL    HW263824   6.501   3.390  11.517 -0.4857 -0.5221 -0.3911
20795SOL     OW63825   7.580   3.885   3.298 -0.0887  0.0435  0.0482
20795SOL    HW163826   7.517   3.928   3.241 -0.2514  0.0810  0.2563
20795SOL    HW263827   7.590   3.944   3.373 -1.5380 -1.0094  1.1341
20796SOL     OW63828   7.697   5.784   2.134 -0.2110  0.9090  0.0112
20796SOL    HW163829   7.713   5.693   2.162  0.2797  0.5830 -1.2725
20796SOL    HW263830   7.681   5.778   2.040 -0.5406  2.1221 -0.0235
20797SOL     OW63831   4.738   3.552   1.071  0.2218  0.3559 -0.1540
20797SOL    HW163832   4.742   3.514   1.159 -0.2729  1.2905  0.2889
20797SOL    HW263833   4.769   3.642   1.083 -4.7352  2.3387  0.1887
20798SOL     OW63834   5.234   4.639   1.291 -0.2201 -0.2700 -0.5390
20798SOL    HW163835   5.240   4.575   1.362 -0.9154  0.1250 -0.1174
20798SOL    HW263836   5.302   4.612   1.229  0.6614 -0.4029  0.4470
20799SOL     OW63837   6.267   5.426   0.968 -0.3538 -0.1014  0.1559
20799SOL    HW163838   6.245   5.448   1.059  0.8151  0.4082  0.3244
20799SOL    HW263839   6.361   5.407   0.970 -0.3033 -0.0093 -0.9718
20800SOL     OW63840   7.368   6.671  12.206 -0.3498  0.5300  0.7724
20800SOL    HW163841   7.458   6.702  12.203  0.5823 -2.0420 -0.3354
20800SOL    HW263842   7.351   6.654  12.298  0.5165  0.4791  0.9280
20801SOL     OW63843   6.966   5.740   1.182 -0.0276  0.3184 -0.2442
20801SOL    HW163844   6.887   5.708   1.137 -0.4752  1.5223 -0.3433
20801SOL    HW263845   7.019   5.778   1.112 -0.2195  1.1959  0.0853
20802SOL     OW63846   6.721   2.284  11.720  0.4917  0.5029 -0.1256
20802SOL    HW163847   6.741   2.349  11.787 -0.6145  0.8930 -0.1592
20802SOL    HW263848   6.801   2.279  11.667  0.7172  1.5741  0.0850
20803SOL     OW63849   7.058   3.671   0.190  0.2241  0.2469 -0.4203
20803SOL    HW163850   6.984   3.704   0.240 -1.1944 -1.2353 -1.4183
20803SOL    HW263851   7.103   3.612   0.250  2.3029  3.1822  1.0978
20804SOL     OW63852   6.017   4.688   2.553  0.1610 -0.3504  1.0238
20804SOL    HW163853   5.978   4.743   2.620 -2.3614 -1.7894  0.8550
20804SOL    HW263854   5.988   4.726   2.470  0.3708 -0.5622  0.8499
20805SOL     OW63855   5.695   6.614   2.519 -0.0400  0.6462 -0.1210
20805SOL    HW163856   5.741   6.536   2.488  0.3685  1.1832 -0.8805
20805SOL    HW263857   5.760   6.684   2.517 -0.5116  1.1029  0.1565
20806SOL     OW63858   6.632   4.898   0.945 -0.0217  0.1606  0.0660
20806SOL    HW163859   6.662   4.940   1.025 -0.7357 -0.6220  0.7639
20806SOL    HW263860   6.686   4.936   0.876  1.5838 -0.1712  1.0917
20807SOL     OW63861   7.224   4.814   1.228 -0.1678  0.6281  0.3750
20807SOL    HW163862   7.279   4.826   1.151  0.1641  0.2855  0.5574
20807SOL    HW263863   7.136   4.798   1.192 -0.2030  1.3896  0.0900
20808SOL     OW63864   5.075   3.164   1.233 -0.2326 -0.8198  0.0737
20808SOL    HW163865   5.065   3.123   1.147 -0.7548 -1.2519  0.3351
20808SOL    HW263866   5.066   3.092   1.295  0.6584 -0.5920  0.4743
20809SOL     OW63867   6.878   5.972   1.766 -0.6994  0.1935 -0.5391
20809SOL    HW163868   6.845   6.007   1.683  0.6717  0.1583 -1.1354
20809SOL    HW263869   6.917   6.048   1.809 -1.2600  0.1771  0.0100
20810SOL     OW63870   7.741   3.772   2.092 -0.4552 -0.0372 -0.0411
20810SOL    HW163871   7.823   3.783   2.140 -0.5945  1.7456 -0.1583
20810SOL    HW263872   7.674   3.767   2.160 -0.2906 -1.5695  0.0582
20811SOL     OW63873   6.955   5.404   2.647  0.5659 -0.4201 -0.0802
20811SOL    HW163874   7.006   5.326   2.626  1.9464  0.4227 -0.0132
20811SOL    HW263875   6.968   5.417   2.741  1.3494  0.5601 -0.3117
20812SOL     OW63876   4.525   5.260   1.377 -0.0060 -0.2313 -0.7010
20812SOL    HW163877   4.564   5.183   1.417 -0.2089 -0.6257 -1.2467
20812SOL    HW263878   4.587   5.287   1.309  0.2672  0.3447 -0.2330
20813SOL     OW63879   6.249   3.046  12.342 -0.0940 -0.3543 -0.1619
20813SOL    HW163880   6.323   3.046  12.403 -1.0258  0.1261  0.9877
20813SOL    HW263881   6.271   2.978  12.278  1.9278  0.5981 -0.5690
20814SOL     OW63882   6.817   4.995   1.122  0.2565  0.0305  0.5056
20814SOL    HW163883   6.910   5.012   1.134  0.3896  0.1866 -0.6082
20814SOL    HW263884   6.794   4.937   1.194  1.3545 -0.4649  0.4884
20815SOL     OW63885   2.630   4.688   0.559 -0.2027 -0.1350 -0.3564
20815SOL    HW163886   2.608   4.702   0.651 -1.1586 -1.1689 -0.4085
20815SOL    HW263887   2.583   4.757   0.512 -0.3455 -0.0802 -0.1336
20816SOL     OW63888   6.597   5.475   1.772  0.1078  0.0882  0.3089
20816SOL    HW163889   6.562   5.385   1.768 -0.2701  0.2754 -1.1843
20816SOL    HW263890   6.686   5.468   1.739  0.1631  0.2251  0.4275
20817SOL     OW63891   4.309   2.238   1.546  0.2697  0.3516 -0.0245
20817SOL    HW163892   4.312   2.143   1.556 -1.1441  0.2230 -0.5689
20817SOL    HW263893   4.391   2.260   1.501 -0.1357 -0.8195 -1.3988
20818SOL     OW63894   5.381   5.102   2.965 -0.7138 -0.5120  0.1509
20818SOL    HW163895   5.370   5.145   3.050 -0.6047 -0.3925  0.1022
20818SOL    HW263896   5.407   5.012   2.988 -0.7080 -0.4871  0.2440
20819SOL     OW63897   6.954   4.580   2.794  0.4431  0.3434  0.1838
20819SOL    HW163898   6.888   4.619   2.851 -0.5880 -1.1728  0.0733
20819SOL    HW263899   7.016   4.539   2.855  0.6359  0.7152  0.2472
20820SOL     OW63900   6.417   3.608   3.604  0.0511 -0.2660  0.0729
20820SOL    HW163901   6.439   3.527   3.648 -2.5775 -1.7164 -1.0680
20820SOL    HW263902   6.468   3.606   3.523  0.4498 -0.4634  0.3257
20821SOL     OW63903   7.768   4.763  11.882 -0.0518 -0.1233 -0.3167
20821SOL    HW163904   7.772   4.828  11.953 -0.8181  1.0445 -1.2924
20821SOL    HW263905   7.860   4.740  11.867  0.2654  0.8948 -0.0685
20822SOL     OW63906   6.687   2.005  11.676 -0.0761  0.0285 -0.0109
20822SOL    HW163907   6.636   2.006  11.595  1.6672  0.9612 -1.1618
20822SOL    HW263908   6.700   2.097  11.697  2.1573 -0.1328 -0.4639
20823SOL     OW63909   6.307   6.596   0.394  0.8231  0.2698 -0.2197
20823SOL    HW163910   6.225   6.579   0.442  1.4588  0.9438  1.1670
20823SOL    HW263911   6.363   6.522   0.415  0.6952 -0.0124 -0.8760
20824SOL     OW63912   6.682   5.288   0.528 -0.0379 -0.1265  0.4469
20824SOL    HW163913   6.756   5.340   0.499 -1.8054  1.0533 -2.4222
20824SOL    HW263914   6.645   5.337   0.601  0.4258  0.7462  0.1097
20825SOL     OW63915   4.938   5.110   1.390 -0.3379 -0.0386  0.2691
20825SOL    HW163916   4.876   5.183   1.398 -0.7417 -0.2018 -1.0322
20825SOL    HW263917   4.920   5.054   1.466 -0.1526  1.1133  1.1742
20826SOL     OW63918   5.984   5.132   2.389  0.4753  0.2715  0.5079
20826SOL    HW163919   6.023   5.133   2.476  0.2238  1.4799  0.6232
20826SOL    HW263920   5.927   5.055   2.389 -0.2261  0.7622  1.7325
20827SOL     OW63921   7.095   3.949   1.667 -0.5521  0.2038 -0.2783
20827SOL    HW163922   7.040   3.911   1.736  1.5459  0.0826  1.4220
20827SOL    HW263923   7.134   3.873   1.623  0.1521  0.3202  0.1431
20828SOL     OW63924   5.833   5.549   0.875 -0.4246  0.5184 -0.0576
20828SOL    HW163925   5.791   5.601   0.807 -2.3703 -0.1805  0.5384
20828SOL    HW263926   5.761   5.501   0.917  1.1327 -1.9953 -0.0101
20829SOL     OW63927   7.100   3.674  11.600  0.3592 -0.0096 -0.4533
20829SOL    HW163928   7.024   3.669  11.542 -0.0357 -0.0619  0.0685
20829SOL    HW263929   7.138   3.586  11.598  0.6435  0.1168 -1.0212
20830SOL     OW63930   7.622   5.589   1.716 -0.2655  0.8557 -0.1497
20830SOL    HW163931   7.558   5.530   1.757  0.8902  0.7396  1.5613
20830SOL    HW263932   7.621   5.668   1.770  0.4299  1.1922 -0.6109
20831SOL     OW63933   5.097   6.177   0.430 -0.0236 -0.6266  0.3254
20831SOL    HW163934   5.078   6.264   0.464  0.1346  0.2815 -1.7203
20831SOL    HW263935   5.051   6.117   0.489  1.2223  0.6739  2.7843
20832SOL     OW63936   6.900   5.493   0.896  0.1447  0.0223  0.7252
20832SOL    HW163937   6.890   5.400   0.920 -0.7268  0.2763  1.4172
20832SOL    HW263938   6.990   5.515   0.921  0.4545 -0.7019  0.2891
20833SOL     OW63939   1.146   4.206   0.817 -0.3982 -0.1446  0.0580
20833SOL    HW163940   1.166   4.275   0.880 -2.7490 -1.5783  2.6276
20833SOL    HW263941   1.177   4.125   0.859  1.7224 -0.8563 -2.5842
20834SOL     OW63942   6.441   3.648  11.961  0.1078 -0.1572 -0.0873
20834SOL    HW163943   6.473   3.694  11.883 -0.6482  0.2335 -0.1778
20834SOL    HW263944   6.348   3.633  11.943  0.1287 -0.8546  0.3652
20835SOL     OW63945   7.066   5.032  12.273 -0.1692 -0.3258  0.6188
20835SOL    HW163946   7.048   5.075  12.357 -0.3208 -0.6841  0.7690
20835SOL    HW263947   7.041   5.097  12.207  1.5131  0.6175  0.8523
20836SOL     OW63948   3.930   5.725   0.196  0.5133 -0.2385  0.2379
20836SOL    HW163949   4.015   5.682   0.186 -0.2266 -1.8213  0.3633
20836SOL    HW263950   3.936   5.771   0.279  0.9284 -1.1631  0.7383
20837SOL     OW63951   0.502   4.190   1.755  0.1974  0.4312  0.5642
20837SOL    HW163952   0.541   4.127   1.816 -2.6901 -1.6507  0.4695
20837SOL    HW263953   0.519   4.275   1.795  0.9693 -0.6663  2.7605
20838SOL     OW63954   6.711   3.879   0.613 -0.3898  0.3933 -0.0137
20838SOL    HW163955   6.659   3.838   0.682  0.4362 -3.3476 -1.3788
20838SOL    HW263956   6.792   3.906   0.657 -1.1805  1.0871  1.0585
20839SOL     OW63957   6.170   3.809  12.442 -0.0933 -0.5318 -0.0854
20839SOL    HW163958   6.210   3.888  12.477  2.5258 -0.6068 -2.5829
20839SOL    HW263959   6.076   3.826  12.446  0.2191  1.1386  2.7678
20840SOL     OW63960   4.058   5.600   1.674 -0.0749  0.0031  0.1742
20840SOL    HW163961   4.148   5.626   1.691  0.4824 -1.1610 -0.7768
20840SOL    HW263962   4.066   5.520   1.621 -1.6639 -0.3965  0.4775
20841SOL     OW63963   6.581   6.294   0.038 -0.2557  0.0135  0.0071
20841SOL    HW163964   6.519   6.308  -0.034 -0.1987  0.4714  0.0417
20841SOL    HW263965   6.555   6.210   0.076 -2.6231  1.3951  1.7414
20842SOL     OW63966   3.718   5.981   2.014 -0.3610  0.2653 -0.5349
20842SOL    HW163967   3.731   5.896   2.057 -1.6106  0.4228  0.2131
20842SOL    HW263968   3.634   6.012   2.049 -0.3959  1.3545 -1.5544
20843SOL     OW63969   6.380   5.977   0.724  0.0013  0.2798 -0.4620
20843SOL    HW163970   6.309   5.946   0.779 -0.6884  0.3322 -1.3003
20843SOL    HW263971   6.423   5.898   0.691  0.5087  0.2496  0.2541
20844SOL     OW63972   7.971   5.163  12.176  0.2029 -0.3845  0.0441
20844SOL    HW163973   7.886   5.206  12.160 -0.0243 -0.2832  1.4017
20844SOL    HW263974   8.036   5.228  12.150 -0.1281 -0.1767 -0.2832
20845SOL     OW63975   5.231   7.561   0.385 -0.2618 -0.8169  0.2053
20845SOL    HW163976   5.303   7.499   0.376  0.1527 -0.1959 -0.9892
20845SOL    HW263977   5.273   7.647   0.383 -1.1083 -0.3436 -2.5651
20846SOL     OW63978   5.301   6.733  12.084 -0.8119  0.2037 -0.5757
20846SOL    HW163979   5.245   6.778  12.147 -0.1558 -1.6354  1.4685
20846SOL    HW263980   5.257   6.649  12.068  1.0686 -1.1249  0.7885
20847SOL     OW63981   6.121   2.622   1.144 -0.4251 -0.3109  0.0862
20847SOL    HW163982   6.196   2.594   1.093  0.8048  0.9599  1.1162
20847SOL    HW263983   6.095   2.544   1.193  0.5963 -0.6289  0.1491
20848SOL     OW63984   7.471   3.706   1.795 -0.0860  0.1531 -0.1318
20848SOL    HW163985   7.461   3.649   1.871  1.1558  1.4128  1.0336
20848SOL    HW263986   7.474   3.646   1.720 -0.3765 -1.1852  0.8849
20849SOL     OW63987   4.666   3.320  12.437  0.1864  0.1328  0.2563
20849SOL    HW163988   4.622   3.381  12.379 -0.2700 -0.0050  0.4524
20849SOL    HW263989   4.650   3.234  12.399 -0.9618 -0.0549  1.1035
20850SOL     OW63990   5.272   7.169   1.557  0.7879  0.2243 -0.1472
20850SOL    HW163991   5.287   7.260   1.582 -0.1795  0.4634 -0.3925
20850SOL    HW263992   5.204   7.173   1.490  1.2638 -0.6300 -0.6912
20851SOL     OW63993   6.292   4.787  11.308  0.0264 -0.3554 -0.1657
20851SOL    HW163994   6.333   4.701  11.312 -4.4374 -2.7542  0.5953
20851SOL    HW263995   6.233   4.783  11.233 -0.2925  2.0700 -0.1409
20852SOL     OW63996   6.548   4.136   1.214 -0.1267 -0.3161 -0.0845
20852SOL    HW163997   6.576   4.108   1.302 -1.1205  1.2339  0.7561
20852SOL    HW263998   6.630   4.142   1.164  0.8974  1.9900  1.6862
20853SOL     OW63999   7.240   3.561  12.367  0.4939 -0.2807  0.1997
20853SOL    HW164000   7.221   3.479  12.413 -0.3663 -0.3306 -0.2271
20853SOL    HW264001   7.207   3.629  12.425  1.2287 -0.2248  0.5646
20854SOL     OW64002   6.021   5.530   1.221 -0.5502  0.4744  0.5952
20854SOL    HW164003   5.982   5.606   1.177 -2.4195 -0.9883 -0.3954
20854SOL    HW264004   6.115   5.543   1.210 -0.8540  2.0287 -0.6330
20855SOL     OW64005   7.283   1.568   1.021  0.1712  0.2396 -0.6385
20855SOL    HW164006   7.355   1.534   1.074 -0.6398 -2.4525 -1.1194
20855SOL    HW264007   7.311   1.553   0.930 -0.3282  0.6525 -0.8675
20856SOL     OW64008   6.097   7.118   1.755 -0.6066  0.3692  0.0441
20856SOL    HW164009   6.178   7.073   1.779 -1.1163  0.4250  2.0310
20856SOL    HW264010   6.061   7.150   1.838 -1.8711  1.7217 -0.9546
20857SOL     OW64011   0.592   5.109  12.248 -0.1699 -0.3079 -0.6361
20857SOL    HW164012   0.555   5.085  12.163  2.3664 -0.2854 -1.8292
20857SOL    HW264013   0.652   5.038  12.270  0.6698  0.6029  0.1623
20858SOL     OW64014   5.868   5.396   0.212  0.5288 -0.3111  0.7498
20858SOL    HW164015   5.872   5.305   0.243  0.6787 -1.4979 -2.3906
20858SOL    HW264016   5.957   5.428   0.222  1.2014 -1.5567 -0.7465
20859SOL     OW64017   6.007   4.089   0.145  0.3151  0.7440 -0.0381
20859SOL    HW164018   5.960   4.016   0.104 -1.0571  0.9754  1.0398
20859SOL    HW264019   6.088   4.051   0.178 -0.6692 -0.4576  1.0875
20860SOL     OW64020   6.382   4.123  12.336 -0.0931 -0.1901 -0.1361
20860SOL    HW164021   6.408   4.073  12.258 -1.2557 -2.1108  0.6278
20860SOL    HW264022   6.443   4.096  12.404 -0.0180  0.3347  0.0106
20861SOL     OW64023   4.304   4.974   1.392 -0.8152 -0.4351  0.2454
20861SOL    HW164024   4.247   4.998   1.318 -1.2670 -1.8841  0.0834
20861SOL    HW264025   4.361   4.906   1.357 -1.0991 -1.2133  1.2378
20862SOL     OW64026   6.825   5.290   2.376 -0.2458 -0.1025  0.6156
20862SOL    HW164027   6.784   5.204   2.368 -1.0675  0.4130 -1.2021
20862SOL    HW264028   6.753   5.348   2.402 -0.9663  0.8997 -3.0692
20863SOL     OW64029   7.056   7.206   0.501 -0.5972  0.0904  0.2665
20863SOL    HW164030   7.014   7.220   0.585 -2.4959  2.0068 -0.9027
20863SOL    HW264031   6.984   7.194   0.439  0.6756  0.3563 -1.3445
20864SOL     OW64032   7.467   3.543   2.020  0.0857 -0.3711  0.1800
20864SOL    HW164033   7.559   3.556   2.043  0.0452 -1.4765  1.0460
20864SOL    HW264034   7.443   3.459   2.060 -2.0123  1.0785  2.3000
20865SOL     OW64035   6.549   4.532   0.598 -0.2384  0.1735  0.4118
20865SOL    HW164036   6.525   4.581   0.677 -0.6984  1.2181 -0.3484
20865SOL    HW264037   6.539   4.440   0.622 -0.1939  0.4729  1.6209
20866SOL     OW64038   7.516   4.394   2.707 -0.0745 -0.1500  0.6711
20866SOL    HW164039   7.502   4.305   2.675  1.0831  0.2047 -0.9831
20866SOL    HW264040   7.433   4.419   2.747 -0.8799 -1.4697 -0.1005
20867SOL     OW64041   6.083   4.689  11.880  0.0445 -0.1449 -0.3755
20867SOL    HW164042   6.056   4.742  11.805  0.0999 -0.8125 -0.8737
20867SOL    HW264043   6.125   4.613  11.841 -1.6544 -1.4768  0.2635
20868SOL     OW64044   5.501   4.285   2.154  0.2300  0.1999  0.4786
20868SOL    HW164045   5.480   4.317   2.242  0.8585 -1.5560  1.3220
20868SOL    HW264046   5.417   4.260   2.117 -0.0915  1.3590  0.3747
20869SOL     OW64047   6.266   3.258   3.164  0.1493  0.5592  0.3839
20869SOL    HW164048   6.348   3.211   3.179 -0.9815 -1.1228  1.7804
20869SOL    HW264049   6.239   3.287   3.251 -0.5151  1.5272 -0.1276
20870SOL     OW64050   7.781   3.327   2.740  0.9181  0.0978 -0.2116
20870SOL    HW164051   7.814   3.305   2.827 -0.5213 -0.5847  0.1934
20870SOL    HW264052   7.718   3.397   2.755  0.3885 -0.2790 -0.6612
20871SOL     OW64053   7.492   4.938   0.467 -0.6176 -0.2700  0.4327
20871SOL    HW164054   7.474   4.958   0.559 -1.2094 -0.8413  0.4536
20871SOL    HW264055   7.479   4.843   0.460 -0.7963 -0.2008 -0.2852
20872SOL     OW64056   7.599   3.453  12.394 -0.2238  0.2248 -0.8278
20872SOL    HW164057   7.532   3.416  12.453 -0.7848 -0.2719 -1.7476
20872SOL    HW264058   7.616   3.383  12.331  3.4829 -0.9172  1.1245
20873SOL     OW64059   7.608   5.468   1.123 -0.3095  0.0352 -0.2331
20873SOL    HW164060   7.628   5.523   1.047 -1.4135 -1.6517 -1.8106
20873SOL    HW264061   7.515   5.448   1.116  0.1458 -2.5065 -0.0840
20874SOL     OW64062   6.472   6.068   0.176 -0.0408  0.0917  0.8743
20874SOL    HW164063   6.531   6.003   0.214 -0.4844 -0.5456  0.4948
20874SOL    HW264064   6.399   6.072   0.238  0.1283  0.4624  1.0543
20875SOL     OW64065   5.697   5.738   1.828 -0.1656  0.0707 -0.3488
20875SOL    HW164066   5.728   5.825   1.855 -1.3803  0.7941 -1.2319
20875SOL    HW264067   5.749   5.717   1.750  0.0490  0.0408 -0.2005
20876SOL     OW64068   6.807   4.657   2.575 -0.4329  0.1910  0.1178
20876SOL    HW164069   6.851   4.657   2.660 -1.7270 -2.9877  0.9056
20876SOL    HW264070   6.716   4.680   2.595 -0.8498 -1.0343 -0.3292
20877SOL     OW64071   4.323   5.906   1.747  0.3572  0.0194 -0.6019
20877SOL    HW164072   4.413   5.926   1.775  0.1245  0.2705  0.0041
20877SOL    HW264073   4.312   5.813   1.766  0.2165  0.1774  0.1364
20878SOL     OW64074   7.701   6.037   2.246 -0.0687 -0.5580  0.2513
20878SOL    HW164075   7.624   6.092   2.230  1.5262  1.2502 -2.0133
20878SOL    HW264076   7.682   5.955   2.202 -0.8948 -0.2851  0.0911
20879SOL     OW64077   7.196   3.426  11.563 -0.2107 -0.3530 -0.0652
20879SOL    HW164078   7.242   3.387  11.489 -3.0250  0.6642 -2.5253
20879SOL    HW264079   7.115   3.375  11.571 -0.6067  0.4434  1.3983
20880SOL     OW64080   5.564   5.445   1.222 -0.2920  0.6993 -0.5834
20880SOL    HW164081   5.488   5.391   1.241  0.2472  0.2947  0.5092
20880SOL    HW264082   5.580   5.432   1.129 -1.9878  1.3796 -1.0160
20881SOL     OW64083   0.334   3.225   2.938 -0.5453 -0.2001  0.0794
20881SOL    HW164084   0.254   3.188   2.974 -2.3171  0.6572 -2.6880
20881SOL    HW264085   0.323   3.320   2.948 -0.8236  0.0345 -1.9721
20882SOL     OW64086   7.019   5.394   1.187 -0.4046  0.0606  0.2136
20882SOL    HW164087   7.054   5.481   1.169 -0.5350  0.1607  0.4415
20882SOL    HW264088   6.939   5.410   1.238 -1.6151 -0.0997 -1.5574
20883SOL     OW64089   6.837   4.086  11.586  0.3393 -0.0130 -0.6266
20883SOL    HW164090   6.886   4.114  11.509  0.4661 -0.8381 -0.8530
20883SOL    HW264091   6.868   4.145  11.656  2.4418 -1.1532 -0.5154
20884SOL     OW64092   0.446   4.120   2.250 -0.2571 -0.2941  0.1614
20884SOL    HW164093   0.497   4.200   2.236 -0.8719  0.3023  1.2150
20884SOL    HW264094   0.505   4.061   2.296  0.0318 -0.2501 -0.1518
20885SOL     OW64095   7.271   5.096   0.480 -0.2452  0.5232  0.4180
20885SOL    HW164096   7.334   5.159   0.515  1.3789 -0.1130 -1.1603
20885SOL    HW264097   7.326   5.030   0.436 -2.0114 -0.2814 -0.6906
20886SOL     OW64098   7.087   5.670  12.069  0.0889 -0.0830 -0.0421
20886SOL    HW164099   7.062   5.618  11.992  2.4231  2.2529 -2.5830
20886SOL    HW264100   7.130   5.607  12.128  2.8981 -1.2129 -3.0012
20887SOL     OW64101   6.933   6.236   0.420 -0.5229  0.3436  0.0680
20887SOL    HW164102   6.897   6.285   0.494 -0.5429 -0.8885  0.9009
20887SOL    HW264103   7.008   6.188   0.456 -2.2696 -2.6289  0.1009
20888SOL     OW64104   7.067   4.277   0.205 -0.1584  0.0712  0.2294
20888SOL    HW164105   7.038   4.291   0.296  0.7869  1.4281  0.3527
20888SOL    HW264106   7.050   4.361   0.162 -3.5986 -1.4400 -1.7612
20889SOL     OW64107   4.930   6.141   0.190 -0.5441  0.3084  0.1771
20889SOL    HW164108   4.975   6.138   0.274  0.5847  1.2220 -0.3691
20889SOL    HW264109   4.849   6.187   0.208  0.4724  2.0733  0.4503
20890SOL     OW64110   6.896   4.784   0.318 -0.5185  0.9666  0.2182
20890SOL    HW164111   6.942   4.835   0.386 -1.7724  1.3351  0.8205
20890SOL    HW264112   6.810   4.826   0.312 -0.7400  0.3558 -0.9631
20891SOL     OW64113   7.179   2.889   1.867 -0.5169 -0.3649 -0.2581
20891SOL    HW164114   7.206   2.842   1.788 -1.8893 -0.9820 -0.3839
20891SOL    HW264115   7.087   2.866   1.879 -0.6758  0.7094  0.8265
20892SOL     OW64116   5.464   4.955   0.877 -0.4312 -0.4033  0.3466
20892SOL    HW164117   5.452   4.860   0.873 -0.1006 -0.4094 -1.1487
20892SOL    HW264118   5.422   4.988   0.797  0.5460  0.5829  0.2191
20893SOL     OW64119   5.255   5.287   1.734 -0.3097 -0.2760 -0.3731
20893SOL    HW164120   5.248   5.234   1.655 -2.0984 -1.6229  0.6117
20893SOL    HW264121   5.178   5.344   1.732  0.7571  1.2260 -0.6188
20894SOL     OW64122   6.370   4.581   1.779  0.4479  0.5336 -0.3541
20894SOL    HW164123   6.334   4.613   1.861 -0.5288  0.7059 -0.8383
20894SOL    HW264124   6.444   4.526   1.805 -0.8781 -0.8123  0.7400
20895SOL     OW64125   5.791   6.795   1.483  0.7826  0.5135  0.4359
20895SOL    HW164126   5.832   6.879   1.504 -0.1777  1.0623  0.1759
20895SOL    HW264127   5.749   6.809   1.398  2.1761 -0.7996 -0.5311
20896SOL     OW64128   2.333   3.552   1.085 -0.4876 -0.8330 -0.1168
20896SOL    HW164129   2.332   3.531   1.178  1.0047 -0.1052  0.1004
20896SOL    HW264130   2.252   3.601   1.070  0.1441  0.7391  1.2711
20897SOL     OW64131   7.406   2.430   0.688 -0.5050 -0.6833 -0.5152
20897SOL    HW164132   7.350   2.353   0.699 -1.0207 -0.2923 -0.3359
20897SOL    HW264133   7.483   2.411   0.741 -0.3645 -1.3223 -0.9315
20898SOL     OW64134   0.895   5.125   2.265 -0.1213  0.1667 -0.2530
20898SOL    HW164135   0.982   5.087   2.249 -0.6055 -0.7237 -0.8577
20898SOL    HW264136   0.908   5.183   2.340  1.3350  1.2908 -1.3198
20899SOL     OW64137   4.658   5.096   0.255 -0.1829  0.5241  0.4697
20899SOL    HW164138   4.718   5.088   0.181 -2.3683 -1.4754 -1.2502
20899SOL    HW264139   4.648   5.191   0.266  0.7709  0.8993 -1.3351
20900SOL     OW64140   6.915   4.360  11.258 -0.0374  0.0897 -0.5974
20900SOL    HW164141   6.985   4.420  11.233  2.3110 -1.2375  2.0832
20900SOL    HW264142   6.853   4.414  11.307  2.7152  0.3969  2.9988
20901SOL     OW64143   7.109   5.549   1.974  0.0248 -0.2848 -0.1810
20901SOL    HW164144   7.180   5.536   2.037  1.0306 -2.0336 -1.5427
20901SOL    HW264145   7.029   5.542   2.025  0.8065 -0.2458  1.0982
20902SOL     OW64146   6.293   1.127   0.564  0.4436 -0.0332 -0.4875
20902SOL    HW164147   6.276   1.221   0.565 -1.0681 -0.0831 -4.0139
20902SOL    HW264148   6.378   1.118   0.522  0.5534 -0.2342 -0.2236
20903SOL     OW64149   6.003   3.478   1.557  0.4666  0.2767  0.1509
20903SOL    HW164150   6.052   3.397   1.545  1.1018  0.4187  1.5195
20903SOL    HW264151   6.063   3.535   1.607 -0.8244  0.7092  1.2775
20904SOL     OW64152   6.017   7.675  11.693 -0.0052  0.1960 -0.2364
20904SOL    HW164153   6.078   7.702  11.762  1.2548 -0.4595 -1.0496
20904SOL    HW264154   6.063   7.605  11.647 -0.6359  0.9092 -2.0150
20905SOL     OW64155   3.522   4.101   1.849 -0.7927 -0.0536  0.3052
20905SOL    HW164156   3.484   4.090   1.936 -0.5531 -3.4005  0.1312
20905SOL    HW264157   3.570   4.019   1.833  1.2759  1.4536 -1.9994
20906SOL     OW64158   5.789   3.907   0.471 -0.2013  0.2867 -0.2206
20906SOL    HW164159   5.787   3.921   0.566  2.6913  1.3177 -0.1911
20906SOL    HW264160   5.785   3.812   0.460  0.5828  0.0849  1.0295
20907SOL     OW64161   4.420   3.615   1.322 -0.5658 -0.6131  0.0436
20907SOL    HW164162   4.388   3.624   1.232  0.1896 -1.4693 -0.3295
20907SOL    HW264163   4.356   3.557   1.364  0.1627 -1.9055 -0.5550
20908SOL     OW64164   4.874   4.836   2.356 -0.0118  0.5311  0.0662
20908SOL    HW164165   4.893   4.927   2.333  0.2464  0.5763  0.4513
20908SOL    HW264166   4.805   4.809   2.295  1.7514  0.1440 -1.9040
20909SOL     OW64167   6.070   4.064   2.220 -0.2170  0.0255 -0.0668
20909SOL    HW164168   6.084   4.149   2.178 -0.1847  0.2530  0.3993
20909SOL    HW264169   5.982   4.070   2.258 -0.8661 -0.7263 -1.3851
20910SOL     OW64170   6.886   7.465   0.939 -0.2602  0.6229  0.3063
20910SOL    HW164171   6.885   7.505   0.852 -1.5659  0.0570  0.0342
20910SOL    HW264172   6.803   7.491   0.978  0.5896  1.4095  1.6710
20911SOL     OW64173   7.965   3.828   1.710 -0.1019  0.5662  0.1472
20911SOL    HW164174   7.986   3.921   1.718  0.0118  0.9031 -2.9950
20911SOL    HW264175   7.872   3.823   1.729 -0.0834  1.2971  0.4696
20912SOL     OW64176   6.822   5.728   3.887 -0.2270  0.0891 -0.5028
20912SOL    HW164177   6.726   5.733   3.877 -0.3212 -0.3896  0.0983
20912SOL    HW264178   6.840   5.634   3.894  0.0975  0.2444  1.1219
20913SOL     OW64179   7.924   4.454   2.802 -0.2305 -0.3232 -0.0541
20913SOL    HW164180   7.949   4.379   2.749 -1.5873 -0.7350 -0.1518
20913SOL    HW264181   7.853   4.422   2.857  0.2286  0.4751  1.0457
20914SOL     OW64182   5.366   4.082   0.800  0.0418  0.2574 -0.0309
20914SOL    HW164183   5.434   4.122   0.744 -1.6813 -0.1056 -2.5363
20914SOL    HW264184   5.415   4.024   0.858  1.8308 -1.7353 -3.2250
20915SOL     OW64185   6.806   6.921   5.554  0.4548  0.5384  0.5396
20915SOL    HW164186   6.818   6.857   5.484  0.6621  0.2535  0.8370
20915SOL    HW264187   6.738   6.980   5.520 -0.2555 -0.2505  0.5635
20916SOL     OW64188   6.386   6.936   0.722 -0.5010 -0.0395  0.6676
20916SOL    HW164189   6.301   6.977   0.707  0.8714  2.2721 -1.4126
20916SOL    HW264190   6.416   6.910   0.635  0.4556 -1.9307  1.4946
20917SOL     OW64191   6.788   5.295   4.150 -0.6006  0.5243  0.0593
20917SOL    HW164192   6.819   5.343   4.227 -0.6240  0.1572  0.2959
20917SOL    HW264193   6.760   5.210   4.183 -1.5532  0.7172 -0.1974
20918SOL     OW64194   5.656   4.431   4.605  0.1854 -0.0562 -0.2700
20918SOL    HW164195   5.642   4.389   4.691  0.8457 -1.9818 -1.0339
20918SOL    HW264196   5.596   4.505   4.605  0.0661 -0.0775  1.8075
20919SOL     OW64197   7.444   2.634   3.635  0.4301  0.0541  0.6464
20919SOL    HW164198   7.508   2.630   3.565 -0.4469 -0.1868 -0.1647
20919SOL    HW264199   7.491   2.603   3.713  0.7953 -2.0260 -0.3252
20920SOL     OW64200   6.000   4.553   2.930  0.0010  0.3682 -0.4993
20920SOL    HW164201   5.961   4.466   2.936 -0.6246  0.6457 -0.5088
20920SOL    HW264202   5.950   4.607   2.991 -0.7720  1.1388 -1.7465
20921SOL     OW64203   0.121   4.407   4.747  0.5730 -0.4569  0.4732
20921SOL    HW164204   0.072   4.367   4.675 -0.3891  1.6716 -0.1497
20921SOL    HW264205   0.084   4.369   4.826 -2.1197  1.0024  0.0139
20922SOL     OW64206   5.643   6.974   0.743 -0.1698 -0.6574 -0.3529
20922SOL    HW164207   5.597   6.997   0.824  0.3163  0.7482 -0.4608
20922SOL    HW264208   5.706   6.907   0.770  1.6147  1.4355  0.9563
20923SOL     OW64209   5.848   4.177   2.365  0.3710  0.0903 -0.1831
20923SOL    HW164210   5.853   4.268   2.395 -0.1600  0.3495 -0.8331
20923SOL    HW264211   5.820   4.127   2.442  0.8531  0.4510  0.2287
20924SOL     OW64212   7.488   5.983   3.486 -0.0731  0.3009 -0.0989
20924SOL    HW164213   7.506   5.975   3.392  1.1209  0.1180  0.1306
20924SOL    HW264214   7.419   6.050   3.491 -0.3083  0.1582 -1.1122
20925SOL     OW64215   5.635   5.550   2.028  0.1565 -0.1341 -0.3529
20925SOL    HW164216   5.657   5.466   1.988 -0.7670  0.0415 -1.2702
20925SOL    HW264217   5.661   5.615   1.963 -2.3541  0.1108 -1.2225
20926SOL     OW64218   6.856   3.939   2.381 -0.2734 -0.5939  0.2313
20926SOL    HW164219   6.868   4.008   2.446  0.4057 -0.6332  0.1567
20926SOL    HW264220   6.805   3.979   2.311 -0.1912 -0.2738  0.3548
20927SOL     OW64221   3.610   4.964   1.365 -0.1565 -0.0058  0.3949
20927SOL    HW164222   3.597   4.915   1.446 -0.0645  0.0590  0.4490
20927SOL    HW264223   3.549   4.925   1.303  0.0933 -0.3540  0.3661
20928SOL     OW64224   6.971   6.809   0.194  0.6566  0.3920 -0.3748
20928SOL    HW164225   6.983   6.902   0.175 -3.3162  1.1181 -0.2893
20928SOL    HW264226   6.964   6.768   0.107  1.8604  0.2151 -0.4066
20929SOL     OW64227   3.360   5.747   0.333 -0.0615 -0.2880  0.2986
20929SOL    HW164228   3.276   5.724   0.294 -0.4635  1.3487  0.1408
20929SOL    HW264229   3.337   5.779   0.420  0.2999  0.9460 -0.0477
20930SOL     OW64230   6.121   6.529   3.586  0.2427 -0.1440  0.3874
20930SOL    HW164231   6.052   6.505   3.647 -0.0124  0.3701  0.3103
20930SOL    HW264232   6.127   6.455   3.525  0.8056 -0.8586  1.2897
20931SOL     OW64233   6.482   6.383   3.576  0.3358  0.1461  0.6641
20931SOL    HW164234   6.427   6.386   3.655 -1.5256  0.2243 -0.5715
20931SOL    HW264235   6.531   6.301   3.585  1.2969  0.8609  2.5845
20932SOL     OW64236   4.924   5.141   3.215 -0.2590 -0.3252 -0.1503
20932SOL    HW164237   5.000   5.107   3.262  0.6338  0.6230 -0.8518
20932SOL    HW264238   4.850   5.088   3.246  0.7335 -1.4883  0.2915
20933SOL     OW64239   7.113   4.304   0.856  0.3555  0.6817  0.1723
20933SOL    HW164240   7.090   4.266   0.771 -0.1780 -0.8514  0.9500
20933SOL    HW264241   7.163   4.383   0.835  0.1601  0.3839 -1.5544
20934SOL     OW64242   7.329   4.504   5.300  0.7279  0.1408  0.1562
20934SOL    HW164243   7.282   4.481   5.380 -0.3900  1.9987  0.1026
20934SOL    HW264244   7.368   4.422   5.270 -2.2282 -1.4800  0.3807
20935SOL     OW64245   5.656   4.298   1.930  0.1024 -0.0097  0.4527
20935SOL    HW164246   5.673   4.210   1.897 -2.2635 -0.6512  0.7128
20935SOL    HW264247   5.607   4.283   2.012 -0.0900  1.5454  0.6476
20936SOL     OW64248   4.097   4.249   1.869  0.3527  0.4215 -0.1592
20936SOL    HW164249   4.102   4.337   1.833  1.4670  0.0854 -0.8805
20936SOL    HW264250   4.071   4.194   1.795  1.1292 -0.0487 -0.1044
20937SOL     OW64251   5.965   5.262   1.347  0.0606 -0.1110 -0.1801
20937SOL    HW164252   5.962   5.194   1.280  1.9937  0.2238 -0.6433
20937SOL    HW264253   6.034   5.322   1.319  0.3888  0.4775  1.7028
20938SOL     OW64254   6.902   5.908   4.434 -0.1008  0.6034 -0.3853
20938SOL    HW164255   6.975   5.869   4.387 -0.3516  1.0564 -1.1574
20938SOL    HW264256   6.851   5.833   4.466 -0.3439  0.2842 -1.4846
20939SOL     OW64257   5.420   4.336   3.577 -0.6337  0.0104 -0.2548
20939SOL    HW164258   5.348   4.373   3.525 -0.4458  0.8681  0.0878
20939SOL    HW264259   5.387   4.251   3.606 -1.6942  0.5858  0.2743
20940SOL     OW64260   6.599   6.602   1.990 -0.1430  0.2842  0.1382
20940SOL    HW164261   6.556   6.687   1.999 -0.4747 -0.0014  1.4864
20940SOL    HW264262   6.561   6.549   2.060  3.2321  0.3693  2.2277
20941SOL     OW64263   6.356   6.614   1.150  0.7967  0.0719 -0.0513
20941SOL    HW164264   6.273   6.591   1.107  1.1549 -1.0108 -0.2028
20941SOL    HW264265   6.397   6.677   1.090  1.5820 -1.8812 -1.6907
20942SOL     OW64266   5.093   6.377  12.298  0.2258  0.1244  0.2945
20942SOL    HW164267   5.050   6.382  12.383  2.8322  2.1186  1.6599
20942SOL    HW264268   5.169   6.320  12.313  0.5157  0.2018 -0.7984
20943SOL     OW64269   6.011   4.846   2.787 -0.0848 -0.6413 -0.3615
20943SOL    HW164270   6.036   4.871   2.876 -3.3215  1.0139  0.2361
20943SOL    HW264271   6.094   4.835   2.741  1.7174 -1.4030  2.7714
20944SOL     OW64272   6.652   3.971  11.847  0.5702  0.4073 -0.0774
20944SOL    HW164273   6.734   4.014  11.825 -0.3753  2.4652  0.1600
20944SOL    HW264274   6.588   4.009  11.786 -0.6283  0.5697  1.2148
20945SOL     OW64275   7.932   3.163   4.227  0.0628  0.5012  0.3340
20945SOL    HW164276   7.886   3.246   4.216  0.7654  0.7604 -0.8685
20945SOL    HW264277   7.952   3.134   4.138 -0.2644 -1.0301  0.7247
20946SOL     OW64278   0.154   3.778   2.951  0.7897  0.3209  0.4112
20946SOL    HW164279   0.194   3.719   3.014 -0.7418 -0.8911  0.2881
20946SOL    HW264280   0.063   3.750   2.945  0.4701  1.5204 -1.0380
20947SOL     OW64281   6.368   3.852   3.466  0.0333 -0.2053  0.3953
20947SOL    HW164282   6.459   3.867   3.491  0.1030  0.3661 -0.1833
20947SOL    HW264283   6.363   3.757   3.452  1.3700  0.0466 -2.6194
20948SOL     OW64284   6.091   4.983   3.042  0.4565  0.5238 -0.2376
20948SOL    HW164285   6.135   4.974   3.127  0.8137  1.8759 -0.2582
20948SOL    HW264286   6.060   5.074   3.040  0.6705  0.5906 -1.6577
20949SOL     OW64287   3.534   5.430   1.129  0.0267 -0.3461  0.2681
20949SOL    HW164288   3.475   5.480   1.185  2.0344 -0.3233  2.5098
20949SOL    HW264289   3.518   5.339   1.154 -0.5016 -0.5193 -0.6489
20950SOL     OW64290   5.647   4.473   2.579 -0.3040  0.1355  0.4177
20950SOL    HW164291   5.739   4.457   2.559  0.1078 -0.8323  2.7854
20950SOL    HW264292   5.640   4.569   2.583  0.2338  0.2783 -1.0879
20951SOL     OW64293   6.707   4.484   1.366 -0.3617  0.0938  0.1838
20951SOL    HW164294   6.641   4.459   1.302 -1.1387  0.4087  0.8477
20951SOL    HW264295   6.777   4.524   1.314 -1.5094  1.4552 -0.3769
20952SOL     OW64296   0.325   5.042   3.763  0.0719 -0.1764  0.3519
20952SOL    HW164297   0.309   5.113   3.825 -0.6228 -0.1517  0.1472
20952SOL    HW264298   0.329   4.963   3.817 -0.2006 -0.1146  0.4598
20953SOL     OW64299   6.892   5.957   2.321 -0.3294  0.3033 -0.1941
20953SOL    HW164300   6.844   5.943   2.239  0.8466  0.7983 -0.9870
20953SOL    HW264301   6.834   5.922   2.389 -1.6420  0.5335 -1.1536
20954SOL     OW64302   5.172   3.836   1.111 -0.6131  0.5004  0.0662
20954SOL    HW164303   5.212   3.749   1.119  1.4763  1.3396 -0.7684
20954SOL    HW264304   5.195   3.880   1.193 -2.2202  0.1291  0.7780
20955SOL     OW64305   6.867   6.732   2.366 -0.8793 -0.4943 -0.3088
20955SOL    HW164306   6.911   6.797   2.312  1.9938 -1.6977  0.3968
20955SOL    HW264307   6.887   6.648   2.324  0.4974 -1.3651  1.9520
20956SOL     OW64308   5.183   6.050   1.046 -0.0630  0.2975 -0.1949
20956SOL    HW164309   5.268   6.026   1.083 -0.2595  0.7359  0.5592
20956SOL    HW264310   5.147   6.114   1.107 -1.1746 -0.2830 -0.2162
20957SOL     OW64311   7.659   4.126   1.863  0.0763 -0.3942  0.0014
20957SOL    HW164312   7.681   4.036   1.836  3.2138 -0.1611  1.2675
20957SOL    HW264313   7.724   4.180   1.817  0.6796  0.7550  2.1011
20958SOL     OW64314   7.253   5.609   4.328  0.1615  0.2457  0.1699
20958SOL    HW164315   7.265   5.601   4.423  0.2823  0.0337  0.1351
20958SOL    HW264316   7.207   5.693   4.318  0.4201  0.4190  0.3931
20959SOL     OW64317   7.723   5.231   2.588 -0.8914 -0.5036 -0.5945
20959SOL    HW164318   7.671   5.216   2.509 -1.6147  0.1947 -0.2685
20959SOL    HW264319   7.705   5.155   2.644  1.7088 -2.4053 -2.1206
20960SOL     OW64320   5.351   5.755   0.331  0.1362  0.1444 -0.2075
20960SOL    HW164321   5.298   5.802   0.267 -0.9977 -2.0266 -0.9830
20960SOL    HW264322   5.334   5.800   0.414 -0.6977  1.2298 -0.9410
20961SOL     OW64323   6.620   4.380   2.916  0.5328  0.3776  0.3159
20961SOL    HW164324   6.555   4.348   2.979  2.7559  0.0359  2.6441
20961SOL    HW264325   6.594   4.470   2.899 -3.2745 -1.0120 -2.8283
20962SOL     OW64326   0.102   7.985   0.250 -0.4753 -0.3833  0.7329
20962SOL    HW164327   0.067   7.994   0.161 -0.4354  0.2141  0.7775
20962SOL    HW264328   0.092   8.072   0.289 -2.0371 -1.0428  1.8865
20963SOL     OW64329   6.090   4.301   2.093 -0.0165  0.5206  0.5817
20963SOL    HW164330   6.162   4.311   2.030 -0.1897 -1.2086  0.0457
20963SOL    HW264331   6.014   4.336   2.047  0.2804  1.4086  0.7509
20964SOL     OW64332   5.301   7.081   1.067  0.5938 -0.8827 -0.0916
20964SOL    HW164333   5.292   7.007   1.126 -0.1180 -0.4274  0.3952
20964SOL    HW264334   5.213   7.092   1.029  1.0964 -1.3417 -1.4544
20965SOL     OW64335   7.023   5.554   2.349 -0.2529  0.3043  0.5848
20965SOL    HW164336   6.985   5.498   2.417 -0.7133  0.5533  0.5343
20965SOL    HW264337   7.054   5.631   2.396 -1.5186  0.9541  0.3896
20966SOL     OW64338   7.536   4.838   4.071  0.7199 -0.0002  0.1701
20966SOL    HW164339   7.493   4.895   4.134  1.2055  1.0678 -0.4336
20966SOL    HW264340   7.532   4.750   4.110  0.2708  0.5012  1.2753
20967SOL     OW64341   5.416   0.063   1.935 -0.1464 -0.3331  0.3998
20967SOL    HW164342   5.402  -0.013   1.878 -1.7850  0.2479 -0.0220
20967SOL    HW264343   5.412   0.026   2.024  0.3419 -0.9219  0.1891
20968SOL     OW64344   6.615   5.985   3.261 -0.1743 -0.5533  0.1190
20968SOL    HW164345   6.551   6.013   3.326 -1.2007 -0.9257 -0.6963
20968SOL    HW264346   6.629   5.892   3.281 -0.9485 -0.8222 -0.5426
20969SOL     OW64347   3.667   6.235   2.391  0.2832  0.3991 -0.2866
20969SOL    HW164348   3.572   6.237   2.401  0.2958  0.4010 -0.1694
20969SOL    HW264349   3.687   6.314   2.341  0.0971 -0.2293 -1.3876
20970SOL     OW64350   6.565   2.963   4.052 -0.1987 -0.4859  0.4920
20970SOL    HW164351   6.509   3.006   4.116 -1.7035 -0.0657 -1.0377
20970SOL    HW264352   6.619   3.034   4.016  1.0130 -0.8060  1.6053
20971SOL     OW64353   7.885   4.892   2.843 -0.2742 -0.1156 -0.1129
20971SOL    HW164354   7.970   4.897   2.887 -0.0247  0.1400 -0.6133
20971SOL    HW264355   7.902   4.921   2.754 -1.2830  2.0479  0.3189
20972SOL     OW64356   6.164   4.587   4.244  0.2587 -0.1390 -0.3915
20972SOL    HW164357   6.164   4.494   4.266 -1.1413 -0.1556 -0.4184
20972SOL    HW264358   6.247   4.600   4.197  0.1134 -1.5405 -1.0950
20973SOL     OW64359   6.305   5.475   2.647 -0.1231 -0.2267  0.3134
20973SOL    HW164360   6.226   5.421   2.643  0.0890 -0.4861 -0.4362
20973SOL    HW264361   6.287   5.549   2.588  0.3372 -0.4834 -0.1575
20974SOL     OW64362   6.739   3.838   2.766  0.2151 -0.4057 -0.0288
20974SOL    HW164363   6.705   3.785   2.695 -0.8137 -1.3365  1.1118
20974SOL    HW264364   6.680   3.914   2.770 -0.0745 -0.6412  0.1935
20975SOL     OW64365   5.348   5.289   1.296 -0.5939  0.0018 -0.3422
20975SOL    HW164366   5.311   5.222   1.353  1.7234 -0.0348  1.2534
20975SOL    HW264367   5.355   5.248   1.210 -2.5109 -0.5373 -0.2847
20976SOL     OW64368   5.595   5.361   0.229  0.1266  0.3941  0.6191
20976SOL    HW164369   5.688   5.364   0.210 -0.4089  1.0539 -2.3181
20976SOL    HW264370   5.562   5.447   0.203 -1.8031 -0.9764 -1.9095
20977SOL     OW64371   5.678   1.825   2.811  0.2068 -0.4523  0.2680
20977SOL    HW164372   5.754   1.767   2.818 -1.5173 -2.8957 -0.0963
20977SOL    HW264373   5.615   1.775   2.760 -2.0823  1.0406  1.4983
20978SOL     OW64374   7.261   5.397   1.444  0.0504 -0.3043  0.3699
20978SOL    HW164375   7.182   5.354   1.477 -0.0254  0.3749  1.0763
20978SOL    HW264376   7.230   5.480   1.408  0.2874 -0.5493 -0.4200
20979SOL     OW64377   4.416   3.334   1.687  0.5352  0.0072  0.2824
20979SOL    HW164378   4.504   3.310   1.717  1.1447  1.1176 -0.5332
20979SOL    HW264379   4.426   3.348   1.593 -0.8864 -1.3921 -0.1128
20980SOL     OW64380   7.156   5.198   1.827 -0.0507 -0.2451  0.1341
20980SOL    HW164381   7.088   5.195   1.894  0.6242 -1.0707  0.8107
20980SOL    HW264382   7.224   5.254   1.865 -0.1678  0.2302 -0.3547
20981SOL     OW64383   7.600   3.153   4.026  0.0344 -0.6773 -0.0397
20981SOL    HW164384   7.637   3.231   3.984  1.2246 -1.0835  0.2338
20981SOL    HW264385   7.505   3.162   4.013  0.1867  0.5755 -0.4212
20982SOL     OW64386   5.805   7.650   4.516  0.8814 -0.6785 -0.2865
20982SOL    HW164387   5.821   7.566   4.560  1.2868 -0.4443  0.0128
20982SOL    HW264388   5.761   7.703   4.582  0.6953 -0.6248 -0.4522
20983SOL     OW64389   6.258   6.032   1.123  0.3476  0.2333 -0.4708
20983SOL    HW164390   6.268   6.048   1.217  1.2095  1.3015 -0.7167
20983SOL    HW264391   6.347   6.036   1.089  0.2411 -1.8253 -1.1136
20984SOL     OW64392   6.043   6.256   1.512 -0.3987 -0.7041 -0.1512
20984SOL    HW164393   6.102   6.265   1.586  0.0645 -2.6225 -0.2487
20984SOL    HW264394   5.987   6.334   1.517  1.1679  0.4279  0.7800
20985SOL     OW64395   5.522   4.969   2.455 -0.4396  0.1669 -0.3320
20985SOL    HW164396   5.595   5.025   2.480  1.0793 -1.3569 -1.1352
20985SOL    HW264397   5.495   4.927   2.536  0.1819  0.0824 -0.1599
20986SOL     OW64398   7.803   4.377   4.030  0.2172 -0.0925  0.1109
20986SOL    HW164399   7.821   4.397   4.122 -0.1927  2.0159 -0.2132
20986SOL    HW264400   7.880   4.408   3.983  0.7120 -1.7605 -0.2332
20987SOL     OW64401   4.910   2.927   2.384 -0.2577 -0.1177 -0.2563
20987SOL    HW164402   4.859   3.004   2.359 -0.1924  0.9632  2.5679
20987SOL    HW264403   4.993   2.937   2.337 -0.2744  1.5461  0.0217
20988SOL     OW64404   6.037   3.861   1.109 -0.0286  0.1876 -0.0813
20988SOL    HW164405   6.089   3.866   1.029  0.8491 -0.0679  0.4622
20988SOL    HW264406   6.025   3.768   1.124 -1.9309  0.2197 -0.9863
20989SOL     OW64407   6.696   1.666   3.662 -0.1591  0.1653  0.2628
20989SOL    HW164408   6.709   1.595   3.725 -0.1270  0.9011  1.1128
20989SOL    HW264409   6.767   1.656   3.599 -0.5625 -0.9604 -0.0203
20990SOL     OW64410   6.127   5.084   2.174 -0.4428  0.0677 -0.0894
20990SOL    HW164411   6.203   5.142   2.172  0.6348 -1.2510  0.7687
20990SOL    HW264412   6.091   5.094   2.262  0.4442 -1.3659  0.4726
20991SOL     OW64413   7.631   4.463   2.083  0.6473 -0.0557  0.6734
20991SOL    HW164414   7.706   4.404   2.087  0.5922 -0.2606 -0.9397
20991SOL    HW264415   7.658   4.533   2.024 -0.5240 -0.2834 -0.1569
20992SOL     OW64416   7.499   4.805   3.386  0.0394 -0.4642  0.0043
20992SOL    HW164417   7.529   4.889   3.351 -0.3435 -0.5656 -0.5834
20992SOL    HW264418   7.574   4.771   3.434  0.6133 -0.3764 -0.8240
20993SOL     OW64419   6.663   6.197   1.106 -0.4864 -0.1473  0.4015
20993SOL    HW164420   6.703   6.223   1.189  0.7941 -0.1540 -0.1939
20993SOL    HW264421   6.575   6.235   1.109 -0.4516 -0.1247  1.7398
20994SOL     OW64422   5.460   5.485   3.182  0.4513  0.4910  0.1975
20994SOL    HW164423   5.481   5.559   3.126  0.0767  0.5553  0.1448
20994SOL    HW264424   5.373   5.504   3.217  0.5714  0.3273  0.5954
20995SOL     OW64425   7.004   3.856   2.823 -0.2768 -0.3169 -0.2191
20995SOL    HW164426   6.911   3.849   2.804 -0.3654 -1.1529  0.4819
20995SOL    HW264427   7.012   3.837   2.916  0.5550  0.1113 -0.1915
20996SOL     OW64428   6.125   5.401   0.694  0.3997  0.1406 -0.0918
20996SOL    HW164429   6.096   5.492   0.685  0.6381  0.2208 -0.0454
20996SOL    HW264430   6.178   5.401   0.774  0.2185 -0.0846  0.0286
20997SOL     OW64431   1.559   6.217   4.799  0.0725  0.0214 -0.1420
20997SOL    HW164432   1.647   6.202   4.765  0.0410  0.9383 -0.6596
20997SOL    HW264433   1.528   6.130   4.825  1.0586 -0.3315 -0.1219
20998SOL     OW64434   6.485   6.584   2.670 -0.4022  0.2205 -0.3653
20998SOL    HW164435   6.540   6.659   2.694  1.0585 -0.1297 -2.2965
20998SOL    HW264436   6.400   6.623   2.649  0.5345  1.5180 -2.0410
20999SOL     OW64437   6.015   7.722   2.988  0.1108 -0.3128 -0.3277
20999SOL    HW164438   5.991   7.788   3.053 -1.6826 -0.0265 -1.2068
20999SOL    HW264439   5.998   7.638   3.031 -0.9738 -0.1289 -0.3593
21000SOL     OW64440   6.511   5.510   3.037 -0.2061 -0.6191  0.4901
21000SOL    HW164441   6.533   5.418   3.054 -0.4351 -0.3288  2.5401
21000SOL    HW264442   6.479   5.543   3.120  1.3839  1.7962  0.2365
21001SOL     OW64443   5.010   4.300   1.949 -0.3547 -0.3995  0.2102
21001SOL    HW164444   5.036   4.391   1.932  1.6674 -0.5853  1.8251
21001SOL    HW264445   4.955   4.305   2.027 -1.2302 -0.4780 -0.3894
21002SOL     OW64446   7.487   1.355   3.865 -0.1177 -1.0662  0.3576
21002SOL    HW164447   7.524   1.422   3.922 -0.1995 -1.1367  0.4943
21002SOL    HW264448   7.393   1.363   3.877 -0.1942 -0.4348 -0.4959
21003SOL     OW64449   5.993   5.483   2.103  0.6276 -0.4782  0.0689
21003SOL    HW164450   6.070   5.475   2.159  1.6247  0.8131 -1.0380
21003SOL    HW264451   5.993   5.574   2.074 -1.0166 -0.5913 -0.3976
21004SOL     OW64452   5.023   4.583   1.883 -0.6322 -0.2560 -0.1073
21004SOL    HW164453   4.951   4.645   1.877 -0.4530 -0.1234 -1.0458
21004SOL    HW264454   5.099   4.631   1.850 -0.0024 -0.2591  1.2344
21005SOL     OW64455   6.849   5.132   3.654  0.1234 -0.3764 -0.1487
21005SOL    HW164456   6.911   5.205   3.659 -0.5946  0.2530 -0.2958
21005SOL    HW264457   6.783   5.152   3.721 -1.1497  0.1265 -1.5205
21006SOL     OW64458   7.228   2.496   3.393  0.5044  0.2816  0.1898
21006SOL    HW164459   7.232   2.463   3.483 -1.0278  1.4044  0.7084
21006SOL    HW264460   7.314   2.476   3.357  0.6786 -1.4816  1.4319
21007SOL     OW64461   4.495   4.527   1.154 -0.3618  0.8694 -0.3090
21007SOL    HW164462   4.582   4.558   1.128  0.5702 -1.7414 -0.6023
21007SOL    HW264463   4.498   4.433   1.139 -1.7609 -0.0401  3.7529
21008SOL     OW64464   4.453   5.249   2.975  0.1499 -0.2290  0.4148
21008SOL    HW164465   4.367   5.228   3.011 -0.0049  0.4686  0.4832
21008SOL    HW264466   4.506   5.171   2.991 -0.2276 -0.3458  1.1679
21009SOL     OW64467   5.421   5.205   3.208 -0.3139 -0.5675 -0.0262
21009SOL    HW164468   5.363   5.231   3.280 -1.4067 -1.4254 -0.5708
21009SOL    HW264469   5.453   5.287   3.172 -1.3038 -0.0678  0.2071
21010SOL     OW64470   5.598   6.377   2.187 -0.0525 -0.1107  0.2181
21010SOL    HW164471   5.635   6.317   2.252  0.6783 -0.0923 -0.1650
21010SOL    HW264472   5.652   6.456   2.194 -0.3852  0.1344  0.0407
21011SOL     OW64473   5.819   4.739   3.958 -0.2000 -0.1377 -0.2217
21011SOL    HW164474   5.814   4.654   4.001 -0.4430 -0.2364 -0.4418
21011SOL    HW264475   5.731   4.754   3.925 -0.4624  0.7338  0.8219
21012SOL     OW64476   6.187   4.878   1.510 -0.2992 -0.5632 -0.1635
21012SOL    HW164477   6.280   4.875   1.489 -0.5296 -2.3064 -1.1667
21012SOL    HW264478   6.145   4.916   1.433 -0.3121  2.0291  1.0099
21013SOL     OW64479   6.106   3.827   2.440 -0.0340 -0.1729 -0.3399
21013SOL    HW164480   6.106   3.923   2.438 -1.8954 -0.1507 -0.3780
21013SOL    HW264481   6.019   3.802   2.409  0.5082 -1.8957 -0.5753
21014SOL     OW64482   6.743   4.053   3.092  0.4612  0.1868  0.0032
21014SOL    HW164483   6.789   4.084   3.014  0.9546 -1.2039 -0.2869
21014SOL    HW264484   6.651   4.050   3.066  0.5700  0.1402 -0.3766
21015SOL     OW64485   7.382   4.379   3.946  0.4296  0.0387  0.5631
21015SOL    HW164486   7.464   4.366   3.994  1.3394 -0.9083 -1.1477
21015SOL    HW264487   7.316   4.333   3.999  1.4993 -1.4752  0.6529
21016SOL     OW64488   7.149   2.027   3.391 -0.3656  0.4706  0.5323
21016SOL    HW164489   7.072   1.989   3.350  1.0994 -0.0789 -1.9397
21016SOL    HW264490   7.139   2.121   3.379 -1.1379  0.4884  1.2261
21017SOL     OW64491   7.318   5.147   1.320  0.1297  0.2043 -0.1362
21017SOL    HW164492   7.310   5.069   1.374 -1.4226  0.9150  0.7587
21017SOL    HW264493   7.292   5.219   1.378 -0.5030  1.1376 -1.5059
21018SOL     OW64494   6.455   4.368   4.901  0.1900  0.3665 -0.1419
21018SOL    HW164495   6.376   4.414   4.927 -0.0118  0.5149 -0.9787
21018SOL    HW264496   6.428   4.314   4.826  0.4192 -1.1286  0.8067
21019SOL     OW64497   6.846   6.208   2.613  0.3515 -0.1098  0.0239
21019SOL    HW164498   6.792   6.150   2.667  2.7999 -1.5886  1.0649
21019SOL    HW264499   6.792   6.228   2.537 -1.9188 -0.8030  1.3629
21020SOL     OW64500   6.822   2.822   2.510  0.6204 -0.1294 -0.0624
21020SOL    HW164501   6.902   2.788   2.550  0.9534  0.6169 -0.0765
21020SOL    HW264502   6.829   2.799   2.418  2.0776  2.1348 -0.6062
21021SOL     OW64503   7.970   3.063   4.591 -0.4736  0.3175  0.3372
21021SOL    HW164504   8.024   3.134   4.557  0.3499 -0.4873 -0.0849
21021SOL    HW264505   7.922   3.031   4.514  0.1912 -0.4574  0.2197
21022SOL     OW64506   7.008   4.187   1.571 -0.5152 -0.4594 -0.3613
21022SOL    HW164507   7.021   4.187   1.476  0.0900 -0.4827 -0.2848
21022SOL    HW264508   7.062   4.114   1.602  1.1721  0.9558  0.2280
21023SOL     OW64509   6.737   5.890   4.987 -0.6689  0.0936 -0.0560
21023SOL    HW164510   6.736   5.813   5.044 -1.6606  0.3690  0.3163
21023SOL    HW264511   6.678   5.867   4.915  0.1561 -0.0414 -0.7081
21024SOL     OW64512   5.978   5.196   0.554  0.6528 -0.2048  0.2057
21024SOL    HW164513   5.896   5.244   0.564 -0.2584 -1.7396  0.3790
21024SOL    HW264514   6.045   5.254   0.590 -0.3167  1.1679 -0.1404
21025SOL     OW64515   6.867   5.452   1.733  0.0469 -0.2665 -0.2187
21025SOL    HW164516   6.868   5.414   1.821 -1.2422  1.1824  0.4634
21025SOL    HW264517   6.896   5.543   1.746 -1.0536  0.2404 -1.1292
21026SOL     OW64518   5.997   3.822   1.783 -0.1637  0.2990 -0.3004
21026SOL    HW164519   5.928   3.841   1.719  0.3939 -0.9891 -1.3220
21026SOL    HW264520   6.045   3.748   1.745 -0.2935 -1.0418  1.9751
21027SOL     OW64521   6.389   5.938   2.159 -0.6411  0.0042 -0.1451
21027SOL    HW164522   6.415   5.949   2.250 -0.3631  0.3943 -0.2639
21027SOL    HW264523   6.356   6.024   2.133 -0.2803  0.0265 -0.5419
21028SOL     OW64524   7.989   6.167   4.278  0.1043  0.0628 -0.0674
21028SOL    HW164525   8.074   6.184   4.319  0.8244 -0.1308 -1.4218
21028SOL    HW264526   8.007   6.103   4.209 -1.1747 -0.1221 -0.2657
21029SOL     OW64527   6.662   5.311   3.450 -0.3982  0.5063 -0.0549
21029SOL    HW164528   6.695   5.227   3.483 -0.2473 -0.0625 -1.5680
21029SOL    HW264529   6.571   5.314   3.478 -0.0027  0.5405  1.2870
21030SOL     OW64530   5.487   3.744   2.880  0.4093  0.1243  0.6373
21030SOL    HW164531   5.429   3.777   2.810  0.5215  0.5524  0.7417
21030SOL    HW264532   5.434   3.680   2.926  0.9347 -1.5473 -0.9644
21031SOL     OW64533   6.904   4.898   1.984  0.7063 -0.1188 -0.4936
21031SOL    HW164534   6.865   4.813   2.005  1.8717 -0.1330  1.9108
21031SOL    HW264535   6.837   4.943   1.933 -1.1426 -1.3376  0.7348
21032SOL     OW64536   6.346   5.097   2.850  0.8647  0.1896 -0.0522
21032SOL    HW164537   6.432   5.129   2.877  0.7887 -0.1501  0.6350
21032SOL    HW264538   6.288   5.124   2.921  0.4549  0.1861 -0.3868
21033SOL     OW64539   5.773   5.576   1.357  0.5010  0.2048 -0.7629
21033SOL    HW164540   5.707   5.521   1.316  1.8355 -0.5139 -2.0363
21033SOL    HW264541   5.855   5.549   1.316  1.7879  0.1549  1.7028
21034SOL     OW64542   6.239   4.316   4.355 -0.1307 -0.1123  0.2923
21034SOL    HW164543   6.245   4.315   4.451 -1.9982  1.1814  0.4637
21034SOL    HW264544   6.318   4.363   4.327 -0.5926  1.3600  1.3448
21035SOL     OW64545   6.338   5.120   1.117  0.4052  0.4536  0.2677
21035SOL    HW164546   6.260   5.071   1.142  0.2289  0.0583 -0.9835
21035SOL    HW264547   6.395   5.114   1.193 -1.4841  2.3453  1.9825
21036SOL     OW64548   6.982   3.991   4.685 -0.1437 -0.2923 -0.0518
21036SOL    HW164549   6.962   3.914   4.631 -0.5551  1.5739 -2.7590
21036SOL    HW264550   6.897   4.024   4.713 -0.1067  0.4176 -0.7645
21037SOL     OW64551   5.945   5.568   4.189  0.2202 -0.0013  0.1734
21037SOL    HW164552   5.939   5.481   4.228 -0.6821 -0.2865 -0.5581
21037SOL    HW264553   5.927   5.628   4.261  0.6804 -0.4152  0.6437
21038SOL     OW64554   7.215   4.109   1.037 -0.5578  0.4408  0.1141
21038SOL    HW164555   7.244   4.062   0.958  1.5280  2.5393 -0.4708
21038SOL    HW264556   7.161   4.181   1.004 -1.3513  0.1738  0.7916
21039SOL     OW64557   6.750   6.461   1.618  0.1457 -0.0752  0.4660
21039SOL    HW164558   6.711   6.549   1.619 -0.7024 -0.4192 -0.4006
21039SOL    HW264559   6.718   6.422   1.536 -0.3106 -1.5508  1.3162
21040SOL     OW64560   5.310   4.001   4.089 -0.2894  0.0248  0.3469
21040SOL    HW164561   5.319   3.934   4.022 -1.4489  0.4718 -0.2910
21040SOL    HW264562   5.216   4.000   4.111 -0.2348  1.0913  0.6808
21041SOL     OW64563   7.281   4.564   3.302 -0.2535  0.4778  0.2817
21041SOL    HW164564   7.314   4.494   3.359  0.2325  0.4096 -0.0777
21041SOL    HW264565   7.186   4.551   3.301 -0.0671 -1.1609 -1.0275
21042SOL     OW64566   5.831   3.607   2.937 -0.2237  0.2682  0.0245
21042SOL    HW164567   5.796   3.694   2.920  2.0786  1.4228  0.8757
21042SOL    HW264568   5.885   3.587   2.860  0.0147 -0.0062  0.2611
21043SOL     OW64569   6.221   3.324   4.129 -0.5072 -0.5682  0.6300
21043SOL    HW164570   6.158   3.253   4.114  0.2718 -1.1982  0.2749
21043SOL    HW264571   6.166   3.401   4.145 -1.4546 -0.5618 -2.0250
21044SOL     OW64572   7.441   6.298   0.162 -0.0012  0.0434  0.0291
21044SOL    HW164573   7.503   6.252   0.218 -1.3755 -2.5854 -0.4792
21044SOL    HW264574   7.404   6.367   0.218  0.2038 -1.1646  1.7008
21045SOL     OW64575   0.390   4.872   0.927 -0.7032  0.1952 -0.5224
21045SOL    HW164576   0.434   4.833   0.851 -0.8653 -3.4605  1.0448
21045SOL    HW264577   0.313   4.816   0.941 -1.1290  1.2621  1.8222
21046SOL     OW64578   7.451   6.122   2.910 -0.3568  0.4743  0.1882
21046SOL    HW164579   7.494   6.037   2.898  0.8097  1.2475 -1.4851
21046SOL    HW264580   7.373   6.117   2.855  0.4078  0.9122 -0.9830
21047SOL     OW64581   5.324   5.135   5.723  0.0381 -0.1610 -0.6138
21047SOL    HW164582   5.387   5.080   5.677  0.5369  1.1975 -1.6221
21047SOL    HW264583   5.241   5.088   5.716  0.2699 -0.3752 -2.2322
21048SOL     OW64584   7.653   3.376   3.148 -0.0319 -0.4402  0.6960
21048SOL    HW164585   7.566   3.415   3.141 -0.8254 -2.2836 -1.0130
21048SOL    HW264586   7.713   3.450   3.153 -1.6571  0.8816  1.4920
21049SOL     OW64587   5.489   6.895   2.304  0.0951 -0.0116  0.6661
21049SOL    HW164588   5.577   6.916   2.335 -0.1561  1.6576  0.3820
21049SOL    HW264589   5.453   6.979   2.276 -1.0116 -0.9043 -0.7317
21050SOL     OW64590   7.844   5.551   2.217 -0.0174  0.8324  0.1776
21050SOL    HW164591   7.890   5.504   2.148 -0.7302 -1.0957  0.9415
21050SOL    HW264592   7.907   5.559   2.288 -0.6154 -1.3808  1.0402
21051SOL     OW64593   7.182   4.166   5.244  0.6950 -0.0611 -0.0253
21051SOL    HW164594   7.125   4.090   5.247  2.2645 -1.2810 -0.1344
21051SOL    HW264595   7.261   4.136   5.199  1.3768  1.6194 -0.0418
21052SOL     OW64596   0.186   3.671   3.489  0.2707 -0.5936  0.2094
21052SOL    HW164597   0.127   3.744   3.471 -1.5758 -2.8083 -4.1642
21052SOL    HW264598   0.149   3.627   3.565 -0.5037  1.0913  0.8453
21053SOL     OW64599   7.289   4.810   2.119 -0.0993 -0.2529  0.0934
21053SOL    HW164600   7.358   4.838   2.059 -1.9565  0.7545 -1.7123
21053SOL    HW264601   7.332   4.804   2.204  2.3789 -0.5526 -1.1092
21054SOL     OW64602   7.294   5.602   3.567 -0.4750 -0.0532 -0.5001
21054SOL    HW164603   7.235   5.674   3.546 -2.0440 -1.5013 -1.3774
21054SOL    HW264604   7.257   5.563   3.647  0.0551 -0.1764 -0.3151
21055SOL     OW64605   5.254   7.426   2.019 -0.0657 -0.0207 -0.0556
21055SOL    HW164606   5.278   7.467   1.936  0.6379 -0.1108  0.0978
21055SOL    HW264607   5.253   7.333   2.001  0.8990 -0.0953  0.2316
21056SOL     OW64608   4.726   3.769   0.667 -0.6918  0.4396 -0.2131
21056SOL    HW164609   4.719   3.682   0.706  1.3533 -0.2100 -1.1534
21056SOL    HW264610   4.690   3.759   0.579  1.0195  0.0581 -0.9152
21057SOL     OW64611   5.720   4.813   1.452  0.0387 -0.4473 -0.1029
21057SOL    HW164612   5.753   4.858   1.530  0.3494 -0.1237 -0.4217
21057SOL    HW264613   5.653   4.872   1.417 -1.0011 -1.1614  0.6226
21058SOL     OW64614   5.728   2.560   1.736 -0.3612  0.2520  0.0947
21058SOL    HW164615   5.730   2.465   1.728 -0.6868  0.3870 -2.4964
21058SOL    HW264616   5.648   2.578   1.785 -1.7168 -0.8022 -1.5858
21059SOL     OW64617   6.368   5.334   1.725 -0.0854  0.0250  0.3985
21059SOL    HW164618   6.359   5.256   1.781 -2.2340 -0.3576 -0.3661
21059SOL    HW264619   6.278   5.354   1.700  0.7033  1.0223 -1.7934
21060SOL     OW64620   6.280   5.615   2.900  0.4041 -0.1694  0.2578
21060SOL    HW164621   6.272   5.527   2.865  0.0705  0.1646 -0.5386
21060SOL    HW264622   6.373   5.635   2.897  0.4412 -0.3688  0.1110
21061SOL     OW64623   4.949   4.909   2.620 -0.2324 -0.4793 -0.0066
21061SOL    HW164624   4.959   4.821   2.656  0.1425 -0.8764 -1.0569
21061SOL    HW264625   4.919   4.895   2.530 -1.0690  0.4903  0.0946
21062SOL     OW64626   0.277   4.771   2.537  0.4310  0.3707  0.3269
21062SOL    HW164627   0.253   4.858   2.506 -1.3900  0.4320  1.7521
21062SOL    HW264628   0.194   4.725   2.547  1.3263 -1.4223 -0.0041
21063SOL     OW64629   6.853   6.697   0.876  0.8256 -0.3042  0.1551
21063SOL    HW164630   6.936   6.743   0.861  1.7079 -1.9975 -0.4499
21063SOL    HW264631   6.808   6.701   0.791 -1.0542  2.9257  1.1091
21064SOL     OW64632   7.910   5.446   1.965  0.6261  0.2151 -0.0618
21064SOL    HW164633   7.857   5.452   1.886  1.4243  2.9392 -0.4927
21064SOL    HW264634   7.937   5.354   1.969 -1.3188 -0.4912 -1.6426
21065SOL     OW64635   6.412   5.180   2.533  0.1156 -0.3873  0.2222
21065SOL    HW164636   6.473   5.234   2.584  1.4504 -2.1016  0.5109
21065SOL    HW264637   6.452   5.173   2.447 -0.8332  0.3139 -0.3005
21066SOL     OW64638   5.311   4.617   2.299 -0.0767 -0.1478 -0.3291
21066SOL    HW164639   5.300   4.712   2.298 -1.2219 -0.2680 -0.0127
21066SOL    HW264640   5.234   4.583   2.255 -0.0740 -0.9705  0.2809
21067SOL     OW64641   4.297   4.028   2.567  0.0753 -0.4661  0.4314
21067SOL    HW164642   4.342   4.067   2.642 -1.5649  1.3127  0.5650
21067SOL    HW264643   4.209   4.007   2.600 -0.8064  0.6970 -1.0508
21068SOL     OW64644   6.195   4.482   0.760 -0.0456  0.5028  0.5310
21068SOL    HW164645   6.102   4.468   0.776 -0.4636 -0.1171 -2.0535
21068SOL    HW264646   6.238   4.447   0.838 -1.9599  1.1098  1.9223
21069SOL     OW64647   6.139   6.163   1.876 -0.1286  0.1291 -0.0381
21069SOL    HW164648   6.201   6.189   1.807  1.5499  0.3965  1.5092
21069SOL    HW264649   6.177   6.199   1.956 -1.5416 -0.9974  1.1649
21070SOL     OW64650   7.082   5.748   2.522  0.3952  0.1242 -0.3876
21070SOL    HW164651   6.995   5.771   2.552 -0.0972 -0.5136 -1.2810
21070SOL    HW264652   7.115   5.827   2.479  0.3263  0.4194  0.1051
21071SOL     OW64653   5.829   5.441   3.613 -0.2980  0.2252  0.0745
21071SOL    HW164654   5.875   5.525   3.610 -0.2662  0.2605  1.1196
21071SOL    HW264655   5.737   5.463   3.596 -0.0275  0.2190 -1.5023
21072SOL     OW64656   7.116   5.754   3.823  0.2554 -0.1373 -0.5854
21072SOL    HW164657   7.126   5.660   3.834 -1.4942 -0.3322 -0.3296
21072SOL    HW264658   7.041   5.777   3.878  0.2890  1.3147 -1.0865
21073SOL     OW64659   4.277   4.181   2.093  0.2120 -0.2777  0.0431
21073SOL    HW164660   4.222   4.237   2.037 -0.6679 -0.6574  0.5051
21073SOL    HW264661   4.224   4.102   2.106  0.4709 -0.2624  1.2668
21074SOL     OW64662   0.167   4.538   2.959  0.4982 -0.3268  0.6845
21074SOL    HW164663   0.187   4.627   2.986  0.7201  0.0621 -0.6831
21074SOL    HW264664   0.073   4.539   2.941  0.3590 -0.5731  1.3646
21075SOL     OW64665   5.953   4.298   2.746 -0.5488  0.1346  0.3447
21075SOL    HW164666   5.881   4.307   2.808 -1.3995  0.2873 -0.6357
21075SOL    HW264667   5.987   4.387   2.735 -2.4716  0.7087 -1.7684
21076SOL     OW64668   6.524   3.682   5.380  0.2419 -0.1294 -0.1924
21076SOL    HW164669   6.468   3.661   5.455 -0.3405 -0.8107 -0.8025
21076SOL    HW264670   6.612   3.685   5.416 -0.1496  0.7520  0.7508
21077SOL     OW64671   5.724   5.030   2.818 -0.2194  0.0046 -0.0984
21077SOL    HW164672   5.725   5.096   2.749 -0.2642 -0.3146 -0.4048
21077SOL    HW264673   5.811   4.988   2.813 -0.1883  0.0439  0.0999
21078SOL     OW64674   5.084   4.266   4.143  0.2117 -0.3009  0.0258
21078SOL    HW164675   5.099   4.180   4.181  0.1338 -1.0961 -1.6821
21078SOL    HW264676   4.990   4.280   4.151  0.1674 -0.5518 -0.0569
21079SOL     OW64677   6.052   3.736   3.535  0.3118 -0.1448 -0.5457
21079SOL    HW164678   6.059   3.831   3.540  1.4898 -0.2383 -0.1420
21079SOL    HW264679   6.114   3.710   3.468 -0.1805 -0.6177 -0.8270
21080SOL     OW64680   5.659   4.728   2.628  0.2702 -0.0092  0.0445
21080SOL    HW164681   5.588   4.791   2.642  2.1314  2.4180 -0.7017
21080SOL    HW264682   5.692   4.710   2.716 -0.4230 -0.1513  0.2862
21081SOL     OW64683   5.779   4.021   1.870  0.4933  1.1100 -0.7882
21081SOL    HW164684   5.789   3.967   1.949 -0.7416  1.1186 -0.6070
21081SOL    HW264685   5.867   4.026   1.833  0.4512 -2.4426 -1.7546
21082SOL     OW64686   6.292   4.291   1.925 -0.0338 -0.2053  0.2900
21082SOL    HW164687   6.334   4.209   1.898 -1.7614 -1.6482  1.6284
21082SOL    HW264688   6.345   4.360   1.886  2.0389 -1.9336 -0.1547
21083SOL     OW64689   7.625   4.352  11.574  0.1525  0.0577  0.1818
21083SOL    HW164690   7.560   4.284  11.591 -0.1881 -0.2803 -2.2150
21083SOL    HW264691   7.707   4.316  11.606 -0.3007 -0.8202  0.3744
21084SOL     OW64692   7.589   4.526   3.173 -0.3319 -0.9027 -0.2989
21084SOL    HW164693   7.616   4.542   3.082 -0.5109  1.3654 -0.0208
21084SOL    HW264694   7.671   4.508   3.219  0.2342  1.3221 -0.3273
21085SOL     OW64695   6.142   6.042   3.358  0.2161 -0.1978 -0.0180
21085SOL    HW164696   6.132   6.041   3.263  0.9701 -0.1246 -0.1077
21085SOL    HW264697   6.220   6.097   3.373 -1.9107  2.8958  0.8319
21086SOL     OW64698   6.881   5.670   4.852 -0.4245  0.8060 -0.3443
21086SOL    HW164699   6.830   5.746   4.881  0.4852  1.9394 -1.5998
21086SOL    HW264700   6.947   5.659   4.921  0.7135  2.4752 -1.0885
21087SOL     OW64701   7.724   3.594   3.842 -0.3410 -0.6399  0.2259
21087SOL    HW164702   7.740   3.594   3.936 -0.0934  2.6790  0.3133
21087SOL    HW264703   7.633   3.565   3.833 -0.7073 -0.0145  1.6231
21088SOL     OW64704   5.901   5.183   4.198 -0.2809  0.2420  0.5985
21088SOL    HW164705   5.892   5.105   4.142 -1.1977  2.0269 -1.9133
21088SOL    HW264706   5.990   5.177   4.233 -0.1932 -1.7153  0.1552
21089SOL     OW64707   7.203   4.691   2.659 -0.0375 -0.2082  0.0029
21089SOL    HW164708   7.244   4.777   2.666 -1.8786  0.8338 -1.1427
21089SOL    HW264709   7.144   4.686   2.734 -0.8939  0.1297 -0.6217
21090SOL     OW64710   6.402   1.563   2.205  0.1020  0.4675 -0.2249
21090SOL    HW164711   6.456   1.637   2.176 -0.4110  0.6410 -0.7573
21090SOL    HW264712   6.460   1.488   2.200  0.8072  0.9087  0.8813
21091SOL     OW64713   5.129   4.937   3.604 -0.4847  0.0431 -0.2495
21091SOL    HW164714   5.042   4.974   3.590 -0.6259 -0.3731 -0.5052
21091SOL    HW264715   5.183   4.975   3.534 -0.9306 -1.1865 -1.3085
21092SOL     OW64716   7.062   5.088   4.226 -0.0839  0.0485  0.7376
21092SOL    HW164717   7.011   5.046   4.156 -0.3216 -0.9297  1.4670
21092SOL    HW264718   7.153   5.083   4.196 -0.3708  1.6363 -0.4870
21093SOL     OW64719   7.030   4.222   3.692 -0.3788 -0.2442  0.3610
21093SOL    HW164720   7.121   4.193   3.697 -0.9235 -2.0045  0.8817
21093SOL    HW264721   7.036   4.317   3.684  1.5312 -0.4125 -1.0264
21094SOL     OW64722   7.708   5.129   0.466 -0.2293  0.2920  0.5627
21094SOL    HW164723   7.680   5.044   0.431  0.4981  0.1808  0.2380
21094SOL    HW264724   7.627   5.169   0.497 -0.4118 -1.0810  2.0022
21095SOL     OW64725   6.317   4.375   1.452 -0.3838 -0.0674 -0.2989
21095SOL    HW164726   6.287   4.447   1.507  0.5862 -0.5166  0.8737
21095SOL    HW264727   6.337   4.304   1.514 -2.7174 -1.9141 -1.4763
21096SOL     OW64728   0.034   5.001   4.839  0.9614 -0.1328 -0.0708
21096SOL    HW164729  -0.000   5.044   4.761  3.1430 -0.7126 -1.4540
21096SOL    HW264730   0.110   5.054   4.864  0.3012  0.0421  1.7131
21097SOL     OW64731   6.285   4.617   2.432 -0.0681  0.2920  0.3012
21097SOL    HW164732   6.207   4.653   2.475 -0.1384  1.0004 -0.3740
21097SOL    HW264733   6.318   4.691   2.380  1.2343  0.0903  0.8210
21098SOL     OW64734   7.345   5.280   2.002  0.1215 -0.2957  0.3299
21098SOL    HW164735   7.435   5.246   2.005 -0.0469 -0.6805  2.0629
21098SOL    HW264736   7.342   5.345   2.073 -0.5331  0.9175 -0.7613
21099SOL     OW64737   5.917   5.783   4.357 -0.0973  0.3426 -0.0763
21099SOL    HW164738   5.835   5.806   4.314  0.5804 -0.1904 -1.7636
21099SOL    HW264739   5.984   5.829   4.306  0.6370  1.1755  1.5698
21100SOL     OW64740   4.240   4.958   2.211 -0.2366 -0.2666 -0.8374
21100SOL    HW164741   4.290   4.909   2.276  0.9435 -2.2400 -3.1003
21100SOL    HW264742   4.246   5.049   2.242  1.5575 -0.8993  0.9887
21101SOL     OW64743   6.634   4.409   3.902  0.1365  0.4710 -0.2068
21101SOL    HW164744   6.548   4.394   3.862  0.2577  1.5440 -0.9239
21101SOL    HW264745   6.685   4.450   3.833  0.7754  1.1483  0.6495
21102SOL     OW64746   7.319   4.906   2.623  0.1966 -0.2852  0.0121
21102SOL    HW164747   7.305   4.955   2.704  0.5686 -1.0874  0.5705
21102SOL    HW264748   7.414   4.910   2.608  0.0111  0.8805 -1.0528
21103SOL     OW64749   5.616   4.098   1.661  0.4944  0.5545  0.1608
21103SOL    HW164750   5.675   4.066   1.730 -1.3462 -1.4844  0.9205
21103SOL    HW264751   5.533   4.055   1.680 -1.1349  2.9513 -1.1460
21104SOL     OW64752   7.087   6.197   3.672  0.7268 -0.0020 -0.0296
21104SOL    HW164753   7.050   6.177   3.758 -0.5036  1.3053 -0.2294
21104SOL    HW264754   7.026   6.260   3.633  1.0864 -0.7990 -1.9966
21105SOL     OW64755   6.349   4.920   2.052  0.2055  0.8362  0.0127
21105SOL    HW164756   6.278   4.940   2.113  0.1326  0.4040  0.0755
21105SOL    HW264757   6.306   4.876   1.979  0.3316  1.0969 -0.2173
21106SOL     OW64758   4.631   5.544   2.879 -0.2948 -0.3233  0.5245
21106SOL    HW164759   4.596   5.602   2.947  0.3771  0.2698  0.3792
21106SOL    HW264760   4.688   5.601   2.826 -0.2087 -0.9515 -0.0724
21107SOL     OW64761   1.309   4.096   2.136 -0.2163 -0.3900 -0.3620
21107SOL    HW164762   1.336   4.181   2.169 -1.2882 -0.3183  0.3624
21107SOL    HW264763   1.389   4.043   2.137  0.1262  0.1239  0.7213
21108SOL     OW64764   6.951   3.376   2.859  0.4158 -0.4059 -0.4815
21108SOL    HW164765   6.865   3.417   2.855  0.2239 -0.8806 -2.1914
21108SOL    HW264766   7.012   3.441   2.824  1.3026  1.0207  3.2811
21109SOL     OW64767   6.251   4.092   2.986  0.9534 -0.0871  0.0124
21109SOL    HW164768   6.160   4.067   2.998  0.9380 -0.6926 -1.1845
21109SOL    HW264769   6.249   4.163   2.922  1.3369 -0.2795 -0.2184
21110SOL     OW64770   5.271   4.638   3.447 -0.0889 -0.0146 -0.5588
21110SOL    HW164771   5.208   4.690   3.397 -0.5391  0.0695  0.0972
21110SOL    HW264772   5.241   4.643   3.537 -0.3222 -1.6623 -0.5092
21111SOL     OW64773   6.928   4.364   2.503  0.2782 -0.0427  0.1501
21111SOL    HW164774   7.002   4.423   2.518  0.0981  1.1508 -2.9051
21111SOL    HW264775   6.853   4.423   2.489 -0.8169 -1.1747  1.0237
21112SOL     OW64776   0.031   4.273   3.188 -0.2315  0.2466 -0.4410
21112SOL    HW164777   0.120   4.305   3.202  0.8605 -2.6841 -0.0085
21112SOL    HW264778   0.033   4.231   3.102 -1.4415  0.7340 -0.7437
21113SOL     OW64779   0.966   4.238   1.814 -0.1335  0.4291  0.1440
21113SOL    HW164780   0.879   4.250   1.853  0.2190  3.2292  0.2623
21113SOL    HW264781   0.956   4.161   1.758 -1.8144 -1.1896  2.4666
21114SOL     OW64782   5.120   4.039   2.688 -0.0169 -0.3663  0.4362
21114SOL    HW164783   5.171   4.105   2.641  0.9133 -0.2974  1.5190
21114SOL    HW264784   5.031   4.076   2.692  0.6100  1.1275  1.5530
21115SOL     OW64785   5.523   3.868   2.504 -0.1912  0.0264 -0.1654
21115SOL    HW164786   5.513   3.801   2.437 -1.3121 -0.3256  0.3323
21115SOL    HW264787   5.600   3.919   2.476  1.5639 -2.2855  0.1998
21116SOL     OW64788   4.605   3.670   4.923  0.0405 -0.5649 -0.0278
21116SOL    HW164789   4.647   3.643   4.841  1.3590 -0.6041  0.6317
21116SOL    HW264790   4.664   3.737   4.958 -2.5119  2.4444 -1.0397
21117SOL     OW64791   6.362   3.730   4.685  0.0530  0.1210  0.0186
21117SOL    HW164792   6.451   3.753   4.658 -0.2180 -0.5853 -1.5471
21117SOL    HW264793   6.330   3.671   4.617 -1.6779  0.4627  0.4835
21118SOL     OW64794   6.402   3.844   3.753 -0.3099  0.1452  0.1780
21118SOL    HW164795   6.344   3.885   3.689  0.3077 -0.1912 -0.6091
21118SOL    HW264796   6.423   3.758   3.717  0.2923  0.0676  0.6767
21119SOL     OW64797   6.044   5.821   5.598 -0.0845 -0.2258 -0.1527
21119SOL    HW164798   6.021   5.748   5.540  1.6097 -1.4356  0.6108
21119SOL    HW264799   6.119   5.863   5.555 -0.2340  0.2707  0.0617
21120SOL     OW64800   6.171   4.825   5.115 -0.1328  0.5834  0.1871
21120SOL    HW164801   6.234   4.896   5.103  1.6490 -0.7538  1.1306
21120SOL    HW264802   6.102   4.843   5.051  0.6647  2.6760 -0.1784
21121SOL     OW64803   7.873   4.909   5.038 -0.9568 -0.2869  0.3508
21121SOL    HW164804   7.938   4.954   4.984 -1.0945  0.6188  0.9237
21121SOL    HW264805   7.924   4.853   5.095 -0.7041  0.0331  0.4418
21122SOL     OW64806   6.853   2.000   3.050 -0.3104 -0.1713 -0.5525
21122SOL    HW164807   6.944   2.019   3.072  0.8907 -3.4611 -1.9879
21122SOL    HW264808   6.806   2.008   3.133  1.7733 -0.7022  0.7630
21123SOL     OW64809   6.995   5.795   5.401 -0.1105  0.0953  0.2351
21123SOL    HW164810   6.920   5.781   5.343 -1.2765  1.5529  1.3047
21123SOL    HW264811   7.040   5.711   5.404 -0.5980 -0.2890 -1.9410
21124SOL     OW64812   5.654   3.294   7.252  0.1061  0.1105  0.5349
21124SOL    HW164813   5.715   3.248   7.309  1.0442 -0.4475 -0.8539
21124SOL    HW264814   5.667   3.387   7.273  0.7054 -0.0661  0.9725
21125SOL     OW64815   4.846   5.532   5.733  0.3995 -0.2526 -0.1413
21125SOL    HW164816   4.765   5.480   5.735 -0.5005  0.9742 -2.1265
21125SOL    HW264817   4.915   5.468   5.715 -0.5097 -0.9366 -1.3235
21126SOL     OW64818   5.864   4.374   9.288 -0.0810 -0.0605  0.7784
21126SOL    HW164819   5.846   4.372   9.194 -1.0348 -1.2320  0.9546
21126SOL    HW264820   5.778   4.385   9.328  0.0375 -1.7031  1.5607
21127SOL     OW64821   6.126   4.616   3.231 -0.5964  0.2993 -0.2499
21127SOL    HW164822   6.134   4.700   3.275  1.6068 -0.1689  0.3793
21127SOL    HW264823   6.115   4.638   3.139  0.7209  1.3250 -0.2014
21128SOL     OW64824   5.481   4.059   7.093 -0.4854 -0.3346  0.2213
21128SOL    HW164825   5.435   4.016   7.020 -0.2274 -1.2852  0.5990
21128SOL    HW264826   5.412   4.075   7.158 -0.3760 -1.3767  0.6127
21129SOL     OW64827   6.419   4.055   4.844  0.2062 -0.3265  0.0337
21129SOL    HW164828   6.411   4.130   4.785  0.2256  0.3532  0.8630
21129SOL    HW264829   6.381   3.982   4.796 -1.5232  0.6071 -0.0978
21130SOL     OW64830   6.484   6.062   4.796  0.0845  0.3626  0.2203
21130SOL    HW164831   6.505   5.969   4.801  0.0680  0.3336 -0.1870
21130SOL    HW264832   6.411   6.066   4.734  1.9699  0.9196 -2.1075
21131SOL     OW64833   6.951   6.945   6.030 -0.1259 -0.0127  0.1032
21131SOL    HW164834   6.891   6.948   5.956  0.4687  0.3237 -0.3767
21131SOL    HW264835   6.900   6.907   6.101 -0.7628 -0.1567 -0.4237
21132SOL     OW64836   6.415   6.942   4.978 -0.0317  0.0423 -0.3052
21132SOL    HW164837   6.507   6.965   4.961 -0.0316 -0.0492 -0.4257
21132SOL    HW264838   6.412   6.927   5.073  0.0462  0.1893 -0.2787
21133SOL     OW64839   5.116   5.427   5.382  0.1545  0.5132  0.1462
21133SOL    HW164840   5.168   5.504   5.358 -0.8836  0.8716 -1.0000
21133SOL    HW264841   5.031   5.441   5.341  0.2777 -1.7602 -0.9984
21134SOL     OW64842   6.405   6.178   4.325 -0.0395 -0.6820 -0.8104
21134SOL    HW164843   6.484   6.196   4.274  1.5180  0.9389  1.9803
21134SOL    HW264844   6.389   6.258   4.375 -1.9771 -1.8722  0.6208
21135SOL     OW64845   6.137   5.557   5.129  0.1522 -0.1668 -0.0857
21135SOL    HW164846   6.059   5.542   5.183  0.4825 -1.0691  0.1681
21135SOL    HW264847   6.140   5.482   5.069 -1.3798  1.8324 -2.8753
21136SOL     OW64848   6.643   5.694   6.528  0.2815 -0.0465  0.0664
21136SOL    HW164849   6.708   5.709   6.460  0.0279 -2.4782 -0.8146
21136SOL    HW264850   6.562   5.678   6.481 -0.1953 -0.4509  0.9985
21137SOL     OW64851   5.364   3.189   3.777 -0.2763  0.2289 -0.2899
21137SOL    HW164852   5.305   3.197   3.702 -0.8452 -1.2564 -0.0458
21137SOL    HW264853   5.368   3.094   3.793  1.0177  0.4186  0.6213
21138SOL     OW64854   7.361   6.123   5.179  0.2944 -0.8928 -0.5685
21138SOL    HW164855   7.407   6.074   5.247 -0.1407 -0.1371  0.2962
21138SOL    HW264856   7.290   6.065   5.151 -0.3697 -0.6838  0.6196
21139SOL     OW64857   6.688   4.983   5.442 -0.3717  0.1931 -0.4624
21139SOL    HW164858   6.605   5.018   5.407 -0.8111 -0.5997 -0.2191
21139SOL    HW264859   6.670   4.967   5.534 -0.7575 -2.3482 -0.9217
21140SOL     OW64860   0.003   4.271   5.269 -0.3286 -0.5981  0.1776
21140SOL    HW164861   0.017   4.259   5.363 -2.9665 -0.4779  0.6745
21140SOL    HW264862  -0.018   4.364   5.260  0.2617 -0.5291 -0.6134
21141SOL     OW64863   7.846   4.863   3.588  0.1104 -0.1488 -0.3041
21141SOL    HW164864   7.800   4.789   3.548  1.7173 -1.4604  0.1856
21141SOL    HW264865   7.937   4.853   3.561  0.5357  1.0952  0.5809
21142SOL     OW64866   5.380   3.324   5.015  0.0386 -0.0574 -0.0773
21142SOL    HW164867   5.295   3.358   5.043  0.1017 -0.0663  0.1324
21142SOL    HW264868   5.376   3.231   5.036  0.7925  0.2615  1.7294
21143SOL     OW64869   6.775   4.676   2.966 -0.1744 -0.0893 -0.4047
21143SOL    HW164870   6.789   4.761   3.008 -1.9992  0.3351 -0.5884
21143SOL    HW264871   6.680   4.667   2.961 -0.0977 -0.2612 -4.1811
21144SOL     OW64872   5.235   4.633   5.869 -0.3823  0.2508  0.0390
21144SOL    HW164873   5.167   4.566   5.864  1.4783 -1.7445 -0.5246
21144SOL    HW264874   5.314   4.584   5.895  1.0665  2.2211 -0.4168
21145SOL     OW64875   5.297   2.918   3.818 -0.1152  0.2312 -0.2402
21145SOL    HW164876   5.276   2.827   3.800  0.2060  0.3274 -1.1718
21145SOL    HW264877   5.301   2.924   3.913 -0.3356 -0.6801 -0.1695
21146SOL     OW64878   5.940   4.905   5.344  0.3776  0.1150  0.2112
21146SOL    HW164879   6.034   4.906   5.328  0.6871 -1.5727  1.5909
21146SOL    HW264880   5.932   4.921   5.438 -0.7507  0.4825  0.0681
21147SOL     OW64881   5.494   4.981   4.115  0.6976 -0.3153 -0.4859
21147SOL    HW164882   5.568   4.943   4.162  1.2973  1.0341 -0.2639
21147SOL    HW264883   5.485   5.069   4.152 -1.8776 -0.8642  0.4461
21148SOL     OW64884   5.707   6.517   4.518 -0.4964 -0.4375 -0.1470
21148SOL    HW164885   5.764   6.546   4.589 -2.1486  1.3698  0.5440
21148SOL    HW264886   5.733   6.571   4.443 -0.2523 -0.7408 -0.2815
21149SOL     OW64887   6.387   6.457   5.655 -0.6616  0.1896 -0.1345
21149SOL    HW164888   6.361   6.367   5.631  1.5873 -0.2200 -1.2650
21149SOL    HW264889   6.374   6.461   5.750  0.6253 -1.8725  0.1838
21150SOL     OW64890   6.953   7.286   5.197  0.9353 -0.4377  0.1561
21150SOL    HW164891   7.015   7.272   5.125 -1.3870 -1.4180 -1.7996
21150SOL    HW264892   6.868   7.265   5.159 -0.3814 -1.4096  3.3412
21151SOL     OW64893   7.175   5.504   3.873  0.1746 -0.2271  0.2233
21151SOL    HW164894   7.151   5.468   3.958  0.5611 -3.2678 -0.8363
21151SOL    HW264895   7.261   5.544   3.886  0.7654 -1.7022  1.0549
21152SOL     OW64896   6.735   4.083   4.789 -0.0749  0.0463  0.1005
21152SOL    HW164897   6.754   4.135   4.867 -0.9470 -0.2740  0.5343
21152SOL    HW264898   6.641   4.090   4.777 -0.1379 -0.9997 -0.1389
21153SOL     OW64899   5.286   4.447   4.102 -0.1890 -0.2907  0.3408
21153SOL    HW164900   5.270   4.512   4.170  1.5336 -0.9708  1.4472
21153SOL    HW264901   5.225   4.375   4.121 -1.1140  0.3591 -0.0673
21154SOL     OW64902   5.865   6.672   5.889  0.3025 -0.5260  0.0930
21154SOL    HW164903   5.782   6.624   5.887 -0.0974  0.1031  0.7502
21154SOL    HW264904   5.851   6.739   5.956  1.4935 -0.6674  0.4992
21155SOL     OW64905   5.636   5.737   5.608 -0.1048 -0.4517  0.3089
21155SOL    HW164906   5.687   5.817   5.621  0.8317 -0.5578 -2.0976
21155SOL    HW264907   5.556   5.767   5.564 -1.0097 -0.5741  1.8227
21156SOL     OW64908   7.486   6.129   5.578 -0.3024 -0.6373  0.5075
21156SOL    HW164909   7.526   6.214   5.559 -0.7009 -0.1116  1.9070
21156SOL    HW264910   7.509   6.075   5.502 -0.4301  0.8399 -0.6502
21157SOL     OW64911   7.582   4.904   3.809  0.1457 -0.0938  0.0828
21157SOL    HW164912   7.560   4.883   3.899 -1.3504 -1.8289 -0.6259
21157SOL    HW264913   7.673   4.875   3.799  0.4790  0.5387  1.1287
21158SOL     OW64914   5.083   4.733   3.278 -0.0790 -0.4836  0.0540
21158SOL    HW164915   5.001   4.689   3.301 -0.6554  1.0527  1.2095
21158SOL    HW264916   5.059   4.791   3.206  0.0609 -0.3017  0.1518
21159SOL     OW64917   5.425   5.301   4.438 -0.3629  0.2085  0.3206
21159SOL    HW164918   5.493   5.247   4.397 -0.7057 -0.0684  0.1144
21159SOL    HW264919   5.434   5.283   4.531 -1.3972 -1.3071  0.1557
21160SOL     OW64920   6.198   5.398   4.263  0.3940 -0.4133 -0.2527
21160SOL    HW164921   6.155   5.421   4.345  1.0334  0.7697 -0.2228
21160SOL    HW264922   6.177   5.306   4.250  0.7862 -0.8038  1.5596
21161SOL     OW64923   4.770   5.466   5.341 -0.4331  0.1454 -0.3452
21161SOL    HW164924   4.692   5.418   5.366  0.3839 -1.9500 -1.5508
21161SOL    HW264925   4.759   5.483   5.247  0.5663 -0.2202 -0.5398
21162SOL     OW64926   0.823   5.370   4.089  0.1138  0.5698  0.4402
21162SOL    HW164927   0.829   5.327   4.175 -1.3372 -1.2932 -0.3261
21162SOL    HW264928   0.759   5.440   4.101  0.2411  0.6021  0.9715
21163SOL     OW64929   6.442   5.422   4.971  0.1354  0.1458  0.5007
21163SOL    HW164930   6.506   5.360   5.005 -1.0122 -0.7491  1.0624
21163SOL    HW264931   6.450   5.498   5.028  0.2203 -0.2298  0.9905
21164SOL     OW64932   6.215   6.408   4.913  0.6562  0.6550 -0.0295
21164SOL    HW164933   6.303   6.430   4.884  0.6144 -0.5854 -1.2203
21164SOL    HW264934   6.157   6.449   4.849  0.4853 -0.5561 -0.6830
21165SOL     OW64935   5.694   4.711   5.634  0.1900  0.3749 -0.2316
21165SOL    HW164936   5.753   4.744   5.702 -1.1963  0.2635  1.0657
21165SOL    HW264937   5.739   4.633   5.599  0.4253 -0.2243  1.3386
21166SOL     OW64938   5.877   6.020   3.468 -0.3533 -0.7231  0.0673
21166SOL    HW164939   5.960   6.048   3.431 -1.2709  0.3437 -1.3210
21166SOL    HW264940   5.882   5.924   3.468  0.9036 -0.6745  0.1163
21167SOL     OW64941   5.468   7.284   4.509 -0.2075 -0.0862  0.2265
21167SOL    HW164942   5.479   7.237   4.591  1.6724 -1.2992 -0.6554
21167SOL    HW264943   5.387   7.248   4.471  0.1502 -1.1859  0.4887
21168SOL     OW64944   6.640   3.902   3.494 -0.0528  0.0080 -0.2724
21168SOL    HW164945   6.726   3.937   3.519  0.6458 -0.7528 -1.5074
21168SOL    HW264946   6.652   3.871   3.404 -0.9099 -2.3474  0.3441
21169SOL     OW64947   6.287   5.079   5.097 -0.2935 -0.0483 -1.1907
21169SOL    HW164948   6.212   5.084   5.037 -0.2162  0.7732 -1.2283
21169SOL    HW264949   6.364   5.087   5.041 -0.1854 -0.3731 -1.0931
21170SOL     OW64950   5.927   3.726   3.824  0.6742 -0.4734  0.4765
21170SOL    HW164951   5.950   3.746   3.915  2.0343 -0.3092  0.1177
21170SOL    HW264952   5.971   3.794   3.773 -0.7896 -0.0479 -0.2640
21171SOL     OW64953   1.191   2.182   5.971 -0.1847 -1.1112  0.1839
21171SOL    HW164954   1.230   2.241   5.907 -2.5509  0.1272 -0.2139
21171SOL    HW264955   1.165   2.238   6.044 -2.7569 -1.4899 -0.3323
21172SOL     OW64956   6.247   5.071   5.627 -0.2159  0.2825  0.2363
21172SOL    HW164957   6.236   5.018   5.548 -1.0862  0.2434  0.3739
21172SOL    HW264958   6.205   5.155   5.605 -0.5932  0.2166  0.7046
21173SOL     OW64959   6.324   5.146   4.709  0.6796 -1.0751  0.1936
21173SOL    HW164960   6.360   5.224   4.666  0.2748 -0.9297  0.1129
21173SOL    HW264961   6.380   5.133   4.785  1.5269 -1.4607 -0.4919
21174SOL     OW64962   5.566   2.917   4.456 -0.4691 -0.3905  0.0893
21174SOL    HW164963   5.486   2.918   4.508 -0.6354  0.3589 -0.1716
21174SOL    HW264964   5.566   2.831   4.414 -1.2298 -0.3230 -0.0519
21175SOL     OW64965   7.806   5.116   5.214 -0.7384 -0.0578  0.2478
21175SOL    HW164966   7.731   5.158   5.173 -1.5907 -2.0800 -0.3720
21175SOL    HW264967   7.822   5.038   5.161  0.7463 -0.5667  1.3765
21176SOL     OW64968   4.886   5.183   4.215 -0.3346  0.3464 -0.4799
21176SOL    HW164969   4.968   5.189   4.166  0.1313 -0.1683  0.2265
21176SOL    HW264970   4.870   5.089   4.225  0.6872  0.3918  2.1452
21177SOL     OW64971   6.182   4.311   5.559  0.3506 -0.4877 -0.1908
21177SOL    HW164972   6.204   4.222   5.585  1.4730  0.0856  0.9553
21177SOL    HW264973   6.116   4.301   5.491  0.6047 -2.1911 -0.2277
21178SOL     OW64974   6.247   5.953   5.429  0.1183  0.1956  0.4092
21178SOL    HW164975   6.299   5.938   5.350 -1.1648 -0.4781 -0.3458
21178SOL    HW264976   6.210   6.041   5.417  1.3163  0.8283  1.1175
21179SOL     OW64977   6.913   6.602   3.416  0.2253 -0.8017  0.2691
21179SOL    HW164978   6.864   6.644   3.487  1.0375  1.8953 -0.6461
21179SOL    HW264979   7.000   6.586   3.454  0.2066 -0.7456  0.3366
21180SOL     OW64980   5.746   3.589   3.385  0.0991 -0.2683  0.4846
21180SOL    HW164981   5.780   3.574   3.297 -3.0589 -1.0695 -0.7570
21180SOL    HW264982   5.651   3.595   3.373 -0.4659 -0.3811  3.8439
21181SOL     OW64983   6.178   4.750   5.724  0.3785 -0.4331 -0.5726
21181SOL    HW164984   6.124   4.828   5.708  1.9223  0.9418  0.5525
21181SOL    HW264985   6.189   4.711   5.638 -0.9823  0.2078 -1.0722
21182SOL     OW64986   0.062   3.987   5.181  0.0353 -0.2317  0.0473
21182SOL    HW164987   0.080   3.947   5.096  0.5031 -0.3993  0.2204
21182SOL    HW264988   0.063   4.081   5.163 -0.7532 -0.2878 -0.2983
21183SOL     OW64989   4.734   1.968   5.219  0.9210  0.2487  0.5327
21183SOL    HW164990   4.696   1.937   5.137  1.4694  0.3657  0.2324
21183SOL    HW264991   4.663   2.016   5.261  0.2429 -0.8688  0.7220
21184SOL     OW64992   5.198   2.253   5.751  0.8556  0.1846  0.2049
21184SOL    HW164993   5.206   2.241   5.657 -0.9904  0.2861 -0.0087
21184SOL    HW264994   5.277   2.301   5.776  0.9994  0.8739 -1.4354
21185SOL     OW64995   6.439   4.461   5.454 -0.0273  0.1294 -0.2331
21185SOL    HW164996   6.398   4.518   5.519  1.9636  0.6828  0.6100
21185SOL    HW264997   6.489   4.398   5.506 -1.6585 -2.0576 -1.1577
21186SOL     OW64998   6.411   5.572   5.199 -0.1814 -0.2171  0.6284
21186SOL    HW164999   6.410   5.587   5.293 -1.6103  0.2866  0.5652
21186SOL    HW265000   6.327   5.607   5.168  0.1735 -0.5454 -0.8011
21187SOL     OW65001   0.258   3.735   4.205  0.1553  0.0780 -0.1164
21187SOL    HW165002   0.334   3.790   4.187 -0.0139  0.1583 -0.5958
21187SOL    HW265003   0.242   3.687   4.124 -1.4214  1.4217 -0.6632
21188SOL     OW65004   5.806   4.685   4.571 -0.3235 -0.3171 -0.7398
21188SOL    HW165005   5.762   4.611   4.529 -2.8092  0.4696  0.3131
21188SOL    HW265006   5.773   4.685   4.661  1.1547  0.9178 -0.1523
21189SOL     OW65007   7.815   4.705   4.285 -0.4853  0.0702  0.3631
21189SOL    HW165008   7.834   4.732   4.375 -1.8560  0.4241  0.5725
21189SOL    HW265009   7.720   4.715   4.277 -0.4188 -0.2579 -1.0318
21190SOL     OW65010   6.008   3.206   3.053  0.2090 -0.6275  0.3426
21190SOL    HW165011   6.079   3.215   3.116  0.7216  1.0966 -0.4032
21190SOL    HW265012   6.051   3.174   2.973  1.2293  4.3653 -1.5302
21191SOL     OW65013   6.844   4.448   4.401  0.1143  0.0858  0.2676
21191SOL    HW165014   6.795   4.410   4.474 -1.1012 -0.3226 -0.7332
21191SOL    HW265015   6.779   4.497   4.351  0.9824  0.5604 -0.4203
21192SOL     OW65016   6.710   4.724   5.146  0.4194 -0.3777 -0.1143
21192SOL    HW165017   6.629   4.685   5.111 -0.1540  0.7760 -0.1334
21192SOL    HW265018   6.721   4.684   5.232 -0.5792 -0.0357  0.1906
21193SOL     OW65019   5.989   5.661   5.392  0.0874 -0.1127 -0.0758
21193SOL    HW165020   5.925   5.724   5.360  1.4545  0.5330 -1.6497
21193SOL    HW265021   5.962   5.577   5.354 -0.9741 -0.2583  0.9509
21194SOL     OW65022   6.355   4.660   3.674 -0.1972  0.0991 -0.7846
21194SOL    HW165023   6.356   4.593   3.742  0.8049 -0.2550 -1.1229
21194SOL    HW265024   6.373   4.612   3.593 -2.1843  0.3851 -1.4441
21195SOL     OW65025   5.679   7.660   3.768  0.2009 -0.1963 -0.8429
21195SOL    HW165026   5.706   7.662   3.860 -0.2437 -0.1230 -0.7106
21195SOL    HW265027   5.583   7.654   3.771  0.0722  1.2166 -1.3065
21196SOL     OW65028   0.462   4.260   4.124 -0.2120  0.6101  0.1479
21196SOL    HW165029   0.420   4.297   4.047  1.0218  1.4231 -0.1792
21196SOL    HW265030   0.485   4.336   4.178  0.8728  0.2205  0.2696
21197SOL     OW65031   4.063   3.143   5.058 -0.3596  0.2473 -0.3869
21197SOL    HW165032   4.028   3.169   5.143  0.1560 -0.1839 -0.0396
21197SOL    HW265033   4.009   3.191   4.994 -2.4189 -1.3709  0.0578
21198SOL     OW65034   7.269   4.375   4.969  0.1783 -0.0951  0.0264
21198SOL    HW165035   7.204   4.319   5.011  0.8672 -2.7982 -2.1940
21198SOL    HW265036   7.345   4.372   5.027 -0.4920  0.2192  0.9295
21199SOL     OW65037   7.713   5.139   5.515 -0.1735  0.2751  0.3450
21199SOL    HW165038   7.734   5.216   5.569 -1.2870 -0.8607  2.5337
21199SOL    HW265039   7.776   5.073   5.543  0.5230  0.2262 -1.2404
21200SOL     OW65040   6.274   4.075   5.382  0.0253  0.0814  0.0624
21200SOL    HW165041   6.256   4.022   5.460 -0.0718  0.3561  0.2253
21200SOL    HW265042   6.366   4.058   5.363  0.6283  1.6029  1.4486
21201SOL     OW65043   0.041   6.405   4.546  0.1205  0.3129 -0.4182
21201SOL    HW165044   0.073   6.315   4.539 -0.8432 -0.0319 -0.6368
21201SOL    HW265045  -0.029   6.399   4.612  0.4037  1.0079 -0.0505
21202SOL     OW65046   6.252   5.311   5.261 -0.6858  0.3462 -0.4820
21202SOL    HW165047   6.263   5.399   5.226 -0.3271  0.3550 -0.3567
21202SOL    HW265048   6.269   5.253   5.187  0.0613  0.3652 -0.3392
21203SOL     OW65049   7.852   3.017   6.637  0.2192  0.6130  0.3488
21203SOL    HW165050   7.783   2.992   6.576  1.0290  1.2376 -0.8584
21203SOL    HW265051   7.882   3.103   6.606  1.6591  0.2714  0.7323
21204SOL     OW65052   5.575   5.080   4.955  0.3110  0.8017  0.5017
21204SOL    HW165053   5.509   5.146   4.977  0.8028  0.9509  1.5853
21204SOL    HW265054   5.655   5.130   4.940  0.3456  0.5633 -0.1602
21205SOL     OW65055   6.291   6.550   5.916  0.0515  0.0733 -0.3311
21205SOL    HW165056   6.292   6.491   5.991 -0.0374 -0.2093 -0.5517
21205SOL    HW265057   6.240   6.626   5.946  2.4459  1.3130  0.8984
21206SOL     OW65058   7.565   4.571   3.749 -0.0124  0.3031 -0.6902
21206SOL    HW165059   7.650   4.588   3.788  0.0478  0.3317 -0.8342
21206SOL    HW265060   7.506   4.634   3.792 -0.3075 -0.8145  0.6230
21207SOL     OW65061   5.442   4.170   2.945  0.4945 -0.1552 -0.3380
21207SOL    HW165062   5.434   4.211   2.859 -0.6151  0.4185  0.0224
21207SOL    HW265063   5.367   4.112   2.952  1.2030 -1.0808 -0.2019
21208SOL     OW65064   5.373   5.639   5.495 -0.2885 -0.7374  0.0392
21208SOL    HW165065   5.310   5.671   5.560  0.2429 -0.8603  0.6213
21208SOL    HW265066   5.327   5.648   5.411 -0.6115  0.3836  0.3160
21209SOL     OW65067   7.947   6.413   5.575  0.4653 -0.3301  0.2987
21209SOL    HW165068   7.885   6.455   5.634  0.1358 -0.8147  0.3029
21209SOL    HW265069   7.912   6.325   5.561  0.4428 -0.1650 -0.7697
21210SOL     OW65070   7.638   5.809   6.039 -0.6768  0.4414 -0.1795
21210SOL    HW165071   7.720   5.759   6.039 -1.3744 -0.7370  0.3137
21210SOL    HW265072   7.664   5.896   6.069  0.2984 -0.0723  0.5380
21211SOL     OW65073   6.029   5.425   4.520 -0.1484  0.4255  0.9450
21211SOL    HW165074   5.956   5.402   4.462  1.6556 -2.5075 -0.4247
21211SOL    HW265075   6.046   5.344   4.569  1.8989  1.1580  1.5335
21212SOL     OW65076   6.870   6.357   4.814 -0.0578  0.2294  0.3939
21212SOL    HW165077   6.837   6.271   4.842  0.1809 -0.0353 -0.1250
21212SOL    HW265078   6.836   6.418   4.880  0.0565 -0.3060  0.9576
21213SOL     OW65079   6.483   5.287   6.794 -0.5203  0.2973  0.1446
21213SOL    HW165080   6.441   5.223   6.737  0.8763 -0.6414  0.1016
21213SOL    HW265081   6.530   5.346   6.734 -0.7171  0.5519  0.2390
21214SOL     OW65082   6.691   5.355   4.776  0.5004 -0.4563  0.0354
21214SOL    HW165083   6.756   5.288   4.754 -0.9350 -2.2383  0.9409
21214SOL    HW265084   6.678   5.345   4.871  1.8459  2.6553  0.6682
21215SOL     OW65085   6.969   3.467   6.012  0.4651  0.0294  0.6129
21215SOL    HW165086   6.981   3.431   6.100  1.0456 -0.3324  0.3936
21215SOL    HW265087   7.057   3.492   5.984  0.4310 -0.7364 -0.2278
21216SOL     OW65088   6.803   5.363   4.469  0.1324  0.0466  0.5178
21216SOL    HW165089   6.733   5.302   4.493 -0.4349  0.8416  0.9202
21216SOL    HW265090   6.834   5.398   4.553  0.7360  0.0138  0.3150
21217SOL     OW65091   2.868   6.075   4.449  0.0779 -0.4544  0.6392
21217SOL    HW165092   2.892   6.125   4.370  1.7691 -0.4779  1.0922
21217SOL    HW265093   2.907   6.125   4.521  1.2503 -2.0638  1.1611
21218SOL     OW65094   6.529   5.780   4.836  0.1920 -0.2818  0.2315
21218SOL    HW165095   6.566   5.698   4.869  0.2637 -0.4165 -0.1833
21218SOL    HW265096   6.449   5.753   4.791  0.4996 -0.1831 -0.3743
21219SOL     OW65097   5.156   5.346   4.295  0.0985  0.3465  0.3829
21219SOL    HW165098   5.244   5.311   4.310 -0.8162 -2.6863 -0.4745
21219SOL    HW265099   5.109   5.328   4.376 -0.3188 -0.2112  0.0264
21220SOL     OW65100   0.724   4.332   3.452 -0.1294 -0.3091 -0.0597
21220SOL    HW165101   0.818   4.348   3.455 -0.3772  1.1661  0.7305
21220SOL    HW265102   0.713   4.246   3.494  0.7758 -0.0279  0.7898
21221SOL     OW65103   7.896   4.197   5.550  0.1395  0.2184  0.2992
21221SOL    HW165104   7.825   4.243   5.594 -0.0130  0.5042 -0.2313
21221SOL    HW265105   7.956   4.172   5.620  0.0051  0.8393  0.6402
21222SOL     OW65106   6.869   5.183   5.589 -0.0014  0.2590  0.2914
21222SOL    HW165107   6.945   5.150   5.541 -0.7997  0.1939 -0.9629
21222SOL    HW265108   6.853   5.116   5.656 -0.8902 -1.4092 -1.4748
21223SOL     OW65109   6.021   6.314   5.091 -0.3364  0.1677  0.2012
21223SOL    HW165110   6.017   6.240   5.030 -2.0375 -1.1113  1.7238
21223SOL    HW265111   6.104   6.356   5.073  0.1303 -1.3787 -1.5877
21224SOL     OW65112   6.718   4.502   6.189 -0.5394 -0.1895  0.5010
21224SOL    HW165113   6.727   4.596   6.204  1.2488 -0.3256  0.5671
21224SOL    HW265114   6.625   4.488   6.176 -0.7521  1.7222 -0.3486
21225SOL     OW65115   0.453   4.868   5.671  0.3646  0.0317 -0.2248
21225SOL    HW165116   0.539   4.910   5.681  0.7128 -1.0691  2.0598
21225SOL    HW265117   0.453   4.835   5.581  2.1997  0.3532 -0.3897
21226SOL     OW65118   5.156   3.959   4.596  0.3844 -0.2480 -0.1577
21226SOL    HW165119   5.084   3.939   4.656  0.1635  0.4864 -0.1731
21226SOL    HW265120   5.227   3.990   4.653 -0.3179  1.8695 -0.3613
21227SOL     OW65121   5.425   4.099   5.854  0.4150  0.0802  0.3789
21227SOL    HW165122   5.357   4.166   5.867  0.6684  0.6853 -1.1757
21227SOL    HW265123   5.394   4.047   5.780  1.3907  0.0428 -0.0182
21228SOL     OW65124   7.088   3.785   3.579 -0.3275 -0.4831  0.2357
21228SOL    HW165125   7.178   3.811   3.556 -0.3769 -0.0788  0.4776
21228SOL    HW265126   7.071   3.830   3.662 -0.5528 -1.0152  0.4795
21229SOL     OW65127   6.950   4.335   4.170  0.4381 -0.3300 -0.0769
21229SOL    HW165128   6.876   4.310   4.114  0.1370  1.4906 -0.5730
21229SOL    HW265129   6.909   4.354   4.255  0.8643 -2.8658  0.7707
21230SOL     OW65130   5.307   6.783   4.575 -0.1749 -0.3144 -0.2601
21230SOL    HW165131   5.385   6.833   4.598 -0.4844  0.0355  0.0461
21230SOL    HW265132   5.328   6.693   4.600 -0.1777 -0.0849  0.5988
21231SOL     OW65133   5.808   1.462   5.245 -0.0213  0.0284 -0.4262
21231SOL    HW165134   5.762   1.460   5.161 -1.8173  1.4261  0.4453
21231SOL    HW265135   5.819   1.369   5.268 -1.1160 -0.3620 -1.3771
21232SOL     OW65136   4.624   5.947   4.193 -0.3123 -0.2779 -0.3051
21232SOL    HW165137   4.697   6.002   4.167 -0.6233  0.5550  0.5075
21232SOL    HW265138   4.575   5.931   4.113  0.2809 -0.1328 -0.7015
21233SOL     OW65139   6.696   3.817   3.243 -0.1869  0.2005  0.5999
21233SOL    HW165140   6.745   3.749   3.197 -0.4908  1.9022 -2.4810
21233SOL    HW265141   6.712   3.897   3.193 -3.1129  1.5905  1.6591
21234SOL     OW65142   7.479   5.492   5.665 -0.3852  0.6063  0.2799
21234SOL    HW165143   7.506   5.569   5.716  0.3675  0.1012  0.6609
21234SOL    HW265144   7.551   5.478   5.604 -0.5601  0.2575  0.1519
21235SOL     OW65145   6.584   5.931   5.333 -0.5503  0.4712  0.2570
21235SOL    HW165146   6.503   5.927   5.282  0.1395  1.3635 -0.9432
21235SOL    HW265147   6.649   5.888   5.279  0.2540  1.6738  0.2252
21236SOL     OW65148   0.208   5.712   5.005  0.1076  0.4571 -0.5091
21236SOL    HW165149   0.119   5.722   4.971 -0.2548 -0.2383  0.2086
21236SOL    HW265150   0.218   5.785   5.066 -0.2882  0.0589  0.0466
21237SOL     OW65151   6.930   4.788   5.459  0.0178 -0.0332  0.1178
21237SOL    HW165152   6.937   4.882   5.477  1.5984 -0.3191  1.2967
21237SOL    HW265153   7.006   4.769   5.403  0.1047 -0.7121  0.4557
21238SOL     OW65154   6.952   3.548   4.088  0.6058 -0.0731  0.1678
21238SOL    HW165155   6.963   3.516   3.998 -0.0822  0.9791 -0.3211
21238SOL    HW265156   6.881   3.612   4.081  1.2003  0.7347  1.2837
21239SOL     OW65157   1.172   6.964   4.804  0.2668 -0.3708  0.2012
21239SOL    HW165158   1.098   7.024   4.814 -0.7741 -1.6247  0.3527
21239SOL    HW265159   1.232   6.988   4.874 -0.1698  0.4213  0.3176
21240SOL     OW65160   5.195   4.361   6.861  0.2827 -0.2276 -0.5096
21240SOL    HW165161   5.233   4.351   6.949  1.8089 -0.0251 -1.1191
21240SOL    HW265162   5.107   4.325   6.870  0.1254  0.4742  1.2985
21241SOL     OW65163   7.411   4.367   4.405  0.1104 -0.1694  0.1568
21241SOL    HW165164   7.320   4.394   4.390 -0.3073 -0.4663  1.9787
21241SOL    HW265165   7.417   4.355   4.499  2.2089  0.3542  0.1277
21242SOL     OW65166   6.303   5.571   1.211 -0.3002  0.4639 -0.3210
21242SOL    HW165167   6.397   5.557   1.212 -0.1997  1.0073 -1.1461
21242SOL    HW265168   6.287   5.632   1.283 -0.1174 -0.1885  0.2725
21243SOL     OW65169   0.047   5.927   4.478  0.0089  0.5212  0.1418
21243SOL    HW165170   0.043   5.964   4.390 -0.4682 -1.9176 -0.9599
21243SOL    HW265171   0.140   5.925   4.500  0.4578 -1.4030 -1.5746
21244SOL     OW65172   6.104   5.088   4.900 -0.4239 -0.3332 -0.1041
21244SOL    HW165173   6.144   5.129   4.823 -1.2535  2.2587  0.7143
21244SOL    HW265174   6.061   5.010   4.867  1.0941 -0.4819 -1.8538
21245SOL     OW65175   6.526   3.400   5.597 -0.5700 -0.0094 -0.4766
21245SOL    HW165176   6.485   3.423   5.680 -1.0612 -1.6926 -0.2232
21245SOL    HW265177   6.619   3.390   5.618 -0.6158  0.0433 -0.2455
21246SOL     OW65178   5.929   3.135   5.478  0.2686 -0.0540  0.9939
21246SOL    HW165179   5.950   3.186   5.400 -1.3960 -2.1031 -0.9404
21246SOL    HW265180   5.997   3.067   5.481 -1.2424 -1.7325 -0.4779
21247SOL     OW65181   6.146   2.731   4.919  0.3017  0.4621 -0.4055
21247SOL    HW165182   6.132   2.703   5.009 -1.4101  2.0001 -0.1431
21247SOL    HW265183   6.112   2.660   4.865  0.2638  0.0424  0.1688
21248SOL     OW65184   6.886   4.797   4.200  0.1366 -0.8875  0.2927
21248SOL    HW165185   6.892   4.862   4.130  0.7799 -0.4539  0.7380
21248SOL    HW265186   6.889   4.848   4.281 -0.7623 -1.3698  0.6485
21249SOL     OW65187   5.133   5.953   3.440 -0.1958  0.2529 -0.8283
21249SOL    HW165188   5.200   6.016   3.462  0.0829 -0.1871 -0.3907
21249SOL    HW265189   5.054   6.005   3.426 -0.3441  0.5818  1.0477
21250SOL     OW65190   5.881   5.459   6.160 -0.2055  0.2560 -0.2003
21250SOL    HW165191   5.845   5.370   6.166  0.0392  0.2037  0.6502
21250SOL    HW265192   5.883   5.478   6.067 -0.5777 -0.5085 -0.3700
21251SOL     OW65193   5.474   6.466   6.213  0.4115  0.8122  0.1654
21251SOL    HW165194   5.457   6.473   6.307  0.2586 -0.3992  0.2419
21251SOL    HW265195   5.496   6.556   6.186 -1.7881  1.6371  0.9048
21252SOL     OW65196   6.177   5.152   4.217 -0.5319  0.1202 -0.8659
21252SOL    HW165197   6.157   5.109   4.135 -1.9248 -0.3764 -0.2886
21252SOL    HW265198   6.243   5.096   4.259 -1.5925 -0.9308 -0.5714
21253SOL     OW65199   5.160   4.832   5.298 -0.0633 -0.0474  0.6960
21253SOL    HW165200   5.097   4.884   5.348 -1.5996 -0.4729 -0.6956
21253SOL    HW265201   5.108   4.759   5.264  1.5584 -1.2919  0.7897
21254SOL     OW65202   6.222   5.592   6.058 -0.1443  0.1387  0.0443
21254SOL    HW165203   6.315   5.571   6.067 -0.1446 -0.2632 -0.7559
21254SOL    HW265204   6.191   5.533   5.989 -0.7064  1.1275 -0.5709
21255SOL     OW65205   6.707   3.750   4.102  0.4963  0.6772 -0.0589
21255SOL    HW165206   6.664   3.670   4.073  1.3400  0.1909  0.0147
21255SOL    HW265207   6.635   3.811   4.118 -0.2235 -0.3777  0.8600
21256SOL     OW65208   0.625   5.566   4.500 -0.5502  0.5177 -0.1927
21256SOL    HW165209   0.688   5.586   4.569  0.5495  0.8424 -1.2501
21256SOL    HW265210   0.554   5.629   4.513 -0.8247 -0.0436  1.1938
21257SOL     OW65211   5.074   5.938   4.576  0.0099  0.0801 -0.3721
21257SOL    HW165212   5.007   6.007   4.570  0.2336  0.2219 -1.6702
21257SOL    HW265213   5.024   5.857   4.570 -0.0984  0.1790 -0.9239
21258SOL     OW65214   6.144   3.728   5.051 -0.1960  0.1191 -0.0968
21258SOL    HW165215   6.149   3.661   4.983  0.3432  0.1490 -0.0917
21258SOL    HW265216   6.106   3.805   5.008  0.5542  0.2815 -0.4800
21259SOL     OW65217   6.466   4.447   6.137  0.1619 -0.1023 -0.1919
21259SOL    HW165218   6.403   4.466   6.068  0.5630 -1.3714 -0.9545
21259SOL    HW265219   6.431   4.369   6.181  1.9219 -1.8897 -1.7022
21260SOL     OW65220   5.615   4.923   4.718  0.3785 -0.2283  0.4843
21260SOL    HW165221   5.635   4.839   4.759  1.8149 -0.0310  0.2367
21260SOL    HW265222   5.536   4.953   4.763  0.2269 -1.3947  1.0340
21261SOL     OW65223   6.953   4.506   5.041  0.4212  0.1664  0.1826
21261SOL    HW165224   6.928   4.490   5.133 -2.8896  0.1661 -0.5827
21261SOL    HW265225   6.934   4.423   4.997  0.2392  0.7151 -0.7929
21262SOL     OW65226   7.068   5.011   4.610 -0.0198 -0.1050 -0.2017
21262SOL    HW165227   7.032   4.937   4.659 -3.6320  1.2387 -0.5771
21262SOL    HW265228   7.028   5.006   4.524 -1.1493  2.7503  0.0542
21263SOL     OW65229   0.834   4.183   2.483  0.4331 -0.0326  0.4132
21263SOL    HW165230   0.809   4.210   2.571 -0.4755 -0.3183  0.2512
21263SOL    HW265231   0.803   4.253   2.426  1.2306  0.2651  0.3370
21264SOL     OW65232   6.102   0.687   4.081 -0.1220  0.4221 -0.3398
21264SOL    HW165233   6.154   0.628   4.134  0.2008 -0.2816 -1.4052
21264SOL    HW265234   6.150   0.694   3.998 -0.5778  1.5261 -0.5350
21265SOL     OW65235   0.056   4.751   3.260  0.4088  0.1349 -0.7435
21265SOL    HW165236   0.119   4.780   3.195  0.5855 -1.2581 -1.2273
21265SOL    HW265237   0.039   4.659   3.238 -1.3242  0.2949 -0.2621
21266SOL     OW65238   5.072   5.288   2.970  0.4360  0.0623 -0.2914
21266SOL    HW165239   5.065   5.234   2.892  2.4084 -0.5579 -0.1000
21266SOL    HW265240   5.053   5.228   3.042  0.3292  0.2026 -0.2026
21267SOL     OW65241   7.138   5.884   6.146 -0.1354  0.7032 -0.2024
21267SOL    HW165242   7.082   5.864   6.071  0.8589  1.3212 -1.1370
21267SOL    HW265243   7.125   5.811   6.206  0.9474 -1.1660 -2.0936
21268SOL     OW65244   6.895   4.450   5.298 -0.0601 -0.3964 -0.7159
21268SOL    HW165245   6.838   4.525   5.317 -0.1139 -0.7413  0.5725
21268SOL    HW265246   6.848   4.374   5.334  2.2653 -0.4102  2.7330
21269SOL     OW65247   0.449   5.914   4.236  0.1767 -0.4404  0.1070
21269SOL    HW165248   0.518   5.885   4.176  0.5403  0.6452 -0.0207
21269SOL    HW265249   0.456   6.010   4.237 -0.6191 -0.3714  0.9407
21270SOL     OW65250   5.868   7.015   5.406  0.5008  0.1388 -0.5451
21270SOL    HW165251   5.941   6.966   5.368  1.1792  0.4266  0.3452
21270SOL    HW265252   5.797   6.951   5.411  1.7350 -1.1805  1.7343
21271SOL     OW65253   6.157   3.297   6.484 -0.6549  0.4386  0.1101
21271SOL    HW165254   6.140   3.204   6.500  0.3516 -0.1716 -1.9387
21271SOL    HW265255   6.078   3.341   6.512 -0.7137 -0.8836  2.2425
21272SOL     OW65256   6.751   6.879   6.190  0.1704  0.1271 -0.3657
21272SOL    HW165257   6.689   6.944   6.158 -0.8985 -0.3209  0.7168
21272SOL    HW265258   6.704   6.796   6.188  2.0987 -1.0479 -3.4687
21273SOL     OW65259   6.778   5.040   4.950 -0.8982  0.0572  0.0308
21273SOL    HW165260   6.828   5.108   4.904 -3.4488  2.0952  0.0582
21273SOL    HW265261   6.831   4.961   4.939  1.8053  1.8100 -0.7609
21274SOL     OW65262   6.705   4.612   5.421 -0.0936  0.2402 -0.0150
21274SOL    HW165263   6.663   4.586   5.503  0.7197 -0.4431  0.2005
21274SOL    HW265264   6.773   4.673   5.448 -0.3023  0.5818 -0.2605
21275SOL     OW65265   0.509   5.805   4.895 -0.0251 -0.2859  0.0880
21275SOL    HW165266   0.515   5.815   4.800  1.2315  0.8976  0.2634
21275SOL    HW265267   0.417   5.822   4.915 -0.1428  0.2237 -0.8331
21276SOL     OW65268   5.539   5.559   4.410 -0.5037  0.0513  0.2421
21276SOL    HW165269   5.489   5.483   4.441  1.5429 -1.7745 -0.6775
21276SOL    HW265270   5.499   5.581   4.326 -2.1340  1.1234  1.2174
21277SOL     OW65271   6.493   5.555   5.911  0.2001  0.0347  0.1695
21277SOL    HW165272   6.550   5.582   5.840 -1.8313  1.9676 -0.8253
21277SOL    HW265273   6.432   5.492   5.871  0.0690 -0.1240  0.6058
21278SOL     OW65274   1.670   5.921   4.575  0.7429  0.2212 -0.5435
21278SOL    HW165275   1.735   5.984   4.607 -0.7046  1.2952  0.3813
21278SOL    HW265276   1.720   5.840   4.561  2.4350  1.2573 -0.7080
21279SOL     OW65277   6.478   4.463   3.499 -0.2076 -0.6205  0.2194
21279SOL    HW165278   6.556   4.517   3.486  0.1747 -1.2456 -0.1491
21279SOL    HW265279   6.456   4.431   3.411 -1.4342  0.2895  0.1769
21280SOL     OW65280   7.390   6.358   4.523  0.8418 -0.6686  0.2717
21280SOL    HW165281   7.412   6.451   4.521  1.3248 -0.7879 -0.0467
21280SOL    HW265282   7.341   6.343   4.442 -1.6494 -0.1214  1.5742
21281SOL     OW65283   5.910   5.066   6.659  0.5587  0.6811 -0.1614
21281SOL    HW165284   5.815   5.071   6.660  0.5368  0.5880  1.4050
21281SOL    HW265285   5.934   5.044   6.750  2.0785  0.9544 -0.4611
21282SOL     OW65286   7.112   4.247   4.662  0.0790 -0.0814 -0.0615
21282SOL    HW165287   7.192   4.210   4.701  1.0649  1.1698 -0.7985
21282SOL    HW265288   7.061   4.171   4.635  1.3028 -0.9187 -0.1016
21283SOL     OW65289   5.725   5.715   6.217 -0.3823  0.2516  0.5653
21283SOL    HW165290   5.801   5.658   6.211 -0.7229 -0.4311  2.1902
21283SOL    HW265291   5.738   5.781   6.148  0.1940 -1.5457 -1.1527
21284SOL     OW65292   5.752   4.045   5.421  0.8900 -0.1014  0.0019
21284SOL    HW165293   5.702   4.012   5.345  1.1055 -0.9024  0.1991
21284SOL    HW265294   5.694   4.109   5.462  0.8470  0.4892 -0.9518
21285SOL     OW65295   4.519   6.226   5.996 -0.1359 -0.1838  0.4227
21285SOL    HW165296   4.585   6.159   6.015  0.2563  0.6157  2.0272
21285SOL    HW265297   4.545   6.301   6.049 -1.1756  0.8869 -0.5223
21286SOL     OW65298   6.378   3.430   6.353 -0.2454 -0.5272  0.0933
21286SOL    HW165299   6.300   3.389   6.390 -0.7151  1.1510  1.0692
21286SOL    HW265300   6.409   3.489   6.421  0.6458  0.4145 -1.0779
21287SOL     OW65301   6.196   3.195   4.907 -0.1378  0.0004 -0.5927
21287SOL    HW165302   6.168   3.266   4.850 -2.0554  0.6343  1.0225
21287SOL    HW265303   6.228   3.240   4.986 -2.7821 -0.8205  1.0805
21288SOL     OW65304   5.168   4.272   4.524  0.0715 -0.0634 -0.7254
21288SOL    HW165305   5.088   4.221   4.525  0.6566 -1.0579  1.2656
21288SOL    HW265306   5.234   4.214   4.485  0.5384 -0.5571  0.7288
21289SOL     OW65307   4.944   5.439   6.469 -0.2415 -0.0029  0.6048
21289SOL    HW165308   4.969   5.522   6.428  1.8451  0.0221  1.7783
21289SOL    HW265309   4.928   5.461   6.561 -3.0990 -0.3659  0.3059
21290SOL     OW65310   7.298   4.242   3.734  0.8077  0.4549 -0.4045
21290SOL    HW165311   7.319   4.152   3.758 -0.5795  0.0441 -0.6641
21290SOL    HW265312   7.318   4.292   3.813 -1.6303 -0.5890  1.0054
21291SOL     OW65313   6.691   5.321   5.052  0.1150  0.3986 -0.1872
21291SOL    HW165314   6.739   5.238   5.055 -1.0973 -0.2927  0.9682
21291SOL    HW265315   6.737   5.377   5.114  0.5523  0.3780 -0.4880
21292SOL     OW65316   5.669   4.114   3.561  0.6063  0.3183  0.3258
21292SOL    HW165317   5.644   4.169   3.488  0.4160 -0.7724 -0.4491
21292SOL    HW265318   5.656   4.169   3.638 -3.5324  0.0922 -0.0168
21293SOL     OW65319   6.154   4.218   3.933  0.6878  0.2835  0.5367
21293SOL    HW165320   6.137   4.210   4.027  0.0943  0.8559  0.4876
21293SOL    HW265321   6.236   4.171   3.919 -1.0506 -3.0870  0.7054
21294SOL     OW65322   6.828   5.084   5.226  0.2184 -0.2218 -0.2581
21294SOL    HW165323   6.800   5.047   5.142  0.8994 -0.5775 -0.3392
21294SOL    HW265324   6.778   5.036   5.292  0.3119 -0.5389 -0.4184
21295SOL     OW65325   6.909   5.786   6.886 -0.0492  0.0535  0.0458
21295SOL    HW165326   6.972   5.836   6.835 -0.1841 -0.1473 -0.3245
21295SOL    HW265327   6.906   5.700   6.844 -4.1452  1.3954 -3.1471
21296SOL     OW65328   6.731   4.246   5.352  0.3101  0.0770 -0.0653
21296SOL    HW165329   6.664   4.240   5.284  0.5840 -1.2909 -0.2459
21296SOL    HW265330   6.683   4.269   5.431 -0.3934 -0.8282 -0.2016
21297SOL     OW65331   0.619   4.703   6.080  0.2782 -0.2614 -0.0507
21297SOL    HW165332   0.667   4.766   6.135 -0.5707  1.6843 -1.4449
21297SOL    HW265333   0.673   4.694   6.002 -1.0866  1.2456 -1.2356
21298SOL     OW65334   5.962   4.912   6.348  1.1023 -0.5051  0.2624
21298SOL    HW165335   5.956   5.000   6.386 -0.7023  0.6533 -2.3538
21298SOL    HW265336   6.013   4.925   6.268  1.1262 -1.9262  0.0322
21299SOL     OW65337   0.912   4.150   6.347  0.7720  0.3628 -0.2551
21299SOL    HW165338   0.990   4.196   6.378 -0.0877  1.3309  0.5659
21299SOL    HW265339   0.944   4.066   6.315  2.1210  0.6583  0.2717
21300SOL     OW65340   5.529   5.401   5.668 -0.2204  0.1193  0.2454
21300SOL    HW165341   5.470   5.468   5.702 -0.9091 -0.4780  0.2500
21300SOL    HW265342   5.533   5.335   5.737  0.2519  0.0265  0.1376
21301SOL     OW65343   5.805   5.413   4.372 -0.6238 -0.1369 -0.3791
21301SOL    HW165344   5.752   5.333   4.373 -0.3310 -0.3316 -0.0265
21301SOL    HW265345   5.741   5.484   4.376 -0.9002 -0.3397 -1.0100
21302SOL     OW65346   7.040   4.066   5.731 -0.1912  0.7377 -0.3871
21302SOL    HW165347   7.134   4.051   5.721  0.4838  3.1863  1.3246
21302SOL    HW265348   7.026   4.067   5.825 -1.7461  1.4586 -0.5938
21303SOL     OW65349   0.212   6.609   4.493  0.5553  0.4559 -0.5116
21303SOL    HW165350   0.160   6.685   4.517  1.2433  1.0835 -0.9858
21303SOL    HW265351   0.149   6.537   4.488  0.0854  0.7162  1.1595
21304SOL     OW65352   6.669   5.380   2.083 -0.3122 -0.4186 -0.2627
21304SOL    HW165353   6.755   5.423   2.074 -0.1134 -0.2494  1.8653
21304SOL    HW265354   6.688   5.300   2.131 -1.6046  0.9719  2.8399
21305SOL     OW65355   6.128   6.294   5.558  0.1282 -0.6456 -0.0231
21305SOL    HW165356   6.184   6.252   5.624 -1.3087  0.1798  1.8075
21305SOL    HW265357   6.082   6.363   5.606 -3.5351 -2.1634 -1.0370
21306SOL     OW65358   5.424   4.077   4.355 -0.1902 -0.4468  0.0796
21306SOL    HW165359   5.403   4.032   4.273  0.3154 -0.7745  0.1248
21306SOL    HW265360   5.501   4.129   4.334  0.2624 -0.9403  0.4778
21307SOL     OW65361   6.126   5.839   2.904 -0.4335  0.0692  0.2125
21307SOL    HW165362   6.134   5.855   2.811 -0.1507  0.0294  0.2294
21307SOL    HW265363   6.193   5.773   2.923  0.3189  0.9436  0.6589
21308SOL     OW65364   5.605   6.375   5.146 -0.2191  0.2463  0.1903
21308SOL    HW165365   5.524   6.421   5.123 -0.3826 -0.7392 -1.3818
21308SOL    HW265366   5.649   6.362   5.062  1.2789  0.1864  0.9444
21309SOL     OW65367   7.146   4.626   6.023 -0.5697  0.0557 -0.3630
21309SOL    HW165368   7.082   4.588   5.963 -0.3309 -0.3100 -0.3902
21309SOL    HW265369   7.096   4.650   6.101 -0.9202  0.7271 -0.7870
21310SOL     OW65370   5.263   6.144   4.217  0.6279 -0.5543  0.4236
21310SOL    HW165371   5.305   6.095   4.147 -0.4394 -0.8181 -0.0585
21310SOL    HW265372   5.169   6.130   4.203  0.3626  0.2608  1.2740
21311SOL     OW65373   5.273   5.360   4.684 -0.3965 -0.0986 -0.1886
21311SOL    HW165374   5.360   5.337   4.717 -0.7340 -2.3575 -0.6972
21311SOL    HW265375   5.245   5.433   4.739  1.6813  0.5010  0.1807
21312SOL     OW65376   7.367   4.733   4.587 -0.1619 -0.5572  0.3026
21312SOL    HW165377   7.375   4.680   4.666  1.2570 -0.8918 -0.0446
21312SOL    HW265378   7.276   4.721   4.559 -0.4409 -1.1111  1.3986
21313SOL     OW65379   5.176   4.083   5.403 -0.3481 -0.7809 -0.0379
21313SOL    HW165380   5.195   4.171   5.435  1.4670 -1.2365  0.2666
21313SOL    HW265381   5.096   4.093   5.351 -0.6985  0.8578  0.7404
21314SOL     OW65382   7.011   5.835   5.916 -0.5377 -0.6528 -0.2332
21314SOL    HW165383   6.968   5.752   5.894 -0.2407 -0.8175 -0.1960
21314SOL    HW265384   6.963   5.900   5.866 -0.9341 -0.8146 -0.0707
21315SOL     OW65385   5.591   3.423   5.523  0.5324 -0.3978  0.3466
21315SOL    HW165386   5.525   3.482   5.488  0.4782  0.5952  2.0413
21315SOL    HW265387   5.642   3.396   5.446  0.1969  1.3933 -0.5509
21316SOL     OW65388   6.537   6.897   4.189  0.2711  0.1798 -0.0584
21316SOL    HW165389   6.456   6.859   4.156 -1.6306  0.2470  3.9713
21316SOL    HW265390   6.577   6.828   4.240  1.0148  1.1649  0.7308
21317SOL     OW65391   7.104   3.656   4.800  0.3571  0.0376  0.4126
21317SOL    HW165392   7.023   3.622   4.838  0.3206 -0.2362  0.0997
21317SOL    HW265393   7.167   3.652   4.872  0.2327 -0.2714  0.5091
21318SOL     OW65394   5.455   3.751   4.990  0.4833 -0.4048  1.0191
21318SOL    HW165395   5.418   3.805   4.921  0.9276 -0.7830  0.4798
21318SOL    HW265396   5.396   3.764   5.065  0.9872  1.3747  1.1412
21319SOL     OW65397   6.105   5.975   2.652 -0.1265 -0.1604 -0.5151
21319SOL    HW165398   6.108   6.056   2.702 -1.6265 -1.1355  1.2854
21319SOL    HW265399   6.013   5.967   2.625  0.2472 -0.6680 -1.6979
21320SOL     OW65400   7.248   6.019   4.836  1.0375  0.5549  0.1235
21320SOL    HW165401   7.259   6.111   4.813 -0.8743  0.4409 -1.6161
21320SOL    HW265402   7.186   6.019   4.909  1.8813  0.6603  0.8554
21321SOL     OW65403   7.719   2.872   5.166 -0.4198  0.0646  0.1854
21321SOL    HW165404   7.801   2.825   5.154 -1.0686 -1.4461  1.3086
21321SOL    HW265405   7.682   2.880   5.078  0.9601  0.8709 -0.3471
21322SOL     OW65406   7.115   6.980   5.567  0.4135  0.3451  0.1942
21322SOL    HW165407   7.133   6.980   5.661  0.5565  4.3701  0.3192
21322SOL    HW265408   7.023   7.004   5.560  0.3014 -0.3110 -0.7166
21323SOL     OW65409   5.380   3.235   7.151 -0.0201  0.4581  0.1045
21323SOL    HW165410   5.470   3.258   7.174  0.5995 -1.0584 -0.6150
21323SOL    HW265411   5.326   3.281   7.214  1.3283  0.5190  1.2633
21324SOL     OW65412   5.669   4.058   2.195 -0.9883  0.3819  0.3389
21324SOL    HW165413   5.734   4.113   2.238  1.0675 -0.1344 -1.8722
21324SOL    HW265414   5.590   4.112   2.192  0.0901  2.0624  0.8585
21325SOL     OW65415   5.365   6.165   3.519 -0.3582  0.1106  0.5730
21325SOL    HW165416   5.336   6.166   3.610 -1.4288  0.9294  0.2457
21325SOL    HW265417   5.460   6.179   3.523 -0.3691 -0.0680  1.5637
21326SOL     OW65418   4.953   4.449   6.137 -0.9785 -0.5214 -0.1956
21326SOL    HW165419   4.874   4.502   6.146 -1.3264 -1.1711  0.7092
21326SOL    HW265420   4.921   4.358   6.139 -0.1392 -0.8132  1.1022
21327SOL     OW65421   5.355   3.733   7.908 -0.6070 -0.0442  0.1222
21327SOL    HW165422   5.295   3.659   7.916  0.3650 -0.6781  2.6317
21327SOL    HW265423   5.300   3.811   7.916 -1.5413 -0.4505 -1.7760
21328SOL     OW65424   5.814   2.108   5.927 -0.0994  0.5235 -0.2277
21328SOL    HW165425   5.836   2.073   6.014  0.7368  1.9056  0.1519
21328SOL    HW265426   5.724   2.142   5.937 -0.0883  0.4773  0.0415
21329SOL     OW65427   6.414   6.487   6.625 -0.2340  0.0217 -0.3617
21329SOL    HW165428   6.357   6.563   6.638 -2.1247 -1.0661 -1.8442
21329SOL    HW265429   6.500   6.525   6.606 -0.2876  1.7016  2.1713
21330SOL     OW65430   6.772   4.792   6.252 -0.2231 -0.1073  0.2485
21330SOL    HW165431   6.830   4.836   6.190 -2.2841  0.2474 -1.5541
21330SOL    HW265432   6.813   4.806   6.338  1.4113  1.6280 -0.7445
21331SOL     OW65433   6.428   3.773   8.247 -0.2374 -0.4519  0.5366
21331SOL    HW165434   6.336   3.785   8.224 -0.2802  1.0325  1.3200
21331SOL    HW265435   6.476   3.815   8.176 -0.1629 -1.0783  0.2128
21332SOL     OW65436   7.476   5.245   5.399  0.1458 -0.3591  0.2167
21332SOL    HW165437   7.470   5.333   5.435 -1.2889 -0.3762  0.0834
21332SOL    HW265438   7.563   5.215   5.424  0.4171  0.8553  0.8140
21333SOL     OW65439   6.341   3.639   6.120 -0.2580  0.6169 -0.3244
21333SOL    HW165440   6.268   3.656   6.061 -1.3088 -3.3642 -0.4269
21333SOL    HW265441   6.325   3.551   6.154  3.3877  0.4127  1.3445
21334SOL     OW65442   7.572   4.376   6.671 -0.2612 -0.3549  0.6236
21334SOL    HW165443   7.587   4.471   6.670 -0.8887 -0.1940  2.2284
21334SOL    HW265444   7.660   4.338   6.669  0.0298  0.2840  0.7773
21335SOL     OW65445   6.059   4.800   4.054 -0.0111  0.0074 -0.1990
21335SOL    HW165446   6.089   4.746   4.126  1.7334  0.0453 -0.8539
21335SOL    HW265447   5.966   4.778   4.045  0.0949 -1.0968  1.0693
21336SOL     OW65448   7.843   4.844   7.603  0.2556 -0.1127  0.2079
21336SOL    HW165449   7.874   4.779   7.539  1.0377  0.3668  0.0772
21336SOL    HW265450   7.878   4.927   7.571 -0.8802  0.4003  0.2829
21337SOL     OW65451   7.076   5.686   7.347  0.5005 -0.0869  0.4785
21337SOL    HW165452   7.074   5.593   7.369  1.2176 -0.3219 -0.4146
21337SOL    HW265453   7.061   5.688   7.252 -1.0795  0.8078  0.7166
21338SOL     OW65454   7.041   5.068   7.320  0.0418  0.3404 -0.1905
21338SOL    HW165455   6.954   5.072   7.279 -0.3054 -0.1342  0.4691
21338SOL    HW265456   7.029   5.010   7.395  1.6580 -2.3936 -1.8734
21339SOL     OW65457   6.827   3.415   7.929  0.0458  0.3841  0.0696
21339SOL    HW165458   6.867   3.354   7.991  1.7725  1.0711 -0.3269
21339SOL    HW265459   6.754   3.365   7.891  1.2092 -1.3562 -0.0302
21340SOL     OW65460   7.244   5.906   5.769 -0.3050 -0.2079 -0.0685
21340SOL    HW165461   7.178   5.867   5.826  1.9000 -0.3386  2.5764
21340SOL    HW265462   7.269   5.835   5.709 -0.6533 -0.9815  0.6860
21341SOL     OW65463   6.920   7.450   7.419 -0.4601  0.1271  0.1253
21341SOL    HW165464   6.994   7.428   7.476  0.0153  1.4738  0.0506
21341SOL    HW265465   6.932   7.543   7.399 -1.9138  0.2421 -0.2771
21342SOL     OW65466   6.949   5.050   6.577 -0.5459  0.1604  0.5415
21342SOL    HW165467   6.855   5.045   6.596 -0.3798 -0.2859  1.2850
21342SOL    HW265468   6.991   5.044   6.663  0.1795 -0.0597  0.1755
21343SOL     OW65469   5.101   6.001   5.799 -0.5574 -0.2704 -0.2292
21343SOL    HW165470   5.063   5.914   5.795 -0.1743 -0.6276  2.2968
21343SOL    HW265471   5.113   6.018   5.892 -0.1696  2.3011 -0.6597
21344SOL     OW65472   4.830   5.929   6.475  0.3949  0.4038 -0.7547
21344SOL    HW165473   4.759   5.893   6.528 -1.0223  0.9971 -2.1535
21344SOL    HW265474   4.842   5.864   6.405  0.9746  0.4843 -0.7337
21345SOL     OW65475   7.179   7.110   6.689 -0.2243  0.2290 -0.1143
21345SOL    HW165476   7.152   7.045   6.625 -0.7342 -1.8892  2.1167
21345SOL    HW265477   7.198   7.060   6.768  2.5741  2.4478  0.8130
21346SOL     OW65478   6.244   4.077   5.056  0.3342  0.1076  0.4008
21346SOL    HW165479   6.327   4.093   5.011  0.6858  1.5157  1.4712
21346SOL    HW265480   6.255   3.992   5.098  1.1100  0.1321  0.2538
21347SOL     OW65481   6.661   2.382   8.524 -0.1699 -0.3114  0.0326
21347SOL    HW165482   6.656   2.312   8.459  0.4242  1.2741 -1.7824
21347SOL    HW265483   6.701   2.339   8.601  0.6779 -1.8399 -1.1955
21348SOL     OW65484   5.479   5.651   6.773 -0.1822  0.2228  0.2157
21348SOL    HW165485   5.387   5.630   6.784 -0.2948  1.0903  1.0303
21348SOL    HW265486   5.479   5.736   6.729  0.2559 -0.4727 -1.2115
21349SOL     OW65487   5.936   5.412   5.272  0.9535  0.5041  0.1282
21349SOL    HW165488   5.928   5.383   5.181 -1.9155  2.9510 -0.5560
21349SOL    HW265489   5.898   5.342   5.324 -0.8736  0.6386 -0.9626
21350SOL     OW65490   4.825   5.722   7.458 -0.0587 -0.0729 -0.0670
21350SOL    HW165491   4.852   5.632   7.444 -0.8246 -0.3826  0.3820
21350SOL    HW265492   4.807   5.756   7.370 -0.4416 -0.5739 -0.1868
21351SOL     OW65493   7.069   6.049   7.835  0.2296  0.1499  0.0739
21351SOL    HW165494   7.164   6.056   7.849  0.5343  0.3008 -1.7794
21351SOL    HW265495   7.061   6.014   7.746 -1.4627 -1.7552  0.9019
21352SOL     OW65496   6.626   6.250   5.720 -0.0628 -0.3682  0.1822
21352SOL    HW165497   6.701   6.285   5.672 -0.9697 -0.6185 -1.4686
21352SOL    HW265498   6.610   6.314   5.790  0.7302  0.4595 -0.3791
21353SOL     OW65499   5.368   5.419   7.027 -0.0136 -0.0765 -0.1025
21353SOL    HW165500   5.301   5.487   7.032  0.7587  0.7182 -0.2435
21353SOL    HW265501   5.403   5.426   6.938  1.0155  0.2935  0.3077
21354SOL     OW65502   4.831   5.058   5.861  0.0204  0.0899  0.1848
21354SOL    HW165503   4.787   4.978   5.888  0.7801 -0.4751 -0.2196
21354SOL    HW265504   4.828   5.115   5.938 -0.1733 -0.4815  0.6022
21355SOL     OW65505   5.929   4.072   9.022  0.2066  0.3548  0.4829
21355SOL    HW165506   5.843   4.031   9.007  0.3534  0.2659 -0.1480
21355SOL    HW265507   5.908   4.165   9.037  0.0292  0.4239 -0.1437
21356SOL     OW65508   5.700   3.863   6.859  0.5338 -0.0133  0.4229
21356SOL    HW165509   5.755   3.937   6.832  0.4186 -0.3597 -0.8204
21356SOL    HW265510   5.624   3.867   6.801 -0.8008  0.4515  2.1137
21357SOL     OW65511   5.745   5.627   8.189 -0.1431  0.1975 -0.1849
21357SOL    HW165512   5.774   5.545   8.149 -0.2567  0.0301  0.0769
21357SOL    HW265513   5.664   5.650   8.144 -0.1513  0.1267 -0.2054
21358SOL     OW65514   7.272   4.276   5.891  0.0411  0.3432  0.2506
21358SOL    HW165515   7.211   4.210   5.924 -0.3986  0.1844 -0.8330
21358SOL    HW265516   7.348   4.270   5.948  0.3254 -1.6284 -0.2651
21359SOL     OW65517   7.845   5.006   7.224  0.4143 -0.0329  0.5503
21359SOL    HW165518   7.832   5.028   7.316  1.7126 -2.0417  1.2566
21359SOL    HW265519   7.782   4.936   7.206 -0.5683  1.0470 -0.4293
21360SOL     OW65520   7.174   3.365   8.574  0.0898 -0.1749  0.2322
21360SOL    HW165521   7.250   3.375   8.632  0.1296  1.1898 -0.0147
21360SOL    HW265522   7.158   3.453   8.541 -1.4039 -0.5008  0.0194
21361SOL     OW65523   0.211   5.408   6.999  0.4460  0.5394 -0.7026
21361SOL    HW165524   0.220   5.395   6.905  1.7100 -4.2008 -0.1883
21361SOL    HW265525   0.141   5.347   7.025  1.5677  0.1296  1.6198
21362SOL     OW65526   7.796   7.386   6.092 -0.1991 -0.3770  0.3824
21362SOL    HW165527   7.816   7.340   6.174 -0.3626 -0.5686  0.3151
21362SOL    HW265528   7.701   7.395   6.092 -0.5326 -2.9751 -1.1368
21363SOL     OW65529   5.280   4.895   5.957  0.0277 -0.3904  0.1430
21363SOL    HW165530   5.247   4.806   5.961 -0.1322 -0.3163  0.4930
21363SOL    HW265531   5.234   4.935   5.883  1.8023 -1.2823 -1.5363
21364SOL     OW65532   6.185   4.776   7.188 -0.5125  0.2177  0.7212
21364SOL    HW165533   6.140   4.755   7.106 -0.2343  1.3418  0.2682
21364SOL    HW265534   6.145   4.717   7.253  0.1874 -1.6387 -0.4460
21365SOL     OW65535   0.330   5.252   7.186  0.0120 -0.1401  0.4145
21365SOL    HW165536   0.362   5.330   7.233  0.1381  1.0525 -1.5214
21365SOL    HW265537   0.286   5.288   7.108 -1.8643 -1.9476  0.5768
21366SOL     OW65538   4.991   5.248   7.786  0.1805 -0.1715  0.0395
21366SOL    HW165539   4.975   5.266   7.693  1.4844 -1.4711 -0.4777
21366SOL    HW265540   4.962   5.327   7.831 -0.7138  0.3955 -1.4412
21367SOL     OW65541   6.268   4.626   7.528  0.2808 -0.1945 -0.0084
21367SOL    HW165542   6.205   4.585   7.469  0.1885 -0.1515  0.0606
21367SOL    HW265543   6.224   4.704   7.560  0.4303 -0.0760 -0.0872
21368SOL     OW65544   0.896   3.890   6.098 -0.0606 -0.4438  0.2440
21368SOL    HW165545   0.965   3.956   6.096 -1.1153  0.6955 -0.5863
21368SOL    HW265546   0.865   3.885   6.008  0.2792 -2.4351  0.2046
21369SOL     OW65547   6.166   3.864   4.751  0.3465 -0.1783  0.0129
21369SOL    HW165548   6.152   3.909   4.668  0.2295 -0.6982 -0.2546
21369SOL    HW265549   6.245   3.812   4.737  0.2011 -0.4371  0.1506
21370SOL     OW65550   6.678   2.955   6.338 -0.8501 -0.2540  0.1396
21370SOL    HW165551   6.651   3.042   6.364  0.7709  0.3409 -0.0766
21370SOL    HW265552   6.599   2.916   6.300 -1.6183  1.0730  0.3239
21371SOL     OW65553   6.987   3.721   4.567  0.2257 -0.3025  0.1505
21371SOL    HW165554   6.952   3.646   4.520 -1.1377  0.3135  0.1221
21371SOL    HW265555   7.021   3.685   4.649  3.9430 -1.6208 -1.7507
21372SOL     OW65556   6.123   3.698   5.377 -0.2431  0.4593 -0.1457
21372SOL    HW165557   6.094   3.789   5.383 -1.0779  0.3582 -1.9208
21372SOL    HW265558   6.102   3.672   5.287  1.4435 -0.9917 -0.1828
21373SOL     OW65559   5.875   3.569   6.297  0.4229  0.1709  0.3207
21373SOL    HW165560   5.892   3.626   6.223 -1.4321 -1.8459 -1.8024
21373SOL    HW265561   5.780   3.556   6.297  0.7159 -2.5981  0.8498
21374SOL     OW65562   6.317   3.348   6.917  0.5356 -0.0533  0.2226
21374SOL    HW165563   6.281   3.262   6.895  0.7118  0.0410 -0.4571
21374SOL    HW265564   6.389   3.360   6.856  0.0620  0.8823 -0.1567
21375SOL     OW65565   6.936   4.048   6.499 -0.1176  0.0135  0.3653
21375SOL    HW165566   6.908   3.983   6.564  0.7889 -0.6943  0.0721
21375SOL    HW265567   6.859   4.103   6.486 -0.3893  0.0326  1.8631
21376SOL     OW65568   7.459   3.292   4.902 -0.1498 -0.0633 -0.3441
21376SOL    HW165569   7.364   3.284   4.902 -0.0812 -1.0342  0.7182
21376SOL    HW265570   7.478   3.350   4.976  0.1105 -0.0762 -0.3996
21377SOL     OW65571   4.406   6.581   7.030  0.1258 -0.1559 -0.3641
21377SOL    HW165572   4.481   6.629   6.996 -0.4843  0.3746 -1.0011
21377SOL    HW265573   4.428   6.489   7.018  1.2762 -0.0613  0.7936
21378SOL     OW65574   4.740   5.791   6.011  0.5306  0.0843  0.3062
21378SOL    HW165575   4.684   5.713   6.001 -0.6881  0.7969  1.3155
21378SOL    HW265576   4.770   5.787   6.102  1.5571  0.0972 -0.0236
21379SOL     OW65577   6.324   4.756   6.645  0.2074  0.0291 -0.0133
21379SOL    HW165578   6.330   4.669   6.684 -0.8890  0.3244  0.8637
21379SOL    HW265579   6.231   4.767   6.626  0.2789  1.1293  0.2028
21380SOL     OW65580   1.381   6.290   5.570  0.8861 -0.6061  0.2057
21380SOL    HW165581   1.472   6.263   5.584  0.9174 -0.2223  0.7827
21380SOL    HW265582   1.333   6.246   5.640  0.7292 -0.2859  0.2991
21381SOL     OW65583   6.544   5.633   3.919  0.1816  0.1185  0.1697
21381SOL    HW165584   6.555   5.578   3.842  0.3350 -0.4916  0.6193
21381SOL    HW265585   6.451   5.657   3.917  0.1505 -0.0134 -0.1249
21382SOL     OW65586   6.906   3.846   6.690  0.5327 -0.2601 -0.0333
21382SOL    HW165587   6.971   3.845   6.760  0.5272 -0.2957 -0.0287
21382SOL    HW265588   6.822   3.838   6.736  0.6032 -1.9448 -0.1382
21383SOL     OW65589   5.813   1.650   8.642 -0.5623  0.1971  0.0063
21383SOL    HW165590   5.858   1.577   8.601 -2.1738  0.3500 -2.2070
21383SOL    HW265591   5.799   1.713   8.571 -1.2042  1.6579  1.3605
21384SOL     OW65592   6.667   5.410   5.479  0.1279  0.1589  0.0522
21384SOL    HW165593   6.584   5.364   5.492  0.8113 -0.9580  0.6189
21384SOL    HW265594   6.729   5.364   5.535  1.2241  0.7275 -0.6618
21385SOL     OW65595   5.847   4.573   6.937 -0.1327  0.3226  0.3375
21385SOL    HW165596   5.849   4.588   6.843  3.2180  1.4750  0.4723
21385SOL    HW265597   5.847   4.478   6.946  0.3497  0.1976 -0.8405
21386SOL     OW65598   7.161   3.614   6.449 -0.0986 -0.3840  0.7696
21386SOL    HW165599   7.158   3.519   6.464 -1.0890 -0.6542 -0.9058
21386SOL    HW265600   7.073   3.636   6.419 -0.2753  1.3391  2.3914
21387SOL     OW65601   0.256   5.929   3.483  0.6992 -0.1685 -0.1517
21387SOL    HW165602   0.308   5.993   3.435 -0.7652  1.2304  0.0382
21387SOL    HW265603   0.290   5.933   3.573  2.3278 -1.5984 -0.6282
21388SOL     OW65604   5.814   4.760   5.161 -0.0351 -0.0815 -0.5371
21388SOL    HW165605   5.728   4.793   5.133  0.3337  0.2902 -1.2544
21388SOL    HW265606   5.844   4.823   5.226 -0.2734 -0.1732 -0.3366
21389SOL     OW65607   5.902   5.565   6.523  0.4285  0.4271  0.4445
21389SOL    HW165608   5.831   5.542   6.463  0.7962 -0.5873  0.3710
21389SOL    HW265609   5.982   5.537   6.478  0.7201 -0.1898  1.3113
21390SOL     OW65610   5.985   5.805   7.535  0.0957  0.4458  0.2101
21390SOL    HW165611   5.920   5.855   7.584  1.6022  2.3008  0.4366
21390SOL    HW265612   6.054   5.786   7.598  1.0651  1.0059 -0.6380
21391SOL     OW65613   7.458   3.139   6.507  0.1578 -0.3310 -0.2817
21391SOL    HW165614   7.471   3.233   6.500 -0.3415 -0.2571 -0.2880
21391SOL    HW265615   7.363   3.128   6.502  0.2651 -0.9230 -1.3343
21392SOL     OW65616   7.578   3.968   7.526  0.1213 -0.0850 -0.4795
21392SOL    HW165617   7.546   4.009   7.445 -0.4968  1.3789  0.4763
21392SOL    HW265618   7.510   3.985   7.590  0.9373 -0.6008  0.5535
21393SOL     OW65619   5.154   1.989   5.844 -0.0296  0.2696  0.6663
21393SOL    HW165620   5.218   1.946   5.787 -2.4900 -1.5087 -0.9737
21393SOL    HW265621   5.154   2.080   5.817  0.8117  0.0137 -0.2454
21394SOL     OW65622   6.631   4.290   5.651 -0.6997 -0.1492 -0.0904
21394SOL    HW165623   6.588   4.208   5.675 -1.8000  0.1162 -1.0504
21394SOL    HW265624   6.720   4.281   5.684 -0.2158 -2.5158 -1.8030
21395SOL     OW65625   6.889   6.270   5.927 -0.6325  0.6146 -0.5654
21395SOL    HW165626   6.981   6.243   5.927 -0.0227  2.5370 -1.1323
21395SOL    HW265627   6.858   6.248   6.015  0.1417 -0.7523 -0.6182
21396SOL     OW65628   5.915   5.288   7.441 -0.5253  0.5062 -0.3625
21396SOL    HW165629   5.874   5.202   7.455  0.5048  0.2616  1.3789
21396SOL    HW265630   5.947   5.285   7.351 -0.6118 -0.8843 -0.3647
21397SOL     OW65631   6.450   5.382   4.650 -0.0920  0.0738 -0.3533
21397SOL    HW165632   6.476   5.406   4.561 -1.7831 -1.2217 -1.2504
21397SOL    HW265633   6.532   5.374   4.697  0.8562  0.7062 -1.8138
21398SOL     OW65634   7.624   4.872   6.019  1.0569  0.5707 -0.4208
21398SOL    HW165635   7.593   4.782   6.021  1.8824  0.2834  1.1466
21398SOL    HW265636   7.718   4.866   6.031  1.0071  1.6644  0.7778
21399SOL     OW65637   6.262   5.457   7.475  0.2102  0.1124 -0.7609
21399SOL    HW165638   6.174   5.491   7.461 -0.0175 -0.0703  0.1612
21399SOL    HW265639   6.287   5.422   7.390 -1.6819 -2.2479 -0.4810
21400SOL     OW65640   7.570   4.627   5.230  0.1121 -0.5667  0.1302
21400SOL    HW165641   7.482   4.595   5.246 -0.5116  0.8415 -0.3170
21400SOL    HW265642   7.575   4.709   5.279  0.3241  0.5831 -1.7244
21401SOL     OW65643   6.409   6.274   6.028  0.0499 -0.5150 -0.2816
21401SOL    HW165644   6.323   6.264   6.069  0.5605  0.2778  1.0571
21401SOL    HW265645   6.453   6.190   6.043  0.7288  0.1830  2.1243
21402SOL     OW65646   5.987   2.290   5.812 -0.0564 -0.6128 -0.1091
21402SOL    HW165647   5.949   2.225   5.871 -0.6776 -0.9287 -0.8336
21402SOL    HW265648   5.985   2.248   5.726  0.5639 -0.0507 -0.4022
21403SOL     OW65649   5.522   3.893   8.784  0.0181 -0.0671  0.5386
21403SOL    HW165650   5.432   3.920   8.802 -0.0677 -0.3924  0.6051
21403SOL    HW265651   5.520   3.864   8.692 -0.3650 -1.7537  1.0374
21404SOL     OW65652   5.118   6.940   5.748 -0.4423 -0.1667 -0.2673
21404SOL    HW165653   5.182   6.899   5.806  1.5465  1.2655 -1.3522
21404SOL    HW265654   5.065   6.867   5.716 -0.1100 -1.2552  1.5195
21405SOL     OW65655   4.744   4.810   5.955  0.0663 -0.8810 -0.2813
21405SOL    HW165656   4.732   4.727   6.001  1.0024 -1.1596 -0.5268
21405SOL    HW265657   4.680   4.807   5.884 -1.4572 -0.4062  1.0101
21406SOL     OW65658   5.312   5.814   5.918 -0.8681 -0.4149 -0.4810
21406SOL    HW165659   5.376   5.881   5.941 -0.2001 -1.2797  0.2901
21406SOL    HW265660   5.308   5.815   5.823 -1.3234  1.1128 -0.4608
21407SOL     OW65661   6.007   2.996   4.910  0.1656  0.3826 -0.6642
21407SOL    HW165662   6.064   3.071   4.927  0.3895 -0.1611  1.1604
21407SOL    HW265663   6.062   2.919   4.928 -0.7707 -0.1679 -0.0299
21408SOL     OW65664   6.220   4.174   6.822  0.0608 -0.2942 -0.1727
21408SOL    HW165665   6.147   4.234   6.802 -0.8674 -1.8322 -1.7414
21408SOL    HW265666   6.190   4.125   6.898  0.4078  0.5514  0.5193
21409SOL     OW65667   5.700   4.214   7.046  0.0448 -0.0168  0.4714
21409SOL    HW165668   5.778   4.176   7.088  0.0853  0.8384  1.1836
21409SOL    HW265669   5.627   4.161   7.079  0.2394 -0.3276  0.4083
21410SOL     OW65670   0.555   3.350   5.931 -0.8655  0.2404  0.2447
21410SOL    HW165671   0.644   3.382   5.946 -0.6524 -0.4094  0.3980
21410SOL    HW265672   0.567   3.259   5.903 -1.4546  0.3226 -0.2765
21411SOL     OW65673   6.387   7.032   5.694 -0.2823  0.0696 -0.2041
21411SOL    HW165674   6.416   7.123   5.698  0.1639 -0.0395 -0.7448
21411SOL    HW265675   6.423   6.991   5.772 -0.4881  0.3586  0.0425
21412SOL     OW65676   5.927   3.470   5.967  0.5714 -0.0986  0.0265
21412SOL    HW165677   5.875   3.545   5.997  1.3146  0.4964 -0.1211
21412SOL    HW265678   5.917   3.470   5.872  0.0697 -0.5753  0.0761
21413SOL     OW65679   6.313   3.625   6.588  0.7036  0.2098 -0.6811
21413SOL    HW165680   6.253   3.660   6.522  0.4620  0.5832 -0.2728
21413SOL    HW265681   6.258   3.607   6.663  0.7427 -1.5464 -1.0412
21414SOL     OW65682   7.299   5.971   5.393 -0.1961  0.2066 -0.2552
21414SOL    HW165683   7.275   6.040   5.455  0.5523 -0.1920  0.4851
21414SOL    HW265684   7.247   5.895   5.420 -1.0316  0.4684 -1.0797
21415SOL     OW65685   5.696   6.148   6.335  0.5696 -0.3688  0.1328
21415SOL    HW165686   5.633   6.100   6.281 -0.5010  1.3386 -0.1705
21415SOL    HW265687   5.781   6.118   6.303 -0.0442 -1.9403 -0.1422
21416SOL     OW65688   0.143   3.838   4.956  0.6135 -0.1316  0.3659
21416SOL    HW165689   0.212   3.799   5.010  0.5807 -0.8506 -0.0992
21416SOL    HW265690   0.094   3.764   4.921 -1.4183  0.3928  1.9464
21417SOL     OW65691   4.997   4.688   5.623  0.3033  0.2310  0.1756
21417SOL    HW165692   4.913   4.693   5.578  0.9354 -0.1359 -1.0861
21417SOL    HW265693   4.984   4.625   5.693 -1.0530  1.7339  1.3443
21418SOL     OW65694   5.423   4.864   4.479 -0.3717 -0.7027  0.2381
21418SOL    HW165695   5.358   4.919   4.434 -0.0269 -0.8037 -0.3897
21418SOL    HW265696   5.405   4.878   4.572 -0.1097  0.7056  0.1010
21419SOL     OW65697   5.743   4.696   8.153  0.7159 -0.4080 -0.3230
21419SOL    HW165698   5.757   4.643   8.231  0.3141 -0.7642 -0.4914
21419SOL    HW265699   5.765   4.638   8.080 -0.3717 -0.5769 -0.5396
21420SOL     OW65700   6.941   5.613   7.711 -0.1360 -0.5162 -0.0471
21420SOL    HW165701   6.999   5.632   7.638  1.4758 -0.7302  1.1277
21420SOL    HW265702   6.994   5.630   7.789 -1.9935  0.3304  1.1048
21421SOL     OW65703   7.975   5.300   5.311  0.3293 -0.4494 -0.3074
21421SOL    HW165704   7.925   5.230   5.268 -4.9940  1.2116  2.3552
21421SOL    HW265705   7.976   5.371   5.248 -1.5908 -0.2684 -0.2039
21422SOL     OW65706   5.947   4.924   5.618 -0.3689  0.1832  0.1748
21422SOL    HW165707   5.929   4.887   5.705 -3.4632  0.8255 -0.0965
21422SOL    HW265708   5.939   5.019   5.631  0.1556  0.3429 -0.6331
21423SOL     OW65709   7.094   5.047   5.513  0.2987 -0.7144  0.1625
21423SOL    HW165710   7.145   5.055   5.594 -0.1396  3.5629  0.2766
21423SOL    HW265711   7.151   4.999   5.453  2.5894 -0.0056  1.6446
21424SOL     OW65712   5.497   3.370   6.576 -0.2942  0.4776  0.3389
21424SOL    HW165713   5.544   3.446   6.609 -0.4795  0.7387  0.0114
21424SOL    HW265714   5.457   3.331   6.654  0.6587  0.1066  0.6577
21425SOL     OW65715   5.287   5.090   7.356 -0.1845 -0.1621 -0.2253
21425SOL    HW165716   5.288   5.081   7.261 -1.0415  0.0691 -0.2655
21425SOL    HW265717   5.350   5.025   7.387  0.5988  0.2155 -0.9792
21426SOL     OW65718   5.100   3.514   4.811  0.1679  0.4314  0.1214
21426SOL    HW165719   5.090   3.576   4.883  2.2649  0.1650  0.6930
21426SOL    HW265720   5.016   3.468   4.808 -0.4798  1.4496  1.4196
21427SOL     OW65721   5.766   5.789   7.800 -0.2728 -0.4420  0.6662
21427SOL    HW165722   5.694   5.758   7.744  2.2401 -0.0877 -3.1966
21427SOL    HW265723   5.724   5.842   7.867 -3.6222 -0.6071 -1.1024
21428SOL     OW65724   6.500   3.600   7.091  0.3017  0.1056  0.3631
21428SOL    HW165725   6.590   3.628   7.105  0.4983 -0.8796  1.2923
21428SOL    HW265726   6.456   3.675   7.052  1.4599  0.6877  0.1524
21429SOL     OW65727   6.205   5.108   7.901  0.1454 -0.3270 -0.1465
21429SOL    HW165728   6.192   5.122   7.808 -0.7143 -0.6571 -0.0862
21429SOL    HW265729   6.116   5.104   7.938  0.4661  2.0473  1.0458
21430SOL     OW65730   5.569   5.204   5.887 -0.6898 -0.2188 -0.2591
21430SOL    HW165731   5.620   5.158   5.953  0.4031  0.9580 -0.2479
21430SOL    HW265732   5.478   5.185   5.910 -0.2892 -2.3515 -0.2847
21431SOL     OW65733   6.097   5.807   6.135  0.1562  0.5529  0.3726
21431SOL    HW165734   6.152   5.828   6.210  0.9361  0.8500 -0.2693
21431SOL    HW265735   6.142   5.735   6.091  0.8463  1.7328 -0.9624
21432SOL     OW65736   6.237   4.478   6.480  0.2168  0.1248 -0.6062
21432SOL    HW165737   6.183   4.542   6.433 -1.2138 -0.4985  0.1298
21432SOL    HW265738   6.185   4.453   6.556  0.9549 -1.5438 -0.5946
21433SOL     OW65739   0.572   6.079   7.890 -0.1666 -0.3244 -0.0832
21433SOL    HW165740   0.534   5.991   7.893 -1.4903  0.1937 -0.8313
21433SOL    HW265741   0.662   6.065   7.860 -0.2138 -1.4542  0.2616
21434SOL     OW65742   6.129   5.312   5.523  0.3119 -0.1281  0.5233
21434SOL    HW165743   6.159   5.335   5.435 -0.7011  0.4260  0.3070
21434SOL    HW265744   6.035   5.294   5.513  0.3280 -0.7704  1.3664
21435SOL     OW65745   6.095   4.639   6.325 -0.5225 -0.5523 -0.4567
21435SOL    HW165746   6.005   4.617   6.304 -0.4571 -0.0489 -1.3222
21435SOL    HW265747   6.137   4.654   6.240 -0.2080  1.4273 -0.0081
21436SOL     OW65748   5.647   5.092   7.736  0.0836 -0.4713 -0.2246
21436SOL    HW165749   5.643   5.158   7.805  0.4619 -0.7081  0.0304
21436SOL    HW265750   5.558   5.058   7.729  0.2693 -1.2504  0.9494
21437SOL     OW65751   7.312   3.181   7.011  0.0907 -0.2040 -0.1604
21437SOL    HW165752   7.331   3.250   6.947 -0.9481  1.0200  0.8004
21437SOL    HW265753   7.351   3.212   7.092  1.4107 -1.7552 -0.1567
21438SOL     OW65754   5.640   3.137   7.734 -0.6456  0.0261  0.0318
21438SOL    HW165755   5.553   3.152   7.770 -0.9353 -2.1107  0.3704
21438SOL    HW265756   5.683   3.223   7.737 -1.9495  0.6802  1.9774
21439SOL     OW65757   6.513   3.473   8.117 -0.0453  0.2545 -0.1063
21439SOL    HW165758   6.525   3.514   8.031  2.8183 -2.1839 -1.0386
21439SOL    HW265759   6.562   3.529   8.177  0.4816  0.3765 -0.6389
21440SOL     OW65760   5.945   3.315   7.036  0.0395 -0.0190 -0.3152
21440SOL    HW165761   5.904   3.346   6.955 -0.0330  0.5370 -0.0688
21440SOL    HW265762   5.947   3.219   7.027  2.0480  0.1175 -1.9743
21441SOL     OW65763   7.293   2.783   7.644 -0.4514  0.0249 -0.7676
21441SOL    HW165764   7.230   2.771   7.573 -2.2456  1.5365  0.4479
21441SOL    HW265765   7.354   2.849   7.612 -0.5466 -0.1487 -1.3199
21442SOL     OW65766   6.562   4.932   6.045  0.2112 -0.3030 -0.1273
21442SOL    HW165767   6.638   4.884   6.077 -1.0547 -1.6334  0.9846
21442SOL    HW265768   6.529   4.878   5.973 -2.5839 -2.5171  2.5880
21443SOL     OW65769   5.577   3.122   6.501 -0.0888  0.0223  0.4918
21443SOL    HW165770   5.570   3.216   6.517  1.7597 -0.0523  2.1707
21443SOL    HW265771   5.511   3.083   6.558  0.4212  0.2348  1.2426
21444SOL     OW65772   7.017   6.910   7.228 -0.2175 -0.4391 -0.3829
21444SOL    HW165773   6.977   6.824   7.217 -2.5454  0.3883  0.8142
21444SOL    HW265774   6.962   6.969   7.177 -0.5112  0.7412  1.2125
21445SOL     OW65775   5.070   3.440   7.184  0.3513 -0.4001  0.2698
21445SOL    HW165776   5.042   3.363   7.233 -2.3998  0.4584  0.1830
21445SOL    HW265777   5.053   3.418   7.092 -1.2342  0.5495  0.3029
21446SOL     OW65778   7.009   4.784   6.449 -0.1499 -0.1466 -0.1998
21446SOL    HW165779   6.998   4.879   6.461  1.2760  0.0914 -0.5797
21446SOL    HW265780   7.078   4.760   6.511  0.5322 -0.6515 -1.1332
21447SOL     OW65781   5.613   4.118   8.331  0.7866  0.7071  0.0100
21447SOL    HW165782   5.662   4.129   8.414 -0.9362  0.1621  1.1464
21447SOL    HW265783   5.569   4.034   8.341 -2.1236  2.1331 -0.0044
21448SOL     OW65784   5.629   5.763   6.460  0.4031  0.1302  0.8392
21448SOL    HW165785   5.654   5.760   6.368  1.1865  1.0793  1.0067
21448SOL    HW265786   5.551   5.708   6.466  1.5125 -1.5923 -0.0023
21449SOL     OW65787   6.552   4.315   8.952 -0.3499 -0.4434 -0.0007
21449SOL    HW165788   6.513   4.228   8.945  0.4308 -0.8395  0.3812
21449SOL    HW265789   6.640   4.298   8.986 -0.3217  0.5270  0.4261
21450SOL     OW65790   6.347   5.454   6.959  0.0385 -0.6658 -0.3325
21450SOL    HW165791   6.325   5.524   6.898  0.2950 -0.4802 -0.2172
21450SOL    HW265792   6.395   5.391   6.906  0.0495 -0.6196 -0.3778
21451SOL     OW65793   7.714   5.338   6.448  0.0516  0.6666  0.2298
21451SOL    HW165794   7.711   5.360   6.541  0.5907  1.0210  0.1693
21451SOL    HW265795   7.639   5.279   6.434  0.2104  0.2779  0.9730
21452SOL     OW65796   7.336   4.579   7.900 -0.1658 -0.3398 -0.3525
21452SOL    HW165797   7.280   4.510   7.866  0.2322 -1.0302  0.3573
21452SOL    HW265798   7.386   4.537   7.970 -0.9293  1.0127  1.0714
21453SOL     OW65799   6.287   5.830   6.347  0.5608  0.3090  0.2049
21453SOL    HW165800   6.324   5.742   6.340 -0.9551 -0.3493  0.0440
21453SOL    HW265801   6.278   5.845   6.441  0.1828  0.0028  0.2196
21454SOL     OW65802   7.260   5.581   4.662 -0.6725  0.5908 -0.3213
21454SOL    HW165803   7.276   5.562   4.754  0.7170  1.4150 -0.3483
21454SOL    HW265804   7.334   5.540   4.616  0.1895  2.4905 -0.7550
21455SOL     OW65805   5.130   5.281   7.492  0.3391  0.1956 -0.4063
21455SOL    HW165806   5.173   5.341   7.552 -0.6112 -0.4503  0.9791
21455SOL    HW265807   5.202   5.233   7.450  1.0295 -0.3765  1.3403
21456SOL     OW65808   6.688   6.081   6.604  0.1776 -0.1200 -0.2127
21456SOL    HW165809   6.696   6.091   6.699  1.0661  0.5138 -0.3435
21456SOL    HW265810   6.706   5.988   6.588  1.4560  0.0623  0.1034
21457SOL     OW65811   5.631   5.433   6.360  0.0482  0.1047  0.3410
21457SOL    HW165812   5.682   5.356   6.337 -0.6436 -0.7330  1.5275
21457SOL    HW265813   5.653   5.497   6.292  2.1395 -0.4477  0.4336
21458SOL     OW65814   0.060   4.430   6.481  0.2996  0.0206  0.0712
21458SOL    HW165815   0.053   4.372   6.405 -2.4689 -2.0694  1.6882
21458SOL    HW265816   0.128   4.389   6.535 -0.1593 -0.5518  0.2361
21459SOL     OW65817   5.612   3.881   7.305  0.3614 -0.0253 -0.1072
21459SOL    HW165818   5.584   3.884   7.214 -1.8971  0.0868  0.5512
21459SOL    HW265819   5.564   3.807   7.343  1.0460  0.1080  1.0867
21460SOL     OW65820   5.156   4.631   6.737 -0.3440 -0.4914  0.2670
21460SOL    HW165821   5.176   4.542   6.768 -1.2277 -0.8166 -0.0575
21460SOL    HW265822   5.069   4.624   6.699 -0.5858  0.6149  0.5875
21461SOL     OW65823   5.236   5.460   8.783  0.0742 -0.1224 -0.3628
21461SOL    HW165824   5.277   5.410   8.712 -0.8858 -0.4343 -0.7155
21461SOL    HW265825   5.304   5.466   8.850  1.5825  1.6194 -1.9537
21462SOL     OW65826   3.892   4.325   5.898  0.5611 -0.5805  0.3466
21462SOL    HW165827   3.948   4.247   5.909  0.1864 -0.8096  0.6638
21462SOL    HW265828   3.809   4.291   5.867  0.6776 -0.2081 -0.3863
21463SOL     OW65829   6.421   4.770   5.868 -0.3386 -0.0798  0.3938
21463SOL    HW165830   6.335   4.765   5.827 -0.5477  0.4141  0.7679
21463SOL    HW265831   6.466   4.690   5.841 -0.2672  0.4933 -1.2551
21464SOL     OW65832   5.001   3.864   5.907  0.1492  0.0962  0.0071
21464SOL    HW165833   4.984   3.945   5.954  1.3821  1.3975 -1.6975
21464SOL    HW265834   4.915   3.836   5.875 -0.6092 -0.4460  2.2981
21465SOL     OW65835   6.664   3.113   6.921  0.6212  0.2873  0.0236
21465SOL    HW165836   6.590   3.114   6.981 -0.0436 -1.7093 -0.6964
21465SOL    HW265837   6.651   3.191   6.866 -0.0963  0.7777  0.8687
21466SOL     OW65838   6.595   5.437   7.824 -0.4216  0.0688  0.8496
21466SOL    HW165839   6.539   5.447   7.746 -0.8386  1.2293  1.2817
21466SOL    HW265840   6.598   5.524   7.863  1.6346  0.0068  0.9055
21467SOL     OW65841   6.317   4.276   6.269 -0.8069  0.1254  0.1637
21467SOL    HW165842   6.310   4.181   6.275  0.7895  0.0010  0.6583
21467SOL    HW265843   6.273   4.309   6.348 -2.6383 -0.0847 -0.7173
21468SOL     OW65844   5.859   5.245   5.482 -0.1683  0.2075  0.3051
21468SOL    HW165845   5.838   5.156   5.509  0.4694  0.5759  2.1561
21468SOL    HW265846   5.793   5.300   5.523 -0.8434  0.5872 -1.2120
21469SOL     OW65847   5.573   6.282   7.860 -0.4013  0.2690  0.1178
21469SOL    HW165848   5.645   6.299   7.920 -0.4045  0.4440  0.0724
21469SOL    HW265849   5.603   6.209   7.806 -0.0298  0.7198 -0.2854
21470SOL     OW65850   5.870   3.694   7.210  0.0210  0.3684 -0.1799
21470SOL    HW165851   5.819   3.662   7.284 -0.5276  0.0147 -0.7108
21470SOL    HW265852   5.834   3.649   7.134  0.8208  0.4602 -0.6218
21471SOL     OW65853   6.630   7.619   5.842  0.0637  0.2306  0.2492
21471SOL    HW165854   6.562   7.657   5.786  1.2335  3.5939  0.8195
21471SOL    HW265855   6.606   7.647   5.930  0.6931 -1.0196  0.8381
21472SOL     OW65856   5.715   4.792   6.406  0.2852 -0.4762  0.2975
21472SOL    HW165857   5.803   4.829   6.397 -0.3066  1.4765  1.7833
21472SOL    HW265858   5.676   4.802   6.318  0.9825  0.2078  0.0550
21473SOL     OW65859   4.930   3.754   6.635  0.3408  0.4692  0.0047
21473SOL    HW165860   4.922   3.831   6.579  0.7350  1.0657  0.7391
21473SOL    HW265861   4.874   3.773   6.710  2.0487  1.0203  1.2149
21474SOL     OW65862   5.361   4.360   7.127  0.6874  0.2696 -0.6030
21474SOL    HW165863   5.339   4.304   7.201  1.3872  0.8192  0.0443
21474SOL    HW265864   5.316   4.442   7.144  1.0905  0.5013 -0.6266
21475SOL     OW65865   5.692   5.467   4.806  0.2357 -0.4539 -0.4789
21475SOL    HW165866   5.779   5.503   4.785  0.1137  0.1040 -0.0776
21475SOL    HW265867   5.651   5.535   4.860  0.6481 -1.9058  1.8133
21476SOL     OW65868   7.406   6.409   6.692 -0.0263 -0.1982 -0.2974
21476SOL    HW165869   7.499   6.409   6.712  0.0383  1.3603 -0.4244
21476SOL    HW265870   7.363   6.416   6.777  0.0524  0.8892 -0.3353
21477SOL     OW65871   6.119   6.386   6.752 -0.5688  0.4710  0.5046
21477SOL    HW165872   6.047   6.375   6.690  0.0157  0.1430 -0.1378
21477SOL    HW265873   6.189   6.426   6.700  0.7615 -1.9410  0.3125
21478SOL     OW65874   4.558   4.824   5.763  0.2329 -0.1678 -0.1097
21478SOL    HW165875   4.476   4.872   5.779  0.7988  0.2079  2.0019
21478SOL    HW265876   4.573   4.832   5.669 -0.2609  2.9189 -0.0233
21479SOL     OW65877   6.984   5.992   8.611  0.1791 -0.0422 -0.0004
21479SOL    HW165878   7.018   5.993   8.700 -0.2692  2.0421  0.2005
21479SOL    HW265879   7.003   5.904   8.579  2.3423 -0.1409  1.3739
21480SOL     OW65880   6.514   3.695   6.332 -0.3956 -0.0015 -0.3246
21480SOL    HW165881   6.547   3.780   6.303  0.0569 -0.4349 -1.1235
21480SOL    HW265882   6.448   3.672   6.267 -0.7395 -0.1215  0.0657
21481SOL     OW65883   0.501   4.281   4.808  0.4380  0.4242  0.0748
21481SOL    HW165884   0.465   4.369   4.800 -1.3404 -0.2387  0.3318
21481SOL    HW265885   0.500   4.263   4.902  1.4269  0.3648  0.0839
21482SOL     OW65886   5.076   4.350   7.449  0.3393 -0.3526  0.2713
21482SOL    HW165887   5.017   4.318   7.518 -1.6975  1.6163 -0.4386
21482SOL    HW265888   5.026   4.339   7.368  0.4085  2.4432 -0.2365
21483SOL     OW65889   6.119   4.603   5.266 -0.3568  0.7066  0.0831
21483SOL    HW165890   6.131   4.685   5.217 -0.1536  0.5072 -0.2101
21483SOL    HW265891   6.024   4.593   5.273 -0.3843  1.6013  1.2116
21484SOL     OW65892   5.649   5.048   9.738  0.0642  0.5976  0.2124
21484SOL    HW165893   5.587   5.095   9.795 -1.5504  0.3945 -1.3025
21484SOL    HW265894   5.633   4.956   9.757 -3.0924  0.2989 -2.9476
21485SOL     OW65895   0.814   5.276   4.330  0.2379 -0.1120 -0.4579
21485SOL    HW165896   0.886   5.219   4.357  0.1109 -0.0883 -0.0623
21485SOL    HW265897   0.820   5.351   4.389 -0.1794 -0.1614 -0.3541
21486SOL     OW65898   0.507   5.915   8.295  0.2132  0.5230 -0.0387
21486SOL    HW165899   0.425   5.964   8.295 -0.6437 -0.8484  1.0073
21486SOL    HW265900   0.574   5.982   8.279 -1.1069  1.6091 -1.3897
21487SOL     OW65901   6.593   3.947   6.320  0.2045 -0.3079  0.1402
21487SOL    HW165902   6.613   3.980   6.408  1.9156  0.6580 -0.5568
21487SOL    HW265903   6.664   3.981   6.265 -0.7854 -0.9484 -1.6121
21488SOL     OW65904   0.063   4.230   6.242  0.1478 -0.3856 -0.4233
21488SOL    HW165905   0.060   4.185   6.158  0.5057 -1.6823  0.2381
21488SOL    HW265906   0.095   4.165   6.304 -0.0268  0.5651  0.7166
21489SOL     OW65907   5.569   4.794   5.959  0.1394 -0.5126  0.0280
21489SOL    HW165908   5.539   4.753   6.040 -0.0717  0.8139  0.6405
21489SOL    HW265909   5.498   4.853   5.934  0.6428 -0.1444 -0.5698
21490SOL     OW65910   5.709   2.888   7.671  0.4017  0.2567  0.6939
21490SOL    HW165911   5.672   2.976   7.681 -0.4405  0.1466 -0.9608
21490SOL    HW265912   5.797   2.903   7.635 -0.2229  0.4485 -0.8548
21491SOL     OW65913   4.964   4.507   5.827  0.3284  0.5540  0.0613
21491SOL    HW165914   4.892   4.447   5.807  1.2574 -0.4462 -0.3650
21491SOL    HW265915   4.980   4.495   5.921  1.7652 -1.3390 -0.3731
21492SOL     OW65916   7.206   6.171   6.660  0.6859  0.2448 -0.0679
21492SOL    HW165917   7.193   6.077   6.648  0.9981  0.3055 -0.9286
21492SOL    HW265918   7.214   6.182   6.755  1.3024 -0.6880  0.0017
21493SOL     OW65919   4.563   4.468  10.040  0.2353 -0.5267 -0.0205
21493SOL    HW165920   4.651   4.433  10.024 -0.0054 -0.3349 -1.9993
21493SOL    HW265921   4.542   4.517   9.961 -1.5558 -0.3201  0.5417
21494SOL     OW65922   6.497   5.029   4.914  0.2035 -0.0705 -0.0649
21494SOL    HW165923   6.584   5.038   4.952  0.1433 -2.2499  0.7044
21494SOL    HW265924   6.489   4.936   4.892 -1.1667  0.4541 -2.0592
21495SOL     OW65925   6.269   5.829   5.875 -0.4288 -0.2316  0.7434
21495SOL    HW165926   6.225   5.902   5.918  1.4933  1.8931 -0.6406
21495SOL    HW265927   6.303   5.775   5.947  0.2028  1.6096  1.9103
21496SOL     OW65928   5.551   4.544   5.844  0.3993 -0.4172 -0.0332
21496SOL    HW165929   5.583   4.608   5.908 -0.5952 -0.0965  0.1767
21496SOL    HW265930   5.579   4.579   5.759 -0.7099  0.6901  0.0242
21497SOL     OW65931   4.470   4.355   6.329  0.3346  0.4936 -0.4289
21497SOL    HW165932   4.531   4.281   6.334 -0.1026  0.1724  3.0117
21497SOL    HW265933   4.384   4.315   6.320  0.2705  0.7250 -0.8770
21498SOL     OW65934   6.212   5.104   8.389  0.0097  0.0144  0.0593
21498SOL    HW165935   6.132   5.156   8.377  0.6724  0.9625 -0.3177
21498SOL    HW265936   6.206   5.035   8.323 -1.4556 -1.1730  1.3311
21499SOL     OW65937   4.308   5.397   5.305 -0.2673 -0.2564  0.1081
21499SOL    HW165938   4.252   5.373   5.231 -0.1048  0.1655 -0.1560
21499SOL    HW265939   4.248   5.425   5.373 -0.3704  1.7922 -0.7285
21500SOL     OW65940   7.980   5.388   8.400 -0.1392  0.3124 -0.5496
21500SOL    HW165941   7.986   5.297   8.373 -0.1890  0.2420 -0.3292
21500SOL    HW265942   7.913   5.427   8.343 -1.5587 -0.2778  0.6402
21501SOL     OW65943   7.309   3.707   7.170  0.1756 -0.3280 -0.8611
21501SOL    HW165944   7.404   3.698   7.178  0.2799  0.7146 -0.8382
21501SOL    HW265945   7.276   3.618   7.184  1.1322 -0.6791 -0.7276
21502SOL     OW65946   6.502   4.369   6.493  0.2835  0.0667 -0.1618
21502SOL    HW165947   6.485   4.320   6.574  0.2041  1.5314  0.7548
21502SOL    HW265948   6.417   4.405   6.469 -0.1937 -2.2307 -2.2522
21503SOL     OW65949   6.595   4.080   8.722 -0.1126  0.1926  0.0857
21503SOL    HW165950   6.501   4.077   8.703 -0.6077 -0.6178  2.3077
21503SOL    HW265951   6.631   4.139   8.656 -2.1284  0.2707 -1.0269
21504SOL     OW65952   6.918   2.561   5.971 -0.2840 -0.6101 -1.1254
21504SOL    HW165953   6.827   2.588   5.956 -0.1696  0.2499 -0.3638
21504SOL    HW265954   6.965   2.644   5.980  0.6071 -1.0481 -1.6646
21505SOL     OW65955   7.329   2.930   6.033  0.3890 -0.2574 -0.1022
21505SOL    HW165956   7.279   2.851   6.055 -0.3180  0.2077 -0.0140
21505SOL    HW265957   7.287   3.000   6.083 -0.0172  0.4588 -1.3963
21506SOL     OW65958   6.236   5.227   6.354 -0.2867  0.2926 -0.4320
21506SOL    HW165959   6.227   5.162   6.284  0.3432  0.7871 -0.9884
21506SOL    HW265960   6.320   5.270   6.335  1.5272 -1.6556  2.3736
21507SOL     OW65961   0.087   4.986   6.476  0.8160 -0.0401 -0.2084
21507SOL    HW165962   0.099   4.892   6.481  0.2399 -0.2816 -2.2677
21507SOL    HW265963   0.171   5.019   6.444  0.4161 -0.1095 -1.3720
21508SOL     OW65964   5.362   2.569   6.977 -0.1218 -0.3006 -0.0645
21508SOL    HW165965   5.318   2.517   7.044  0.2263 -0.2062  0.2410
21508SOL    HW265966   5.403   2.641   7.025 -0.0961 -0.0796 -0.4112
21509SOL     OW65967   0.458   4.889   6.677 -0.4505 -0.0575  0.2704
21509SOL    HW165968   0.506   4.904   6.595 -0.1230 -1.4022  0.1990
21509SOL    HW265969   0.520   4.912   6.746 -0.5302  0.5253  0.1515
21510SOL     OW65970   5.529   5.485   6.079  0.1153 -0.2464 -0.2570
21510SOL    HW165971   5.577   5.529   6.010 -0.3560  1.1211  0.2551
21510SOL    HW265972   5.560   5.395   6.077  2.6120  0.5419 -0.0300
21511SOL     OW65973   7.779   4.800   5.653  0.2273 -0.0770 -0.4280
21511SOL    HW165974   7.721   4.857   5.704  1.5415  0.5237  0.4314
21511SOL    HW265975   7.789   4.844   5.569  0.0266  0.1734 -0.3202
21512SOL     OW65976   6.815   2.146   5.080 -0.0824  0.4099 -0.1467
21512SOL    HW165977   6.737   2.092   5.067 -0.8923  1.4453  0.2832
21512SOL    HW265978   6.783   2.236   5.075  1.0559  0.8467  0.2029
21513SOL     OW65979   6.734   4.745   7.271 -0.6599 -0.2216  0.4295
21513SOL    HW165980   6.792   4.687   7.221  1.3874  1.0895  1.1729
21513SOL    HW265981   6.722   4.700   7.354  0.0356 -0.1106  0.5983
21514SOL     OW65982   6.676   4.492   6.923  0.2585  0.3396 -0.1943
21514SOL    HW165983   6.638   4.547   6.855  1.3941  0.1802 -0.9905
21514SOL    HW265984   6.608   4.485   6.989 -0.8994  0.4430 -1.3431
21515SOL     OW65985   5.299   4.860   9.206  0.1210 -0.0083  0.2836
21515SOL    HW165986   5.241   4.812   9.146  1.0138 -1.0113  0.1908
21515SOL    HW265987   5.373   4.886   9.151 -0.8370  2.5167  0.0616
21516SOL     OW65988   7.130   6.140   6.348 -0.1018  0.1221  0.1326
21516SOL    HW165989   7.188   6.068   6.325  2.0584  1.6472  0.5082
21516SOL    HW265990   7.157   6.166   6.436 -0.7720  1.4426 -0.0239
21517SOL     OW65991   5.368   3.715   6.424  0.1847  0.7042 -0.7602
21517SOL    HW165992   5.349   3.639   6.369  1.0986 -0.8450  0.9359
21517SOL    HW265993   5.301   3.713   6.492  0.2219  1.4152 -0.6999
21518SOL     OW65994   6.746   5.039   5.792 -1.2525  0.6267  0.1471
21518SOL    HW165995   6.766   5.089   5.871 -0.4606 -0.2238  0.5041
21518SOL    HW265996   6.650   5.031   5.793 -1.1964 -0.4418  1.7299
21519SOL     OW65997   7.874   5.961   4.956  0.0521  0.3038  0.2667
21519SOL    HW165998   7.819   5.998   5.024 -1.1995 -1.6654  0.4055
21519SOL    HW265999   7.872   6.026   4.885 -3.1043  0.0350 -0.0345
21520SOL     OW66000   7.860   5.387   7.208 -0.1991  0.2180 -0.0131
21520SOL    HW166001   7.894   5.459   7.154 -0.8846 -0.0404 -0.8066
21520SOL    HW266002   7.902   5.309   7.174 -0.0277  0.1451  0.3583
21521SOL     OW66003   6.341   3.539   9.186  0.8996 -0.1098 -0.3705
21521SOL    HW166004   6.251   3.508   9.174  0.9369 -0.1542 -0.5453
21521SOL    HW266005   6.337   3.594   9.264  0.9158 -0.8701  0.1778
21522SOL     OW66006   5.471   4.921   5.344 -0.3711  0.2289  0.4518
21522SOL    HW166007   5.526   4.860   5.394 -0.8069  1.2245  2.2134
21522SOL    HW266008   5.383   4.906   5.378 -1.0197 -0.3460 -1.3496
21523SOL     OW66009   5.683   4.969   8.229  0.1448  0.2850 -0.4669
21523SOL    HW166010   5.724   4.884   8.218 -0.5708 -0.0674 -0.4408
21523SOL    HW266011   5.589   4.951   8.232 -0.0898  1.1813 -1.6073
21524SOL     OW66012   5.514   6.027   6.163  0.1556  0.2460  0.0931
21524SOL    HW166013   5.448   5.969   6.200  0.4033 -0.3689 -0.4076
21524SOL    HW266014   5.463   6.094   6.116 -0.1241  0.2641  0.4176
21525SOL     OW66015   6.032   2.848   5.998 -0.5250 -0.4754  0.4379
21525SOL    HW166016   6.064   2.804   5.919  1.3219 -1.0415  1.4202
21525SOL    HW266017   6.018   2.939   5.972 -0.3682 -0.7447 -0.6324
21526SOL     OW66018   7.734   6.332   7.820  0.4457 -0.0155 -0.4975
21526SOL    HW166019   7.776   6.349   7.736 -1.1207  1.9198 -0.9854
21526SOL    HW266020   7.641   6.324   7.799  0.0217  0.4852  1.0275
21527SOL     OW66021   6.044   4.614   7.352  0.3164  0.2681  0.2536
21527SOL    HW166022   5.995   4.533   7.343  0.1522  0.4082 -0.1473
21527SOL    HW266023   5.984   4.675   7.395 -0.1543  0.6856 -0.9621
21528SOL     OW66024   7.806   4.606   6.567 -0.3947 -0.4756 -0.6295
21528SOL    HW166025   7.897   4.636   6.573 -0.0536 -1.6731  1.2556
21528SOL    HW266026   7.813   4.513   6.544 -1.2222 -0.2666 -1.8042
21529SOL     OW66027   6.034   3.452   5.457  0.0098  0.2117  0.1206
21529SOL    HW166028   6.098   3.523   5.448  0.4009  0.2740  2.5973
21529SOL    HW266029   5.955   3.485   5.415  0.7929  1.2782 -0.5493
21530SOL     OW66030   5.846   2.661   6.545  0.0366 -0.4376  0.0134
21530SOL    HW166031   5.775   2.720   6.522  0.8210  1.1966  1.5828
21530SOL    HW266032   5.819   2.622   6.628 -0.0693 -1.6897 -0.5713
21531SOL     OW66033   6.273   6.428   6.261  0.1747 -0.4598 -0.4265
21531SOL    HW166034   6.278   6.371   6.338  0.7294  0.2624  0.0882
21531SOL    HW266035   6.364   6.449   6.241  0.0554 -0.8963 -1.4854
21532SOL     OW66036   4.556   6.406   8.420  0.4679 -0.1812  0.3017
21532SOL    HW166037   4.501   6.483   8.406  1.4099  0.5121  0.3583
21532SOL    HW266038   4.591   6.386   8.333  1.1362  0.1569  0.4900
21533SOL     OW66039   6.667   6.379   5.376  0.3924 -0.2500 -0.2308
21533SOL    HW166040   6.748   6.401   5.330  0.4424  2.8579  1.0779
21533SOL    HW266041   6.637   6.463   5.413 -2.1088 -1.7391  1.4081
21534SOL     OW66042   7.149   3.694   5.761 -0.7309  0.1267 -0.1129
21534SOL    HW166043   7.215   3.625   5.762 -0.8057  0.0446  1.2641
21534SOL    HW266044   7.197   3.773   5.737 -0.4516 -0.2171 -0.7048
21535SOL     OW66045   0.219   4.030   7.919  0.7015 -0.2948  0.3198
21535SOL    HW166046   0.208   3.935   7.922  1.1394 -0.4701 -1.7491
21535SOL    HW266047   0.247   4.047   7.829 -1.2346  1.9912  0.0674
21536SOL     OW66048   5.165   2.865   5.636 -0.0420  0.3762  0.0459
21536SOL    HW166049   5.150   2.771   5.626  1.3783  0.2730 -1.5509
21536SOL    HW266050   5.128   2.886   5.722  0.6714 -1.8734  0.9891
21537SOL     OW66051   6.276   7.211   6.249  0.4845 -0.0879  0.1568
21537SOL    HW166052   6.281   7.294   6.298  3.0078  1.3433 -2.1836
21537SOL    HW266053   6.363   7.173   6.260 -0.4533 -2.1959  0.6697
21538SOL     OW66054   7.810   3.821   6.487  0.0916  0.5168 -0.1947
21538SOL    HW166055   7.748   3.888   6.518 -0.5996 -0.0090 -0.4057
21538SOL    HW266056   7.790   3.812   6.394 -2.2927 -2.4633  0.4608
21539SOL     OW66057   6.340   2.934   8.487  0.2361  0.0270  0.4700
21539SOL    HW166058   6.246   2.949   8.480  0.3241  0.4753  0.2110
21539SOL    HW266059   6.354   2.910   8.578  0.0800  1.5407  0.9166
21540SOL     OW66060   5.577   4.270   7.433  0.1228 -0.6598 -0.9221
21540SOL    HW166061   5.500   4.230   7.473 -0.3646 -0.4961 -1.6756
21540SOL    HW266062   5.546   4.354   7.400  1.1843  0.4728  0.8226
21541SOL     OW66063   6.220   4.428   9.685  0.4353 -0.2120  0.0886
21541SOL    HW166064   6.157   4.357   9.700  0.1273  0.5228  2.7022
21541SOL    HW266065   6.166   4.507   9.678  0.9703  0.2568  1.0889
21542SOL     OW66066   0.251   7.035   9.253 -0.3271  0.0510  0.1314
21542SOL    HW166067   0.163   7.072   9.254 -0.5750 -0.5048  1.5568
21542SOL    HW266068   0.304   7.100   9.207 -1.6874 -0.1751 -1.8736
21543SOL     OW66069   6.655   4.507   7.906  0.1170  0.0561  0.4888
21543SOL    HW166070   6.650   4.599   7.933  1.8880  0.0812  0.8462
21543SOL    HW266071   6.716   4.508   7.832  0.0958 -0.8321  0.4545
21544SOL     OW66072   6.528   4.792   8.889  0.1996  0.7857 -0.0783
21544SOL    HW166073   6.524   4.887   8.878  0.1998  0.7110 -0.7839
21544SOL    HW266074   6.477   4.758   8.816  0.3533  0.2389  0.0701
21545SOL     OW66075   0.488   5.784   7.835  0.2075 -0.2017  0.1294
21545SOL    HW166076   0.441   5.763   7.916 -1.1245 -0.6518 -0.7302
21545SOL    HW266077   0.564   5.726   7.837  0.1018 -0.3371  0.9751
21546SOL     OW66078   7.022   4.055   8.526  0.4215 -0.2481  0.6612
21546SOL    HW166079   6.993   4.125   8.467  2.8199  0.2520 -0.0279
21546SOL    HW266080   7.017   4.094   8.614  0.6726  0.4174  0.3853
21547SOL     OW66081   5.224   4.382   9.679 -0.1634  0.5643 -0.2215
21547SOL    HW166082   5.184   4.447   9.622 -1.4241  1.0169  1.1400
21547SOL    HW266083   5.160   4.367   9.748  0.7588 -0.9724  0.3544
21548SOL     OW66084   7.269   4.481   8.586  0.3748  0.2686  0.1035
21548SOL    HW166085   7.197   4.472   8.648  0.8972 -3.4350  0.3510
21548SOL    HW266086   7.294   4.574   8.592 -2.0959  0.8981  2.5014
21549SOL     OW66087   4.647   4.304  10.313 -0.1319  0.2713  0.3660
21549SOL    HW166088   4.572   4.362  10.300 -0.3340 -0.3154 -1.3574
21549SOL    HW266089   4.710   4.332  10.246 -0.6489 -2.0956 -1.2270
21550SOL     OW66090   6.351   5.786   7.492  0.7388  0.3327  0.0299
21550SOL    HW166091   6.275   5.759   7.543  0.2479  0.8886 -0.3856
21550SOL    HW266092   6.335   5.751   7.404  0.4633  1.3015 -0.3192
21551SOL     OW66093   4.874   5.063   9.934 -0.3461  0.5082  0.3745
21551SOL    HW166094   4.872   4.967   9.943  1.5070  0.2983 -0.8930
21551SOL    HW266095   4.782   5.088   9.931 -0.8795 -1.3520 -0.3558
21552SOL     OW66096   6.777   3.651   9.467 -0.2249 -0.2079 -0.2395
21552SOL    HW166097   6.773   3.564   9.427  0.4878  0.9212 -3.0708
21552SOL    HW266098   6.733   3.708   9.403  0.4023  1.6824  0.9383
21553SOL     OW66099   5.616   5.952   9.766  0.2254  0.0225  0.4272
21553SOL    HW166100   5.601   5.898   9.844 -2.0579  0.1373  0.1203
21553SOL    HW266101   5.620   5.889   9.694  0.7439  0.0495  0.4242
21554SOL     OW66102   5.666   4.927   9.178  0.5803 -0.2289 -0.5163
21554SOL    HW166103   5.647   4.844   9.134  1.8278 -0.0534 -1.4488
21554SOL    HW266104   5.708   4.902   9.260 -0.2396 -0.5238 -0.1677
21555SOL     OW66105   6.659   3.261   7.294 -0.3582 -0.6249 -0.0619
21555SOL    HW166106   6.650   3.199   7.367  1.0342 -0.5797  0.1770
21555SOL    HW266107   6.577   3.309   7.294 -1.1879 -1.9778  0.2053
21556SOL     OW66108   5.390   3.900   8.381  0.0805  0.8378 -0.2358
21556SOL    HW166109   5.307   3.918   8.426  0.3937  0.7015  0.4033
21556SOL    HW266110   5.366   3.897   8.289 -1.0424 -1.4451  0.0659
21557SOL     OW66111   4.984   5.356   8.801  0.8014  0.2528  0.3214
21557SOL    HW166112   5.065   5.406   8.798  1.5274 -0.9063 -0.2762
21557SOL    HW266113   4.985   5.312   8.886  0.2130  1.1389  0.8052
21558SOL     OW66114   0.041   5.034   6.750  0.1374  0.0115  0.5014
21558SOL    HW166115   0.130   5.061   6.772 -0.0235  0.3772  0.7221
21558SOL    HW266116   0.042   5.026   6.654  0.0088  1.5638  0.3361
21559SOL     OW66117   0.546   3.357   7.222  0.1289 -0.4201 -0.0213
21559SOL    HW166118   0.572   3.350   7.130 -0.4038  1.1926 -0.3427
21559SOL    HW266119   0.531   3.451   7.234 -1.0416 -0.7587  1.3714
21560SOL     OW66120   5.521   2.676   8.492 -0.2700 -0.2471 -0.3361
21560SOL    HW166121   5.542   2.671   8.399 -1.2664 -0.3916 -0.5629
21560SOL    HW266122   5.476   2.760   8.501 -0.8313 -0.5677 -0.1266
21561SOL     OW66123   7.913   4.816   6.913  1.1554  0.2266  0.0436
21561SOL    HW166124   7.977   4.874   6.872  3.5040 -3.0410 -1.4397
21561SOL    HW266125   7.943   4.728   6.889 -2.6435 -1.6140  1.3055
21562SOL     OW66126   5.973   3.345   8.243 -0.5991  0.1629  0.1288
21562SOL    HW166127   6.060   3.385   8.232 -0.4087 -0.4205 -0.5345
21562SOL    HW266128   5.917   3.396   8.184 -0.9443  1.1979  1.2966
21563SOL     OW66129   6.452   4.754   7.081 -0.2697 -0.2519 -0.3008
21563SOL    HW166130   6.507   4.714   7.150 -2.0001  0.5402  1.6298
21563SOL    HW266131   6.368   4.768   7.123 -1.6063 -0.2662 -2.8195
21564SOL     OW66132   6.082   5.452   6.371  0.2855 -0.3467 -0.8421
21564SOL    HW166133   6.026   5.471   6.296 -0.7745 -1.0025 -0.2333
21564SOL    HW266134   6.118   5.366   6.353 -0.1454 -0.6028 -0.5094
21565SOL     OW66135   5.139   4.707  10.031  0.2559 -0.4770 -0.5847
21565SOL    HW166136   5.103   4.724   9.944 -0.5246  1.1850  0.0193
21565SOL    HW266137   5.184   4.623  10.022 -1.8189 -1.5419 -1.9951
21566SOL     OW66138   6.696   4.696   7.567 -0.6388  0.1012 -0.2490
21566SOL    HW166139   6.678   4.777   7.614 -2.1600 -0.1480 -0.3486
21566SOL    HW266140   6.739   4.640   7.631 -0.2015  0.7411  0.0244
21567SOL     OW66141   6.416   4.415   7.741 -0.2864 -0.5086  0.6340
21567SOL    HW166142   6.511   4.422   7.747 -0.2359 -1.8843  1.8784
21567SOL    HW266143   6.385   4.505   7.751  0.8671 -0.0405  0.2110
21568SOL     OW66144   5.758   5.098   8.964 -0.1918 -0.2729 -0.2893
21568SOL    HW166145   5.703   5.046   9.022  0.0386 -0.0448  0.1350
21568SOL    HW266146   5.710   5.101   8.881 -1.3712  0.8610  0.4032
21569SOL     OW66147   5.787   5.217   9.447 -0.0438  0.0229 -0.0302
21569SOL    HW166148   5.715   5.227   9.385  1.1220  0.1840 -1.4219
21569SOL    HW266149   5.852   5.281   9.419  1.9177 -2.1294 -0.7583
21570SOL     OW66150   5.610   4.189   5.638 -0.5865 -0.1356  0.3535
21570SOL    HW166151   5.554   4.245   5.583  0.0884  1.6777  1.4334
21570SOL    HW266152   5.549   4.145   5.697 -1.0935 -0.1231 -0.1492
21571SOL     OW66153   6.276   4.183   7.728 -0.3128  0.2241  0.4852
21571SOL    HW166154   6.321   4.124   7.788  0.9606  0.2671 -0.3978
21571SOL    HW266155   6.317   4.268   7.741  0.9071 -0.0295 -1.3257
21572SOL     OW66156   5.377   5.001   7.854 -0.1729 -0.0374  0.7277
21572SOL    HW166157   5.461   4.967   7.885 -0.9807 -1.3551  1.5668
21572SOL    HW266158   5.312   4.948   7.899 -1.4538  0.5025 -0.4311
21573SOL     OW66159   6.858   4.773   6.769  0.1625  0.3326 -0.5775
21573SOL    HW166160   6.879   4.857   6.810 -0.3916  0.0813  0.2450
21573SOL    HW266161   6.814   4.796   6.688  2.3263  0.8627 -1.6844
21574SOL     OW66162   6.553   6.035   8.267 -0.2457  0.0632 -0.1899
21574SOL    HW166163   6.540   5.983   8.188  1.6617  0.8560 -1.0777
21574SOL    HW266164   6.535   6.125   8.241  0.6648  0.3661  0.1859
21575SOL     OW66165   6.696   5.031   6.678  0.5869  0.1798  0.0920
21575SOL    HW166166   6.647   5.099   6.724  1.3290  0.9623 -0.2497
21575SOL    HW266167   6.630   4.985   6.627 -0.2344 -0.5935  1.7574
21576SOL     OW66168   7.139   3.751  10.852  0.3464  0.1778 -0.5881
21576SOL    HW166169   7.082   3.682  10.885  0.2152  0.4700 -0.2003
21576SOL    HW266170   7.214   3.751  10.910 -0.3938  1.4324  0.4242
21577SOL     OW66171   7.541   5.284   6.809  0.2027  0.6486 -0.0921
21577SOL    HW166172   7.616   5.341   6.793 -0.8999  2.1970  0.0181
21577SOL    HW266173   7.552   5.212   6.746  1.5490  1.0338 -0.3375
21578SOL     OW66174   5.269   4.479  10.054 -0.2667  0.6444  0.4775
21578SOL    HW166175   5.309   4.475  10.141 -1.1974 -2.6342  0.9137
21578SOL    HW266176   5.342   4.465   9.994  0.0616  0.4705  0.9096
21579SOL     OW66177   0.132   3.312   9.678  0.2221  0.8032 -0.1492
21579SOL    HW166178   0.092   3.305   9.765  0.1586 -1.1989 -0.2918
21579SOL    HW266179   0.144   3.406   9.665 -1.7214  1.2992  1.1274
21580SOL     OW66180   5.763   4.451  10.217  0.3056 -0.4556  0.1125
21580SOL    HW166181   5.727   4.528  10.260  1.2394  0.1683 -0.2126
21580SOL    HW266182   5.852   4.475  10.192  0.1435 -1.1510 -1.2496
21581SOL     OW66183   7.226   2.381   9.175  0.6682  0.3676  0.5967
21581SOL    HW166184   7.227   2.305   9.117 -3.4063  1.0244 -0.6134
21581SOL    HW266185   7.261   2.452   9.122 -1.3885  0.5848 -0.5446
21582SOL     OW66186   7.952   5.697   4.870  0.0088  0.7157  0.8177
21582SOL    HW166187   7.940   5.784   4.907 -0.7005  0.2021  1.8376
21582SOL    HW266188   7.868   5.676   4.830 -0.2312  0.0049  1.6676
21583SOL     OW66189   4.190   5.175   8.032 -0.1812  0.2808 -0.0455
21583SOL    HW166190   4.188   5.146   8.123 -1.4303 -0.5304 -0.2980
21583SOL    HW266191   4.272   5.223   8.024 -0.4610  1.1380  1.7364
21584SOL     OW66192   5.022   6.532   8.556 -0.5346 -0.4325 -0.5911
21584SOL    HW166193   5.058   6.444   8.554  2.2598  0.5761  0.3965
21584SOL    HW266194   4.982   6.543   8.470  0.9315 -1.9657 -1.5445
21585SOL     OW66195   6.654   2.812   7.816  0.2639 -0.1531 -0.2078
21585SOL    HW166196   6.589   2.832   7.748  0.5854 -1.4543 -0.9400
21585SOL    HW266197   6.674   2.896   7.856 -0.4757  0.5440 -1.2502
21586SOL     OW66198   7.421   4.629   9.011  0.0876  0.7551  0.1180
21586SOL    HW166199   7.362   4.554   9.013  1.4772 -0.3960  2.3177
21586SOL    HW266200   7.367   4.701   8.979 -1.8607 -0.7240 -0.1076
21587SOL     OW66201   7.296   5.407   8.195  0.2288  0.5114 -0.1155
21587SOL    HW166202   7.387   5.416   8.222 -0.6099  0.5985  3.1404
21587SOL    HW266203   7.269   5.323   8.231 -1.6720  1.7174  1.4879
21588SOL     OW66204   7.602   5.315   8.530 -0.0349  0.2185 -0.1331
21588SOL    HW166205   7.640   5.273   8.453  1.0074  1.3122 -0.2461
21588SOL    HW266206   7.581   5.403   8.501 -0.3524  0.4001  0.6307
21589SOL     OW66207   5.788   6.292   8.065 -0.1844  0.0760  0.2659
21589SOL    HW166208   5.774   6.319   8.156  0.7100  0.8734  0.1921
21589SOL    HW266209   5.849   6.357   8.031  0.0826 -0.6544 -0.6833
21590SOL     OW66210   7.431   6.196   7.296 -0.0384 -0.1784 -0.3300
21590SOL    HW166211   7.413   6.105   7.272  1.0468 -0.3781 -0.4451
21590SOL    HW266212   7.444   6.241   7.212 -0.0111 -0.0337 -0.2489
21591SOL     OW66213   7.958   4.374   7.474  0.2040 -0.9820 -0.0490
21591SOL    HW166214   7.966   4.408   7.563  0.6442 -0.5906 -0.2412
21591SOL    HW266215   7.877   4.322   7.476 -0.4728  0.0559  0.2410
21592SOL     OW66216   0.157   7.238   8.837  0.2314 -0.7409 -0.3101
21592SOL    HW166217   0.122   7.210   8.752 -1.0728  0.2691 -0.1382
21592SOL    HW266218   0.213   7.313   8.816  0.5995 -1.0325 -0.3690
21593SOL     OW66219   5.155   4.367   9.316  0.0935  0.4422 -0.0268
21593SOL    HW166220   5.133   4.439   9.375  0.7084  1.9988 -1.6355
21593SOL    HW266221   5.086   4.368   9.250  0.9702  0.5871 -0.9562
21594SOL     OW66222   0.497   5.358   7.621 -0.3614  0.2642  0.2900
21594SOL    HW166223   0.450   5.424   7.672 -0.9113 -0.1125  0.2741
21594SOL    HW266224   0.477   5.275   7.665  1.6886  0.2577  1.3447
21595SOL     OW66225   0.017   4.087   9.261  0.2979 -1.0295  0.1822
21595SOL    HW166226  -0.032   4.051   9.187 -1.0965  0.2600  0.4162
21595SOL    HW266227  -0.051   4.116   9.322  1.3947 -0.4530  1.1724
21596SOL     OW66228   5.987   6.174   6.981 -0.0014  0.0551 -0.0184
21596SOL    HW166229   5.935   6.104   7.020 -2.7982  2.9585  1.9786
21596SOL    HW266230   5.976   6.163   6.886 -0.9598 -1.7394  0.2649
21597SOL     OW66231   6.272   3.203   7.466 -0.1899 -0.0902 -0.2057
21597SOL    HW166232   6.283   3.176   7.374 -1.1982 -1.8993  0.1575
21597SOL    HW266233   6.221   3.283   7.460 -0.9169 -0.5916 -1.2361
21598SOL     OW66234   6.420   6.416   8.338  0.0231  0.2018 -0.0405
21598SOL    HW166235   6.470   6.384   8.262  0.8526  0.4681  0.3794
21598SOL    HW266236   6.334   6.376   8.329  0.2730 -0.1711 -0.8529
21599SOL     OW66237   5.822   5.031   7.988  0.7222 -0.5278  0.0432
21599SOL    HW166238   5.784   5.015   8.074 -0.4503  2.9055  0.3430
21599SOL    HW266239   5.751   5.011   7.927  0.4874 -0.0032  0.1374
21600SOL     OW66240   6.911   4.678   8.338  0.2855  0.0538  0.3671
21600SOL    HW166241   6.953   4.714   8.416 -2.0754 -1.7907  2.6831
21600SOL    HW266242   6.883   4.755   8.288 -0.4985  1.4365  2.7659
21601SOL     OW66243   6.916   6.411  10.220 -0.2816 -0.6939 -0.0053
21601SOL    HW166244   6.900   6.318  10.229 -0.6517 -0.5740  0.6866
21601SOL    HW266245   6.829   6.450  10.212 -0.3787 -0.1208  2.8494
21602SOL     OW66246   4.107   5.400   8.180  0.2768  0.4877  0.8340
21602SOL    HW166247   4.040   5.408   8.248  0.6190  2.8172  0.9709
21602SOL    HW266248   4.058   5.376   8.101 -0.3619 -0.3541  1.4685
21603SOL     OW66249   6.252   3.476   8.194  0.1789  0.0645  0.0579
21603SOL    HW166250   6.347   3.475   8.184  0.1659  0.4176 -0.1362
21603SOL    HW266251   6.226   3.563   8.162 -0.2926 -0.3610 -0.7506
21604SOL     OW66252   7.014   2.231   7.640  1.0847  0.6581  0.0518
21604SOL    HW166253   7.049   2.144   7.620 -0.2190  0.0864  0.1517
21604SOL    HW266254   6.998   2.270   7.554 -0.7586 -0.2428 -0.0686
21605SOL     OW66255   4.587   6.131   7.624 -0.2438  0.1043  0.2415
21605SOL    HW166256   4.651   6.202   7.626 -0.5980  0.4270  2.3749
21605SOL    HW266257   4.640   6.051   7.629  0.0640  0.3188  0.4766
21606SOL     OW66258   6.996   3.842   8.814 -0.5239  0.4935 -0.0565
21606SOL    HW166259   7.065   3.897   8.777  0.5815 -0.8073 -0.0412
21606SOL    HW266260   7.002   3.856   8.908  1.1409 -1.0979  0.1373
21607SOL     OW66261   7.033   3.462   7.759 -0.2591  0.3027  0.2345
21607SOL    HW166262   6.960   3.452   7.820  0.4246 -2.1900  0.7691
21607SOL    HW266263   7.013   3.404   7.686  0.5332  0.6486 -0.2798
21608SOL     OW66264   7.281   3.996   8.112  0.5084 -0.5309 -0.2785
21608SOL    HW166265   7.194   3.960   8.131  0.7371 -0.4241  1.0614
21608SOL    HW266266   7.283   4.003   8.017 -1.1245 -0.0929 -0.3177
21609SOL     OW66267   6.263   4.704   6.104  0.4740 -0.2904  0.0729
21609SOL    HW166268   6.316   4.708   6.184  0.2800  1.1184  0.1602
21609SOL    HW266269   6.325   4.716   6.033  0.3870  0.6659  0.1415
21610SOL     OW66270   4.760   2.261   8.208 -0.2012 -0.5458 -0.3353
21610SOL    HW166271   4.698   2.303   8.148  0.2284 -0.9516 -1.0811
21610SOL    HW266272   4.706   2.234   8.282 -0.5137  1.1556  0.0987
21611SOL     OW66273   6.421   2.841   8.740 -0.3995  0.2832 -0.6170
21611SOL    HW166274   6.346   2.847   8.799 -0.0515 -0.2910 -0.1002
21611SOL    HW266275   6.478   2.776   8.781  0.7504  1.2806 -0.5984
21612SOL     OW66276   7.917   5.431   5.565 -0.2742  0.4576 -0.0712
21612SOL    HW166277   7.856   5.502   5.544  0.1503  1.3604  1.5458
21612SOL    HW266278   7.954   5.405   5.481 -2.3724  0.3204 -1.0325
21613SOL     OW66279   6.307   4.441   8.398 -0.3966 -1.0689 -0.0445
21613SOL    HW166280   6.287   4.532   8.421  1.0926 -1.1832  1.9850
21613SOL    HW266281   6.388   4.447   8.347  0.1083 -1.2611  0.7079
21614SOL     OW66282   7.262   4.847   8.943  0.5474  0.3714  0.0071
21614SOL    HW166283   7.168   4.840   8.931  0.1681  0.9269  2.2130
21614SOL    HW266284   7.277   4.941   8.955  1.1691  0.1437  1.0832
21615SOL     OW66285   7.439   3.994   9.395  0.7449  0.0851  0.0718
21615SOL    HW166286   7.461   4.000   9.302  1.0030 -2.1279 -0.0776
21615SOL    HW266287   7.412   3.902   9.407  0.6300  0.3424  2.1629
21616SOL     OW66288   6.083   5.963   8.268  0.0351 -0.0666  0.2978
21616SOL    HW166289   6.104   6.046   8.311 -1.0727 -0.6682  2.1110
21616SOL    HW266290   6.163   5.912   8.273  0.3552  0.4314  0.2890
21617SOL     OW66291   7.389   5.279   7.045 -0.0597  0.1138 -0.4756
21617SOL    HW166292   7.398   5.296   6.951  0.2819  0.6156 -0.3532
21617SOL    HW266293   7.478   5.262   7.075 -0.1534  0.0821 -0.2164
21618SOL     OW66294   5.943   5.899   8.791 -0.5546  0.2332 -0.4018
21618SOL    HW166295   5.875   5.858   8.738 -0.8923 -0.3205  0.4464
21618SOL    HW266296   6.002   5.827   8.815 -0.5932  0.4135  0.2538
21619SOL     OW66297   6.130   3.145   8.662  0.2374 -0.4037  0.0913
21619SOL    HW166298   6.179   3.155   8.743 -1.4046 -1.5371  1.2734
21619SOL    HW266299   6.082   3.227   8.652  0.9358 -0.0050 -0.1272
21620SOL     OW66300   4.962   1.909   8.717 -0.2293  0.3060  0.2332
21620SOL    HW166301   5.012   1.889   8.795  2.6627  0.0358 -1.5302
21620SOL    HW266302   4.959   1.827   8.668  0.1047  0.9999 -1.0050
21621SOL     OW66303   6.984   3.285   9.179 -0.3199  0.1226  0.6399
21621SOL    HW166304   6.928   3.241   9.115 -1.4151 -0.6509  2.0937
21621SOL    HW266305   7.067   3.297   9.133 -0.5422 -1.8901 -0.3944
21622SOL     OW66306   5.712   4.206   8.783 -0.5433  0.4899  0.0893
21622SOL    HW166307   5.637   4.229   8.727 -0.3822  1.8757  0.4016
21622SOL    HW266308   5.680   4.136   8.839 -0.9530 -0.3820 -1.1785
21623SOL     OW66309   7.646   4.234   7.921 -0.4450 -0.3463 -0.3742
21623SOL    HW166310   7.699   4.296   7.871  0.4181 -1.0616 -0.3836
21623SOL    HW266311   7.672   4.249   8.012 -1.4955  0.4667 -0.1900
21624SOL     OW66312   7.825   5.100   7.478 -0.0686 -0.4630  0.5459
21624SOL    HW166313   7.744   5.151   7.486 -0.1735 -0.2358 -1.4170
21624SOL    HW266314   7.895   5.165   7.482 -0.0729 -0.4707  0.7152
21625SOL     OW66315   6.517   5.302   7.545  0.1210  0.3152 -0.0255
21625SOL    HW166316   6.451   5.333   7.483  1.1992  1.1984 -0.7810
21625SOL    HW266317   6.574   5.246   7.493  1.5388  1.7442 -0.0878
21626SOL     OW66318   0.403   2.882   8.736 -0.3060  0.2916 -0.0979
21626SOL    HW166319   0.457   2.825   8.790  0.5323 -1.8679 -2.9754
21626SOL    HW266320   0.329   2.827   8.710  0.1528  0.6534 -2.3776
21627SOL     OW66321   5.502   5.287   7.914  0.5161  0.2345  0.0881
21627SOL    HW166322   5.492   5.336   7.832  1.1963 -2.2651 -1.6362
21627SOL    HW266323   5.413   5.267   7.941  0.2477  2.0303  0.6173
21628SOL     OW66324   7.704   4.995   7.829  0.2369  0.1301 -0.1383
21628SOL    HW166325   7.633   4.935   7.808  0.0780 -0.4282  1.8193
21628SOL    HW266326   7.765   4.987   7.755 -0.5716 -1.1925 -0.6868
21629SOL     OW66327   7.119   5.165   7.066 -0.2375  0.2490  0.0172
21629SOL    HW166328   7.210   5.190   7.082  0.2309 -0.5353 -1.2864
21629SOL    HW266329   7.095   5.113   7.143  1.0741 -1.1903 -0.4998
21630SOL     OW66330   5.749   2.384   7.930  0.0520  0.3069  0.1111
21630SOL    HW166331   5.780   2.299   7.899  2.3409  1.3884 -0.7892
21630SOL    HW266332   5.788   2.394   8.017 -1.5516 -0.2053  0.9302
21631SOL     OW66333   6.478   4.717   9.780 -0.3405  0.5387  0.5942
21631SOL    HW166334   6.519   4.702   9.695 -0.3326 -2.3239  1.0200
21631SOL    HW266335   6.387   4.738   9.758 -0.8277 -1.9780 -0.1803
21632SOL     OW66336   6.185   5.525  10.683  0.0818  0.2718  0.3892
21632SOL    HW166337   6.236   5.475  10.747 -0.3847 -1.2992 -0.4004
21632SOL    HW266338   6.233   5.513  10.601  0.8957  2.5946  0.4672
21633SOL     OW66339   6.268   5.920   9.790  0.2529 -0.2422  0.3285
21633SOL    HW166340   6.258   5.904   9.884 -1.2532  1.6848  0.5680
21633SOL    HW266341   6.186   5.964   9.764  1.5508  1.3377 -1.4006
21634SOL     OW66342   0.289   4.115   8.254 -0.2061 -0.1369  0.1096
21634SOL    HW166343   0.307   4.024   8.230 -1.6194  0.0101 -1.7890
21634SOL    HW266344   0.266   4.157   8.171 -1.2325  1.5530  1.1953
21635SOL     OW66345   6.083   5.156  10.454 -0.0748  0.9412  0.1391
21635SOL    HW166346   6.019   5.217  10.489 -0.4793 -0.4214  1.9462
21635SOL    HW266347   6.048   5.130  10.369 -2.1320 -0.0080  1.2134
21636SOL     OW66348   7.661   1.892  11.315 -0.1905 -0.1237  0.2602
21636SOL    HW166349   7.740   1.841  11.336 -0.3877  0.0986  1.6152
21636SOL    HW266350   7.624   1.914  11.400 -0.5542  1.6007 -0.3202
21637SOL     OW66351   5.531   5.492  10.595 -0.2962  0.3368  0.2321
21637SOL    HW166352   5.438   5.474  10.610 -0.3032  0.1182 -0.0745
21637SOL    HW266353   5.548   5.570  10.648 -0.6543  0.3842  0.2862
21638SOL     OW66354   5.936   5.500  10.977 -0.3269 -0.2774  0.4118
21638SOL    HW166355   5.902   5.589  10.971 -0.1950 -0.1411  1.4194
21638SOL    HW266356   5.868   5.445  10.937 -0.2694  0.2929 -0.4971
21639SOL     OW66357   6.316   4.705  10.359  0.0621 -0.1171  0.1828
21639SOL    HW166358   6.274   4.623  10.385  0.2235 -0.4992 -0.7269
21639SOL    HW266359   6.269   4.733  10.281  0.0293  0.6459  0.4655
21640SOL     OW66360   6.021   3.729   9.395 -0.6561 -0.8179  0.4858
21640SOL    HW166361   6.067   3.808   9.369  1.0463 -1.2723  1.8973
21640SOL    HW266362   5.995   3.688   9.313 -1.0149  0.8644 -0.2783
21641SOL     OW66363   5.092   6.835   7.823 -0.2073  0.2593  0.1602
21641SOL    HW166364   5.159   6.904   7.833 -0.7238  0.8005 -0.0291
21641SOL    HW266365   5.119   6.767   7.884  0.7677  0.2708 -0.2372
21642SOL     OW66366   5.110   2.607   9.160  0.2384  0.5961 -0.1174
21642SOL    HW166367   5.035   2.568   9.115  0.1031  0.2419  0.4016
21642SOL    HW266368   5.180   2.606   9.095 -0.0711  0.4747 -0.4511
21643SOL     OW66369   0.194   2.265   8.619  0.1707  0.0891 -0.5979
21643SOL    HW166370   0.111   2.293   8.581  1.1883  3.4377 -0.6260
21643SOL    HW266371   0.220   2.190   8.565 -2.4990 -0.6896 -0.9406
21644SOL     OW66372   5.914   6.557   7.934 -0.1320 -0.1246 -0.5296
21644SOL    HW166373   5.892   6.642   7.973 -2.2238 -0.7491 -0.2105
21644SOL    HW266374   5.975   6.578   7.864 -1.3413  1.8057 -1.0951
21645SOL     OW66375   6.314   5.018  10.874  0.5688  0.2981  0.5780
21645SOL    HW166376   6.235   5.001  10.823  1.0390  0.1053 -0.0971
21645SOL    HW266377   6.384   4.977  10.824  1.3798  2.0630  0.1628
21646SOL     OW66378   5.764   4.463   4.968  0.2658 -0.5809  0.0269
21646SOL    HW166379   5.715   4.389   4.932  0.2221 -0.8893  0.7109
21646SOL    HW266380   5.742   4.463   5.061  3.8723 -2.6070  1.0619
21647SOL     OW66381   5.667   4.190   9.644 -0.3535  0.4521 -0.5846
21647SOL    HW166382   5.589   4.243   9.631 -0.7593  0.5017  1.6255
21647SOL    HW266383   5.639   4.123   9.707  1.5122  0.8486  0.7357
21648SOL     OW66384   5.466   5.011   9.403 -0.3255  0.7946 -0.3473
21648SOL    HW166385   5.467   4.984   9.495  0.4261 -0.2962 -0.6584
21648SOL    HW266386   5.429   4.935   9.357 -1.4838  1.6498 -0.8606
21649SOL     OW66387   1.320   4.794  10.413 -0.2956  0.3039 -0.4591
21649SOL    HW166388   1.384   4.725  10.396 -0.5461  0.1139 -0.6517
21649SOL    HW266389   1.344   4.829  10.499  0.6185  0.8569 -0.9271
21650SOL     OW66390   5.796   4.802   7.098 -0.0847 -0.6096 -0.5540
21650SOL    HW166391   5.810   4.719   7.052  0.8600 -0.6538 -0.2213
21650SOL    HW266392   5.724   4.784   7.158  1.4979 -1.8778  1.0706
21651SOL     OW66393   4.638   5.472   7.373 -0.2660 -0.0188 -0.5863
21651SOL    HW166394   4.621   5.379   7.363 -0.4693 -0.1467  0.7779
21651SOL    HW266395   4.733   5.478   7.388 -0.5543 -0.2387  1.5288
21652SOL     OW66396   6.453   4.620   8.680  0.0787  0.0640  0.2750
21652SOL    HW166397   6.373   4.636   8.629  0.1020 -0.7054 -0.0284
21652SOL    HW266398   6.431   4.544   8.734  1.0719 -1.1352 -0.9231
21653SOL     OW66399   0.056   5.155   8.998 -0.3153 -0.1299 -0.0004
21653SOL    HW166400   0.008   5.235   9.019 -0.5879 -0.6199  1.3883
21653SOL    HW266401  -0.009   5.098   8.958 -0.4365 -0.1004  0.1516
21654SOL     OW66402   6.237   4.400   7.112 -0.0150 -0.0174 -1.5102
21654SOL    HW166403   6.239   4.365   7.201  1.2709  1.8595 -0.7482
21654SOL    HW266404   6.143   4.414   7.095 -0.3229 -0.9676 -0.7100
21655SOL     OW66405   5.844   2.843   8.208 -0.1469 -0.0433  0.5350
21655SOL    HW166406   5.797   2.876   8.285  0.1595 -0.5868  0.9622
21655SOL    HW266407   5.878   2.922   8.166 -0.2757  0.2580  0.9794
21656SOL     OW66408   5.038   4.600   7.013 -0.2531 -0.3248 -0.5173
21656SOL    HW166409   5.007   4.527   6.959  0.8195 -0.6381 -0.7328
21656SOL    HW266410   5.124   4.621   6.977  0.0161  0.1784  0.3988
21657SOL     OW66411   5.593   4.644   9.174  0.0153  0.2754  0.1233
21657SOL    HW166412   5.588   4.655   9.269 -0.3212  0.2187  0.1132
21657SOL    HW266413   5.512   4.599   9.151  1.0968 -1.7651  0.0988
21658SOL     OW66414   6.816   5.415   9.234 -0.4828 -0.0396 -0.3433
21658SOL    HW166415   6.761   5.493   9.224 -0.7730 -0.1449  0.3927
21658SOL    HW266416   6.877   5.438   9.304 -0.2132 -0.2775 -0.4975
21659SOL     OW66417   5.697   4.193  10.035  0.0425  0.3491  0.7198
21659SOL    HW166418   5.729   4.277  10.003  0.9105 -0.1455  0.2467
21659SOL    HW266419   5.639   4.215  10.107 -1.2911  1.4603 -0.6265
21660SOL     OW66420   7.425   3.588   9.435  0.1381 -0.1866  0.2262
21660SOL    HW166421   7.521   3.592   9.430  0.2231 -0.2684  1.5069
21660SOL    HW266422   7.399   3.543   9.355  1.0741  0.9955 -0.7948
21661SOL     OW66423   0.825   4.948   8.544  0.3537  0.3998 -0.3229
21661SOL    HW166424   0.786   4.982   8.464 -0.9823 -0.2556  0.0261
21661SOL    HW266425   0.812   5.017   8.609  2.0920  1.2470 -0.7925
21662SOL     OW66426   6.493   5.254   9.545 -0.6323 -0.0174 -0.4788
21662SOL    HW166427   6.433   5.195   9.500  0.3703  1.6768 -4.4059
21662SOL    HW266428   6.550   5.196   9.595  0.3468 -2.5348 -4.1310
21663SOL     OW66429   0.878   5.772   8.686 -0.5418 -0.5283  0.4285
21663SOL    HW166430   0.909   5.783   8.596 -0.3927  0.7080  0.6167
21663SOL    HW266431   0.949   5.804   8.741  0.4007 -3.5504  1.1357
21664SOL     OW66432   7.925   4.392  10.017 -0.0524  0.0623 -0.2894
21664SOL    HW166433   7.876   4.312  10.000  1.0094 -0.7057  0.1766
21664SOL    HW266434   7.908   4.447   9.940  0.2537 -1.1340 -1.2492
21665SOL     OW66435   0.037   5.199   8.185  0.9374  0.3217 -0.1039
21665SOL    HW166436  -0.022   5.264   8.148  1.8184  0.3482 -1.5643
21665SOL    HW266437   0.030   5.124   8.126 -0.4158 -1.1584  1.8030
21666SOL     OW66438   6.710   2.854   6.937 -0.2989  0.1799 -0.2948
21666SOL    HW166439   6.770   2.841   6.864 -0.3627 -0.3837 -0.2489
21666SOL    HW266440   6.696   2.949   6.939  0.4404  0.2991 -0.4187
21667SOL     OW66441   6.624   6.139   9.776 -0.1278  0.3604 -0.3086
21667SOL    HW166442   6.697   6.198   9.759  0.2890 -0.2897 -0.7923
21667SOL    HW266443   6.602   6.102   9.691 -1.4575  1.0378 -0.2860
21668SOL     OW66444   0.174   4.100  10.048  0.3813  0.0776 -0.2740
21668SOL    HW166445   0.249   4.155  10.025  2.0841 -2.0839 -0.2397
21668SOL    HW266446   0.139   4.072   9.963 -0.4890  1.1778 -0.2922
21669SOL     OW66447   6.713   4.971   9.146 -0.2112  0.0759 -0.5785
21669SOL    HW166448   6.726   4.969   9.241  0.9842 -1.2453 -0.7421
21669SOL    HW266449   6.640   5.032   9.133  0.7322  1.6446  1.0381
21670SOL     OW66450   7.463   3.298   9.801 -0.3279  0.1882  0.1460
21670SOL    HW166451   7.396   3.233   9.821  0.0812  0.2075  1.6669
21670SOL    HW266452   7.478   3.288   9.707 -1.5223 -0.6957  0.0167
21671SOL     OW66453   7.214   5.117   9.755 -0.0247 -0.5055 -0.0699
21671SOL    HW166454   7.283   5.171   9.795  0.9812 -0.6798 -1.5038
21671SOL    HW266455   7.158   5.091   9.829 -0.3620  2.1834  0.7179
21672SOL     OW66456   6.167   5.200   8.659 -0.3080 -0.2299  0.4533
21672SOL    HW166457   6.090   5.240   8.619 -0.8192 -0.1134  1.5065
21672SOL    HW266458   6.227   5.185   8.587 -0.7385  0.9970 -0.1784
21673SOL     OW66459   6.145   3.759   8.457  0.2431 -0.1759  0.0818
21673SOL    HW166460   6.065   3.707   8.459  0.3133 -0.3248 -0.8286
21673SOL    HW266461   6.117   3.845   8.424  0.7913 -0.8625 -2.3147
21674SOL     OW66462   5.594   3.731   8.492 -0.4997  0.0930  0.0491
21674SOL    HW166463   5.571   3.658   8.434 -1.6173  0.7720 -0.3951
21674SOL    HW266464   5.538   3.803   8.463 -0.1778  0.8190  1.1716
21675SOL     OW66465   6.043   5.128  10.124 -0.4642  0.5502  0.4157
21675SOL    HW166466   6.108   5.191  10.092  1.2196 -1.5036 -0.4044
21675SOL    HW266467   5.980   5.121  10.052  0.8346 -0.6559 -0.6651
21676SOL     OW66468   5.372   2.994   7.565 -0.3116  0.2883 -0.4256
21676SOL    HW166469   5.285   3.029   7.544 -1.3240 -0.7875  1.6670
21676SOL    HW266470   5.389   3.023   7.654  2.2091  1.7239 -1.2535
21677SOL     OW66471   5.134   4.765   9.012  0.1026  0.3128  0.5054
21677SOL    HW166472   5.039   4.764   9.020  0.0021  2.5946  0.1424
21677SOL    HW266473   5.151   4.727   8.925 -0.5182  0.4544  0.3173
21678SOL     OW66474   7.333   2.525  11.467  0.4378 -0.9685  0.3541
21678SOL    HW166475   7.304   2.578  11.541 -0.6183 -0.5692 -0.3317
21678SOL    HW266476   7.264   2.461  11.454 -0.3404  0.1523 -1.4541
21679SOL     OW66477   7.369   3.560   7.530  0.0966  0.2216  0.2688
21679SOL    HW166478   7.311   3.494   7.491  1.0687 -0.8289  0.5526
21679SOL    HW266479   7.457   3.526   7.515  0.7843  2.5542 -1.5626
21680SOL     OW66480   7.615   4.121   8.514  0.6321 -0.0062 -0.3877
21680SOL    HW166481   7.569   4.139   8.432  1.8290  0.8630 -0.9020
21680SOL    HW266482   7.554   4.147   8.583  0.8107  2.4372 -1.0687
21681SOL     OW66483   4.456   5.119  10.677  0.2068 -0.1856 -0.1470
21681SOL    HW166484   4.418   5.206  10.689 -0.3920 -0.0029 -2.6585
21681SOL    HW266485   4.409   5.063  10.738  0.6571  1.2389  1.5761
21682SOL     OW66486   6.830   2.167  10.080 -0.0003 -0.0085 -0.2124
21682SOL    HW166487   6.876   2.085  10.064  1.3194  0.6301  0.1132
21682SOL    HW266488   6.778   2.182  10.001 -0.0129 -0.9934 -0.3970
21683SOL     OW66489   7.058   4.542   8.763  0.1963 -0.5876  0.6116
21683SOL    HW166490   6.976   4.553   8.715  0.8310 -0.1562 -0.4001
21683SOL    HW266491   7.083   4.630   8.790  0.5749 -0.6615  0.5069
21684SOL     OW66492   5.720   4.467   7.621 -0.1826  0.0023  0.2163
21684SOL    HW166493   5.627   4.446   7.612 -0.4501  1.1786  0.1337
21684SOL    HW266494   5.765   4.387   7.592 -1.1427 -0.0773 -1.1757
21685SOL     OW66495   5.350   5.280  10.381 -0.2101 -0.0567 -0.0447
21685SOL    HW166496   5.378   5.212  10.441 -1.4842 -0.3640  0.2483
21685SOL    HW266497   5.282   5.238  10.328 -1.0306  0.9743  0.1499
21686SOL     OW66498   7.745   5.448   6.729  0.1122 -0.4728 -0.1684
21686SOL    HW166499   7.738   5.544   6.724 -0.8069 -0.3032  2.5557
21686SOL    HW266500   7.837   5.430   6.713  0.2248  0.8019 -1.1612
21687SOL     OW66501   6.542   4.457   8.218  0.0362 -0.8564  0.6570
21687SOL    HW166502   6.580   4.529   8.168  1.2859 -2.1462 -0.3228
21687SOL    HW266503   6.550   4.381   8.160 -0.6894 -1.9164  1.9018
21688SOL     OW66504   7.115   4.535   8.195  0.7083  0.0281 -0.4938
21688SOL    HW166505   7.095   4.469   8.128 -2.2562 -0.4446  0.7048
21688SOL    HW266506   7.032   4.548   8.242  1.7911  2.8477  0.9077
21689SOL     OW66507   6.276   4.729   8.473 -0.0872  0.0341 -0.1665
21689SOL    HW166508   6.202   4.739   8.533  0.7859  0.3002  0.8986
21689SOL    HW266509   6.258   4.791   8.402 -0.1582  1.1840  0.8299
21690SOL     OW66510   5.201   3.803   8.894 -0.2217 -0.5284  0.4604
21690SOL    HW166511   5.113   3.779   8.924 -0.7313 -0.3952 -0.8651
21690SOL    HW266512   5.212   3.755   8.812  0.3364  0.6358 -0.1581
21691SOL     OW66513   6.623   6.102   8.847  0.5174  0.3000  0.1273
21691SOL    HW166514   6.649   6.020   8.805  0.1417 -0.5537  1.4947
21691SOL    HW266515   6.613   6.164   8.775 -0.3077 -1.1593 -1.0731
21692SOL     OW66516   6.046   4.468   8.957 -0.5725 -0.3598  0.4062
21692SOL    HW166517   6.063   4.553   8.999  2.0894 -0.2742 -0.6282
21692SOL    HW266518   6.045   4.489   8.863  0.2878 -1.4577  0.1333
21693SOL     OW66519   6.544   3.990   7.098 -0.2594  0.3627 -0.2775
21693SOL    HW166520   6.579   3.961   7.182 -0.6201  0.3567 -0.1266
21693SOL    HW266521   6.451   3.966   7.101 -0.1325 -0.2566 -0.9558
21694SOL     OW66522   4.644   5.774   9.052  0.3054 -0.2909  0.2945
21694SOL    HW166523   4.597   5.728   8.983 -0.4375  1.0076 -0.0990
21694SOL    HW266524   4.736   5.750   9.038  0.0109 -1.1140 -0.3036
21695SOL     OW66525   7.000   4.571   6.252 -0.3885 -0.0698  0.0593
21695SOL    HW166526   6.977   4.644   6.310 -1.1351 -1.0245  0.9963
21695SOL    HW266527   6.916   4.535   6.225 -0.0965 -2.5385  2.1409
21696SOL     OW66528   7.978   5.599   8.848  0.6273 -0.1323  0.7702
21696SOL    HW166529   7.944   5.688   8.849 -0.6399 -0.5740 -0.3422
21696SOL    HW266530   7.954   5.563   8.933 -1.0010 -0.1576  0.3301
21697SOL     OW66531   5.250   4.725   8.180  0.2315  0.2206 -0.1337
21697SOL    HW166532   5.186   4.694   8.244 -0.2375  1.0095 -0.2071
21697SOL    HW266533   5.285   4.645   8.140 -2.8060 -0.2755 -2.1470
21698SOL     OW66534   0.638   3.181   7.649 -0.1183  0.0137 -0.0225
21698SOL    HW166535   0.586   3.199   7.570 -1.3481  1.6062  1.0823
21698SOL    HW266536   0.727   3.203   7.623 -0.8520  3.3817 -0.2622
21699SOL     OW66537   0.396   1.706   7.653 -0.5725  0.2544  1.0426
21699SOL    HW166538   0.344   1.756   7.590 -0.1367 -0.5107  0.0568
21699SOL    HW266539   0.354   1.724   7.737 -1.2265  1.2170  0.5381
21700SOL     OW66540   4.843   2.851   8.943 -0.4416  0.0545 -0.0909
21700SOL    HW166541   4.857   2.761   8.912 -1.4211 -0.2700  0.3744
21700SOL    HW266542   4.748   2.860   8.947 -0.3498  1.0755 -0.0043
21701SOL     OW66543   6.498   5.198   7.942 -0.0261 -0.0633 -0.1762
21701SOL    HW166544   6.555   5.271   7.917  0.7675 -0.3165  0.8264
21701SOL    HW266545   6.417   5.214   7.894 -0.6578  2.6212  1.5786
21702SOL     OW66546   7.441   4.945   9.312  0.0971  0.0676 -0.3851
21702SOL    HW166547   7.397   4.953   9.397  0.5415  0.4202 -0.1871
21702SOL    HW266548   7.389   5.001   9.254  1.6208  2.4130  0.3829
21703SOL     OW66549   7.984   5.162   7.077 -0.4172 -0.2217 -0.0827
21703SOL    HW166550   7.924   5.097   7.112 -0.5118 -0.7730 -1.2097
21703SOL    HW266551   8.008   5.128   6.991 -0.0058  0.9435 -0.4482
21704SOL     OW66552   7.902   6.730   7.117  0.5027  0.2739  0.4021
21704SOL    HW166553   7.833   6.723   7.183  2.0536  0.7181  2.1947
21704SOL    HW266554   7.976   6.683   7.156  2.1542  2.3311 -0.0450
21705SOL     OW66555   7.126   6.187   9.008 -0.3115 -0.0267  0.3639
21705SOL    HW166556   7.102   6.174   9.100  0.7993 -1.5074  0.4758
21705SOL    HW266557   7.049   6.158   8.959  0.4437 -2.9628  0.7601
21706SOL     OW66558   5.389   4.990   8.269  0.2813 -0.3355 -0.0461
21706SOL    HW166559   5.343   4.970   8.351 -0.4014 -0.0950 -0.3639
21706SOL    HW266560   5.355   4.928   8.206  2.2296 -1.8315  0.2791
21707SOL     OW66561   6.093   4.735   9.031  0.3448  0.4165  0.6831
21707SOL    HW166562   6.060   4.816   8.995  3.9432  1.5326 -0.5370
21707SOL    HW266563   6.143   4.762   9.109 -0.5520 -0.9961  1.8049
21708SOL     OW66564   5.781   4.686   8.734  0.0653 -0.0982 -0.3799
21708SOL    HW166565   5.732   4.731   8.804 -0.5531  0.3514 -1.0883
21708SOL    HW266566   5.865   4.665   8.774  0.0652  0.9790  0.2264
21709SOL     OW66567   6.257   4.898   8.214  0.1217  0.0015  0.2777
21709SOL    HW166568   6.300   4.919   8.131 -0.4718  2.0511  0.4433
21709SOL    HW266569   6.224   4.809   8.202  3.6662 -1.4379 -0.1448
21710SOL     OW66570   7.859   3.976   8.222  0.0820 -0.3008 -0.3835
21710SOL    HW166571   7.922   3.989   8.152  1.2674 -2.4994  0.1655
21710SOL    HW266572   7.909   3.932   8.291 -1.0570  1.6724  1.8501
21711SOL     OW66573   6.710   5.247   9.888  0.2134  0.7088  0.3772
21711SOL    HW166574   6.630   5.209   9.850  0.5208  0.7094 -0.2866
21711SOL    HW266575   6.679   5.300   9.961 -0.7863  3.6290 -1.9766
21712SOL     OW66576   6.407   0.169   7.941 -0.6783 -0.4407 -0.1757
21712SOL    HW166577   6.407   0.100   7.875 -0.0758 -0.2768 -0.3514
21712SOL    HW266578   6.492   0.213   7.931 -0.4048 -0.6743  0.9747
21713SOL     OW66579   6.994   5.503   8.068 -0.4112 -0.3163  0.1604
21713SOL    HW166580   7.044   5.550   8.002 -2.3355  0.6878 -0.6696
21713SOL    HW266581   6.985   5.414   8.033 -0.8444  0.0280 -0.6119
21714SOL     OW66582   7.503   3.360   7.131  0.1516 -0.7005  0.4365
21714SOL    HW166583   7.564   3.433   7.138  0.4837 -1.0026  0.7522
21714SOL    HW266584   7.429   3.386   7.185 -0.9480  0.5721 -1.5586
21715SOL     OW66585   0.093   2.324   8.284 -0.4579  0.6370 -0.7630
21715SOL    HW166586   0.048   2.263   8.226  0.4658  0.3572 -1.1987
21715SOL    HW266587   0.030   2.341   8.355 -1.1082 -0.0055 -1.1763
21716SOL     OW66588   6.577   5.853   7.120  0.5117  0.4034 -0.5532
21716SOL    HW166589   6.667   5.825   7.135  0.2899  0.3187  0.7064
21716SOL    HW266590   6.556   5.819   7.033  1.6827  0.4068 -0.8563
21717SOL     OW66591   0.329   4.506   9.448 -0.0011  0.1160 -0.5765
21717SOL    HW166592   0.279   4.437   9.404 -0.6993  0.2984 -0.0962
21717SOL    HW266593   0.264   4.573   9.467  0.7391  1.0721 -1.3620
21718SOL     OW66594   6.110   4.812   7.651  0.0757  0.6478  0.2944
21718SOL    HW166595   6.141   4.898   7.621  2.7102 -0.6844 -1.1758
21718SOL    HW266596   6.083   4.826   7.741  1.8638  2.7506  0.5823
21719SOL     OW66597   5.905   6.176   7.280 -0.0320  0.3193  0.1016
21719SOL    HW166598   5.913   6.243   7.212 -0.4791 -1.2513 -1.6183
21719SOL    HW266599   5.972   6.198   7.344 -0.3685  2.5421 -0.2267
21720SOL     OW66600   6.791   5.522   8.615 -0.2356  0.1375  0.1513
21720SOL    HW166601   6.709   5.475   8.604 -0.6865  0.9663 -0.0944
21720SOL    HW266602   6.858   5.461   8.583 -0.8477 -0.1645 -0.5880
21721SOL     OW66603   6.644   4.915   9.425 -0.2946  0.1877 -0.1521
21721SOL    HW166604   6.560   4.960   9.418 -0.0005  0.7187 -0.2957
21721SOL    HW266605   6.708   4.985   9.438 -0.0704 -0.3074  1.7546
21722SOL     OW66606   5.936   5.328   8.554  0.1991  0.0977  0.3354
21722SOL    HW166607   5.871   5.390   8.587 -0.1698 -0.4591  0.6865
21722SOL    HW266608   5.885   5.263   8.506  0.5903  0.1219 -0.1236
21723SOL     OW66609   6.392   4.909   7.971 -0.5389 -0.6501  0.5877
21723SOL    HW166610   6.451   4.884   7.901 -1.8745 -1.1354 -0.3976
21723SOL    HW266611   6.324   4.962   7.929 -1.4873 -1.1290  1.4602
21724SOL     OW66612   7.741   4.389   6.108 -0.0383  0.5190  0.6234
21724SOL    HW166613   7.829   4.426   6.098 -0.1017  0.8681  1.2995
21724SOL    HW266614   7.720   4.402   6.200 -0.7302  0.2791  0.5042
21725SOL     OW66615   6.605   3.898   8.042 -0.1527  0.5900 -0.2712
21725SOL    HW166616   6.647   3.936   8.118 -1.3987  0.5968  0.4363
21725SOL    HW266617   6.673   3.844   8.002  0.6131  0.8430  0.6510
21726SOL     OW66618   6.760   3.964   8.265  0.2731  0.5800 -0.3115
21726SOL    HW166619   6.725   3.889   8.313 -0.5133  2.3830  2.1892
21726SOL    HW266620   6.855   3.958   8.276  0.3012 -0.5817 -1.0577
21727SOL     OW66621   6.981   6.388   8.728 -0.1428  0.3416 -0.1278
21727SOL    HW166622   6.919   6.372   8.799 -0.4988  1.5002 -0.1623
21727SOL    HW266623   6.928   6.430   8.659  0.2224 -0.6349 -1.0317
21728SOL     OW66624   6.454   5.381   6.240 -0.1350  0.2699  0.0331
21728SOL    HW166625   6.421   5.331   6.165  0.0882 -0.6924  0.5569
21728SOL    HW266626   6.549   5.375   6.232 -0.0817  1.5378 -0.4886
21729SOL     OW66627   6.099   6.624   8.173 -0.0746  0.3574 -0.0675
21729SOL    HW166628   6.014   6.665   8.159 -1.1981 -0.8851  2.4116
21729SOL    HW266629   6.117   6.638   8.266  2.1700  0.0615 -0.4123
21730SOL     OW66630   7.438   4.971   7.086  0.3464  0.3176  0.6605
21730SOL    HW166631   7.529   4.974   7.058  0.1193 -2.9940 -0.9705
21730SOL    HW266632   7.388   5.005   7.012  0.1667 -0.1996  0.5358
21731SOL     OW66633   5.394   4.725   6.333  0.2088 -0.3137  0.3495
21731SOL    HW166634   5.311   4.699   6.295 -0.0308  0.2798  0.4563
21731SOL    HW266635   5.385   4.820   6.348  0.8453 -0.2725  0.4933
21732SOL     OW66636   6.741   5.873   8.692  0.7125 -0.0120  0.0302
21732SOL    HW166637   6.677   5.877   8.620  0.4076 -0.4105  0.2745
21732SOL    HW266638   6.816   5.923   8.660  0.9277 -0.8956 -0.9166
21733SOL     OW66639   5.201   5.011   9.560  0.1291  0.3585 -0.1227
21733SOL    HW166640   5.123   5.066   9.562 -0.0218  0.1324  0.4727
21733SOL    HW266641   5.256   5.045   9.631 -0.1795 -0.5551  0.5743
21734SOL     OW66642   7.073   3.437   9.828 -0.1255  0.8113  0.9293
21734SOL    HW166643   6.985   3.469   9.812 -0.7368 -0.8961  0.7046
21734SOL    HW266644   7.120   3.452   9.745 -0.7758 -0.0676  0.3941
21735SOL     OW66645   6.993   4.900   8.979  0.4263 -0.3754  0.6746
21735SOL    HW166646   6.947   4.984   8.975  0.5436 -0.2954  0.9624
21735SOL    HW266647   6.923   4.835   8.976  0.2902 -0.2532  1.1209
21736SOL     OW66648   7.480   3.267   9.537  0.5619 -0.4888  0.0384
21736SOL    HW166649   7.398   3.286   9.490  1.5472  0.3360 -1.4300
21736SOL    HW266650   7.496   3.174   9.520 -0.6107 -0.9611  1.2840
21737SOL     OW66651   6.302   1.773   7.065 -0.1511  0.2002  0.3688
21737SOL    HW166652   6.394   1.780   7.092 -0.0274 -0.0499  0.0187
21737SOL    HW266653   6.290   1.847   7.005  0.4403 -0.9902 -1.3025
21738SOL     OW66654   7.113   6.172   8.457  0.0653 -0.0666 -0.2417
21738SOL    HW166655   7.073   6.194   8.373  0.4779  0.4231 -0.3126
21738SOL    HW266656   7.040   6.142   8.511  0.0789 -2.5826 -1.4699
21739SOL     OW66657   6.961   3.188   8.630  0.4550 -0.2887  0.0635
21739SOL    HW166658   7.022   3.260   8.615  0.7296 -0.5138  0.0901
21739SOL    HW266659   6.878   3.231   8.651  0.5299  0.0182 -0.2661
21740SOL     OW66660   7.284   4.122   9.072 -0.1610 -0.1256 -0.2308
21740SOL    HW166661   7.240   4.196   9.115  1.3471 -0.1709  1.5391
21740SOL    HW266662   7.216   4.056   9.063 -0.7919  0.2675  1.2503
21741SOL     OW66663   6.243   4.002  10.901 -0.5650 -0.1726 -0.0797
21741SOL    HW166664   6.332   3.970  10.887 -0.7144 -0.1564 -1.1507
21741SOL    HW266665   6.254   4.094  10.925 -0.2095 -0.6289  1.6915
21742SOL     OW66666   4.324   4.318   9.990  0.1689  0.0015 -0.3862
21742SOL    HW166667   4.386   4.376  10.034  0.3728 -1.6915  1.7018
21742SOL    HW266668   4.290   4.371   9.917  0.8249  2.4862  0.9833
21743SOL     OW66669   6.083   4.154   8.566  0.3141 -0.3150  0.2773
21743SOL    HW166670   6.073   4.141   8.661 -0.6139 -2.3845 -0.0547
21743SOL    HW266671   6.177   4.163   8.553  0.3500  2.3090  1.5970
21744SOL     OW66672   4.173   4.110  10.862  0.4051 -0.3618  0.0290
21744SOL    HW166673   4.174   4.146  10.951  1.8835 -1.8336  0.6527
21744SOL    HW266674   4.116   4.169  10.813  0.3157  1.0353  1.7250
21745SOL     OW66675   7.549   4.345   9.214  0.8470 -0.0687  0.2509
21745SOL    HW166676   7.579   4.436   9.219  3.0308 -0.7095 -0.1887
21745SOL    HW266677   7.553   4.314   9.305  1.6875 -0.1645  0.1942
21746SOL     OW66678   0.266   4.707   6.708 -0.3156 -0.2426 -0.0182
21746SOL    HW166679   0.279   4.675   6.797  1.6914  0.4230 -0.0131
21746SOL    HW266680   0.347   4.756   6.688 -0.2502 -1.2248 -2.5632
21747SOL     OW66681   6.727   2.775   8.239 -0.5231  0.0699 -0.3710
21747SOL    HW166682   6.775   2.694   8.258 -1.1060 -0.1956  0.0103
21747SOL    HW266683   6.668   2.785   8.313 -0.6570  0.6964 -0.5610
21748SOL     OW66684   4.378   4.445   8.864  0.0065  0.4558 -0.1477
21748SOL    HW166685   4.413   4.365   8.826  0.2013  1.1483 -1.4545
21748SOL    HW266686   4.387   4.511   8.796 -1.8166  1.1840  0.2489
21749SOL     OW66687   5.581   5.575   8.444 -0.1742 -0.4870  0.3036
21749SOL    HW166688   5.643   5.532   8.503 -0.8823 -1.0051  0.6906
21749SOL    HW266689   5.569   5.513   8.372 -0.4572 -0.5179  0.3755
21750SOL     OW66690   6.065   3.967   9.248 -0.9493  0.2827  0.2701
21750SOL    HW166691   6.041   4.000   9.161  1.2189  0.2633 -0.3849
21750SOL    HW266692   6.115   4.038   9.287  1.2683 -1.0479  0.0016
21751SOL     OW66693   5.106   3.033   9.728 -0.1991  0.0417  0.4101
21751SOL    HW166694   5.040   3.025   9.660 -1.8530 -0.0948  1.9396
21751SOL    HW266695   5.138   3.123   9.721 -0.7234  0.1808 -0.2057
21752SOL     OW66696   5.533   3.723   9.227 -0.4759 -0.4501 -0.0799
21752SOL    HW166697   5.495   3.695   9.144  1.1235 -1.0218 -0.6529
21752SOL    HW266698   5.525   3.818   9.226 -0.3777 -0.4444 -0.9379
21753SOL     OW66699   6.756   6.652  10.470  0.1639  0.2080 -0.6378
21753SOL    HW166700   6.744   6.572  10.418 -0.0688  1.2388 -2.2628
21753SOL    HW266701   6.711   6.634  10.552  1.3383 -1.8416 -0.3832
21754SOL     OW66702   7.846   4.968   8.897 -0.4632 -0.0452  0.0830
21754SOL    HW166703   7.817   5.032   8.832  1.4075 -0.0683 -0.8269
21754SOL    HW266704   7.768   4.950   8.949 -1.3916  1.8726 -0.5624
21755SOL     OW66705   6.607   5.411  10.081 -0.1298  0.6514 -0.3456
21755SOL    HW166706   6.626   5.502  10.058 -1.1926  1.2646  1.0953
21755SOL    HW266707   6.687   5.380  10.124  0.9427  0.2660 -2.4493
21756SOL     OW66708   7.621   3.147   7.698  0.4374  0.1530 -0.0652
21756SOL    HW166709   7.677   3.210   7.744  1.0012 -1.4117  1.5022
21756SOL    HW266710   7.679   3.106   7.634  0.6343 -0.2279  0.3518
21757SOL     OW66711   7.205   4.643  10.275  0.5421 -0.4427 -0.2332
21757SOL    HW166712   7.291   4.632  10.317  0.7468  1.4546 -0.0694
21757SOL    HW266713   7.143   4.605  10.337  1.1354 -0.4277  0.3855
21758SOL     OW66714   5.928   2.394  10.481  0.3519 -0.4181 -0.6314
21758SOL    HW166715   5.973   2.368  10.561  0.1058 -1.1543 -0.7285
21758SOL    HW266716   5.864   2.459  10.509  0.3453 -0.5902 -0.2447
21759SOL     OW66717   6.331   3.405   9.725  0.2475 -0.2703 -0.4952
21759SOL    HW166718   6.397   3.384   9.791  0.3843 -0.7543 -0.7803
21759SOL    HW266719   6.326   3.327   9.671  0.8193  0.4510 -1.6369
21760SOL     OW66720   4.341   3.834   0.285 -0.0919 -0.1904 -0.1546
21760SOL    HW166721   4.333   3.846   0.190  0.2286 -0.8326 -0.2711
21760SOL    HW266722   4.345   3.739   0.296 -1.7356 -0.1962  0.6343
21761SOL     OW66723   5.587   5.750   9.553  0.0379  0.3136  0.6144
21761SOL    HW166724   5.558   5.663   9.525  0.8799 -0.4966  2.1702
21761SOL    HW266725   5.664   5.768   9.500  1.5329 -1.1461  2.1601
21762SOL     OW66726   6.166   5.361  11.048  0.4150 -0.1883  0.6979
21762SOL    HW166727   6.242   5.419  11.049  0.5598 -0.3722  1.7838
21762SOL    HW266728   6.094   5.416  11.016  1.0714 -0.1326 -0.7731
21763SOL     OW66729   5.080   4.073  10.545  0.7720 -0.4404 -0.5229
21763SOL    HW166730   5.025   4.045  10.471  0.0613  1.0165 -0.5911
21763SOL    HW266731   5.071   4.168  10.546  0.1950 -0.4487  1.8696
21764SOL     OW66732   7.365   5.253  10.143  0.0146 -0.0250  0.0696
21764SOL    HW166733   7.428   5.271  10.213  0.6203 -2.2212  0.1529
21764SOL    HW266734   7.387   5.165  10.112 -2.1335 -0.3027 -0.8758
21765SOL     OW66735   6.622   5.090   8.168  0.0856 -0.5224  0.3860
21765SOL    HW166736   6.581   5.125   8.089  1.5326 -1.0423 -0.6192
21765SOL    HW266737   6.582   5.140   8.239  1.7469  2.9753 -0.9227
21766SOL     OW66738   7.344   5.801  11.210  0.0622 -0.3824  0.2036
21766SOL    HW166739   7.353   5.767  11.121  1.7954 -2.8309  1.2238
21766SOL    HW266740   7.428   5.844  11.228 -0.4774  0.5808  0.4942
21767SOL     OW66741   5.788   5.772   9.356 -0.1196  0.4463 -0.1643
21767SOL    HW166742   5.748   5.848   9.313  1.0071 -0.2841 -2.6903
21767SOL    HW266743   5.769   5.699   9.298 -0.5209 -1.1252  1.8360
21768SOL     OW66744   5.590   3.598   9.575  0.6624 -0.2834 -0.5915
21768SOL    HW166745   5.550   3.595   9.488  1.2482 -0.1220 -0.8673
21768SOL    HW266746   5.602   3.691   9.593 -0.1071 -0.2772 -0.0293
21769SOL     OW66747   4.828   6.434  10.386  0.4533 -0.5340  0.1676
21769SOL    HW166748   4.900   6.464  10.332  1.2929  1.9867  2.4698
21769SOL    HW266749   4.766   6.507  10.387 -0.7813 -1.5400  0.5473
21770SOL     OW66750   6.978   3.570   8.788 -0.3471 -0.1062 -0.2846
21770SOL    HW166751   7.004   3.662   8.788  0.5115 -0.3365 -0.7492
21770SOL    HW266752   6.976   3.544   8.880 -0.6844  0.3961 -0.1493
21771SOL     OW66753   7.002   2.219  11.161 -0.3527  0.1232  0.2196
21771SOL    HW166754   6.951   2.140  11.144 -0.5808  0.3444 -0.1379
21771SOL    HW266755   6.948   2.290  11.126  0.5096  0.2908 -0.7900
21772SOL     OW66756   6.212   5.935  10.856 -0.2492  0.6922 -0.1535
21772SOL    HW166757   6.210   5.884  10.775  0.3680 -1.9124  1.3154
21772SOL    HW266758   6.126   5.976  10.862  0.2130  2.2375 -2.8144
21773SOL     OW66759   7.686   5.392   9.214 -0.2964 -0.7170 -0.0533
21773SOL    HW166760   7.706   5.461   9.278  1.8859 -1.3091 -0.0116
21773SOL    HW266761   7.643   5.324   9.266 -1.6216  0.1801  0.0856
21774SOL     OW66762   4.370   5.637   9.380  0.0504  0.6158 -0.2549
21774SOL    HW166763   4.340   5.591   9.301 -0.3321  0.1164  0.1682
21774SOL    HW266764   4.382   5.567   9.445 -2.1848  1.2322  0.9272
21775SOL     OW66765   7.123   2.975   8.636 -0.2651 -0.8989  0.1453
21775SOL    HW166766   7.100   3.066   8.620 -0.1155 -0.6061  1.4633
21775SOL    HW266767   7.044   2.926   8.613 -1.3322 -0.1596  2.0165
21776SOL     OW66768   7.307   5.572  10.759 -0.4768  0.1455 -0.2304
21776SOL    HW166769   7.243   5.513  10.721 -0.7546  0.1510  0.2232
21776SOL    HW266770   7.255   5.644  10.795 -0.1499  0.6271 -0.6973
21777SOL     OW66771   7.581   5.277  10.327 -0.2621  0.0464 -0.2176
21777SOL    HW166772   7.623   5.209  10.378 -2.2004 -1.6999 -0.8043
21777SOL    HW266773   7.649   5.310  10.268  1.3381  0.3834  1.7373
21778SOL     OW66774   5.807   5.130  10.347  0.4756  0.4992 -0.8739
21778SOL    HW166775   5.752   5.079  10.288  1.5032 -0.4514 -1.0560
21778SOL    HW266776   5.763   5.214  10.355 -1.2319 -0.3799 -0.6370
21779SOL     OW66777   0.566   3.574  11.672  0.3594 -0.3810  0.1633
21779SOL    HW166778   0.479   3.615  11.664  0.2624 -0.8065 -1.3090
21779SOL    HW266779   0.593   3.558  11.581  0.8159 -2.6808  0.6484
21780SOL     OW66780   0.134   4.403  10.501 -0.3428 -0.2039 -0.0926
21780SOL    HW166781   0.125   4.356  10.417 -1.3058 -0.3568  0.0864
21780SOL    HW266782   0.118   4.495  10.479 -1.6963 -0.3758  0.0885
21781SOL     OW66783   0.190   3.595  11.176 -0.2527  0.2283 -0.5368
21781SOL    HW166784   0.169   3.515  11.224 -2.2406  0.1908 -1.3679
21781SOL    HW266785   0.284   3.605  11.185 -0.5023  0.3423  3.5246
21782SOL     OW66786   0.130   5.378  10.040 -0.4116 -0.1174 -0.0282
21782SOL    HW166787   0.176   5.354   9.960 -0.5876 -0.8609  0.0812
21782SOL    HW266788   0.168   5.321  10.108  0.9276  1.6722  0.7824
21783SOL     OW66789   6.416   5.598  12.233  0.3321  0.6122 -0.8379
21783SOL    HW166790   6.440   5.543  12.159 -1.1197  1.3444 -1.9023
21783SOL    HW266791   6.326   5.571  12.255  0.4043  1.0568  0.0392
21784SOL     OW66792   6.787   5.467   0.346 -0.2725 -0.5771 -0.1241
21784SOL    HW166793   6.724   5.526   0.304 -1.1854 -0.8684  0.8013
21784SOL    HW266794   6.804   5.400   0.280 -0.6539 -0.3056 -0.5086
21785SOL     OW66795   0.549   4.199  10.713 -0.1524  0.0147 -0.1652
21785SOL    HW166796   0.551   4.231  10.803 -1.0559  0.6256 -0.3471
21785SOL    HW266797   0.527   4.107  10.721 -0.3952  0.1040  0.2366
21786SOL     OW66798   5.717   2.848   9.116  0.0351  0.0359 -0.0915
21786SOL    HW166799   5.688   2.938   9.102  0.0616  0.0701  0.0738
21786SOL    HW266800   5.675   2.798   9.046  2.0205  0.5816 -1.7829
21787SOL     OW66801   0.553   2.127  11.669  0.5842  0.2675 -0.3199
21787SOL    HW166802   0.469   2.093  11.699  1.8173 -2.8309 -0.0335
21787SOL    HW266803   0.613   2.110  11.742  1.6029  1.9955 -0.7012
21788SOL     OW66804   6.811   5.107   8.827 -0.5732 -0.0305  0.4369
21788SOL    HW166805   6.735   5.070   8.783 -0.8070 -0.0342  0.8422
21788SOL    HW266806   6.776   5.176   8.882 -0.3006 -0.1246  0.7296
21789SOL     OW66807   7.012   2.825  11.767  0.1052 -0.1434 -0.4181
21789SOL    HW166808   6.984   2.853  11.680  1.0975  2.3783 -0.0126
21789SOL    HW266809   6.949   2.864  11.827  0.6480 -0.0611  0.1058
21790SOL     OW66810   7.170   3.960  10.684  0.1616  0.3131  0.1621
21790SOL    HW166811   7.135   3.890  10.739 -1.0373  1.2476  0.6334
21790SOL    HW266812   7.166   3.924  10.595 -0.4503 -0.2291  0.3968
21791SOL     OW66813   6.433   3.989  12.086  0.5710  0.0463  0.3544
21791SOL    HW166814   6.480   3.990  12.003 -1.4337 -1.3732 -0.8698
21791SOL    HW266815   6.344   3.963  12.064 -0.2283  0.3310  2.8705
21792SOL     OW66816   6.136   4.431  11.722  0.2213 -0.2133 -0.2538
21792SOL    HW166817   6.114   4.377  11.647 -0.8478 -0.9725  0.5828
21792SOL    HW266818   6.227   4.458  11.706 -0.1452  0.0662 -2.0474
21793SOL     OW66819   7.852   4.360  11.079  0.4054  0.6254 -0.1538
21793SOL    HW166820   7.795   4.336  11.005  1.0909 -0.3726 -0.3815
21793SOL    HW266821   7.924   4.408  11.038  0.1441  1.1835  0.0344
21794SOL     OW66822   4.932   3.077  10.260 -0.2904  0.6758 -0.0376
21794SOL    HW166823   4.849   3.049  10.299 -0.2029 -0.2672 -0.5031
21794SOL    HW266824   4.987   2.999  10.263  0.1329  0.9307 -0.9292
21795SOL     OW66825   4.453   7.339  10.484 -0.0548 -0.3835  0.6010
21795SOL    HW166826   4.495   7.422  10.506 -0.4707 -0.2991  1.0913
21795SOL    HW266827   4.406   7.356  10.403  1.5446 -0.7114 -0.4612
21796SOL     OW66828   6.279   2.717  11.860  0.1520 -0.3657  0.0860
21796SOL    HW166829   6.328   2.772  11.798  2.3607 -0.9521  1.2031
21796SOL    HW266830   6.332   2.638  11.869 -2.0885 -2.0023 -0.1796
21797SOL     OW66831   0.671   3.217  11.767 -0.4020  0.1761  0.1414
21797SOL    HW166832   0.588   3.253  11.799 -0.5219 -0.5595  0.6829
21797SOL    HW266833   0.646   3.136  11.722 -0.2226  1.1063 -1.7461
21798SOL     OW66834   7.015   4.152   8.781 -0.4194  0.4068 -0.0515
21798SOL    HW166835   7.074   4.201   8.838 -1.0881 -0.9727  1.9499
21798SOL    HW266836   6.934   4.144   8.832 -0.0266 -3.5860  0.2667
21799SOL     OW66837   6.832   3.140   8.320 -0.5076 -0.0203  0.0243
21799SOL    HW166838   6.775   3.122   8.245 -1.1191 -1.4584  0.7806
21799SOL    HW266839   6.797   3.220   8.358 -1.6824 -0.5439  0.1064
21800SOL     OW66840   7.696   5.934   8.741  0.5640 -0.5347 -0.0249
21800SOL    HW166841   7.751   5.993   8.690  1.7981 -1.7583 -0.1841
21800SOL    HW266842   7.754   5.903   8.811 -0.3150 -0.8793  0.5632
21801SOL     OW66843   5.495   5.934  11.015  0.2059  0.5167  0.5558
21801SOL    HW166844   5.406   5.905  11.034 -0.3762 -0.3429 -2.8254
21801SOL    HW266845   5.546   5.854  11.004  0.1910  0.7723 -2.1461
21802SOL     OW66846   5.968   3.370   8.898  0.2954 -0.2828 -0.0086
21802SOL    HW166847   5.894   3.426   8.916 -0.0505 -1.6520  3.7026
21802SOL    HW266848   6.015   3.413   8.826 -0.2999  4.3453  2.0462
21803SOL     OW66849   7.078   5.481  10.345  0.0050  0.9036 -0.1352
21803SOL    HW166850   7.112   5.508  10.259  0.4385 -1.4342 -0.7706
21803SOL    HW266851   7.153   5.439  10.388 -0.7315  0.2827  0.5647
21804SOL     OW66852   6.374   4.076  11.292 -0.7089 -0.0023 -0.5707
21804SOL    HW166853   6.453   4.075  11.238 -0.7961  0.0363 -0.7014
21804SOL    HW266854   6.310   4.027  11.240 -1.5023  1.9890 -1.6091
21805SOL     OW66855   5.637   5.386  10.123 -0.5379 -0.3189  0.3070
21805SOL    HW166856   5.646   5.388  10.219 -0.8545 -0.0723  0.3327
21805SOL    HW266857   5.670   5.471  10.095 -0.2365 -0.4784  0.1777
21806SOL     OW66858   5.146   4.384  11.763 -0.4774 -0.4658  0.4437
21806SOL    HW166859   5.087   4.434  11.708 -0.6033 -0.4815  0.5645
21806SOL    HW266860   5.233   4.417  11.741 -0.1915 -2.5037 -1.9862
21807SOL     OW66861   0.432   5.172   8.883 -0.0796 -0.3414  0.1328
21807SOL    HW166862   0.392   5.094   8.845 -0.1430 -1.1538  1.7922
21807SOL    HW266863   0.403   5.244   8.827  0.4191 -1.5473 -1.7646
21808SOL     OW66864   4.294   4.833  11.191  0.5107  0.4156  0.0555
21808SOL    HW166865   4.220   4.888  11.167 -1.0423 -1.1218  1.0207
21808SOL    HW266866   4.314   4.784  11.111  0.0759  0.3982 -0.0463
21809SOL     OW66867   6.877   6.538  10.002  0.1852  0.3643  0.4596
21809SOL    HW166868   6.915   6.483  10.070  1.2573 -1.3114 -1.3938
21809SOL    HW266869   6.949   6.592   9.972  0.2361 -0.3051 -0.6594
21810SOL     OW66870   7.610   5.864  11.282  0.3583  1.0023 -0.2089
21810SOL    HW166871   7.642   5.777  11.257  0.9421  1.2359 -0.2871
21810SOL    HW266872   7.679   5.899  11.339 -1.4594 -0.0104  2.8104
21811SOL     OW66873   7.750   3.350   9.689  0.2079  0.4617 -0.3420
21811SOL    HW166874   7.774   3.442   9.698 -1.0362  1.0446 -2.4458
21811SOL    HW266875   7.775   3.326   9.600 -1.1391 -0.7160 -0.4418
21812SOL     OW66876   6.690   5.079  10.775  0.5699  0.3809 -0.0961
21812SOL    HW166877   6.611   5.101  10.726  0.1106 -0.5726  0.1885
21812SOL    HW266878   6.660   5.067  10.865  0.8797 -0.8066 -0.1342
21813SOL     OW66879   7.818   5.129   9.234 -0.5535  0.5307  0.1250
21813SOL    HW166880   7.774   5.135   9.319 -2.1764 -2.1541 -0.4049
21813SOL    HW266881   7.818   5.218   9.200 -2.3614  1.2225  1.7603
21814SOL     OW66882   6.474   3.227   9.069 -0.1670 -0.0826  0.0194
21814SOL    HW166883   6.451   3.276   8.991 -0.7532 -1.7777 -0.9387
21814SOL    HW266884   6.546   3.276   9.109  1.9605 -0.4849 -2.9974
21815SOL     OW66885   7.227   3.776  11.382 -0.1533 -0.0355 -0.2861
21815SOL    HW166886   7.166   3.842  11.351 -1.7294 -0.8816  0.8711
21815SOL    HW266887   7.186   3.740  11.461  0.7345 -2.2217 -0.7319
21816SOL     OW66888   5.392   5.848   9.317  0.0356 -0.1902 -0.2222
21816SOL    HW166889   5.418   5.820   9.405 -0.4892  1.6476  0.5700
21816SOL    HW266890   5.432   5.784   9.258 -1.3972 -2.7832  1.4266
21817SOL     OW66891   7.094   4.565  11.166  0.0082  0.2275  0.0469
21817SOL    HW166892   7.127   4.647  11.131 -0.0667  0.8068  1.2734
21817SOL    HW266893   7.124   4.564  11.257 -1.3494 -0.3453  0.5180
21818SOL     OW66894   5.787   4.403   9.887 -0.2438  0.0179 -0.5188
21818SOL    HW166895   5.830   4.488   9.894  0.3840 -0.3454  0.2035
21818SOL    HW266896   5.816   4.369   9.802  3.5633 -1.5641  1.1588
21819SOL     OW66897   6.544   4.361  11.226  0.4837 -0.8725 -0.6348
21819SOL    HW166898   6.515   4.272  11.207  0.6647 -0.6543 -2.0162
21819SOL    HW266899   6.585   4.391  11.145  0.9332  0.2742 -0.0102
21820SOL     OW66900   6.645   4.740  11.164 -0.4067 -0.1292  0.2755
21820SOL    HW166901   6.654   4.645  11.157  1.7810  0.0585 -0.3406
21820SOL    HW266902   6.578   4.763  11.100 -0.6127 -1.2050  0.0959
21821SOL     OW66903   7.189   4.266  10.351  0.1214 -0.4282 -0.3317
21821SOL    HW166904   7.242   4.200  10.307  1.7931  0.0888  0.7903
21821SOL    HW266905   7.245   4.343  10.356 -0.6686  0.1093  1.0209
21822SOL     OW66906   7.094   3.326  11.133  0.0508  0.1378  0.1373
21822SOL    HW166907   7.072   3.361  11.220  1.4087  0.1090  0.5209
21822SOL    HW266908   7.108   3.404  11.079 -1.5595  0.1616 -0.2913
21823SOL     OW66909   7.405   6.540   9.281 -0.3019  0.1600 -0.0535
21823SOL    HW166910   7.362   6.608   9.333  0.6633  1.0214 -0.3391
21823SOL    HW266911   7.335   6.480   9.257 -1.5785  2.0148 -1.3112
21824SOL     OW66912   4.840   2.064   9.110 -1.2416 -0.3377 -0.1974
21824SOL    HW166913   4.876   1.987   9.067  0.6247  0.6223 -0.4593
21824SOL    HW266914   4.837   2.131   9.041  1.0398  0.9864  0.8408
21825SOL     OW66915   6.879   3.432  10.075 -0.0218  0.1398 -0.0676
21825SOL    HW166916   6.828   3.486  10.135 -1.1478  0.5320 -1.3217
21825SOL    HW266917   6.886   3.484   9.996 -1.0437 -1.4538 -1.2864
21826SOL     OW66918   6.057   2.771  12.001  0.3362  0.1934 -0.1192
21826SOL    HW166919   6.079   2.819  12.082  0.4662  0.4980 -0.3329
21826SOL    HW266920   6.141   2.754  11.960  0.2242  0.7264 -0.5787
21827SOL     OW66921   7.712   3.893   8.580 -0.5261 -0.4363 -0.9610
21827SOL    HW166922   7.669   3.973   8.551 -1.0407 -0.2423  0.2589
21827SOL    HW266923   7.774   3.872   8.510 -1.0748  0.4749 -1.7537
21828SOL     OW66924   6.275   5.509   9.763 -0.0591 -0.0393  0.7026
21828SOL    HW166925   6.288   5.566   9.687  1.9234 -0.5833  0.5740
21828SOL    HW266926   6.326   5.551   9.833 -1.6458  0.3108  1.6949
21829SOL     OW66927   6.106   5.296   9.651  0.3032 -0.4157  0.4410
21829SOL    HW166928   6.021   5.340   9.656 -0.2187 -1.4946  2.0986
21829SOL    HW266929   6.168   5.360   9.685  0.1958  0.4289 -0.9017
21830SOL     OW66930   5.365   4.247   9.167 -0.0445 -0.3137  0.3102
21830SOL    HW166931   5.303   4.301   9.215  0.5244  0.2300  0.4414
21830SOL    HW266932   5.357   4.275   9.076 -1.1099 -1.3311  0.0650
21831SOL     OW66933   6.784   3.593   8.615 -0.5166  0.1079  0.2208
21831SOL    HW166934   6.864   3.598   8.667 -0.4921  0.3410  0.1620
21831SOL    HW266935   6.786   3.506   8.576 -0.6149 -0.1307  0.7359
21832SOL     OW66936   6.639   3.887  10.418  0.3140  0.4330 -0.4686
21832SOL    HW166937   6.668   3.909  10.329  0.6577 -1.1179 -0.7594
21832SOL    HW266938   6.543   3.890  10.412  0.3275  0.0686 -0.9662
21833SOL     OW66939   7.087   5.175   8.788  0.0395  0.4471 -0.1201
21833SOL    HW166940   7.071   5.251   8.733  0.2292 -0.8306 -2.0513
21833SOL    HW266941   7.002   5.155   8.827 -0.4729  0.4809 -1.1843
21834SOL     OW66942   6.301   3.182  10.179  0.0637 -0.1072  0.4186
21834SOL    HW166943   6.224   3.131  10.202 -0.7266  0.1451 -1.5135
21834SOL    HW266944   6.333   3.143  10.098 -2.2931  3.9853 -2.9057
21835SOL     OW66945   0.604   3.597   8.540  0.1515 -0.0396  0.3833
21835SOL    HW166946   0.630   3.581   8.630 -0.6715  2.4276  1.1483
21835SOL    HW266947   0.652   3.532   8.489 -1.0407 -2.9790  2.7418
21836SOL     OW66948   7.407   3.074  11.169 -0.5701  0.1002 -0.1323
21836SOL    HW166949   7.442   3.086  11.081 -1.2120  0.0530 -0.4016
21836SOL    HW266950   7.437   2.987  11.195  1.9763  1.1884  0.8262
21837SOL     OW66951   7.005   3.024   8.142 -0.4438  0.4385  0.5677
21837SOL    HW166952   7.028   3.112   8.111  1.0097  0.3572  1.3214
21837SOL    HW266953   6.973   3.039   8.232  0.6180  0.1246  1.0068
21838SOL     OW66954   4.609   4.826  10.630 -0.5044 -0.1330 -0.3528
21838SOL    HW166955   4.543   4.882  10.672 -0.5715  0.3165 -1.0417
21838SOL    HW266956   4.616   4.861  10.541  2.8977  1.8203  0.5159
21839SOL     OW66957   7.516   4.488   9.614 -0.0021 -0.4133 -0.7691
21839SOL    HW166958   7.423   4.473   9.599 -0.5427  0.7977  1.0693
21839SOL    HW266959   7.558   4.404   9.591 -1.5212 -0.9698 -1.6080
21840SOL     OW66960   6.751   4.925   8.332 -0.4476 -0.5798  0.1680
21840SOL    HW166961   6.716   4.961   8.250 -0.2339 -1.6894 -0.4285
21840SOL    HW266962   6.677   4.880   8.372 -1.1482  1.7281  1.6964
21841SOL     OW66963   5.125   6.796   8.572  0.2949  0.4379 -0.2320
21841SOL    HW166964   5.201   6.756   8.614 -0.3355  0.0013  0.5268
21841SOL    HW266965   5.065   6.723   8.558 -0.8029  1.0487  1.0134
21842SOL     OW66966   6.777   5.876  10.786  0.1932 -0.0786 -0.0645
21842SOL    HW166967   6.781   5.911  10.697  0.2475 -1.9810 -0.8394
21842SOL    HW266968   6.735   5.946  10.836 -0.3841  0.8136 -1.6964
21843SOL     OW66969   7.073   3.928   9.112 -0.2480 -1.1319  0.5021
21843SOL    HW166970   7.042   4.010   9.149  0.0051 -1.4111  1.3516
21843SOL    HW266971   7.042   3.860   9.172 -1.0747 -1.7367 -0.5682
21844SOL     OW66972   7.195   6.617  11.779  0.6051  0.0279 -0.3073
21844SOL    HW166973   7.251   6.576  11.845  1.5999  0.5946 -0.7815
21844SOL    HW266974   7.238   6.699  11.758 -0.8387  0.8745 -0.1056
21845SOL     OW66975   5.969   5.818  10.011  0.7048  0.0728 -0.2406
21845SOL    HW166976   6.031   5.838  10.081 -1.3427  1.5531  1.2721
21845SOL    HW266977   5.929   5.902   9.989 -0.3256 -0.7200 -1.6267
21846SOL     OW66978   6.020   4.525  10.192 -0.2840 -0.1102  0.8291
21846SOL    HW166979   6.056   4.514  10.280  1.3234  2.3323  0.5471
21846SOL    HW266980   6.029   4.618  10.172 -1.5092 -0.3991 -1.5753
21847SOL     OW66981   7.522   2.218  10.211  0.5194  0.1974  0.4561
21847SOL    HW166982   7.454   2.278  10.181 -0.1056 -1.0285 -0.6766
21847SOL    HW266983   7.525   2.232  10.306  1.2044  2.8005  0.1351
21848SOL     OW66984   7.258   4.318  11.518 -0.0949 -0.1080 -0.0832
21848SOL    HW166985   7.277   4.358  11.433  0.0313 -0.9029 -0.4340
21848SOL    HW266986   7.345   4.296  11.554 -0.1898 -0.6975 -0.2047
21849SOL     OW66987   7.161   3.879  10.418 -0.1613 -0.1298 -0.4208
21849SOL    HW166988   7.088   3.921  10.372 -1.4929 -1.3570  0.4761
21849SOL    HW266989   7.222   3.854  10.348 -1.0544  0.0456 -1.2898
21850SOL     OW66990   6.573   4.015   9.442 -0.0402  0.5139  0.2868
21850SOL    HW166991   6.573   4.051   9.531 -1.0609 -1.4280  1.1455
21850SOL    HW266992   6.532   4.083   9.389 -0.9147  1.0909  1.6233
21851SOL     OW66993   5.877   6.751  12.054  0.5571  0.1349 -0.0147
21851SOL    HW166994   5.882   6.659  12.078 -0.1243  0.3261  0.9691
21851SOL    HW266995   5.890   6.753  11.960  2.7033 -0.7545  0.2018
21852SOL     OW66996   4.556   4.890  11.236  0.3619 -0.5573  0.5647
21852SOL    HW166997   4.565   4.965  11.177  0.3445 -0.8202  0.2174
21852SOL    HW266998   4.462   4.871  11.237  0.2883 -0.1528  1.1918
21853SOL     OW66999   6.949   3.537  10.956 -0.1671  0.5002  0.1757
21853SOL    HW167000   6.975   3.455  10.914  1.2665  0.7997  0.4178
21853SOL    HW267001   6.886   3.576  10.896  0.1149 -0.1643 -0.5713
21854SOL     OW67002   6.186   3.466  10.932 -0.6940 -0.1304  0.1930
21854SOL    HW167003   6.104   3.507  10.904  0.0081  0.5160 -0.9654
21854SOL    HW267004   6.202   3.398  10.866  0.3412  0.5842 -0.3082
21855SOL     OW67005   6.267   3.460  10.218 -0.1619  0.2055 -0.0575
21855SOL    HW167006   6.292   3.368  10.209  0.3884  0.2836  0.6263
21855SOL    HW267007   6.178   3.458  10.255 -0.1238 -0.0496  0.0201
21856SOL     OW67008   1.240   5.308   9.276 -0.2702 -0.0535  0.1890
21856SOL    HW167009   1.324   5.274   9.306  0.2913  0.7362 -0.4464
21856SOL    HW267010   1.176   5.268   9.334  0.5968 -0.2317  1.0460
21857SOL     OW67011   6.863   4.361   7.310 -0.3104  0.3289 -0.0362
21857SOL    HW167012   6.882   4.288   7.252 -0.0997  0.6516 -0.3764
21857SOL    HW267013   6.907   4.436   7.270  0.9720  0.2956  1.2508
21858SOL     OW67014   3.674   7.277   9.805 -0.0736 -0.0085 -0.4529
21858SOL    HW167015   3.737   7.346   9.822  1.3625 -1.0651 -1.2523
21858SOL    HW267016   3.588   7.319   9.814  0.6958  2.6356 -3.8576
21859SOL     OW67017   7.427   2.734  10.627  0.1885  0.6189 -0.1669
21859SOL    HW167018   7.425   2.768  10.538 -0.4214  1.3496  0.1150
21859SOL    HW267019   7.369   2.659  10.626  0.2445  0.5783 -0.3998
21860SOL     OW67020   0.123   3.782  12.113  0.1230  0.3516 -0.1637
21860SOL    HW167021   0.083   3.786  12.026  0.0080  1.2288 -0.0789
21860SOL    HW267022   0.054   3.747  12.170 -0.1346  0.7170 -0.2461
21861SOL     OW67023   6.226   2.245  11.642 -0.0121 -0.3493  0.8821
21861SOL    HW167024   6.213   2.211  11.731  0.5118 -2.1966  0.2762
21861SOL    HW267025   6.298   2.307  11.651  1.1039 -1.7006  1.4958
21862SOL     OW67026   4.235   3.811   9.999  0.3606  0.1469 -0.7054
21862SOL    HW167027   4.329   3.823  10.005  0.5745 -0.8992 -1.5103
21862SOL    HW267028   4.210   3.858   9.920 -0.1495  2.1062  0.5511
21863SOL     OW67029   6.171   3.001   0.337 -0.0034 -0.4432 -0.1539
21863SOL    HW167030   6.125   3.081   0.314 -0.0868 -0.9616 -1.8828
21863SOL    HW267031   6.195   3.013   0.429  0.5889  1.8358 -0.5481
21864SOL     OW67032   5.598   4.805  10.800  0.2520  0.5453  0.4598
21864SOL    HW167033   5.617   4.766  10.886  0.7903  0.6180  0.3776
21864SOL    HW267034   5.682   4.842  10.771 -0.1909  1.5910  0.4460
21865SOL     OW67035   6.708   4.885  11.970  0.5999 -0.2892 -0.0797
21865SOL    HW167036   6.685   4.827  11.897 -1.7571 -0.2475  0.5529
21865SOL    HW267037   6.718   4.826  12.045 -0.0567 -0.0689  0.1911
21866SOL     OW67038   5.062   4.301  10.192 -0.2722  0.3409  0.5185
21866SOL    HW167039   5.029   4.288  10.281 -0.9885 -1.0209  0.0880
21866SOL    HW267040   5.154   4.273  10.196  0.2126  1.9451  1.2019
21867SOL     OW67041   6.224   2.833  11.152  0.1867  0.3791  0.6967
21867SOL    HW167042   6.308   2.813  11.192 -0.7647  0.3761  2.8543
21867SOL    HW267043   6.244   2.848  11.060  2.3488 -0.8207  0.8960
21868SOL     OW67044   5.768   5.069  10.874 -0.1717  0.4881 -0.3103
21868SOL    HW167045   5.681   5.038  10.901 -1.0734  1.2760 -2.0988
21868SOL    HW267046   5.754   5.106  10.787  1.8739  1.1422 -0.4203
21869SOL     OW67047   7.866   5.975  11.477 -0.1068  0.0333  0.3065
21869SOL    HW167048   7.822   6.021  11.549 -1.4374 -0.2449 -0.2949
21869SOL    HW267049   7.921   6.042  11.437 -1.3991  0.9386 -0.0480
21870SOL     OW67050   4.942   4.019  10.068 -0.3378  0.1365  0.0299
21870SOL    HW167051   4.930   3.939  10.016  1.2529 -1.4481  1.9530
21870SOL    HW267052   5.031   4.047  10.050  0.2675 -0.4818  1.8839
21871SOL     OW67053   7.573   2.471   9.986  0.3229 -0.5415 -0.0876
21871SOL    HW167054   7.629   2.475  10.063  1.9126 -0.1472 -1.2223
21871SOL    HW267055   7.497   2.420  10.015  1.6349 -1.8251  1.2774
21872SOL     OW67056   7.881   3.918   9.016  0.2763  0.6877  0.4357
21872SOL    HW167057   7.838   3.987   9.066 -1.1940 -1.5437  2.4867
21872SOL    HW267058   7.812   3.881   8.961  0.1732 -1.1065  1.6798
21873SOL     OW67059   6.460   4.969  10.429 -0.1438 -0.0135 -0.3453
21873SOL    HW167060   6.498   4.913  10.496 -0.7257  0.5784  0.4945
21873SOL    HW267061   6.396   4.914  10.384  0.8242 -0.6530 -0.9716
21874SOL     OW67062   0.240   4.121  10.714  0.2429  0.2746 -0.5108
21874SOL    HW167063   0.158   4.082  10.745 -0.1269  1.1998 -0.2948
21874SOL    HW267064   0.220   4.214  10.704  1.7049  0.8236  1.1463
21875SOL     OW67065   7.702   2.948  11.146  0.8907 -0.1712  0.0125
21875SOL    HW167066   7.709   3.015  11.214  1.0438 -0.6272  0.4441
21875SOL    HW267067   7.774   2.969  11.085  1.6174 -0.5849  0.7144
21876SOL     OW67068   6.879   2.425  10.235  0.2758 -0.1316  0.5876
21876SOL    HW167069   6.864   2.348  10.180 -0.2022 -0.4373  1.1260
21876SOL    HW267070   6.791   2.462  10.248  0.5678  0.8525 -0.1472
21877SOL     OW67071   6.492   5.813   9.727  0.3750  0.5406 -0.3055
21877SOL    HW167072   6.529   5.859   9.652  0.0151  0.6790 -0.4024
21877SOL    HW267073   6.425   5.872   9.761 -1.1300 -0.4923 -1.3172
21878SOL     OW67074   6.030   4.522   8.688 -0.0185  0.0446 -0.0716
21878SOL    HW167075   6.115   4.480   8.700 -0.5251 -0.7024  1.0223
21878SOL    HW267076   6.012   4.511   8.594  0.4590 -1.0390 -0.0564
21879SOL     OW67077   5.933   6.371  12.457  0.0258  0.0086 -0.0425
21879SOL    HW167078   5.926   6.451  12.508  0.1953 -0.9143  1.4807
21879SOL    HW267079   6.024   6.344  12.464  0.0428 -0.1754 -0.7918
21880SOL     OW67080   7.011   3.579   7.282  0.5465  0.2906 -0.1849
21880SOL    HW167081   7.018   3.590   7.377  0.6486  1.4881 -0.3106
21880SOL    HW267082   6.969   3.494   7.271 -1.5296  1.0732  1.0013
21881SOL     OW67083   1.288   2.657  12.145 -0.0940  0.0423  0.1428
21881SOL    HW167084   1.294   2.565  12.171  0.0682  0.2130  0.7359
21881SOL    HW267085   1.353   2.702  12.200  2.7821 -0.0398 -2.8787
21882SOL     OW67086   6.621   4.064  11.148 -0.2272 -0.1515  0.0647
21882SOL    HW167087   6.692   4.115  11.110  1.1820 -2.3486 -0.4904
21882SOL    HW267088   6.648   3.973  11.135 -2.3991 -1.0552  1.3145
21883SOL     OW67089   7.898   5.432   9.066  0.4099 -0.2584  0.1032
21883SOL    HW167090   7.812   5.441   9.108  0.3340 -0.1157 -0.0818
21883SOL    HW267091   7.955   5.489   9.116  0.7199 -1.3840  1.0928
21884SOL     OW67092   7.106   5.274  10.670 -0.1090  0.3248  0.1142
21884SOL    HW167093   7.021   5.232  10.680 -0.4249  0.3971 -1.8709
21884SOL    HW267094   7.087   5.362  10.640  0.6536  0.6636  0.5783
21885SOL     OW67095   5.640   5.344   9.668 -0.2365 -0.4426 -0.0438
21885SOL    HW167096   5.726   5.386   9.662 -1.0491  1.3106  0.0489
21885SOL    HW267097   5.656   5.254   9.640  1.4136  0.1453 -1.1773
21886SOL     OW67098   6.771   3.616  10.268  0.5492 -0.0847  0.0217
21886SOL    HW167099   6.683   3.650  10.286  0.7803  0.2439  0.5852
21886SOL    HW267100   6.805   3.672  10.199  0.7167  0.4837  0.5561
21887SOL     OW67101   7.203   2.893  10.775  0.0245  0.0680  0.0102
21887SOL    HW167102   7.297   2.881  10.766 -0.0542 -1.0932  0.5388
21887SOL    HW267103   7.172   2.813  10.817 -1.1581  0.5584  0.1311
21888SOL     OW67104   7.664   5.010  12.280 -0.0841  0.0956  0.5475
21888SOL    HW167105   7.719   4.971  12.348  0.3473 -1.3404 -0.5517
21888SOL    HW267106   7.591   4.949  12.271  0.1569 -0.0521 -0.6298
21889SOL     OW67107   6.311   5.807  10.032 -0.1827 -1.0784  0.5439
21889SOL    HW167108   6.347   5.737   9.976  0.2731 -0.5062  0.1039
21889SOL    HW267109   6.357   5.796  10.115  0.9122 -0.4732  0.0445
21890SOL     OW67110   6.185   2.143  10.102 -0.1960 -0.1400 -0.6681
21890SOL    HW167111   6.131   2.075  10.062  0.7224 -0.2199 -1.8564
21890SOL    HW267112   6.135   2.173  10.177 -1.9517 -0.1258 -1.7817
21891SOL     OW67113   6.083   4.725  11.488 -0.6986  0.3215  0.3402
21891SOL    HW167114   6.160   4.696  11.438 -0.1193 -1.7127  2.2522
21891SOL    HW267115   6.014   4.663  11.464 -0.6790 -0.0853  1.2707
21892SOL     OW67116   5.832   5.058   9.946 -0.4662 -0.2802  0.3669
21892SOL    HW167117   5.754   5.107   9.968  0.0547  0.5311  0.4546
21892SOL    HW267118   5.827   5.044   9.852 -0.6918 -0.1850  0.3661
21893SOL     OW67119   5.771   4.902  10.596 -0.0020  0.2441  0.1440
21893SOL    HW167120   5.732   4.850  10.526 -0.1575 -0.4754  0.7476
21893SOL    HW267121   5.859   4.922  10.565  0.4180 -1.2460  0.3052
21894SOL     OW67122   6.154   3.488  10.549  0.1006 -0.2902  0.5118
21894SOL    HW167123   6.084   3.516  10.490  2.1116 -0.5770 -2.2209
21894SOL    HW267124   6.203   3.568  10.567  0.9980 -0.6302 -0.3813
21895SOL     OW67125   5.258   3.642   8.666 -0.5019  0.0978 -0.3029
21895SOL    HW167126   5.194   3.604   8.726  0.0672 -1.0207 -0.3862
21895SOL    HW267127   5.222   3.625   8.579  0.4176 -1.5543 -0.4002
21896SOL     OW67128   6.683   4.723  11.409 -0.0036 -0.0818 -0.7331
21896SOL    HW167129   6.604   4.742  11.461  0.8851 -0.0816  0.6777
21896SOL    HW267130   6.658   4.742  11.319 -2.1482 -1.6485 -0.5470
21897SOL     OW67131   6.051   1.993   9.882  0.1693 -0.4615 -0.4949
21897SOL    HW167132   6.134   2.025   9.848  0.5255 -0.5985  0.2337
21897SOL    HW267133   5.988   2.010   9.811  0.4698  1.2069 -0.4038
21898SOL     OW67134   6.423   5.232   8.947 -0.2339 -0.3964  0.4904
21898SOL    HW167135   6.395   5.152   8.991  0.8226 -1.1150 -0.1251
21898SOL    HW267136   6.518   5.230   8.950 -0.1766  1.1254  0.9556
21899SOL     OW67137   7.047   7.482  10.908 -0.2057  0.6479 -0.5121
21899SOL    HW167138   7.094   7.410  10.866 -0.0912  0.6516 -0.3906
21899SOL    HW267139   7.035   7.453  10.998 -1.5352  0.1038 -0.8337
21900SOL     OW67140   7.728   6.776   9.482 -0.0182  0.0703 -0.1459
21900SOL    HW167141   7.811   6.767   9.529 -0.5467 -1.5238  0.5516
21900SOL    HW267142   7.750   6.754   9.391  0.7518  1.9494 -0.4653
21901SOL     OW67143   5.516   5.127   9.979 -0.1101  0.1747 -0.2073
21901SOL    HW167144   5.516   5.222   9.992  0.7788  0.2531 -0.6953
21901SOL    HW267145   5.513   5.090  10.067  3.3965  0.6764  0.2625
21902SOL     OW67146   6.051   6.316  10.924  0.2208  0.3721 -0.1869
21902SOL    HW167147   6.126   6.368  10.894 -0.3078  1.8960  1.0234
21902SOL    HW267148   6.023   6.359  11.004 -3.3513  1.2435 -1.7112
21903SOL     OW67149   0.906   3.387  10.501 -0.3150 -0.2488  0.2005
21903SOL    HW167150   0.826   3.356  10.543 -0.6020 -1.5953 -1.2641
21903SOL    HW267151   0.970   3.389  10.572 -0.7769 -2.4755  0.7606
21904SOL     OW67152   6.687   3.870   9.261 -0.0802  0.1243 -0.1819
21904SOL    HW167153   6.661   3.904   9.346  1.0503  0.2740  0.1125
21904SOL    HW267154   6.679   3.945   9.201 -1.0809 -0.0360 -0.2641
21905SOL     OW67155   5.537   5.542  11.994 -0.2524  0.2465  0.3506
21905SOL    HW167156   5.506   5.452  11.991 -0.2304  0.2540 -0.7847
21905SOL    HW267157   5.632   5.534  11.984 -0.3415  0.4251 -0.7911
21906SOL     OW67158   5.043   4.335   9.886 -0.4047  0.0149  0.3115
21906SOL    HW167159   4.951   4.361   9.881 -0.4622 -0.1943  0.2664
21906SOL    HW267160   5.066   4.346   9.979 -0.3060  0.6269  0.2229
21907SOL     OW67161   4.312   4.891  10.055 -0.0226 -0.0360  0.0689
21907SOL    HW167162   4.276   4.973  10.088 -0.5488 -0.3972  0.4118
21907SOL    HW267163   4.405   4.895  10.078  0.1571  0.8729 -0.7654
21908SOL     OW67164   6.337   5.510  10.457 -0.6961  0.2211  0.5708
21908SOL    HW167165   6.425   5.501  10.494 -0.4012 -0.0418 -0.1762
21908SOL    HW267166   6.345   5.476  10.368 -1.4384  0.6707  0.3246
21909SOL     OW67167   6.713   3.283  11.109 -0.0766 -0.5219  0.1595
21909SOL    HW167168   6.747   3.244  11.029  0.8707 -0.5512  0.5642
21909SOL    HW267169   6.619   3.264  11.107 -0.0091 -0.8046 -0.7743
21910SOL     OW67170   0.074   3.190   9.217  0.1762  0.4017  0.8252
21910SOL    HW167171   0.153   3.136   9.226 -0.0840 -0.0435  0.4564
21910SOL    HW267172   0.010   3.132   9.176 -0.1021  0.9998  0.4049
21911SOL     OW67173   5.503   2.407   9.190 -0.1581 -0.0526  0.1759
21911SOL    HW167174   5.580   2.449   9.228  0.6861 -0.3987 -1.1029
21911SOL    HW267175   5.430   2.434   9.247  0.6971  1.3148  0.6593
21912SOL     OW67176   0.262   5.475   8.418 -0.5858  0.0330 -0.2273
21912SOL    HW167177   0.182   5.428   8.393  1.6715 -3.8565 -0.9682
21912SOL    HW267178   0.306   5.491   8.335  0.9032 -1.0165  0.3158
21913SOL     OW67179   6.454   3.997  11.589 -0.0264 -0.7906 -0.1346
21913SOL    HW167180   6.411   4.009  11.504  1.5319 -0.4325 -0.9006
21913SOL    HW267181   6.384   4.012  11.653 -0.9162  0.3881 -1.3220
21914SOL     OW67182   7.432   5.028  10.014  0.4199 -0.0478 -0.5131
21914SOL    HW167183   7.376   4.957   9.982 -0.2854  0.0302  0.5266
21914SOL    HW267184   7.466   5.068   9.934 -0.0273 -0.8711 -1.1376
21915SOL     OW67185   7.387   4.210   7.880  0.1511  0.4771 -0.0994
21915SOL    HW167186   7.479   4.198   7.903  0.1797 -1.6995 -1.0683
21915SOL    HW267187   7.358   4.122   7.854 -1.4934  1.5944 -2.3397
21916SOL     OW67188   6.133   7.443  11.571  0.3434  0.2298 -0.4946
21916SOL    HW167189   6.220   7.453  11.608  0.0437 -0.1064  0.3267
21916SOL    HW267190   6.147   7.393  11.490  0.7868 -0.9334  0.2708
21917SOL     OW67191   0.123   4.674   9.496 -0.2322 -0.1546 -0.1738
21917SOL    HW167192   0.048   4.687   9.439  1.1489 -0.4525 -2.1631
21917SOL    HW267193   0.137   4.759   9.537 -1.9025 -0.2200  0.6109
21918SOL     OW67194   0.246   5.623   9.320 -0.3271 -0.2154  0.3358
21918SOL    HW167195   0.297   5.704   9.316  1.1989 -1.0956  0.8776
21918SOL    HW267196   0.205   5.625   9.406 -1.2309  0.4993 -0.0998
21919SOL     OW67197   0.627   3.134  10.053 -0.1797  0.0531  0.7262
21919SOL    HW167198   0.637   3.043  10.025 -1.0900  0.2533 -0.2791
21919SOL    HW267199   0.716   3.171  10.046  0.0193 -0.5030  0.2532
21920SOL     OW67200   7.857   6.113   9.197  0.0441  0.0115  0.1203
21920SOL    HW167201   7.801   6.115   9.119 -0.7468  0.3433  0.6836
21920SOL    HW267202   7.839   6.029   9.238  1.3527 -0.6793 -0.6804
21921SOL     OW67203   7.883   3.374  11.483 -0.1871  0.9711  0.3888
21921SOL    HW167204   7.899   3.285  11.517  1.8465  1.4284  0.7483
21921SOL    HW267205   7.807   3.404  11.533 -1.2220 -0.7236 -0.0790
21922SOL     OW67206   6.454   2.929  10.734 -0.0679 -0.6125  0.1609
21922SOL    HW167207   6.533   2.979  10.713 -1.8735  2.0875 -0.5866
21922SOL    HW267208   6.422   2.898  10.650 -2.0814  2.0529 -0.1796
21923SOL     OW67209   7.038   4.271  12.021 -0.4131 -0.0813  0.0401
21923SOL    HW167210   6.972   4.340  12.015 -0.7571 -0.3486  0.5856
21923SOL    HW267211   7.075   4.265  11.933 -0.1603  0.9991  0.0652
21924SOL     OW67212   7.857   3.674   9.491 -0.1813 -0.2936  0.0700
21924SOL    HW167213   7.936   3.624   9.470 -1.0215 -1.4621 -0.4159
21924SOL    HW267214   7.839   3.652   9.582  0.7900  1.0485  0.6214
21925SOL     OW67215   5.452   3.021   8.283 -0.3115  0.8441 -0.2232
21925SOL    HW167216   5.405   2.979   8.211 -0.1992 -3.4392  1.8513
21925SOL    HW267217   5.389   3.021   8.355  1.2805 -0.5194  1.2549
21926SOL     OW67218   6.206   4.192  10.238 -0.1052  0.2993  0.2970
21926SOL    HW167219   6.217   4.264  10.176 -0.9050  1.7760  1.8052
21926SOL    HW267220   6.116   4.202  10.271 -0.2267 -1.3759  0.5928
21927SOL     OW67221   6.139   4.103   8.841 -0.1038  0.0278 -0.4317
21927SOL    HW167222   6.159   4.009   8.838 -1.8834 -0.3807 -1.9786
21927SOL    HW267223   6.073   4.110   8.910  0.5213  0.2804  0.1525
21928SOL     OW67224   6.399   4.997   9.384 -0.4060  0.2697 -0.1477
21928SOL    HW167225   6.418   4.925   9.324  0.6116 -1.1848  1.7772
21928SOL    HW267226   6.305   4.989   9.403 -0.0290 -1.6397  1.2412
21929SOL     OW67227   6.563   4.771   8.498 -0.0776 -0.2423  0.2666
21929SOL    HW167228   6.478   4.800   8.465 -0.0039 -0.2235  0.0923
21929SOL    HW267229   6.542   4.704   8.563 -0.3262  1.2210  1.7777
21930SOL     OW67230   6.686   6.259  10.577 -0.1313 -0.6546  0.5080
21930SOL    HW167231   6.661   6.338  10.626  1.3168 -0.3741  0.8467
21930SOL    HW267232   6.652   6.274  10.489  0.7016  0.7002  0.3689
21931SOL     OW67233   7.042   4.187   9.712  0.2538  0.1200  0.3123
21931SOL    HW167234   7.056   4.116   9.649  1.0170  0.6679 -0.1508
21931SOL    HW267235   6.947   4.200   9.713  0.1209 -0.7959  0.2914
21932SOL     OW67236   7.940   5.709  11.039  0.1580 -0.6068 -0.4400
21932SOL    HW167237   7.943   5.780  11.103  0.2620 -0.8181 -0.2097
21932SOL    HW267238   7.947   5.752  10.955 -0.3243 -0.2954 -0.3276
21933SOL     OW67239   5.658   6.671   9.489 -0.2192  0.2033 -0.5713
21933SOL    HW167240   5.640   6.706   9.401  0.1743 -1.0539 -1.1878
21933SOL    HW267241   5.589   6.607   9.503  1.1359 -1.4739 -1.0992
21934SOL     OW67242   5.902   3.078  11.495 -0.6152  0.6892  0.5894
21934SOL    HW167243   5.928   3.002  11.443 -0.3413  0.5285  0.9573
21934SOL    HW267244   5.813   3.059  11.524  0.6224 -1.1874  3.6911
21935SOL     OW67245   1.220   2.219  11.116  0.0234 -0.6507 -0.3014
21935SOL    HW167246   1.234   2.287  11.050 -0.9455  0.4562  0.6010
21935SOL    HW267247   1.292   2.157  11.101  1.0139  0.6188 -1.0732
21936SOL     OW67248   5.184   5.137  10.204 -0.5802 -0.5031 -0.1251
21936SOL    HW167249   5.168   5.148  10.111  1.4638  1.1229 -0.3802
21936SOL    HW267250   5.229   5.053  10.211 -0.8383 -0.6813 -0.6008
21937SOL     OW67251   7.897   5.486  11.554  0.3102 -0.5846  0.6747
21937SOL    HW167252   7.911   5.547  11.482 -0.2807  0.8506  1.7271
21937SOL    HW267253   7.974   5.429  11.552  1.0964  0.4624 -0.0907
21938SOL     OW67254   0.353   4.851   9.596 -0.0184  0.2207 -0.4211
21938SOL    HW167255   0.385   4.936   9.625  0.5063 -0.1525  0.1328
21938SOL    HW267256   0.364   4.794   9.673  0.8849 -0.6658 -1.1709
21939SOL     OW67257   6.654   3.340   8.454 -0.0150 -0.0596  0.3671
21939SOL    HW167258   6.597   3.416   8.465 -1.6875 -1.4348  1.8205
21939SOL    HW267259   6.594   3.266   8.447  1.5856 -1.3723 -0.0109
21940SOL     OW67260   0.329   4.484  10.695 -0.4649  0.4846  0.4347
21940SOL    HW167261   0.397   4.503  10.630 -2.5389  2.3216 -1.3715
21940SOL    HW267262   0.265   4.431  10.648 -0.5901 -0.8038  1.9540
21941SOL     OW67263   7.834   4.518  10.259 -0.1275 -0.2704  0.0201
21941SOL    HW167264   7.804   4.583  10.195  0.2408 -0.9814 -0.8963
21941SOL    HW267265   7.839   4.437  10.209  0.9749 -0.6696  0.7564
21942SOL     OW67266   0.484   3.262   9.676  0.4995 -0.4399 -0.0610
21942SOL    HW167267   0.430   3.296   9.604 -0.7280 -2.9453 -0.4306
21942SOL    HW267268   0.426   3.263   9.752  0.0506 -2.5532 -0.3181
21943SOL     OW67269   5.976   6.122  10.669  0.1097  0.0115 -0.1781
21943SOL    HW167270   6.058   6.126  10.620  1.1141  0.0612  1.4294
21943SOL    HW267271   5.990   6.181  10.743 -0.6133 -1.4952  1.2052
21944SOL     OW67272   5.922   5.495  10.480  0.7812  0.3790 -0.6409
21944SOL    HW167273   5.973   5.512  10.560 -1.7759 -2.3242  1.8190
21944SOL    HW267274   5.864   5.571  10.472 -0.2138 -0.1107  1.2877
21945SOL     OW67275   7.691   3.557   9.288 -0.6057  1.2045  0.4021
21945SOL    HW167276   7.698   3.577   9.194  0.2780 -1.1134 -0.0821
21945SOL    HW267277   7.765   3.604   9.328  0.7224 -0.0131 -0.5178
21946SOL     OW67278   6.096   5.773   9.170  0.5803  0.3148  0.4763
21946SOL    HW167279   6.185   5.763   9.138  0.0636  1.0884 -1.3220
21946SOL    HW267280   6.105   5.781   9.265  2.3818  0.0670  0.3512
21947SOL     OW67281   1.484   3.125  11.981 -0.1322 -0.3796  0.8243
21947SOL    HW167282   1.444   3.083  12.057 -1.5481  0.2110  0.4518
21947SOL    HW267283   1.446   3.213  11.980 -0.0442 -0.3306 -0.4780
21948SOL     OW67284   4.419   4.434   9.720  0.7086  0.3624 -0.0850
21948SOL    HW167285   4.324   4.425   9.716  0.6406  0.1500  1.3112
21948SOL    HW267286   4.446   4.447   9.629 -0.5567 -0.5419 -0.6241
21949SOL     OW67287   5.754   6.051  10.553  0.3143  0.2080 -0.3452
21949SOL    HW167288   5.688   6.093  10.607 -0.9935 -0.4724 -1.3679
21949SOL    HW267289   5.838   6.083  10.588 -0.5618  1.8425  0.3518
21950SOL     OW67290   5.582   2.290  10.564  0.4184  0.2426  0.5964
21950SOL    HW167291   5.657   2.234  10.581  2.2704  1.9439 -1.3891
21950SOL    HW267292   5.590   2.361  10.628 -2.5611 -2.0623  3.8921
21951SOL     OW67293   5.733   6.995  10.780 -0.7031 -0.4176 -0.1870
21951SOL    HW167294   5.709   6.992  10.687 -1.8991  0.1851  0.0924
21951SOL    HW267295   5.683   6.925  10.821 -0.8409 -0.1252  0.1507
21952SOL     OW67296   6.758   4.446  12.129  0.4206 -0.1251  0.5042
21952SOL    HW167297   6.778   4.528  12.173  1.0594 -0.5631  1.0510
21952SOL    HW267298   6.701   4.400  12.190 -1.6369  0.7430 -0.6678
21953SOL     OW67299   7.372   3.225  11.432 -0.0475 -0.1670  0.4368
21953SOL    HW167300   7.391   3.211  11.339 -0.1059 -1.8247  0.6383
21953SOL    HW267301   7.383   3.139  11.472  0.9659  0.6969  2.1568
21954SOL     OW67302   5.535   4.975  10.235 -0.4404 -0.5752 -0.4565
21954SOL    HW167303   5.448   4.936  10.245 -0.2179 -0.5610  2.8006
21954SOL    HW267304   5.596   4.905  10.256  0.2289  0.0247 -0.3602
21955SOL     OW67305   6.662   6.638   9.590  0.1249 -0.1719 -0.0562
21955SOL    HW167306   6.571   6.611   9.579 -0.2553  1.5818 -1.9535
21955SOL    HW267307   6.713   6.561   9.564 -0.8234 -0.7064 -0.3933
21956SOL     OW67308   7.918   3.759  10.153 -0.1623 -0.0383  1.2494
21956SOL    HW167309   7.870   3.687  10.194 -0.8147  0.4452  1.3573
21956SOL    HW267310   8.001   3.721  10.127 -0.8913 -1.0881  0.3786
21957SOL     OW67311   5.978   4.134  10.583 -0.0397 -0.0625  0.1521
21957SOL    HW167312   5.889   4.153  10.615 -0.6022 -2.5853  0.2846
21957SOL    HW267313   5.980   4.170  10.495 -0.7960  1.0117  0.5492
21958SOL     OW67314   0.988   3.823  10.766  0.3458 -0.3421  0.1690
21958SOL    HW167315   1.063   3.812  10.708  1.2177  0.8108  1.0400
21958SOL    HW267316   1.024   3.816  10.854 -0.6466 -0.1881  0.6004
21959SOL     OW67317   4.818   4.581   9.664 -0.4798  0.3423 -0.3527
21959SOL    HW167318   4.768   4.548   9.589 -2.9504  2.3443  0.2964
21959SOL    HW267319   4.820   4.507   9.726  0.8575 -1.0442 -1.9539
21960SOL     OW67320   5.487   4.005   9.219 -0.1417  0.2281  0.2064
21960SOL    HW167321   5.466   4.090   9.178 -0.4798 -0.0039 -0.1124
21960SOL    HW267322   5.483   4.022   9.313 -1.6960  0.2260  0.1657
21961SOL     OW67323   6.771   3.748  11.982  0.3281 -0.4686  0.4041
21961SOL    HW167324   6.725   3.825  11.950  0.4500 -0.6144 -0.1331
21961SOL    HW267325   6.703   3.692  12.018  0.1327 -0.4990 -0.0100
21962SOL     OW67326   6.696   4.386   0.131  0.2475 -0.1489 -0.2155
21962SOL    HW167327   6.779   4.407   0.175 -1.7181  2.2552  2.7756
21962SOL    HW267328   6.639   4.356   0.202 -2.4346  1.6289 -1.4569
21963SOL     OW67329   4.119   4.991  11.068 -0.2795 -0.3877 -0.0955
21963SOL    HW167330   4.151   4.989  10.978  1.5436  0.9510  0.4818
21963SOL    HW267331   4.069   5.072  11.074  0.6305  0.1403  0.4195
21964SOL     OW67332   4.362   4.357  11.868 -0.2853 -0.0093 -0.5775
21964SOL    HW167333   4.382   4.283  11.812  1.6770  0.6607 -0.8184
21964SOL    HW267334   4.434   4.419  11.854 -0.3575  0.6991  1.7450
21965SOL     OW67335   7.296   4.942   9.547  0.4509 -0.2520 -0.4321
21965SOL    HW167336   7.284   5.008   9.616  0.7193 -0.4130 -0.2322
21965SOL    HW267337   7.223   4.881   9.560  0.6126 -0.3906 -0.1674
21966SOL     OW67338   7.825   3.667  11.690  0.5948 -0.0392  0.3625
21966SOL    HW167339   7.743   3.637  11.650  0.1646  0.3057  0.9558
21966SOL    HW267340   7.800   3.688  11.780  0.5928  3.0742 -0.2454
21967SOL     OW67341   5.950   4.948   0.057  0.1547  0.2458  0.5334
21967SOL    HW167342   6.006   5.016   0.095 -0.0175  1.0854 -0.6665
21967SOL    HW267343   6.009   4.897   0.002  0.2072 -0.3713  1.1465
21968SOL     OW67344   6.131   3.829  11.467 -0.0849  0.6511 -0.0841
21968SOL    HW167345   6.185   3.765  11.514 -1.7057  0.2146  1.2428
21968SOL    HW267346   6.172   3.834  11.380  0.2289 -2.0247 -0.1813
21969SOL     OW67347   6.246   3.872   0.602  0.6261  0.2185 -0.1044
21969SOL    HW167348   6.255   3.962   0.634  1.6991  0.6390 -1.4934
21969SOL    HW267349   6.204   3.825   0.674 -1.9585  2.2821 -0.1104
21970SOL     OW67350   7.534   5.403  11.951 -0.2571  0.1716 -0.5322
21970SOL    HW167351   7.623   5.410  11.917 -1.3195  0.2273 -3.6909
21970SOL    HW267352   7.521   5.483  12.001  1.1660  0.6035 -0.7970
21971SOL     OW67353   5.910   4.063   9.919 -0.4606  0.4402  0.3977
21971SOL    HW167354   5.837   4.106   9.963 -1.0677  0.7782 -0.9209
21971SOL    HW267355   5.875   3.978   9.890  0.4026 -0.5054  1.9609
21972SOL     OW67356   5.875   5.259  11.810  0.0844  0.0591  0.4394
21972SOL    HW167357   5.861   5.196  11.739  0.2323 -0.2462  0.6836
21972SOL    HW267358   5.905   5.207  11.884 -0.1498  0.3686  0.7568
21973SOL     OW67359   5.855   5.491  12.324  0.4139  0.1271 -0.7034
21973SOL    HW167360   5.924   5.426  12.333  1.0537  0.9860  1.0140
21973SOL    HW267361   5.882   5.545  12.250  1.3079  0.1236 -0.3864
21974SOL     OW67362   5.548   4.142  12.114  0.4469  0.4888  0.1752
21974SOL    HW167363   5.629   4.180  12.081 -0.3496  2.3739  0.2518
21974SOL    HW267364   5.493   4.132  12.036  0.5246 -0.2698  0.2035
21975SOL     OW67365   6.454   4.419  10.055  0.0400  0.3889  0.6292
21975SOL    HW167366   6.509   4.428   9.978  1.0030  0.9534  1.3683
21975SOL    HW267367   6.364   4.427  10.022 -0.0229 -4.5285 -1.2486
21976SOL     OW67368   6.596   2.451  10.153  0.0582  0.1565 -0.2279
21976SOL    HW167369   6.533   2.405  10.097 -0.5987  1.8876 -0.9723
21976SOL    HW267370   6.545   2.475  10.230  1.0903 -2.7057  1.5113
21977SOL     OW67371   0.948   5.342  11.264  0.0646 -0.2056 -0.2139
21977SOL    HW167372   1.042   5.347  11.244 -0.1546 -0.8947 -1.5755
21977SOL    HW267373   0.908   5.409  11.208 -0.3408 -0.5386 -0.3317
21978SOL     OW67374   5.707   4.033   0.139 -0.5402 -0.0645 -0.1295
21978SOL    HW167375   5.675   4.122   0.150 -0.2551  0.1399 -0.9278
21978SOL    HW267376   5.630   3.978   0.152 -2.2910  0.5102 -5.4937
21979SOL     OW67377   7.847   3.497  11.233  0.1663 -0.3691 -0.0703
21979SOL    HW167378   7.757   3.469  11.248 -0.9727  2.4714 -0.8608
21979SOL    HW267379   7.865   3.559  11.304  0.0456  1.9796 -1.9764
21980SOL     OW67380   0.315   5.478  10.840  0.0431  0.3753  0.2169
21980SOL    HW167381   0.353   5.483  10.753 -0.5294  1.5720  0.0225
21980SOL    HW267382   0.340   5.391  10.872 -1.5046 -0.9847 -1.9506
21981SOL     OW67383   5.606   4.626   0.531 -0.9437 -0.0062 -0.1414
21981SOL    HW167384   5.646   4.592   0.451  0.7646 -1.3809  1.2127
21981SOL    HW267385   5.632   4.718   0.534  0.1341 -0.2840 -0.5176
21982SOL     OW67386   6.555   3.679  11.698  0.1531  0.3530  0.0471
21982SOL    HW167387   6.629   3.724  11.658 -0.4433 -0.2751 -1.8863
21982SOL    HW267388   6.536   3.607  11.638 -1.7113  0.2132  0.7439
21983SOL     OW67389   7.243   2.633  11.705  0.2761 -0.4015  0.4660
21983SOL    HW167390   7.164   2.685  11.689  1.3767  1.4595  0.7722
21983SOL    HW267391   7.300   2.691  11.755  1.6602 -1.8645  0.6614
21984SOL     OW67392   5.629   5.348  12.362  0.1359  0.4558 -0.0922
21984SOL    HW167393   5.705   5.403  12.345  0.5159  0.3684  1.2293
21984SOL    HW267394   5.578   5.396  12.427 -0.3424 -0.0264 -0.1023
21985SOL     OW67395   7.870   5.969  12.145  0.1582 -0.2504  0.0100
21985SOL    HW167396   7.895   6.061  12.159 -2.5635  1.1006 -2.8047
21985SOL    HW267397   7.908   5.947  12.060 -0.7464 -1.1199 -0.1790
21986SOL     OW67398   7.374   4.193  12.427  0.2057  0.1082  0.6404
21986SOL    HW167399   7.289   4.164  12.458 -0.0468  1.3849  1.2235
21986SOL    HW267400   7.376   4.287  12.447  0.1578  1.0184 -2.8914
21987SOL     OW67401   7.363   3.315  11.759  0.0048  0.3596 -0.2637
21987SOL    HW167402   7.392   3.398  11.798  0.4883  0.1604 -0.1968
21987SOL    HW267403   7.311   3.342  11.683 -0.2585  0.7326  0.0400
21988SOL     OW67404   4.592   3.198  10.346 -0.2517 -0.0798  0.1938
21988SOL    HW167405   4.662   3.237  10.397  0.8638 -1.7370  0.0078
21988SOL    HW267406   4.606   3.104  10.354 -0.3141 -0.4355 -2.7273
21989SOL     OW67407   1.171   5.154  12.331  0.2450 -0.3828  0.1900
21989SOL    HW167408   1.164   5.249  12.345 -1.2539 -0.6607  1.7180
21989SOL    HW267409   1.234   5.125  12.397  1.4344 -0.3588 -0.9030
21990SOL     OW67410   6.650   4.525  10.549 -0.0954  0.3430  0.0932
21990SOL    HW167411   6.608   4.534  10.464 -2.0945 -0.5741  0.9119
21990SOL    HW267412   6.709   4.451  10.539 -0.6333 -0.0346 -0.4071
21991SOL     OW67413   6.702   2.447  11.249 -0.3524 -0.0318 -0.5360
21991SOL    HW167414   6.753   2.440  11.168  0.8780 -1.2338  0.2917
21991SOL    HW267415   6.751   2.510  11.302  0.0392 -0.8345  0.0802
21992SOL     OW67416   5.648   4.680   9.994 -0.2771 -0.5013 -0.0275
21992SOL    HW167417   5.651   4.585   9.993 -0.0478 -0.6412  2.9950
21992SOL    HW267418   5.622   4.702  10.084  1.9583  2.2918  0.0840
21993SOL     OW67419   6.492   4.231  10.217 -0.1058  0.3833  0.5426
21993SOL    HW167420   6.409   4.184  10.223 -1.3663  2.6057  2.3409
21993SOL    HW267421   6.487   4.276  10.132  0.5991 -1.6618 -0.6492
21994SOL     OW67422   5.823   2.060  11.745 -0.3135  0.2257 -0.6134
21994SOL    HW167423   5.772   2.112  11.808 -0.7575  0.4435 -1.1450
21994SOL    HW267424   5.815   2.108  11.663  0.0742 -0.1796 -0.8907
21995SOL     OW67425   0.484   2.960   0.029 -0.3769 -0.6264 -0.0783
21995SOL    HW167426   0.497   3.050  -0.002 -1.1718 -0.8786 -1.1799
21995SOL    HW267427   0.490   2.967   0.125  0.1338  0.4946 -0.1730
21996SOL     OW67428   7.167   2.636  10.890  0.1084 -0.2699 -0.3235
21996SOL    HW167429   7.132   2.553  10.859 -0.5209 -0.3223  0.4988
21996SOL    HW267430   7.228   2.613  10.960 -1.8218  0.0269  1.5559
21997SOL     OW67431   6.191   4.045  10.010  0.3603 -0.1733 -0.3764
21997SOL    HW167432   6.197   4.094  10.092 -0.7616 -0.2297 -0.2382
21997SOL    HW267433   6.098   4.050   9.986  0.5822 -0.5897 -1.3758
21998SOL     OW67434   6.982   4.023  12.426  0.1090 -0.1338 -0.0102
21998SOL    HW167435   6.921   3.983  12.363  0.6451 -1.7221  0.4433
21998SOL    HW267436   6.972   4.118  12.411 -0.9962 -0.4154 -1.3187
21999SOL     OW67437   1.109   3.283  12.163 -0.2235  0.5246 -0.0644
21999SOL    HW167438   1.025   3.279  12.207 -0.1860  0.5091  0.0054
21999SOL    HW267439   1.089   3.264  12.071 -0.1047 -0.8993  0.1808
22000SOL     OW67440   6.249   4.055  11.802  0.9550  0.4639 -0.1334
22000SOL    HW167441   6.268   4.125  11.864  1.1062  1.0565 -0.8395
22000SOL    HW267442   6.213   3.984  11.856 -4.1183  2.7943  0.1658
22001SOL     OW67443   6.433   2.959   1.446 -0.5401  0.2206 -0.3313
22001SOL    HW167444   6.486   2.930   1.372 -1.4761 -2.0317 -0.1830
22001SOL    HW267445   6.379   3.030   1.411  0.1703  0.2765 -1.3441
22002SOL     OW67446   7.269   5.875  10.719  0.6134  0.1788 -0.1289
22002SOL    HW167447   7.336   5.928  10.762 -0.3299  0.2353  1.3603
22002SOL    HW267448   7.207   5.854  10.789 -0.8635  0.0396 -1.4324
22003SOL     OW67449   6.958   4.282  12.304 -0.4213 -0.5075  0.1623
22003SOL    HW167450   6.961   4.259  12.211 -0.9610 -4.9813  1.0353
22003SOL    HW267451   6.976   4.376  12.306 -0.9128 -0.0818 -4.4561
22004SOL     OW67452   7.669   4.532  11.843 -0.5088 -0.3840  0.0593
22004SOL    HW167453   7.706   4.620  11.858 -1.5136 -0.1113  1.0245
22004SOL    HW267454   7.588   4.549  11.794 -1.1004 -0.7141  0.9209
22005SOL     OW67455   6.479   3.523  10.621 -0.0327 -0.3473  0.3885
22005SOL    HW167456   6.500   3.503  10.712  0.9204 -0.7501  0.0916
22005SOL    HW267457   6.430   3.605  10.625  0.6601  0.0395  1.2032
22006SOL     OW67458   5.245   6.007   9.960 -0.1776  0.0702  0.2585
22006SOL    HW167459   5.328   5.959   9.951  1.0114  2.1114 -0.4382
22006SOL    HW267460   5.205   6.002   9.873  0.1179  0.5916  0.0869
22007SOL     OW67461   6.373   4.512  11.350  0.2625 -0.1079 -0.0411
22007SOL    HW167462   6.332   4.448  11.407  0.5783 -0.0607  0.2427
22007SOL    HW267463   6.442   4.463  11.304 -0.1121 -0.1887 -0.5186
22008SOL     OW67464   6.575   4.237  10.877 -0.2050 -0.1423  1.1809
22008SOL    HW167465   6.568   4.166  10.813 -1.9144 -0.6611  1.8750
22008SOL    HW267466   6.657   4.219  10.923 -0.0057 -0.9681  0.5444
22009SOL     OW67467   6.248   3.042  11.947  0.2093  0.3945  0.0781
22009SOL    HW167468   6.262   3.137  11.942  1.1863  0.2191 -0.8551
22009SOL    HW267469   6.226   3.017  11.857  1.4300 -0.4765  0.0049
22010SOL     OW67470   6.120   4.246  11.980 -0.1438 -0.5894  0.5065
22010SOL    HW167471   6.169   4.328  11.990 -2.8699  1.0725  1.2791
22010SOL    HW267472   6.154   4.189  12.050  2.7186 -0.7350 -0.8569
22011SOL     OW67473   0.732   2.355  11.434  0.2185  0.3463 -0.0590
22011SOL    HW167474   0.747   2.318  11.347  1.4989 -2.9011  1.3623
22011SOL    HW267475   0.637   2.366  11.439  0.0344 -0.3021 -1.5323
22012SOL     OW67476   5.058   3.749  11.044 -0.2370  0.3169 -0.4698
22012SOL    HW167477   4.966   3.755  11.069 -0.1274  1.7911 -0.3739
22012SOL    HW267478   5.082   3.658  11.065 -1.8362 -0.3106 -1.1798
22013SOL     OW67479   6.882   4.940  10.401 -0.4200 -0.3710 -0.0904
22013SOL    HW167480   6.806   4.967  10.351 -1.1018 -0.8023  0.6800
22013SOL    HW267481   6.890   4.846  10.383 -0.7655 -0.5622  0.7101
22014SOL     OW67482   4.516   2.754   1.348 -0.2965 -0.0993 -0.5382
22014SOL    HW167483   4.426   2.782   1.363 -0.3225  0.0175 -0.8986
22014SOL    HW267484   4.536   2.697   1.422  0.1255  1.7538  0.8590
22015SOL     OW67485   0.160   2.487  10.634 -0.3052 -0.2344  0.4132
22015SOL    HW167486   0.220   2.531  10.573  0.5360  1.5789  2.4196
22015SOL    HW267487   0.209   2.482  10.716 -2.4156  0.0790  1.7677
22016SOL     OW67488   6.991   2.442  10.779  0.2130  0.1110  0.7910
22016SOL    HW167489   6.979   2.430  10.684  1.1503 -2.2444  0.9092
22016SOL    HW267490   6.938   2.519  10.800 -0.7957  0.1196 -1.4852
22017SOL     OW67491   7.673   3.938   0.249  0.0635 -0.4581  0.2578
22017SOL    HW167492   7.747   3.987   0.213  0.0271 -0.5421  0.0642
22017SOL    HW267493   7.687   3.848   0.218 -1.1528 -0.1147 -1.4450
22018SOL     OW67494   7.822   4.162   0.940  0.3071  0.4854 -0.4389
22018SOL    HW167495   7.805   4.091   0.878  0.2635 -0.4416  0.6093
22018SOL    HW267496   7.767   4.141   1.016  0.9068  1.2089  0.2047
22019SOL     OW67497   6.633   1.606   0.064 -0.0191 -0.3324  0.6792
22019SOL    HW167498   6.603   1.531   0.116  0.3014 -1.4919 -0.7292
22019SOL    HW267499   6.728   1.594   0.058 -0.2849 -1.7763 -2.3426
22020SOL     OW67500   7.001   2.276  11.654  0.2012 -0.6866 -0.3776
22020SOL    HW167501   6.999   2.276  11.558 -0.5662 -1.5244 -0.3690
22020SOL    HW267502   7.033   2.364  11.676  0.8729 -0.6518 -1.4037
22021SOL     OW67503   6.441   2.473  11.862  0.1890 -0.4426  0.3851
22021SOL    HW167504   6.362   2.433  11.897  0.0788 -0.8427 -0.3116
22021SOL    HW267505   6.455   2.430  11.777  1.9898 -1.4826  1.1316
22022SOL     OW67506   6.859   4.753  10.962  0.1528  0.2079 -0.1989
22022SOL    HW167507   6.914   4.831  10.949  1.2035 -0.1657  1.6247
22022SOL    HW267508   6.800   4.777  11.033  1.2088 -0.9620  1.1382
22023SOL     OW67509   7.540   5.014   0.744 -0.3566 -0.7044  0.1057
22023SOL    HW167510   7.602   4.941   0.739  1.5500  0.8957 -2.6651
22023SOL    HW267511   7.587   5.082   0.792 -0.7782 -0.1923 -0.1948
22024SOL     OW67512   1.084   2.811  11.559  0.0454  0.7282 -0.0266
22024SOL    HW167513   1.024   2.742  11.531  1.3150 -0.6371  0.4897
22024SOL    HW267514   1.082   2.807  11.654 -0.0765  1.6255  0.0183
22025SOL     OW67515   5.374   4.872   9.847 -0.1860 -0.1318 -0.5744
22025SOL    HW167516   5.295   4.926   9.855  0.0457  0.1943 -0.4807
22025SOL    HW267517   5.435   4.910   9.910  0.3898  0.2295 -1.3406
22026SOL     OW67518   0.816   4.359  12.048  0.1818  0.1063  0.6000
22026SOL    HW167519   0.812   4.439  12.101  0.5403  0.7415 -0.2991
22026SOL    HW267520   0.739   4.309  12.074  0.1803  0.5351  1.4893
22027SOL     OW67521   0.777   3.211  11.203 -0.6682 -0.2506  0.2372
22027SOL    HW167522   0.785   3.288  11.260 -1.5287  1.2920 -1.6171
22027SOL    HW267523   0.689   3.178  11.219 -0.1633 -1.1443  1.3225
22028SOL     OW67524   6.157   3.176  11.479  0.2132 -0.7117 -0.5517
22028SOL    HW167525   6.191   3.195  11.391  1.0547 -0.8476 -0.2589
22028SOL    HW267526   6.062   3.167  11.466  0.2494 -0.0815 -1.3322
22029SOL     OW67527   6.796   3.785  11.116  0.0621  0.3239  0.2321
22029SOL    HW167528   6.845   3.828  11.186  0.9373 -1.8568  1.0516
22029SOL    HW267529   6.788   3.694  11.145 -1.3132 -0.1948 -1.5999
22030SOL     OW67530   0.429   3.017   0.563  0.6468 -0.1893 -0.2763
22030SOL    HW167531   0.339   3.003   0.592  0.5563  2.0120  0.6528
22030SOL    HW267532   0.475   3.049   0.640  2.2573 -1.2213 -0.7475
22031SOL     OW67533   6.294   5.308  10.787  0.2663 -0.0885  0.5792
22031SOL    HW167534   6.317   5.260  10.708 -0.6480 -1.2490  0.9810
22031SOL    HW267535   6.255   5.242  10.844  0.1668  0.8902  1.6790
22032SOL     OW67536   6.649   3.268   0.318 -0.9076 -0.1832 -0.0772
22032SOL    HW167537   6.560   3.299   0.301 -0.3345  0.4169 -2.3552
22032SOL    HW267538   6.677   3.315   0.397 -2.0970  0.7160 -0.1671
22033SOL     OW67539   0.075   4.029   0.797 -0.7540 -0.4096  0.1456
22033SOL    HW167540   0.051   4.090   0.868  1.1994 -1.8561  2.1827
22033SOL    HW267541   0.025   3.950   0.817 -1.5984 -0.2498 -1.2247
22034SOL     OW67542   7.241   3.963  12.261  0.1579 -0.0320 -0.2285
22034SOL    HW167543   7.238   4.047  12.307 -0.8369  0.1177 -0.5518
22034SOL    HW267544   7.197   3.901  12.320 -0.2226 -0.0545 -0.5333
22035SOL     OW67545   6.728   4.490  11.041  0.2421 -0.8199 -0.2701
22035SOL    HW167546   6.689   4.519  10.959  0.3271 -0.8271 -0.3128
22035SOL    HW267547   6.776   4.411  11.019  0.8031 -0.4618 -0.3405
22036SOL     OW67548   6.584   5.009  11.034 -0.0589  0.0457 -0.5003
22036SOL    HW167549   6.537   5.010  11.117  0.9741  0.1723  0.0956
22036SOL    HW267550   6.557   4.926  10.993 -1.4903  0.5313 -0.6022
22037SOL     OW67551   7.723   3.863   1.184  0.6747 -0.2447  0.6238
22037SOL    HW167552   7.737   3.957   1.183  1.7060 -0.3264  2.5660
22037SOL    HW267553   7.763   3.833   1.266  1.8419 -2.6060 -0.7046
22038SOL     OW67554   5.927   3.350  11.683  0.1068 -0.5974  0.0306
22038SOL    HW167555   5.914   3.280  11.619 -0.3100  1.0915 -1.8037
22038SOL    HW267556   6.022   3.351  11.698  0.4551  0.1569 -1.9921
22039SOL     OW67557   7.589   4.627   0.051  0.0582  0.2086 -0.0591
22039SOL    HW167558   7.557   4.539   0.072  1.2497 -0.6319 -1.5630
22039SOL    HW267559   7.512   4.671   0.015 -0.1952 -0.7479 -0.7502
22040SOL     OW67560   5.954   2.847  10.555 -0.0490 -0.1631 -0.3676
22040SOL    HW167561   6.017   2.775  10.550  0.0770  0.0170 -2.0887
22040SOL    HW267562   5.905   2.842  10.472 -1.9906 -0.0049  0.6991
22041SOL     OW67563   6.586   5.074  11.568  0.8701  0.5656  0.6545
22041SOL    HW167564   6.608   5.163  11.539 -0.5327  0.5346 -0.6058
22041SOL    HW267565   6.515   5.085  11.631 -0.5641  0.2864 -0.8466
22042SOL     OW67566   7.739   4.338  10.808 -0.1782  0.2959 -0.5421
22042SOL    HW167567   7.645   4.318  10.800  0.3749 -2.3614 -1.2219
22042SOL    HW267568   7.761   4.381  10.725 -1.1563  2.9705  0.4689
22043SOL     OW67569   5.925   4.229  11.765 -0.0875  0.3485 -0.1211
22043SOL    HW167570   5.938   4.155  11.706  0.6436  0.1443  0.2832
22043SOL    HW267571   6.014   4.263  11.780 -0.1917  0.0553  1.2844
22044SOL     OW67572   6.694   5.324   0.139 -0.0814  0.1880  0.0463
22044SOL    HW167573   6.628   5.258   0.119  0.1047 -0.0298  0.1563
22044SOL    HW267574   6.683   5.390   0.071  0.8012 -0.7303 -1.0255
22045SOL     OW67575   7.238   4.645  11.374 -0.0360  0.6158  0.1218
22045SOL    HW167576   7.313   4.591  11.349  1.2397  1.9759  0.8708
22045SOL    HW267577   7.263   4.683  11.458 -0.8815  2.3571 -0.3801
22046SOL     OW67578   6.578   4.008  10.675  0.2174  0.0905  0.2268
22046SOL    HW167579   6.603   3.950  10.603  0.8836 -1.1674  1.4524
22046SOL    HW267580   6.528   3.953  10.734 -0.0912  1.0515  0.8825
22047SOL     OW67581   7.447   2.386   0.106 -0.0072 -0.2747 -0.4429
22047SOL    HW167582   7.392   2.456   0.072  0.0759  0.6950  1.3093
22047SOL    HW267583   7.534   2.405   0.071  0.3451  1.4456  1.2354
22048SOL     OW67584   6.094   3.871  10.715  0.9012  0.0734 -0.5348
22048SOL    HW167585   6.141   3.927  10.776 -0.0163 -0.8880  1.1473
22048SOL    HW267586   6.054   3.931  10.653  2.9122  1.0066 -0.9934
22049SOL     OW67587   0.295   2.783  11.892 -0.0689 -0.6141 -0.2570
22049SOL    HW167588   0.221   2.836  11.924  1.3396  0.9304  0.6381
22049SOL    HW267589   0.352   2.774  11.968  0.3738 -2.3585 -0.7593
22050SOL     OW67590   0.596   4.301  10.475 -0.6532 -0.4268  0.2033
22050SOL    HW167591   0.564   4.270  10.559 -0.0424  0.1277  0.6516
22050SOL    HW267592   0.548   4.382  10.459 -0.2071 -0.1218  0.3958
22051SOL     OW67593   7.358   5.717  11.873 -0.4942 -0.3128  0.6027
22051SOL    HW167594   7.289   5.758  11.925 -1.2843 -0.6255 -0.1855
22051SOL    HW267595   7.392   5.788  11.820  0.1624 -0.0422  1.3609
22052SOL     OW67596   6.578   3.947  12.456  0.1297 -0.0495 -0.2133
22052SOL    HW167597   6.584   3.868  12.402 -0.9914  1.1193 -2.1677
22052SOL    HW267598   6.593   3.917  12.545 -0.3289 -2.4723 -0.8935
22053SOL     OW67599   4.866   5.993  12.230  0.1455 -0.6424 -0.3734
22053SOL    HW167600   4.891   5.905  12.202  0.6937 -1.0546  1.3009
22053SOL    HW267601   4.895   5.998  12.321 -1.2960  0.7173  0.0463
22054SOL     OW67602   7.354   3.520   0.734  0.4950  0.0188 -0.8810
22054SOL    HW167603   7.355   3.586   0.665  0.1461  0.5559 -0.3768
22054SOL    HW267604   7.446   3.497   0.746  0.5363 -0.2328 -1.6725
22055SOL     OW67605   5.084   5.203  11.196 -0.4002  0.8027  0.8434
22055SOL    HW167606   5.090   5.298  11.190  1.7867  0.7662  1.5189
22055SOL    HW267607   5.062   5.175  11.107 -0.6987  1.9070  0.5526
22056SOL     OW67608   7.065   5.514  11.831 -0.3253 -0.2031  0.3434
22056SOL    HW167609   7.037   5.424  11.810 -0.0670 -0.7670  2.2363
22056SOL    HW267610   7.158   5.515  11.812  0.5008 -1.5252  3.6622
22057SOL     OW67611   0.399   7.090  10.509 -0.1367  0.2981  0.7540
22057SOL    HW167612   0.349   7.140  10.444  0.3406 -0.6384 -0.3534
22057SOL    HW267613   0.409   7.003  10.471 -0.9103 -0.6615  2.6359
22058SOL     OW67614   6.238   6.365  12.481  0.0020  0.2935  0.1701
22058SOL    HW167615   6.255   6.279  12.444 -0.2806 -0.6906  2.1706
22058SOL    HW267616   6.303   6.422  12.441  1.9043 -1.4110  0.6755
22059SOL     OW67617   5.900   4.500  11.076  0.2308 -0.2059  0.3162
22059SOL    HW167618   5.935   4.424  11.029  1.2105  0.8061 -0.6676
22059SOL    HW267619   5.827   4.530  11.022  0.3327 -0.0035  0.2880
22060SOL     OW67620   7.555   3.667  11.210  0.1399 -0.1092  0.5175
22060SOL    HW167621   7.576   3.756  11.180  0.2613 -0.8632 -1.8536
22060SOL    HW267622   7.539   3.677  11.303  1.7565  2.1375  0.6542
22061SOL     OW67623   0.048   2.849  11.219 -0.0142  0.2258  0.4733
22061SOL    HW167624   0.052   2.941  11.247  0.8245  0.5589 -0.6843
22061SOL    HW267625   0.010   2.853  11.131  2.5635 -0.2426 -0.7522
22062SOL     OW67626   6.289   3.665   1.328 -0.1580 -0.1527 -0.4087
22062SOL    HW167627   6.239   3.673   1.246 -0.0202  0.4902 -0.4350
22062SOL    HW267628   6.268   3.745   1.376  0.6834  0.0274 -0.3271
22063SOL     OW67629   7.041   6.471  12.220 -0.5003 -0.2845 -0.6470
22063SOL    HW167630   7.130   6.468  12.183  1.0946  1.9517  2.5016
22063SOL    HW267631   7.043   6.407  12.290 -0.0430  2.1109  1.6942
22064SOL     OW67632   5.697   2.367   0.130 -0.0649 -0.1177  0.1513
22064SOL    HW167633   5.716   2.284   0.175  1.4460 -0.4700 -1.0396
22064SOL    HW267634   5.771   2.378   0.069  0.2152  2.5161  0.8541
22065SOL     OW67635   0.192   3.479   1.914 -0.2132  0.1552 -0.0211
22065SOL    HW167636   0.171   3.566   1.878  0.2360 -0.1074 -0.9644
22065SOL    HW267637   0.277   3.457   1.874 -0.1667 -0.5736  0.4700
22066SOL     OW67638   7.114   4.096  11.032  0.3495 -0.0647 -0.2587
22066SOL    HW167639   7.134   4.185  11.003  1.6110  0.0458  0.8373
22066SOL    HW267640   7.199   4.053  11.037 -0.0947 -0.8748  0.6329
22067SOL     OW67641   7.904   6.557  11.046 -0.0859 -0.2398 -0.5842
22067SOL    HW167642   7.892   6.463  11.040 -0.9400 -0.1339 -0.7771
22067SOL    HW267643   7.827   6.588  11.094  0.6314  0.2653  0.2775
22068SOL     OW67644   0.532   4.202  11.705 -0.6635  0.2846  0.3342
22068SOL    HW167645   0.452   4.196  11.653 -1.2330  0.4468  1.1619
22068SOL    HW267646   0.502   4.225  11.793  0.0696 -1.9444  1.2503
22069SOL     OW67647   6.498   3.493  12.163 -0.4958  0.2032  0.0694
22069SOL    HW167648   6.457   3.410  12.141 -0.4723  0.0692  0.5395
22069SOL    HW267649   6.478   3.550  12.088 -1.7409  0.2123  0.3862
22070SOL     OW67650   0.900   3.641  12.486 -0.1509  0.2538 -0.2933
22070SOL    HW167651   0.945   3.566  12.523  0.3045 -0.0711 -1.4403
22070SOL    HW267652   0.963   3.713  12.493  0.2644 -0.0069 -1.1546
22071SOL     OW67653   0.639   4.576  10.774 -0.3712  0.1378 -0.6823
22071SOL    HW167654   0.662   4.645  10.712  1.7803 -0.3004 -0.4439
22071SOL    HW267655   0.704   4.507  10.758 -1.0805 -0.8694  0.6170
22072SOL     OW67656   7.754   4.856   0.708  0.2567  0.4813 -0.4248
22072SOL    HW167657   7.838   4.902   0.719  0.7928 -0.4910 -0.3088
22072SOL    HW267658   7.748   4.799   0.784 -0.9560  1.1767  0.0287
22073SOL     OW67659   5.183   6.021  10.995  0.2015 -0.1370  0.4719
22073SOL    HW167660   5.237   6.093  11.028 -0.7080  0.1723  1.3541
22073SOL    HW267661   5.185   5.955  11.064  1.4808 -1.2284 -0.5708
22074SOL     OW67662   1.130   3.532   1.469  0.3250  0.8244 -0.0175
22074SOL    HW167663   1.153   3.441   1.449 -2.2038 -0.2328  1.4573
22074SOL    HW267664   1.053   3.550   1.415  0.1743  1.7283  0.4813
22075SOL     OW67665   1.457   1.554  11.562 -0.5337 -0.4284  0.3882
22075SOL    HW167666   1.382   1.528  11.509 -1.5208  0.0937  1.5117
22075SOL    HW267667   1.440   1.518  11.649  0.1289  0.3662  0.8653
22076SOL     OW67668   6.872   5.650  11.658 -0.0562 -0.2669 -0.3907
22076SOL    HW167669   6.915   5.735  11.669 -1.3980  0.4983 -0.7361
22076SOL    HW267670   6.932   5.587  11.698  0.4395  0.9751  0.9170
22077SOL     OW67671   6.893   4.398   9.900  0.1721  0.1728  0.4408
22077SOL    HW167672   6.957   4.452   9.948 -0.7185  1.0291  0.7026
22077SOL    HW267673   6.904   4.424   9.808  3.7461 -3.3319 -0.4502
22078SOL     OW67674   5.298   4.930  12.469  0.0172 -0.0224 -0.0549
22078SOL    HW167675   5.379   4.966  12.505  0.0881 -0.9255  0.7149
22078SOL    HW267676   5.322   4.844  12.436 -0.3868  0.1751 -0.8953
22079SOL     OW67677   7.007   5.228  11.774  0.1477  0.2059 -0.2136
22079SOL    HW167678   6.928   5.203  11.726 -0.4659  3.2937 -0.9772
22079SOL    HW267679   7.074   5.241  11.707  0.9198 -0.8383  0.3076
22080SOL     OW67680   0.659   7.281   9.513  0.9978  0.7560  0.0901
22080SOL    HW167681   0.646   7.187   9.499 -2.6166  0.6923  2.5934
22080SOL    HW267682   0.717   7.287   9.588 -2.0670  0.1984  2.7118
22081SOL     OW67683   1.263   3.506  11.217 -0.4710 -0.2038  0.8031
22081SOL    HW167684   1.252   3.439  11.284 -0.1034 -1.2146 -0.1081
22081SOL    HW267685   1.355   3.530  11.223 -0.2564 -0.8348  0.1929
22082SOL     OW67686   1.139   4.378  10.820  0.6063  0.1659 -0.0918
22082SOL    HW167687   1.068   4.432  10.854  1.8593  0.2634  2.6509
22082SOL    HW267688   1.217   4.433  10.828  1.5563 -1.2132  0.5924
22083SOL     OW67689   5.395   6.163  12.097  0.9286  0.1363 -0.2477
22083SOL    HW167690   5.374   6.221  12.170 -1.5671  0.6174 -1.2316
22083SOL    HW267691   5.329   6.094  12.100  1.6560 -0.6443 -1.2163
22084SOL     OW67692   0.326   4.696  11.561 -0.1835  0.5460 -0.3263
22084SOL    HW167693   0.243   4.730  11.528 -0.6218  0.8197  0.9989
22084SOL    HW267694   0.393   4.736  11.505 -0.9386  0.0981 -1.5874
22085SOL     OW67695   7.071   4.800   9.628  0.6015  0.6950 -0.7999
22085SOL    HW167696   7.059   4.820   9.721 -1.2944 -1.6487 -0.4523
22085SOL    HW267697   7.011   4.728   9.611  2.2468 -0.1885 -3.4280
22086SOL     OW67698   5.487   3.392   9.700 -0.0739  0.3622  0.3003
22086SOL    HW167699   5.533   3.460   9.652  0.0291  0.0305 -0.0720
22086SOL    HW267700   5.454   3.436   9.778 -0.6703  1.0156 -0.3098
22087SOL     OW67701   6.447   2.810  10.101 -0.1823  0.4464  0.3578
22087SOL    HW167702   6.417   2.894  10.065 -0.8504  0.3695  0.7073
22087SOL    HW267703   6.505   2.835  10.173 -0.4839  0.6181  0.5465
22088SOL     OW67704   7.354   3.747  10.237  0.2772 -0.2652 -0.6783
22088SOL    HW167705   7.426   3.757  10.299  0.1735 -0.5854 -0.5038
22088SOL    HW267706   7.394   3.757  10.151  0.5752 -0.6972 -0.5914
22089SOL     OW67707   0.730   5.855   0.347 -0.1992 -0.4368  0.8630
22089SOL    HW167708   0.706   5.762   0.345  0.5953 -0.6436  0.3251
22089SOL    HW267709   0.823   5.855   0.367 -0.2346  0.2606  1.0435
22090SOL     OW67710   7.633   4.082  12.419 -0.1528  0.0905  0.4970
22090SOL    HW167711   7.597   3.993  12.412  1.1165 -0.3324 -2.7080
22090SOL    HW267712   7.556   4.139  12.411 -0.7178 -0.7832 -0.8151
22091SOL     OW67713   6.206   4.310   0.077 -0.6693 -0.4362 -0.3332
22091SOL    HW167714   6.163   4.334   0.160  0.2361 -0.3694  0.1235
22091SOL    HW267715   6.234   4.220   0.089  0.6773 -0.0062 -0.0322
22092SOL     OW67716   0.312   3.679  11.634  0.1669 -0.1072  0.0943
22092SOL    HW167717   0.297   3.723  11.550  1.5307  0.1574 -0.0383
22092SOL    HW267718   0.229   3.638  11.655 -0.8319  1.6021 -0.3387
22093SOL     OW67719   7.654   4.072   0.565 -0.1543 -0.9270 -0.2882
22093SOL    HW167720   7.604   4.020   0.503 -0.3178 -0.6650 -0.3770
22093SOL    HW267721   7.706   4.131   0.510 -2.3217  1.2273 -0.1687
22094SOL     OW67722   5.717   5.339  11.317 -0.6272 -0.7841  0.1471
22094SOL    HW167723   5.771   5.285  11.260  0.1184 -0.0082  0.0970
22094SOL    HW267724   5.771   5.356  11.394 -0.3425  0.9126 -0.3820
22095SOL     OW67725   6.025   4.949  11.364  0.9588  0.0901  0.0923
22095SOL    HW167726   6.059   4.930  11.277 -0.7315  0.3642 -0.6773
22095SOL    HW267727   6.057   4.877  11.418 -0.6441 -1.9776 -1.5228
22096SOL     OW67728   6.275   3.799   0.944  0.2229 -0.0274 -0.3372
22096SOL    HW167729   6.356   3.772   0.987 -0.2749 -0.4358  0.3791
22096SOL    HW267730   6.246   3.720   0.897  0.0433  0.0049 -0.2796
22097SOL     OW67731   0.638   5.636  11.409  0.6383 -0.7146  0.3926
22097SOL    HW167732   0.580   5.684  11.350  1.0171  0.2166  0.7695
22097SOL    HW267733   0.727   5.658  11.379  0.8223 -1.2076  0.5542
22098SOL     OW67734   6.104   4.769  11.108  1.0461 -0.5745 -0.5010
22098SOL    HW167735   6.060   4.698  11.061 -0.3291  0.2865 -0.5757
22098SOL    HW267736   6.093   4.846  11.051  1.7521 -0.1063 -0.0242
22099SOL     OW67737   5.998   3.648  10.797 -0.2343  1.1237 -0.3976
22099SOL    HW167738   6.045   3.729  10.775 -0.3762  1.6848  1.2199
22099SOL    HW267739   5.909   3.662  10.764 -0.2522  1.6379 -0.1452
22100SOL     OW67740   6.610   5.482  12.422 -0.6972  0.3125  0.0920
22100SOL    HW167741   6.660   5.528  12.355  0.5863  0.5109  1.1329
22100SOL    HW267742   6.522   5.473  12.385  0.1507 -0.2827 -1.9256
22101SOL     OW67743   0.088   4.169  10.301 -0.5243 -0.4698 -0.3514
22101SOL    HW167744   0.140   4.117  10.361  0.6596  0.8917 -0.1481
22101SOL    HW267745   0.112   4.137  10.214 -2.1254 -2.3370 -0.1832
22102SOL     OW67746   7.919   6.219  12.237 -0.1038 -0.0137  0.2407
22102SOL    HW167747   7.878   6.305  12.227 -0.9667  0.1404  3.8971
22102SOL    HW267748   8.011   6.238  12.255  0.2230 -0.0525 -1.2121
22103SOL     OW67749   5.512   4.821  11.481  0.2460 -0.2850  0.1993
22103SOL    HW167750   5.448   4.885  11.450 -0.1278 -1.0946 -0.7561
22103SOL    HW267751   5.468   4.737  11.474  1.2716 -0.8161 -0.1000
22104SOL     OW67752   6.548   3.203   0.055 -0.5688 -0.2011 -0.3369
22104SOL    HW167753   6.618   3.191   0.119 -0.4074  1.0747 -0.2472
22104SOL    HW267754   6.536   3.298   0.050 -3.5277 -0.3902  1.0110
22105SOL     OW67755   6.057   3.111  11.031  0.1560 -0.1124  0.4650
22105SOL    HW167756   5.984   3.064  11.071 -0.4675  0.5945  0.1712
22105SOL    HW267757   6.051   3.091  10.938 -0.6725  1.2701  0.2028
22106SOL     OW67758   0.103   3.114  12.319 -0.5901 -0.3910  0.1065
22106SOL    HW167759   0.188   3.123  12.277  0.1190  1.2084  1.7433
22106SOL    HW267760   0.112   3.038  12.377  0.1007  0.3609  1.0221
22107SOL     OW67761   0.734   4.651   0.958 -0.1481  0.1774 -0.0299
22107SOL    HW167762   0.685   4.601   1.023 -0.4115 -0.3941 -0.6549
22107SOL    HW267763   0.826   4.637   0.980 -0.2454  0.5983  0.6655
22108SOL     OW67764   6.763   5.332  11.518  0.7328 -0.0843 -0.0082
22108SOL    HW167765   6.856   5.348  11.500  0.9114 -1.2014 -0.1582
22108SOL    HW267766   6.717   5.380  11.449  1.3226 -1.9245 -1.8035
22109SOL     OW67767   5.948   3.359  11.036  0.2130  0.2156  0.4840
22109SOL    HW167768   5.988   3.274  11.018  0.4656  0.5389 -0.5480
22109SOL    HW267769   5.884   3.341  11.105  0.6522 -0.7006  0.6710
22110SOL     OW67770   5.464   5.740  11.377 -0.6548 -0.2093  0.2286
22110SOL    HW167771   5.437   5.718  11.466  0.8644  2.1260  1.3717
22110SOL    HW267772   5.559   5.745  11.381 -0.4974 -0.8565 -1.7560
22111SOL     OW67773   6.225   4.515  12.108 -0.2142 -0.2510  0.4157
22111SOL    HW167774   6.141   4.545  12.144 -1.1346 -1.3993 -0.6737
22111SOL    HW267775   6.269   4.473  12.182 -1.1667 -0.7808  0.6958
22112SOL     OW67776   6.978   4.111   1.327  0.1259  0.2358  0.0785
22112SOL    HW167777   7.029   4.033   1.305  0.3211  0.0871  0.9926
22112SOL    HW267778   6.904   4.109   1.267 -0.4152 -1.2215  0.7378
22113SOL     OW67779   5.707   7.182   1.584  0.2963 -0.4405 -0.1422
22113SOL    HW167780   5.780   7.137   1.542  0.8233  0.6947 -0.4780
22113SOL    HW267781   5.677   7.122   1.652  0.2919 -1.7369 -1.2606
22114SOL     OW67782   6.019   7.351   0.905  0.2145 -0.3023 -0.1953
22114SOL    HW167783   5.949   7.399   0.861 -1.2690 -0.8562  1.4474
22114SOL    HW267784   5.974   7.282   0.954  1.8414 -0.2845  1.4374
22115SOL     OW67785   7.246   5.719   1.755  0.2024 -0.0336  0.3248
22115SOL    HW167786   7.254   5.675   1.839  0.4981 -1.0704 -0.2225
22115SOL    HW267787   7.159   5.759   1.757 -0.2556 -1.0130  0.6846
22116SOL     OW67788   5.705   7.341  12.443  0.5057 -0.2940 -0.5786
22116SOL    HW167789   5.713   7.386  12.527  3.1034  1.0201 -1.4262
22116SOL    HW267790   5.611   7.330  12.431  0.0357 -0.5385  2.4664
22117SOL     OW67791   0.099   5.983   0.697 -0.5825 -0.1428 -0.1958
22117SOL    HW167792   0.171   6.002   0.758 -0.2103  1.2021 -1.0075
22117SOL    HW267793   0.048   5.915   0.741  0.3247 -0.0340  1.0959
22118SOL     OW67794   5.363   7.113  12.080  0.3200  0.1641 -0.0255
22118SOL    HW167795   5.381   7.073  12.166 -1.5549  0.9112  0.7582
22118SOL    HW267796   5.303   7.051  12.038  0.2255  0.4257 -0.2707
22119SOL     OW67797   6.822   7.716   1.106 -0.1605 -0.3029  0.1797
22119SOL    HW167798   6.879   7.774   1.056  0.9425 -1.6946 -0.2485
22119SOL    HW267799   6.735   7.755   1.097  0.2014  0.1813 -1.7804
22120SOL     OW67800   5.846   6.752   0.450 -0.3115 -0.3500 -0.9453
22120SOL    HW167801   5.765   6.800   0.465  0.3278  0.3220  0.5253
22120SOL    HW267802   5.846   6.734   0.356 -2.0301 -0.1439 -1.0165
22121SOL     OW67803   5.790   5.331   2.268 -0.0116  0.4468  0.2128
22121SOL    HW167804   5.850   5.264   2.299  0.2496  0.2324 -0.7101
22121SOL    HW267805   5.846   5.392   2.219 -0.3734  0.8664  0.3189
22122SOL     OW67806   6.803   7.353   0.043  0.0835  0.3973 -0.1113
22122SOL    HW167807   6.762   7.286   0.096  2.7137 -0.5993  0.8502
22122SOL    HW267808   6.842   7.306  -0.031 -0.3501  1.2534 -0.9092
22123SOL     OW67809   7.218   7.028   0.760 -0.0214  0.3096  0.6342
22123SOL    HW167810   7.253   7.108   0.799  0.6184 -0.2573  1.2554
22123SOL    HW267811   7.195   7.053   0.671  0.0584  1.2135  0.8580
22124SOL     OW67812   5.121   5.992   1.401 -0.0025  0.2635 -0.0675
22124SOL    HW167813   5.119   6.083   1.370  0.2559  0.5044  0.6194
22124SOL    HW267814   5.186   5.991   1.471 -1.8022  0.1346  1.6999
22125SOL     OW67815   0.508   4.965   0.057  0.2073  0.3740  0.1227
22125SOL    HW167816   0.456   5.004   0.127  0.1740  1.2518 -0.3837
22125SOL    HW267817   0.445   4.918   0.003  0.0741  0.6034  0.0752
22126SOL     OW67818   6.232   7.373  12.128 -0.5353 -0.2966 -0.1018
22126SOL    HW167819   6.238   7.297  12.069  0.2090 -0.9049  0.7290
22126SOL    HW267820   6.322   7.401  12.140 -0.3835 -1.5692  2.4638
22127SOL     OW67821   5.631   7.009   1.782  0.1200  0.3938 -0.4567
22127SOL    HW167822   5.717   7.013   1.824 -0.2041  1.5214  0.1317
22127SOL    HW267823   5.573   6.974   1.849 -0.0281  0.3644 -0.5981
22128SOL     OW67824   5.074   7.543  11.551 -0.4047  0.5508  0.2043
22128SOL    HW167825   5.146   7.571  11.495  0.3212  1.6449  1.6354
22128SOL    HW267826   4.997   7.544  11.493  0.6188 -0.2310 -1.2397
22129SOL     OW67827   6.471   7.860   1.903  0.0421 -0.0630 -0.1251
22129SOL    HW167828   6.507   7.788   1.851 -0.7351  0.8880 -2.0613
22129SOL    HW267829   6.507   7.845   1.991  1.7083 -1.5314 -0.9753
22130SOL     OW67830   5.514   6.958   0.965  0.8231 -0.0720 -0.1191
22130SOL    HW167831   5.425   6.991   0.976 -0.2551 -2.6327 -0.3579
22130SOL    HW267832   5.557   6.973   1.049 -0.2550  0.0878  0.4093
22131SOL     OW67833   0.761   0.817   2.135  0.2455 -0.1798  0.4128
22131SOL    HW167834   0.849   0.838   2.166  1.0030 -1.2412 -0.9213
22131SOL    HW267835   0.774   0.755   2.063 -1.5405  0.6171 -0.6789
22132SOL     OW67836   5.880   6.483   1.492  0.0406 -0.3323  0.1247
22132SOL    HW167837   5.820   6.477   1.418 -0.4516  0.1505  0.4797
22132SOL    HW267838   5.908   6.574   1.494  0.0482 -0.3394  0.5281
22133SOL     OW67839   6.683   5.583  12.027  0.3181 -0.2482  0.1218
22133SOL    HW167840   6.614   5.613  11.967  1.2347  1.8587  0.0679
22133SOL    HW267841   6.755   5.556  11.970 -0.2793 -2.1898  0.1906
22134SOL     OW67842   0.382   5.634   0.337 -0.4550  0.3407  0.3637
22134SOL    HW167843   0.327   5.616   0.261  1.5731  0.5065 -1.2445
22134SOL    HW267844   0.364   5.726   0.359 -0.5013  0.5220 -0.4121
22135SOL     OW67845   6.392   1.886   1.917  0.1591 -0.0145 -0.7284
22135SOL    HW167846   6.308   1.841   1.912  0.5005 -0.7193 -0.3685
22135SOL    HW267847   6.408   1.918   1.828  0.2299 -1.2441 -1.1781
22136SOL     OW67848   7.565   5.889   0.851 -0.4027 -0.4264 -0.2536
22136SOL    HW167849   7.545   5.964   0.908  0.4965 -0.4414  0.0902
22136SOL    HW267850   7.548   5.921   0.763  0.8482  0.4857 -0.1822
22137SOL     OW67851   6.085   6.803  12.274 -0.4057  0.3110 -0.0403
22137SOL    HW167852   6.092   6.896  12.253 -0.6802  0.2105 -0.5894
22137SOL    HW267853   6.028   6.767  12.206  0.1417 -0.3595 -0.1532
22138SOL     OW67854   7.246   6.062  11.401  0.1411 -0.2378  0.4560
22138SOL    HW167855   7.240   5.971  11.430  1.7353  0.1933  2.3567
22138SOL    HW267856   7.336   6.071  11.371  0.1791  0.8849  0.8892
22139SOL     OW67857   6.451   0.359  11.582 -0.1712 -0.0699  0.7150
22139SOL    HW167858   6.373   0.366  11.637 -1.0925 -3.8030  0.1527
22139SOL    HW267859   6.505   0.293  11.625  1.7971  1.0090  0.0345
22140SOL     OW67860   7.711   5.290   3.112  0.0429 -0.4046 -0.2580
22140SOL    HW167861   7.769   5.366   3.100 -2.8290  1.9422 -0.4825
22140SOL    HW267862   7.720   5.268   3.205  0.8449  0.3226 -0.1472
22141SOL     OW67863   4.575   6.187  11.576  0.0753  0.2118 -0.0110
22141SOL    HW167864   4.631   6.119  11.539  0.3122  0.7900 -0.7257
22141SOL    HW267865   4.635   6.242  11.627  0.2136  0.9798 -0.9856
22142SOL     OW67866   6.814   7.191   0.394  0.3163  0.5631 -0.3481
22142SOL    HW167867   6.754   7.196   0.469  0.3853  1.0125 -0.3210
22142SOL    HW267868   6.757   7.179   0.318  0.3208 -1.9068 -0.0483
22143SOL     OW67869   7.527   6.909   2.288  0.4199  0.2411 -0.7945
22143SOL    HW167870   7.615   6.880   2.265  0.2300 -0.8358 -0.2572
22143SOL    HW267871   7.539   6.996   2.325  1.2280  0.2032 -0.9469
22144SOL     OW67872   7.008   6.504   1.012  0.0529  0.2275  0.1246
22144SOL    HW167873   7.006   6.416   0.974  1.4217  0.2197  0.0380
22144SOL    HW267874   6.970   6.560   0.945  0.3172 -0.1262 -0.3293
22145SOL     OW67875   5.275   4.388   1.387 -0.5482  0.1449  0.0383
22145SOL    HW167876   5.359   4.363   1.426 -0.4249 -0.3914 -0.5642
22145SOL    HW267877   5.232   4.305   1.367 -0.6785  0.4191 -0.8338
22146SOL     OW67878   6.943   6.843   1.858 -0.1025 -0.6208  0.2622
22146SOL    HW167879   6.943   6.798   1.774  0.3120 -0.5304  0.2140
22146SOL    HW267880   6.869   6.904   1.853 -0.2557 -0.8218  0.0784
22147SOL     OW67881   0.832   0.135   0.504  0.1004  0.2902 -0.2494
22147SOL    HW167882   0.817   0.221   0.544 -0.7324 -0.6835  1.6888
22147SOL    HW267883   0.883   0.087   0.570 -0.2303 -0.9877 -0.8979
22148SOL     OW67884   5.517   6.695  11.121 -0.2050  0.3786  0.1595
22148SOL    HW167885   5.491   6.773  11.170  0.3375 -0.0742  1.1921
22148SOL    HW267886   5.526   6.627  11.188  0.1529 -0.3570 -0.6265
22149SOL     OW67887   6.654   6.894  12.369 -0.4570  0.1637 -0.2651
22149SOL    HW167888   6.563   6.872  12.389 -0.1575 -1.0631 -0.1630
22149SOL    HW267889   6.702   6.871  12.449 -0.3477  3.0946  0.6138
22150SOL     OW67890   7.023   0.141  11.795 -0.4619 -0.1164 -0.5252
22150SOL    HW167891   7.089   0.076  11.818 -1.3250  0.0283  2.9396
22150SOL    HW267892   7.073   0.212  11.753  1.3146 -0.7788  0.3755
22151SOL     OW67893   5.446   6.539   2.009 -0.4813 -0.6800 -0.0630
22151SOL    HW167894   5.378   6.487   1.966  1.6346 -2.0485 -1.9222
22151SOL    HW267895   5.475   6.485   2.082 -0.6228 -0.5741  0.0729
22152SOL     OW67896   6.567   7.793   0.319 -0.2584  0.0075  0.6646
22152SOL    HW167897   6.479   7.784   0.354  0.1301 -0.0963  1.6616
22152SOL    HW267898   6.575   7.886   0.297 -0.4252  0.1327  1.1186
22153SOL     OW67899   7.164   6.760  12.055 -0.4492 -0.0321 -0.1515
22153SOL    HW167900   7.131   6.683  12.008  0.2421 -0.4333 -0.0043
22153SOL    HW267901   7.242   6.728  12.101 -1.5246  0.1706  1.8832
22154SOL     OW67902   6.038   5.672   0.567 -0.3711  0.0863 -0.4269
22154SOL    HW167903   6.126   5.663   0.603 -0.2093  2.5700 -0.0070
22154SOL    HW267904   6.052   5.705   0.478 -0.8865 -0.4986 -0.7373
22155SOL     OW67905   0.821   6.345  11.397  0.1732  0.2581 -0.0312
22155SOL    HW167906   0.810   6.390  11.314  0.3630 -0.6087 -0.5451
22155SOL    HW267907   0.861   6.261  11.373 -1.1292 -0.6206  0.7674
22156SOL     OW67908   5.844   4.863  12.165 -0.2992  0.5687 -0.3550
22156SOL    HW167909   5.778   4.887  12.100  0.8465  1.1306 -1.3486
22156SOL    HW267910   5.866   4.945  12.210  0.0504  0.4723 -0.3458
22157SOL     OW67911   4.908   0.070   4.154  0.2974  0.6078  0.1671
22157SOL    HW167912   4.902  -0.020   4.120  1.6220  1.5313 -2.9079
22157SOL    HW267913   4.852   0.070   4.231 -2.1935 -2.1028 -1.4112
22158SOL     OW67914   7.665   5.657  11.854 -0.0352  0.1342  0.1059
22158SOL    HW167915   7.640   5.633  11.765  0.7618  1.0675 -0.3807
22158SOL    HW267916   7.584   5.684  11.896 -0.1312  1.5146 -0.9304
22159SOL     OW67917   7.383   7.659   2.418 -0.0975  0.2368  0.0922
22159SOL    HW167918   7.348   7.602   2.486 -1.0856 -2.2997 -2.3056
22159SOL    HW267919   7.478   7.657   2.430 -0.2939  0.8595  2.0480
22160SOL     OW67920   0.383   7.529  12.005  1.0707 -1.0039 -0.1088
22160SOL    HW167921   0.445   7.509  12.076  0.1332 -0.2529  0.9600
22160SOL    HW267922   0.372   7.624  12.009 -1.8620 -1.2796  1.2796
22161SOL     OW67923   5.558   6.586   1.153  0.1530  0.1781  0.1317
22161SOL    HW167924   5.476   6.537   1.149  0.1621  0.1741 -0.0595
22161SOL    HW267925   5.596   6.575   1.066  1.0727 -1.0265  0.6580
22162SOL     OW67926   0.447   0.035  12.309  0.1335 -0.4575 -0.4103
22162SOL    HW167927   0.359   0.053  12.340 -0.4991 -0.3692 -2.1604
22162SOL    HW267928   0.471  -0.048  12.351 -1.4061 -1.2859 -1.1068
22163SOL     OW67929   6.270   7.672   0.751  0.3275 -0.2422  0.1658
22163SOL    HW167930   6.180   7.704   0.752  1.0282  1.8909  1.2357
22163SOL    HW267931   6.274   7.608   0.822 -0.2472 -0.0567  0.3693
22164SOL     OW67932   6.885   6.473   0.285  0.1416 -0.7691 -0.1142
22164SOL    HW167933   6.925   6.386   0.291  1.3925 -0.3059 -1.2734
22164SOL    HW267934   6.948   6.532   0.324  0.9743  0.0552 -2.5420
22165SOL     OW67935   6.645   7.928   0.971 -0.2234  0.1195  0.3866
22165SOL    HW167936   6.549   7.929   0.975 -0.2064  0.1815  0.8811
22165SOL    HW267937   6.665   7.928   0.878 -0.7497 -3.3822  0.1248
22166SOL     OW67938   6.309   7.932  12.045  0.2537 -0.0540  0.1690
22166SOL    HW167939   6.354   7.952  12.127  1.3807  0.7202 -0.6063
22166SOL    HW267940   6.235   7.877  12.071  0.7531 -0.0666  1.6622
22167SOL     OW67941   7.455   7.348  11.868 -0.1563  0.2585  0.4311
22167SOL    HW167942   7.432   7.363  11.959 -0.9566  0.9727  0.1344
22167SOL    HW267943   7.375   7.311  11.829 -0.5245  1.8362 -0.4035
22168SOL     OW67944   7.025   7.530   2.635  0.9800 -0.3294  0.2749
22168SOL    HW167945   7.043   7.517   2.542 -0.9380 -1.4946 -0.0107
22168SOL    HW267946   7.090   7.476   2.680  2.6720  1.1595 -0.3050
22169SOL     OW67947   6.175   0.243  12.017 -0.2706 -0.0452 -0.5129
22169SOL    HW167948   6.221   0.165  11.988 -0.6635 -0.3510 -0.3246
22169SOL    HW267949   6.218   0.268  12.099  0.8473  0.8259 -1.3391
22170SOL     OW67950   4.790   4.800   1.592 -0.2236  0.1174  0.2704
22170SOL    HW167951   4.812   4.772   1.681  1.4377 -1.3463 -0.5400
22170SOL    HW267952   4.773   4.719   1.544 -1.7343  0.9233 -0.6128
22171SOL     OW67953   7.369   5.131  12.136  0.8451  0.3596 -0.3683
22171SOL    HW167954   7.287   5.087  12.116  0.9461  0.7844 -1.7827
22171SOL    HW267955   7.381   5.117  12.230  0.3617 -1.7493 -0.5677
22172SOL     OW67956   5.978   0.335  11.548 -0.4000  0.0423 -0.4314
22172SOL    HW167957   6.016   0.348  11.635 -2.0362  0.5443  0.2319
22172SOL    HW267958   5.894   0.292  11.564 -0.4514 -0.4507 -1.8209
22173SOL     OW67959   6.157   5.167   1.911  0.1704 -0.5930  0.1947
22173SOL    HW167960   6.149   5.116   1.992  0.8347  0.4248  0.9320
22173SOL    HW267961   6.079   5.223   1.910 -0.0938 -0.9667 -0.1346
22174SOL     OW67962   5.495   5.724   0.966 -0.9695 -0.1753  0.2533
22174SOL    HW167963   5.469   5.704   1.056 -2.8799  1.2211  0.0749
22174SOL    HW267964   5.565   5.788   0.975 -0.7477 -0.4741  0.7249
22175SOL     OW67965   6.069   7.044  12.203  0.8367  0.0238  0.0213
22175SOL    HW167966   6.107   7.075  12.121  0.6327  2.7953  0.8711
22175SOL    HW267967   5.979   7.078  12.201  0.1774 -1.6234  0.5131
22176SOL     OW67968   5.027   7.875  11.374  0.4501 -0.4611 -0.0850
22176SOL    HW167969   4.993   7.956  11.335 -1.0854 -0.8052  0.4709
22176SOL    HW267970   5.089   7.904  11.440  1.7335  0.1763 -1.5137
22177SOL     OW67971   6.384   5.859  12.230  0.0103 -0.1631 -0.0082
22177SOL    HW167972   6.465   5.900  12.199  1.0887 -2.3129 -0.1869
22177SOL    HW267973   6.405   5.766  12.236 -1.3007 -0.3776  3.5236
22178SOL     OW67974   7.075   6.568   0.693 -0.2294  0.0931 -0.1791
22178SOL    HW167975   7.155   6.518   0.676 -0.6188 -0.4435 -0.4436
22178SOL    HW267976   7.004   6.508   0.671 -0.7033  0.8543 -0.7779
22179SOL     OW67977   6.878   5.868   2.045 -0.3568  0.3590 -0.2555
22179SOL    HW167978   6.836   5.893   1.963 -0.8519  0.3226 -0.0194
22179SOL    HW267979   6.971   5.886   2.031 -0.2230 -1.0100 -1.3435
22180SOL     OW67980   4.894   7.084   3.460 -0.3428  0.0776 -0.1147
22180SOL    HW167981   4.934   7.104   3.375  0.3624 -2.0253 -0.3423
22180SOL    HW267982   4.952   7.018   3.499  1.1443  3.1421  3.4791
22181SOL     OW67983   7.929   6.140   1.660  0.0412  0.1312  0.7526
22181SOL    HW167984   7.997   6.180   1.606  1.3614 -1.5778  1.0682
22181SOL    HW267985   7.965   6.139   1.748 -0.3206 -0.8707  0.9077
22182SOL     OW67986   5.928   7.379   1.342  0.2962  0.3875 -0.1217
22182SOL    HW167987   5.970   7.311   1.289 -0.4598 -1.5074  1.6054
22182SOL    HW267988   5.836   7.377   1.316  0.1367  0.2502  0.4470
22183SOL     OW67989   7.275   5.017   0.763 -0.3226  0.1273  0.0233
22183SOL    HW167990   7.369   5.010   0.778  0.0528  0.5063 -1.8385
22183SOL    HW267991   7.268   5.046   0.672 -2.2595 -0.5354 -0.0800
22184SOL     OW67992   6.444   6.487  12.339 -0.5697  0.4214  0.5049
22184SOL    HW167993   6.395   6.527  12.266 -2.5231  0.9213  2.0100
22184SOL    HW267994   6.532   6.524  12.331 -0.3812 -0.3726 -2.2111
22185SOL     OW67995   7.277   6.461  11.228  0.0082  0.2003  0.2554
22185SOL    HW167996   7.210   6.487  11.290 -1.7719 -0.0744 -1.4618
22185SOL    HW267997   7.271   6.366  11.224 -0.1392  0.2352 -0.5609
22186SOL     OW67998   5.862   5.771  10.980 -0.2114  0.5896  0.4857
22186SOL    HW167999   5.910   5.853  10.971 -1.0697  0.9388 -1.3988
22186SOL    HW268000   5.804   5.785  11.054  0.7428  1.0896  1.1645
22187SOL     OW68001   7.108   6.636   0.368 -0.4133  0.0449  0.2392
22187SOL    HW168002   7.083   6.693   0.295  0.9737  1.6081  0.9334
22187SOL    HW268003   7.088   6.687   0.447  1.5977 -0.0435  0.8621
22188SOL     OW68004   5.629   6.042   0.924  0.5956  0.1514  0.8791
22188SOL    HW168005   5.633   6.132   0.956 -0.6150  0.1557  1.0515
22188SOL    HW268006   5.690   5.994   0.980  0.8006  0.7457  1.1755
22189SOL     OW68007   0.035   6.717   2.212 -0.4505  0.2025 -0.0721
22189SOL    HW168008   0.053   6.682   2.124 -1.3919  0.4464 -0.3740
22189SOL    HW268009   0.118   6.754   2.240  0.1369 -0.7773 -0.4400
22190SOL     OW68010   5.328   6.876   1.242 -0.5447  0.4595  0.2084
22190SOL    HW168011   5.318   6.785   1.270 -2.1383  0.2803 -0.7899
22190SOL    HW268012   5.396   6.911   1.299  0.4648 -1.4780  0.2915
22191SOL     OW68013   7.299   7.356  12.483  0.4794 -0.5419 -0.8281
22191SOL    HW168014   7.346   7.439  12.474  0.6983 -0.6128 -0.3777
22191SOL    HW268015   7.360   7.290  12.452  0.4869 -0.5810 -0.7322
22192SOL     OW68016   6.273   5.657   0.696 -0.0735  0.2519 -0.1992
22192SOL    HW168017   6.244   5.676   0.785 -2.4515 -2.3381 -0.2765
22192SOL    HW268018   6.368   5.660   0.701 -0.1078 -0.3287  2.5950
22193SOL     OW68019   6.842   6.327  11.785 -0.2587  0.0334  0.1224
22193SOL    HW168020   6.757   6.306  11.745 -0.7074  0.9373  0.5655
22193SOL    HW268021   6.819   6.371  11.867  0.6473 -1.4950  1.2230
22194SOL     OW68022   6.468   7.090   1.546 -0.2528  0.0483  0.1884
22194SOL    HW168023   6.496   7.176   1.514 -3.1284  0.9693 -0.1328
22194SOL    HW268024   6.441   7.043   1.467  1.8268 -1.4556  0.2908
22195SOL     OW68025   5.110   6.849  12.268  0.0778 -0.5241  0.2745
22195SOL    HW168026   5.123   6.852  12.363  2.8794  3.6856  0.0555
22195SOL    HW268027   5.043   6.915  12.250  1.0185  0.2090 -0.7275
22196SOL     OW68028   6.084   6.325   0.242 -0.6093 -0.0381 -0.1868
22196SOL    HW168029   6.147   6.381   0.287  0.0068  0.2180 -1.3219
22196SOL    HW268030   6.127   6.302   0.159 -1.3206 -1.2483 -0.2535
22197SOL     OW68031   7.947   7.806   0.888 -0.0482 -0.2934  0.4797
22197SOL    HW168032   7.938   7.753   0.967  0.3876 -0.6554  0.2960
22197SOL    HW268033   7.894   7.760   0.822 -2.3173  1.2389  1.1143
22198SOL     OW68034   7.965   6.883   0.188 -0.3496  0.0884  0.3156
22198SOL    HW168035   7.943   6.910   0.277 -1.9500 -4.1230  1.4128
22198SOL    HW268036   8.034   6.818   0.199 -0.9807 -0.9379 -1.4325
22199SOL     OW68037   6.838   7.326  11.944 -0.3475  0.5255  0.7356
22199SOL    HW168038   6.745   7.313  11.923 -0.1926  0.8068 -0.1669
22199SOL    HW268039   6.875   7.238  11.942 -0.5017  0.4625  0.6406
22200SOL     OW68040   6.578   6.877  10.639 -0.1136 -0.4108 -0.4691
22200SOL    HW168041   6.518   6.809  10.668 -0.5387  0.4605  0.7796
22200SOL    HW268042   6.663   6.852  10.676 -0.6646  0.7340  1.7427
22201SOL     OW68043   7.678   6.766   1.208  0.0956  0.2634  0.0570
22201SOL    HW168044   7.641   6.740   1.292 -2.6720 -2.2562 -1.7031
22201SOL    HW268045   7.741   6.697   1.187 -0.7916 -0.3281 -0.7839
22202SOL     OW68046   5.520   5.941   2.003  0.5087  0.4643 -0.0477
22202SOL    HW168047   5.554   5.914   2.088 -2.3026  1.8848  1.6983
22202SOL    HW268048   5.471   5.865   1.971  3.2813 -0.8338 -1.5648
22203SOL     OW68049   5.909   0.630   2.122  0.0304  0.2312  0.0739
22203SOL    HW168050   5.885   0.584   2.042  0.3846  1.6163 -0.8741
22203SOL    HW268051   5.983   0.580   2.157 -0.7144 -0.9154  0.0694
22204SOL     OW68052   6.848   6.888   1.441  0.2420  0.2188 -0.0521
22204SOL    HW168053   6.920   6.951   1.449 -0.9477  1.7561 -0.8947
22204SOL    HW268054   6.776   6.926   1.490 -0.4790 -0.5555 -0.4733
22205SOL     OW68055   7.243   0.195   0.604 -0.2358  0.4145  0.0536
22205SOL    HW168056   7.323   0.144   0.617 -0.5333  0.4893  2.6952
22205SOL    HW268057   7.198   0.152   0.531  2.4427  0.7375 -1.9210
22206SOL     OW68058   6.700   7.746  12.221  0.2836  0.5436  0.4348
22206SOL    HW168059   6.656   7.773  12.141 -0.0400 -0.7687  0.1362
22206SOL    HW268060   6.728   7.656  12.203 -0.1523  0.0784  1.9388
22207SOL     OW68061   6.047   6.573   0.504 -0.1051  0.3235 -1.0602
22207SOL    HW168062   5.977   6.638   0.500  1.9583  2.8276  0.5560
22207SOL    HW268063   6.026   6.519   0.580 -0.3326  0.9976 -0.6416
22208SOL     OW68064   4.731   5.407   1.204 -0.3159  0.2057 -0.1153
22208SOL    HW168065   4.771   5.476   1.151 -0.4839 -0.5678 -1.2670
22208SOL    HW268066   4.795   5.391   1.274  1.5579 -1.1381 -2.0173
22209SOL     OW68067   5.417   5.513  12.482 -0.3944  0.7064  0.1504
22209SOL    HW168068   5.336   5.544  12.524 -0.7809 -0.1845  0.0701
22209SOL    HW268069   5.395   5.506  12.389 -1.1833 -2.3645  0.4601
22210SOL     OW68070   0.241   6.053   1.244  0.1020 -0.5861  0.1234
22210SOL    HW168071   0.213   5.997   1.172 -2.2673  0.0524  0.4809
22210SOL    HW268072   0.208   6.010   1.322  0.7972 -0.1612  0.6652
22211SOL     OW68073   5.984   7.180   1.119  0.1096  0.1478  0.0317
22211SOL    HW168074   5.975   7.089   1.089  2.9253 -0.6339  1.1767
22211SOL    HW268075   6.078   7.191   1.131 -0.1288  3.3706 -0.3586
22212SOL     OW68076   6.829   6.399   0.037 -0.3147 -0.2613 -0.0684
22212SOL    HW168077   6.739   6.366   0.032 -0.2148 -0.4359 -0.8078
22212SOL    HW268078   6.835   6.438   0.124 -0.8081 -1.1223  0.3690
22213SOL     OW68079   7.028   5.476   0.627 -0.2133  0.2382 -0.4413
22213SOL    HW168080   6.972   5.529   0.570 -3.2795 -0.8245  1.3263
22213SOL    HW268081   6.979   5.469   0.709  1.0414 -3.4484  0.1815
22214SOL     OW68082   7.014   6.238   1.827  0.1579  0.3183  0.0415
22214SOL    HW168083   7.102   6.201   1.816 -0.2316 -0.1129 -2.0173
22214SOL    HW268084   7.011   6.311   1.765 -0.6395  0.9137  0.7598
22215SOL     OW68085   5.777   3.640   0.455  0.5373  0.4008 -0.8745
22215SOL    HW168086   5.701   3.614   0.404  0.8776 -0.6347 -0.8668
22215SOL    HW268087   5.783   3.574   0.524  0.9672  0.9415 -0.3828
22216SOL     OW68088   6.836   7.513   0.653 -0.3514  0.2880  0.4219
22216SOL    HW168089   6.784   7.564   0.591  0.2137 -0.2767 -0.5447
22216SOL    HW268090   6.927   7.525   0.624 -0.0557  0.1869  1.2730
22217SOL     OW68091   6.853   7.306   1.472  0.3039  0.0770  0.1067
22217SOL    HW168092   6.887   7.218   1.490 -2.3400 -0.7765  1.4945
22217SOL    HW268093   6.881   7.324   1.382  2.9668 -1.0898  0.5992
22218SOL     OW68094   5.487   7.559   1.387 -0.2072 -0.0662  0.3508
22218SOL    HW168095   5.478   7.643   1.343  1.2977 -0.2211 -0.3128
22218SOL    HW268096   5.397   7.527   1.397 -0.6541  0.3911 -1.8094
22219SOL     OW68097   7.306   0.545   0.192 -0.1099 -0.9816  0.6632
22219SOL    HW168098   7.365   0.475   0.219 -0.6909 -1.9115 -0.3909
22219SOL    HW268099   7.219   0.510   0.208 -0.4379 -1.0271 -1.0677
22220SOL     OW68100   5.173   5.694   1.611 -0.2355  0.7432 -0.2600
22220SOL    HW168101   5.129   5.779   1.613 -1.1743  0.2963 -0.8626
22220SOL    HW268102   5.158   5.657   1.698  1.0386  1.5898  0.3479
22221SOL     OW68103   6.700   6.692  11.880 -0.1610 -0.6735 -0.4426
22221SOL    HW168104   6.749   6.679  11.799 -1.0383 -1.4517 -0.8558
22221SOL    HW268105   6.708   6.609  11.927 -0.3121 -0.4924 -0.0943
22222SOL     OW68106   4.877   7.420  12.346  0.4044 -0.4070 -0.0924
22222SOL    HW168107   4.920   7.343  12.383 -0.0429 -0.9628 -0.7091
22222SOL    HW268108   4.940   7.454  12.282  0.4789 -0.4354 -0.0346
22223SOL     OW68109   3.561   7.590   1.762  0.1471  0.0038  0.1751
22223SOL    HW168110   3.560   7.656   1.693 -0.3694 -1.3414 -1.1585
22223SOL    HW268111   3.643   7.607   1.809  0.0957  1.4908 -0.2124
22224SOL     OW68112   6.496   0.141   0.533  0.1663 -0.1350 -0.4758
22224SOL    HW168113   6.444   0.076   0.580  0.7491 -0.1570  0.1469
22224SOL    HW268114   6.498   0.109   0.443  0.1124 -0.7671 -0.2541
22225SOL     OW68115   5.638   6.556   0.894  0.0264 -0.5678 -0.1510
22225SOL    HW168116   5.701   6.627   0.902 -1.6184  1.2745 -2.2484
22225SOL    HW268117   5.598   6.569   0.808 -5.1952  0.2041  2.0415
22226SOL     OW68118   6.789   6.090  11.631 -0.4366 -0.1032  0.2820
22226SOL    HW168119   6.862   6.147  11.607 -1.6556  1.3957 -0.0717
22226SOL    HW268120   6.726   6.101  11.560 -1.5582 -0.3111  1.2036
22227SOL     OW68121   6.444   4.591   0.078 -0.4824 -0.1409 -0.2913
22227SOL    HW168122   6.377   4.568   0.142 -1.2706 -0.4619 -1.2100
22227SOL    HW268123   6.486   4.508   0.055 -1.1364 -0.2411 -1.1928
22228SOL     OW68124   6.693   6.234   2.382  0.4585 -0.4845  0.1411
22228SOL    HW168125   6.605   6.197   2.396  0.6410 -1.4066 -1.0481
22228SOL    HW268126   6.679   6.329   2.382 -0.4392 -0.6060  0.5592
22229SOL     OW68127   6.450   6.705   0.910  0.4047 -0.5242 -0.0503
22229SOL    HW168128   6.442   6.749   0.825  1.7263 -0.0657  0.0507
22229SOL    HW268129   6.481   6.617   0.889  0.2442 -0.5761 -0.0726
22230SOL     OW68130   5.632   7.222   2.606  0.6971  0.1188 -0.6014
22230SOL    HW168131   5.609   7.294   2.665 -1.0523 -1.2819  0.5236
22230SOL    HW268132   5.553   7.207   2.554  1.0983 -0.8672 -0.9445
22231SOL     OW68133   7.363   5.072  12.450  0.1902  0.5611 -0.3916
22231SOL    HW168134   7.445   5.103  12.489  1.0011  1.2312 -2.4669
22231SOL    HW268135   7.312   5.152  12.434  0.7212  0.5450 -2.4129
22232SOL     OW68136   7.451   4.155   0.714  0.0481 -0.6312 -0.2715
22232SOL    HW168137   7.531   4.137   0.663 -0.2250 -1.5381 -0.4040
22232SOL    HW268138   7.380   4.151   0.650 -0.0504  0.9052 -0.2850
22233SOL     OW68139   5.897   6.246   1.981 -0.0488  0.0488  0.3891
22233SOL    HW168140   5.976   6.225   1.930 -0.0446 -0.2596  0.5258
22233SOL    HW268141   5.858   6.320   1.934  1.9217  2.2344  1.9789
22234SOL     OW68142   6.436   7.282   2.629  0.1852 -0.4506 -0.2504
22234SOL    HW168143   6.441   7.377   2.641  1.3558 -0.1505 -2.5045
22234SOL    HW268144   6.525   7.251   2.646 -0.2340 -1.2079  0.6680
22235SOL     OW68145   0.772   0.354   3.172  0.3792  0.0056 -0.2249
22235SOL    HW168146   0.743   0.425   3.229  0.2173 -0.0132 -0.2843
22235SOL    HW268147   0.732   0.372   3.087  0.7070  0.0906 -0.3628
22236SOL     OW68148   5.125   5.995   1.947 -0.0772 -0.1794 -0.2339
22236SOL    HW168149   5.190   5.931   1.917 -0.9194 -0.7898 -0.8197
22236SOL    HW268150   5.111   5.973   2.039  0.8579  0.2397  0.0181
22237SOL     OW68151   0.228   7.722   2.170 -0.1063  0.1540  0.2414
22237SOL    HW168152   0.210   7.688   2.257 -0.6583  0.5952  0.3069
22237SOL    HW268153   0.166   7.676   2.113  0.5067 -0.4132  0.0106
22238SOL     OW68154   5.938   7.334   0.227  0.0042  0.2633 -0.1179
22238SOL    HW168155   5.982   7.274   0.287 -1.5704 -2.7168 -1.7334
22238SOL    HW268156   6.006   7.362   0.166  0.2899 -2.4777 -1.2130
22239SOL     OW68157   1.056   7.951  12.070 -0.0812  0.0016 -0.3748
22239SOL    HW168158   0.992   7.919  12.006 -0.6883 -0.7370  0.5849
22239SOL    HW268159   1.105   8.018  12.022 -0.6624 -0.3759 -1.5496
22240SOL     OW68160   5.167   5.786   1.196  0.7097 -0.2474  0.0782
22240SOL    HW168161   5.217   5.712   1.231 -1.6690 -1.3273  1.4117
22240SOL    HW268162   5.164   5.848   1.269 -0.0444 -0.2890  0.0814
22241SOL     OW68163   6.406   6.815  12.456  0.2058 -0.7344  0.4509
22241SOL    HW168164   6.373   6.764  12.383  0.5407 -0.2660 -0.0455
22241SOL    HW268165   6.407   6.755  12.531 -0.7951 -1.0204  0.2362
22242SOL     OW68166   0.186   4.710   0.312  0.1326  0.1267 -0.5079
22242SOL    HW168167   0.125   4.714   0.238  1.1469  1.5694 -1.3187
22242SOL    HW268168   0.139   4.752   0.384 -0.4523 -0.3242 -0.6101
22243SOL     OW68169   5.647   4.941   0.260  0.4441  0.1030  0.1101
22243SOL    HW168170   5.714   4.997   0.299 -0.8524  0.2218  2.3241
22243SOL    HW268171   5.689   4.855   0.254  1.1549  0.4133  0.4715
22244SOL     OW68172   5.760   0.184   1.850 -0.3089  0.5591  0.0277
22244SOL    HW168173   5.711   0.238   1.911 -1.3927  2.2983 -2.2305
22244SOL    HW268174   5.843   0.229   1.838 -0.1516  0.2923  0.0914
22245SOL     OW68175   5.945   6.999   1.561  0.6712  0.4057  0.2564
22245SOL    HW168176   6.014   6.993   1.495  0.6133  0.4322  0.1935
22245SOL    HW268177   5.980   7.060   1.626  0.3316  1.1310 -0.2321
22246SOL     OW68178   6.743   6.579  12.288 -0.6198 -0.2464 -0.1598
22246SOL    HW168179   6.758   6.664  12.330  1.0401 -0.3341 -0.5002
22246SOL    HW268180   6.775   6.515  12.352  1.1502 -0.4233 -1.1592
22247SOL     OW68181   5.356   6.093   0.436  0.0648 -0.0305  0.4889
22247SOL    HW168182   5.342   6.033   0.508  0.8624  0.8184  1.3785
22247SOL    HW268183   5.273   6.140   0.427  0.2029  0.4123  1.3947
22248SOL     OW68184   5.225   7.582   0.787  0.2229 -0.2416  0.4866
22248SOL    HW168185   5.294   7.616   0.844 -0.1077  0.5928  0.4022
22248SOL    HW268186   5.144   7.599   0.835 -0.0035 -0.2405  0.1084
22249SOL     OW68187   0.385   5.478   0.581 -0.6091  0.3626  0.1451
22249SOL    HW168188   0.389   5.518   0.493 -0.1797  0.5096  0.2293
22249SOL    HW268189   0.438   5.535   0.636 -0.6756  0.1342  0.4508
22250SOL     OW68190   7.383   6.095  11.954 -0.3767  0.3293  0.3150
22250SOL    HW168191   7.439   6.069  12.028  0.3990 -0.3681 -0.4941
22250SOL    HW268192   7.368   6.189  11.968  0.3891  0.3754  0.9503
22251SOL     OW68193   7.266   6.294   1.185  0.4369  0.5804  0.2628
22251SOL    HW168194   7.252   6.262   1.096  3.0379  1.9069 -0.7202
22251SOL    HW268195   7.257   6.216   1.240 -1.3384 -0.2516 -1.1069
22252SOL     OW68196   4.268   6.687   0.863 -0.2794  0.7516 -0.5349
22252SOL    HW168197   4.288   6.676   0.956  2.5694 -0.8937 -1.2126
22252SOL    HW268198   4.220   6.607   0.839  1.8641 -0.4508 -1.0718
22253SOL     OW68199   5.146   5.424   1.144 -0.7084 -0.0977  0.0737
22253SOL    HW168200   5.138   5.331   1.161 -0.0953 -0.3908 -1.1197
22253SOL    HW268201   5.189   5.460   1.222 -1.5642 -0.6786  0.8316
22254SOL     OW68202   7.281   1.664   2.582 -0.2935 -0.0408  0.3028
22254SOL    HW168203   7.303   1.585   2.533 -0.0233  0.9778 -1.3005
22254SOL    HW268204   7.359   1.720   2.572 -1.7839  1.8575 -1.6999
22255SOL     OW68205   7.385   5.887  12.321  0.0882 -0.2060  0.4480
22255SOL    HW168206   7.465   5.931  12.295  0.6169 -0.0812  2.1611
22255SOL    HW268207   7.315   5.947  12.295  0.5238 -0.2684 -0.9594
22256SOL     OW68208   4.803   7.017   0.751  0.3122 -0.4262  0.1744
22256SOL    HW168209   4.743   6.944   0.734  1.0058 -0.8778 -0.3938
22256SOL    HW268210   4.818   7.057   0.666 -1.7257  1.7643  0.7294
22257SOL     OW68211   7.155   5.766   0.124  0.5806  0.4680 -0.0755
22257SOL    HW168212   7.250   5.769   0.132  0.5813 -0.2307  0.3075
22257SOL    HW268213   7.138   5.717   0.043  0.5730 -1.4895  1.0249
22258SOL     OW68214   6.554   5.652   0.626 -0.0401  0.0329  0.3609
22258SOL    HW168215   6.631   5.708   0.637  0.7587 -0.2667 -2.7792
22258SOL    HW268216   6.577   5.570   0.669  0.5897  0.5719  1.0911
22259SOL     OW68217   7.796   7.208   2.111 -0.3264  0.2931  0.1990
22259SOL    HW168218   7.825   7.193   2.201 -0.9238  0.4319  0.4214
22259SOL    HW268219   7.787   7.120   2.074 -0.0156  0.2387  0.2546
22260SOL     OW68220   6.846   6.395   0.639 -0.1771 -0.7559 -0.1259
22260SOL    HW168221   6.824   6.358   0.724  0.1396  0.8068  0.6779
22260SOL    HW268222   6.800   6.479   0.636  1.7831  0.3775 -0.4057
22261SOL     OW68223   5.370   7.004   0.348  0.3310 -0.1094  0.1460
22261SOL    HW168224   5.359   7.051   0.430  2.9883 -1.3631  1.3323
22261SOL    HW268225   5.464   6.992   0.339  0.1082 -0.3631 -2.9298
22262SOL     OW68226   6.886   7.046   2.163 -0.4007 -0.9118  0.2507
22262SOL    HW168227   6.819   6.988   2.200  0.7790 -1.1692  2.1507
22262SOL    HW268228   6.960   6.988   2.144 -0.6460 -0.6347 -1.8216
22263SOL     OW68229   0.267   6.519   0.545  0.2589  0.6421  0.4502
22263SOL    HW168230   0.187   6.570   0.530  1.3620  2.5738  0.6923
22263SOL    HW268231   0.245   6.430   0.519 -1.2849  1.5603 -1.6994
22264SOL     OW68232   6.777   5.003   2.529  0.6526  0.5441 -0.3990
22264SOL    HW168233   6.871   4.987   2.530  0.4857 -0.6056 -1.2098
22264SOL    HW268234   6.764   5.075   2.591  1.8436 -0.4645  1.0707
22265SOL     OW68235   7.722   6.137   0.817  0.2549  0.1346 -0.4118
22265SOL    HW168236   7.710   6.218   0.767  0.1918 -0.0632 -0.7228
22265SOL    HW268237   7.633   6.102   0.826  0.1854  0.5312  0.4545
22266SOL     OW68238   5.708   6.247   1.601 -0.3926  0.0015  0.1529
22266SOL    HW168239   5.718   6.236   1.506  0.1071 -0.0098  0.2054
22266SOL    HW268240   5.787   6.208   1.638 -0.7726 -0.3589  0.6012
22267SOL     OW68241   5.862   6.402  11.678  0.1049 -0.2136 -0.1397
22267SOL    HW168242   5.925   6.463  11.639  0.0419  1.0202  1.5547
22267SOL    HW268243   5.892   6.315  11.650  2.3659  0.3508  0.2921
22268SOL     OW68244   7.224   6.873   1.648  0.0060 -0.0818 -0.5339
22268SOL    HW168245   7.253   6.836   1.731 -0.5788  0.7586  0.0657
22268SOL    HW268246   7.196   6.797   1.597  0.4805 -0.6232 -0.0093
22269SOL     OW68247   7.513   7.507  12.401  0.0427 -0.1632  0.0613
22269SOL    HW168248   7.573   7.516  12.475 -0.0813  3.6989 -0.1336
22269SOL    HW268249   7.564   7.535  12.325 -0.7087 -1.2153 -0.8569
22270SOL     OW68250   7.719   0.949   1.748  0.4536  0.0521  0.4944
22270SOL    HW168251   7.672   1.029   1.727  0.1115 -0.6050 -1.4309
22270SOL    HW268252   7.758   0.921   1.665  1.1132 -1.4213  1.2523
22271SOL     OW68253   7.517   6.576   0.660  0.5529 -0.3545 -0.0336
22271SOL    HW168254   7.529   6.568   0.566  0.6400 -1.3073  0.0398
22271SOL    HW268255   7.530   6.669   0.679  1.3382 -0.2810 -0.8504
22272SOL     OW68256   6.036   4.362   0.280  0.0958 -0.1575  0.1691
22272SOL    HW168257   6.031   4.400   0.368 -2.0379  1.1314 -0.4524
22272SOL    HW268258   6.002   4.273   0.291 -0.4401  0.0941  0.5942
22273SOL     OW68259   7.425   1.521  10.569 -0.4356  0.3769  0.1167
22273SOL    HW168260   7.449   1.603  10.612 -1.4469  0.7840 -0.0576
22273SOL    HW268261   7.461   1.528  10.481  1.2793 -0.2788  0.7166
22274SOL     OW68262   4.651   5.773   1.665  0.9984 -0.1275  0.1563
22274SOL    HW168263   4.730   5.766   1.718  1.3792  1.6740 -0.1014
22274SOL    HW268264   4.660   5.857   1.619 -0.2448 -0.7042 -1.2297
22275SOL     OW68265   7.074   4.363   0.478  0.0017 -0.0998 -0.7007
22275SOL    HW168266   7.141   4.432   0.486  0.0349 -0.3171  1.9779
22275SOL    HW268267   6.993   4.411   0.462  0.5448  0.2486 -2.7210
22276SOL     OW68268   7.524   7.283  10.495 -0.6766  0.6752 -0.5016
22276SOL    HW168269   7.544   7.369  10.458  2.2248  0.1059 -0.5516
22276SOL    HW268270   7.432   7.288  10.520 -1.0696  3.1826 -2.0687
22277SOL     OW68271   5.305   7.126   1.935 -0.0144 -0.2389 -0.0111
22277SOL    HW168272   5.393   7.128   1.900 -0.2831 -1.0823 -0.7718
22277SOL    HW268273   5.296   7.039   1.974  1.1273  1.3866  4.5439
22278SOL     OW68274   5.281   6.294   2.096 -0.2334  0.3472 -0.0556
22278SOL    HW168275   5.356   6.247   2.131 -0.6287 -1.0979 -1.0657
22278SOL    HW268276   5.241   6.336   2.173  0.5913 -0.3177  0.7560
22279SOL     OW68277   6.954   7.822  11.839  0.0758 -0.0534 -1.0683
22279SOL    HW168278   7.024   7.832  11.775  0.7621  0.1605 -0.2980
22279SOL    HW268279   6.912   7.908  11.843  1.7556  0.7788  0.7010
22280SOL     OW68280   5.740   6.551  11.915 -0.0421  0.2925  0.5741
22280SOL    HW168281   5.709   6.609  11.846  0.0575  1.1404  1.2246
22280SOL    HW268282   5.798   6.489  11.870 -0.8455  0.1294 -0.2702
22281SOL     OW68283   4.638   6.719   1.161  0.0153 -0.0946  0.0277
22281SOL    HW168284   4.570   6.652   1.170  0.1549 -0.1323  0.9198
22281SOL    HW268285   4.593   6.801   1.180 -0.0535  0.0167 -0.6119
22282SOL     OW68286   6.623   6.387   0.311 -0.2453  0.1337  0.5613
22282SOL    HW168287   6.607   6.347   0.225  0.0524  1.4943 -0.1434
22282SOL    HW268288   6.716   6.410   0.310 -0.4895  1.1799  0.7942
22283SOL     OW68289   6.692   7.985  12.062 -0.3986  0.0172 -0.0426
22283SOL    HW168290   6.617   7.974  12.121 -1.1825  0.8498 -0.8408
22283SOL    HW268291   6.746   8.052  12.104 -0.3356 -0.2416  0.2992
22284SOL     OW68292   5.327   3.842   2.695  0.1580  0.0576  0.1081
22284SOL    HW168293   5.386   3.878   2.628  0.4346 -1.1662 -0.3474
22284SOL    HW268294   5.261   3.909   2.708  0.9518  0.9417 -0.2990
22285SOL     OW68295   5.638   6.033   0.336  0.5914 -0.5731 -0.1639
22285SOL    HW168296   5.552   5.996   0.357  0.1034 -0.2062 -1.4197
22285SOL    HW268297   5.671   6.064   0.420  0.0688 -1.8834  0.5539
22286SOL     OW68298   5.765   6.463   1.259  0.4756 -0.1739  0.3691
22286SOL    HW168299   5.699   6.512   1.211  0.4377  0.1244  0.7181
22286SOL    HW268300   5.744   6.371   1.242 -0.2765 -0.0917  0.8027
22287SOL     OW68301   5.562   4.728   1.092 -0.2565 -0.3050  0.4238
22287SOL    HW168302   5.541   4.637   1.112  0.8887 -0.6168  0.2962
22287SOL    HW268303   5.491   4.757   1.034  0.2649 -1.6686 -0.9728
22288SOL     OW68304   6.399   0.083  11.344  0.2473 -0.2849 -0.5108
22288SOL    HW168305   6.463   0.153  11.336 -0.9857  1.0071  0.5744
22288SOL    HW268306   6.358   0.096  11.429 -0.4702 -1.9550 -0.5466
22289SOL     OW68307   6.049   6.647   1.967 -0.1578  0.3435 -0.7602
22289SOL    HW168308   5.996   6.569   1.953 -0.3355  0.1054  1.0469
22289SOL    HW268309   6.083   6.638   2.056  1.0642  1.5997 -1.0641
22290SOL     OW68310   5.608   7.477  11.716 -0.1376 -0.1213  0.0251
22290SOL    HW168311   5.520   7.439  11.723 -0.0580 -0.7091 -1.7617
22290SOL    HW268312   5.663   7.420  11.769 -0.6557 -0.3643  0.3135
22291SOL     OW68313   4.397   6.761   2.367  0.7854  0.2027  0.0395
22291SOL    HW168314   4.457   6.768   2.292  0.7225  1.2125  0.0648
22291SOL    HW268315   4.416   6.839   2.419  0.1941 -0.0294  0.6092
22292SOL     OW68316   6.915   0.503   2.502  0.1982 -0.0716  0.4313
22292SOL    HW168317   6.916   0.428   2.442 -0.5859 -1.1696  1.7329
22292SOL    HW268318   6.828   0.501   2.541  0.8302  0.3320  1.9313
22293SOL     OW68319   6.313   5.285   2.174  0.0153 -0.1785  0.4808
22293SOL    HW168320   6.253   5.341   2.224 -0.6933 -0.5111  0.0346
22293SOL    HW268321   6.338   5.339   2.099 -0.0413 -0.1808  0.4603
22294SOL     OW68322   7.311   6.206   1.822 -0.0376 -0.1618 -0.2105
22294SOL    HW168323   7.343   6.252   1.745  1.8733  0.5067  0.9000
22294SOL    HW268324   7.327   6.113   1.804  1.5418  0.0800 -0.1648
22295SOL     OW68325   7.244   5.637  12.308  0.1849  0.6354 -0.2266
22295SOL    HW168326   7.297   5.713  12.286 -0.2206  1.3444  1.1667
22295SOL    HW268327   7.284   5.565  12.258  2.2340  1.2156  0.4953
22296SOL     OW68328   0.513   6.221  11.816  0.2280 -1.0133 -0.4803
22296SOL    HW168329   0.554   6.300  11.781 -1.0102  0.1353  0.5159
22296SOL    HW268330   0.512   6.160  11.743  1.1114 -0.0704 -1.3195
22297SOL     OW68331   5.480   5.520   0.678  0.3385 -0.6238  0.0537
22297SOL    HW168332   5.505   5.459   0.747  0.6338 -0.9615 -0.3456
22297SOL    HW268333   5.412   5.575   0.718 -1.5862 -2.6464 -0.2414
22298SOL     OW68334   6.063   6.638  12.479  0.6507  0.5259  0.5987
22298SOL    HW168335   6.147   6.602  12.507  0.3272  0.5045  1.5707
22298SOL    HW268336   6.085   6.703  12.413  1.3501 -0.3409 -0.0505
22299SOL     OW68337   0.404   6.793   2.619 -0.1415 -0.0336  0.3009
22299SOL    HW168338   0.392   6.704   2.584  0.3597  0.3178 -0.8172
22299SOL    HW268339   0.487   6.823   2.582  0.5513  0.2962  2.0321
22300SOL     OW68340   6.249   0.325   9.794 -0.1029  0.0311  0.1485
22300SOL    HW168341   6.286   0.237   9.784  1.1851  0.7044 -1.3497
22300SOL    HW268342   6.276   0.352   9.882  2.1765  0.0985 -0.5163
22301SOL     OW68343   7.099   0.127   1.812  0.1264  0.1592  0.3852
22301SOL    HW168344   7.017   0.131   1.862  1.1262  0.1209  2.1046
22301SOL    HW268345   7.082   0.062   1.744 -1.7973  1.3413 -0.3715
22302SOL     OW68346   0.140   6.590  11.921  0.0940 -0.4390  0.2553
22302SOL    HW168347   0.158   6.522  11.857  1.9565  0.9584 -0.7998
22302SOL    HW268348   0.215   6.587  11.981 -0.5407 -0.2652  1.0782
22303SOL     OW68349   6.714   7.294  11.487  0.0747  0.0268  0.2458
22303SOL    HW168350   6.666   7.211  11.478  0.0090 -0.2473  2.6594
22303SOL    HW268351   6.653   7.360  11.454 -1.0036 -0.5914  0.9431
22304SOL     OW68352   5.819   6.770   0.806 -0.4444 -0.7022 -0.3414
22304SOL    HW168353   5.897   6.819   0.832  0.2126 -2.3963  1.0362
22304SOL    HW268354   5.853   6.695   0.757 -1.3802 -0.2752 -1.7134
22305SOL     OW68355   5.016   7.778   1.371 -0.6251  0.2392  0.1389
22305SOL    HW168356   5.051   7.758   1.284 -1.2752 -0.9882  0.1348
22305SOL    HW268357   4.925   7.801   1.356 -0.4819  0.9848  0.3995
22306SOL     OW68358   6.970   6.454   2.515  0.3787 -0.2448 -0.3188
22306SOL    HW168359   6.885   6.425   2.547 -0.0984  0.0283 -1.3098
22306SOL    HW268360   6.959   6.462   2.421  0.6842  2.4377 -0.1969
22307SOL     OW68361   7.326   5.732   0.485 -0.1302  0.0210  0.1772
22307SOL    HW168362   7.410   5.762   0.521 -0.0776 -1.5181  1.4574
22307SOL    HW268363   7.285   5.812   0.451  0.8797  1.1978  1.5481
22308SOL     OW68364   4.969   5.967  12.479 -0.0394  0.3628 -0.3154
22308SOL    HW168365   4.948   6.032  12.547  2.0134  0.1399  0.6061
22308SOL    HW268366   5.045   5.920  12.514 -0.4805 -1.4713 -1.6839
22309SOL     OW68367   6.991   7.723   1.317  0.4665 -0.8682  0.2335
22309SOL    HW168368   7.040   7.805   1.307 -0.0522 -0.5053  0.5961
22309SOL    HW268369   6.943   7.714   1.235  0.0318 -0.4693  0.4378
22310SOL     OW68370   7.158   5.455   0.182 -0.0640 -0.4300  0.1577
22310SOL    HW168371   7.105   5.425   0.257  0.5751  1.1416  1.3015
22310SOL    HW268372   7.116   5.537   0.156 -0.4046 -1.0697 -1.3978
22311SOL     OW68373   0.266   6.125   0.878  0.1245  0.0179  0.1986
22311SOL    HW168374   0.346   6.142   0.830  0.2726 -2.6677 -0.6992
22311SOL    HW268375   0.293   6.069   0.951 -0.7325  0.2409  0.7020
22312SOL     OW68376   5.807   6.180  12.251 -0.3154  0.1063  0.0112
22312SOL    HW168377   5.775   6.237  12.181  0.7336  1.0168  0.2318
22312SOL    HW268378   5.903   6.184  12.243 -0.2033 -0.8454  0.6659
22313SOL     OW68379   7.502   7.208   1.365  0.1363 -0.0769 -0.2365
22313SOL    HW168380   7.521   7.300   1.384  0.9352  0.1341 -1.8706
22313SOL    HW268381   7.566   7.184   1.299  0.5485 -2.1090  0.8494
22314SOL     OW68382   4.210   6.095  11.180 -0.2972 -0.0453 -0.1909
22314SOL    HW168383   4.281   6.076  11.241  0.5263  0.4993 -0.9525
22314SOL    HW268384   4.233   6.047  11.100  0.2405  1.6608 -1.1061
22315SOL     OW68385   5.075   7.161   3.744  0.3187 -0.3852  0.1290
22315SOL    HW168386   5.082   7.086   3.685 -0.0073 -0.4930  0.2246
22315SOL    HW268387   5.002   7.139   3.802  0.2271 -0.0010  0.1630
22316SOL     OW68388   6.760   4.901   1.393 -0.2374 -0.0779  0.6172
22316SOL    HW168389   6.738   4.828   1.451 -0.4560 -0.6416 -0.1575
22316SOL    HW268390   6.850   4.925   1.417 -0.9053  0.8318  2.3397
22317SOL     OW68391   5.975   6.538   0.787 -0.1755 -0.0421  0.7634
22317SOL    HW168392   5.929   6.455   0.801  0.6565 -0.8773 -1.1886
22317SOL    HW268393   6.049   6.534   0.848 -1.0013  0.0027  1.8044
22318SOL     OW68394   7.074   5.914  12.203 -0.0415 -0.1538 -0.5736
22318SOL    HW168395   7.081   5.828  12.163  0.6592 -0.9606  1.1887
22318SOL    HW268396   7.009   5.903  12.272 -2.0855  1.4905 -2.1213
22319SOL     OW68397   6.249   7.525   0.992 -0.6763 -0.1608 -0.2189
22319SOL    HW168398   6.231   7.521   1.086  0.0963  0.3555 -0.0414
22319SOL    HW268399   6.220   7.440   0.958 -1.4249 -0.1575  0.3977
22320SOL     OW68400   7.032   0.151   1.028  0.4224  0.3597  0.8675
22320SOL    HW168401   7.024   0.216   1.097 -0.9613 -0.3121  1.3706
22320SOL    HW268402   7.074   0.198   0.956  0.3701  1.5234  1.5691
22321SOL     OW68403   6.375   5.271   0.654  0.5581 -0.5156 -0.0122
22321SOL    HW168404   6.374   5.197   0.715  0.0587 -0.5927 -0.1143
22321SOL    HW268405   6.284   5.297   0.644  0.8053  0.7538  0.7829
22322SOL     OW68406   6.252   5.697   1.782  0.3860  0.8330  0.1799
22322SOL    HW168407   6.285   5.702   1.872  0.1478  1.3053  0.2439
22322SOL    HW268408   6.161   5.725   1.789  0.1556  0.1647 -0.0972
22323SOL     OW68409   4.340   6.500   1.917 -0.0919 -1.0970  0.7307
22323SOL    HW168410   4.294   6.427   1.960 -2.1808  1.7860  3.9072
22323SOL    HW268411   4.404   6.529   1.982 -0.2285  0.7007  0.1075
22324SOL     OW68412   5.208   4.920   2.844 -0.2417  0.6176 -0.2265
22324SOL    HW168413   5.123   4.892   2.879 -0.5292  1.1711 -0.4655
22324SOL    HW268414   5.219   5.009   2.877  0.3323  0.4858 -0.0573
22325SOL     OW68415   7.455   6.563   2.946  0.0406 -0.0813 -0.3422
22325SOL    HW168416   7.549   6.574   2.931 -0.2481 -0.2395 -2.5964
22325SOL    HW268417   7.425   6.648   2.978  1.0887 -0.3362  1.4544
22326SOL     OW68418   6.079   5.729   0.294  0.9634  0.4682 -0.4387
22326SOL    HW168419   6.131   5.726   0.213  1.1335 -0.8790 -0.2961
22326SOL    HW268420   5.989   5.739   0.264  0.8909 -1.2260 -0.8739
22327SOL     OW68421   6.834   1.361   2.585 -0.2357 -0.1144 -0.1696
22327SOL    HW168422   6.842   1.290   2.649 -0.0021  0.2799  0.2411
22327SOL    HW268423   6.921   1.365   2.544 -0.4704 -0.5665 -0.7359
22328SOL     OW68424   7.525   1.035   2.695 -0.1731 -0.5275 -0.2090
22328SOL    HW168425   7.454   1.072   2.642 -0.4403 -1.0157 -0.1958
22328SOL    HW268426   7.597   1.021   2.633 -0.0139  0.1394 -0.1892
22329SOL     OW68427   5.703   4.978   3.092 -0.1571 -0.1230 -0.1750
22329SOL    HW168428   5.711   5.015   3.004 -0.3716 -1.1079 -0.6215
22329SOL    HW268429   5.611   4.954   3.099 -0.3979  0.9748  0.7605
22330SOL     OW68430   5.313   7.119   2.215 -0.8788  0.2845  0.0348
22330SOL    HW168431   5.223   7.087   2.203 -1.4063  1.9527 -0.6929
22330SOL    HW268432   5.343   7.141   2.127  0.2243 -0.1221  0.2841
22331SOL     OW68433   5.608   6.126   5.223 -0.3996  0.2802 -0.0571
22331SOL    HW168434   5.595   6.217   5.194 -0.9884 -0.2565 -1.5765
22331SOL    HW268435   5.684   6.096   5.174  0.9221  0.4615  1.7781
22332SOL     OW68436   6.907   7.844   3.511 -0.2600  0.2166  0.2264
22332SOL    HW168437   6.924   7.927   3.467 -0.1290  0.2041  0.2504
22332SOL    HW268438   6.896   7.868   3.603  0.5871  0.1182  0.3598
22333SOL     OW68439   5.551   7.436   2.765 -0.2246  0.7186 -0.3132
22333SOL    HW168440   5.540   7.525   2.798  2.4219  0.5133  1.4770
22333SOL    HW268441   5.566   7.384   2.844  1.0096 -0.8129 -1.5023
22334SOL     OW68442   6.504   7.228   4.931  0.0190  0.1172  0.5612
22334SOL    HW168443   6.429   7.281   4.958  0.4161  0.2571  1.4122
22334SOL    HW268444   6.501   7.229   4.835 -0.9168  0.3264  0.5839
22335SOL     OW68445   6.751   6.514   3.948 -0.2378  0.1205 -0.0988
22335SOL    HW168446   6.827   6.520   3.890 -0.5228 -2.5061 -0.8636
22335SOL    HW268447   6.683   6.564   3.904  0.5389  1.0999 -0.2329
22336SOL     OW68448   6.071   0.121   3.974 -0.1873  0.1685  0.0928
22336SOL    HW168449   5.983   0.147   4.000  0.6102  1.1509  2.1021
22336SOL    HW268450   6.098   0.059   4.042  0.6084 -0.2603 -0.5964
22337SOL     OW68451   6.749   7.073   4.881 -0.0298  0.2719 -0.2045
22337SOL    HW168452   6.691   7.102   4.811 -0.7785 -0.1911  0.2104
22337SOL    HW268453   6.747   7.143   4.945  1.0510  0.9237 -0.8563
22338SOL     OW68454   4.289   5.912   1.465  0.9627  0.0296 -0.2730
22338SOL    HW168455   4.293   5.918   1.561  2.5058  2.9578 -0.4143
22338SOL    HW268456   4.367   5.958   1.435 -0.6217  1.1670 -2.9556
22339SOL     OW68457   3.490   7.156   3.222  0.0448 -0.4609 -0.3580
22339SOL    HW168458   3.405   7.181   3.185  0.5468  2.6274  0.2819
22339SOL    HW268459   3.554   7.205   3.170  1.2580 -1.0390  0.5418
22340SOL     OW68460   5.922   6.551   3.946 -0.0717 -0.4189 -0.2872
22340SOL    HW168461   5.919   6.462   3.981  2.9376 -0.9748 -1.1664
22340SOL    HW268462   5.870   6.603   4.008 -1.1834 -2.5939  0.7218
22341SOL     OW68463   4.985   7.017   2.910  0.1485  0.3455 -0.0641
22341SOL    HW168464   4.914   6.954   2.920 -0.2171  0.6514 -0.6844
22341SOL    HW268465   4.952   7.080   2.846  0.3194  1.4382  0.8916
22342SOL     OW68466   6.970   6.905   5.140  0.5233  0.8562 -0.1788
22342SOL    HW168467   6.967   6.885   5.046  0.0450  0.1440 -0.0221
22342SOL    HW268468   7.042   6.967   5.149  0.7620  0.7122 -0.9807
22343SOL     OW68469   5.132   6.734   1.602  0.1965  0.5455  0.1964
22343SOL    HW168470   5.090   6.810   1.562  1.4317  0.0294 -2.3390
22343SOL    HW268471   5.200   6.771   1.659 -1.1759  1.3229  1.3758
22344SOL     OW68472   6.742   6.044   0.477 -0.1162 -0.3580  0.1425
22344SOL    HW168473   6.658   6.089   0.475  0.5572  1.3043  3.3495
22344SOL    HW268474   6.801   6.102   0.429 -0.6962 -1.5801 -2.2112
22345SOL     OW68475   6.306   5.632   2.397  0.1956  0.1146 -0.3248
22345SOL    HW168476   6.264   5.562   2.347 -0.9472 -0.7603  1.7080
22345SOL    HW268477   6.395   5.638   2.362  0.2060 -2.1232 -0.7968
22346SOL     OW68478   7.165   5.914   2.306 -0.4992 -0.4724  0.3703
22346SOL    HW168479   7.075   5.946   2.297  0.0439  0.5849 -2.6562
22346SOL    HW268480   7.219   5.992   2.293  0.8471 -1.6015 -1.2427
22347SOL     OW68481   5.679   0.784   3.637 -0.5088  0.4340 -0.0400
22347SOL    HW168482   5.634   0.733   3.569  1.0064 -0.0497 -0.7332
22347SOL    HW268483   5.660   0.875   3.615 -1.7077  0.2252  0.0996
22348SOL     OW68484   7.277   4.395   2.817  0.2244  0.0340 -0.1136
22348SOL    HW168485   7.243   4.398   2.728  0.1020 -0.7793 -0.1030
22348SOL    HW268486   7.203   4.365   2.870  0.5575 -0.4002  0.1168
22349SOL     OW68487   6.484   0.381   4.863  0.2311  0.3498 -0.6360
22349SOL    HW168488   6.574   0.377   4.833 -0.0346 -3.0606 -1.3599
22349SOL    HW268489   6.432   0.392   4.784 -0.0801 -0.0518 -0.4936
22350SOL     OW68490   6.059   7.239   3.154 -0.2453 -0.0158  0.2578
22350SOL    HW168491   6.040   7.167   3.214 -0.3759  0.4858  0.8293
22350SOL    HW268492   6.059   7.199   3.067 -0.3666 -0.6927  0.5666
22351SOL     OW68493   6.873   5.496   3.543  0.4835 -0.1570 -0.2526
22351SOL    HW168494   6.798   5.436   3.549  1.1016 -1.0768 -1.3899
22351SOL    HW268495   6.834   5.583   3.544 -0.8611 -0.6132 -3.1510
22352SOL     OW68496   6.639   5.615   4.161 -0.1183 -0.2665  0.1283
22352SOL    HW168497   6.589   5.611   4.080  0.4294  1.3259 -0.3185
22352SOL    HW268498   6.728   5.589   4.136  0.2627  1.1095  0.0134
22353SOL     OW68499   5.618   7.325   1.345 -0.5496 -0.4307 -0.4754
22353SOL    HW168500   5.634   7.308   1.438 -1.9834 -1.4141 -0.3688
22353SOL    HW268501   5.575   7.410   1.343 -0.8749 -0.5859 -0.1881
22354SOL     OW68502   5.531   6.764   6.202  0.1629  0.2616  0.0161
22354SOL    HW168503   5.470   6.783   6.273  0.0529 -1.1141  0.3130
22354SOL    HW268504   5.522   6.839   6.143 -1.3977  0.3714  0.3365
22355SOL     OW68505   6.702   5.901   4.224 -0.0948  0.1408  0.4277
22355SOL    HW168506   6.751   5.951   4.289 -0.3512 -0.3433  1.0019
22355SOL    HW268507   6.700   5.812   4.259  1.9794 -0.7516 -1.4816
22356SOL     OW68508   7.534   1.429   2.780  0.3217 -0.3824  0.1358
22356SOL    HW168509   7.454   1.376   2.777  0.3214 -0.3765 -2.5390
22356SOL    HW268510   7.598   1.373   2.825 -0.4327 -1.5639 -0.2080
22357SOL     OW68511   5.059   0.186   2.137  0.0820  0.0759  0.5247
22357SOL    HW168512   5.067   0.205   2.044 -0.8422 -1.9750 -0.0292
22357SOL    HW268513   5.137   0.225   2.176  1.3571 -0.4619 -1.3591
22358SOL     OW68514   7.126   7.413   2.429  0.1375  0.3706 -0.0348
22358SOL    HW168515   7.188   7.451   2.367  1.7767 -1.1780  0.5678
22358SOL    HW268516   7.062   7.368   2.374  1.4921 -0.8749 -0.6640
22359SOL     OW68517   6.241   4.037   4.216  0.1134 -0.4473  0.1459
22359SOL    HW168518   6.245   4.102   4.286 -0.4866 -0.2832  0.0251
22359SOL    HW268519   6.223   3.954   4.262 -0.6330 -0.2831  0.1530
22360SOL     OW68520   6.616   7.637   1.745  0.0239  0.4589  0.3872
22360SOL    HW168521   6.688   7.640   1.809  0.0396 -1.3717  0.5177
22360SOL    HW268522   6.657   7.659   1.662 -0.0530  3.1880  0.9856
22361SOL     OW68523   5.507   5.059   2.025  0.7151 -0.1999 -0.2235
22361SOL    HW168524   5.566   5.134   2.022  0.4837 -0.0240 -0.3902
22361SOL    HW268525   5.499   5.031   1.933  1.9798 -1.3553 -0.0169
22362SOL     OW68526   6.236   5.247   3.056  0.1814 -0.4559 -0.0403
22362SOL    HW168527   6.230   5.339   3.079 -2.1635 -0.3540 -0.8114
22362SOL    HW268528   6.224   5.201   3.140 -0.4221 -0.0434  0.1112
22363SOL     OW68529   4.586   5.434   3.606  0.1765 -0.3804  0.2361
22363SOL    HW168530   4.651   5.466   3.543 -1.9126  1.9821 -0.8783
22363SOL    HW268531   4.508   5.420   3.553 -1.4801  1.0992  2.1640
22364SOL     OW68532   7.079   6.299   2.271 -0.0195  0.3739 -0.2410
22364SOL    HW168533   7.116   6.272   2.187 -1.1080  2.2682 -1.4284
22364SOL    HW268534   7.019   6.229   2.294 -0.5643  0.3230 -1.6682
22365SOL     OW68535   5.773   7.839   2.394 -0.5503  0.1849  0.9276
22365SOL    HW168536   5.819   7.915   2.430 -1.2983  1.2920 -0.3622
22365SOL    HW268537   5.832   7.804   2.328 -0.2530 -0.2982  1.4441
22366SOL     OW68538   5.137   6.458   1.900 -0.4615  0.2941 -0.1647
22366SOL    HW168539   5.090   6.472   1.818 -1.1019  0.6378  0.2507
22366SOL    HW268540   5.165   6.367   1.896  1.8467  0.9609 -1.9326
22367SOL     OW68541   4.708   7.697   2.654 -0.1509  0.3085 -0.6332
22367SOL    HW168542   4.629   7.697   2.708  0.6712  0.3735  0.6055
22367SOL    HW268543   4.729   7.605   2.641  0.1272  0.2928 -0.1035
22368SOL     OW68544   5.428   6.733  12.373 -0.1661 -0.1998  0.4933
22368SOL    HW168545   5.414   6.706  12.283 -1.1299  0.2627  0.4861
22368SOL    HW268546   5.393   6.661  12.426 -0.8467  0.1073  0.4798
22369SOL     OW68547   6.772   5.649   3.147 -0.3732  0.5003  0.3415
22369SOL    HW168548   6.806   5.725   3.193 -0.8012  0.7929  0.1867
22369SOL    HW268549   6.677   5.658   3.153 -0.4302 -0.2505  0.6875
22370SOL     OW68550   6.116   6.223   2.780 -0.4508 -0.1537  0.3963
22370SOL    HW168551   6.079   6.293   2.834  0.6683  0.2904  0.6239
22370SOL    HW268552   6.203   6.206   2.818 -0.2603 -0.9017 -0.3278
22371SOL     OW68553   5.363   4.012   1.792  0.1198  0.3727  0.2772
22371SOL    HW168554   5.336   4.074   1.859 -0.7273 -1.1315  1.3798
22371SOL    HW268555   5.383   3.931   1.840 -0.6579 -0.7989 -1.2755
22372SOL     OW68556   0.035   7.287   1.565 -0.7311 -0.2472  0.1350
22372SOL    HW168557   0.126   7.262   1.551 -1.1140 -2.1491  0.7174
22372SOL    HW268558  -0.005   7.280   1.478 -0.5833 -0.6560  0.0956
22373SOL     OW68559   6.700   7.871   1.544  1.2037 -0.5380 -0.7200
22373SOL    HW168560   6.715   7.791   1.494  1.1791 -0.1832 -1.3079
22373SOL    HW268561   6.751   7.938   1.499  0.9149 -0.1410 -0.4688
22374SOL     OW68562   7.504   7.211   2.068  0.5878  0.8813  0.4060
22374SOL    HW168563   7.489   7.142   2.003  1.4591  2.1096 -1.1671
22374SOL    HW268564   7.597   7.205   2.088  0.5541  1.2612  0.6853
22375SOL     OW68565   6.400   7.683   2.505 -0.2807 -0.5410  0.3184
22375SOL    HW168566   6.389   7.744   2.432 -2.4154 -1.4543 -0.1958
22375SOL    HW268567   6.349   7.606   2.480  1.9104 -2.3959  1.1564
22376SOL     OW68568   7.047   6.269  12.419 -0.6186  0.0193 -0.4378
22376SOL    HW168569   7.091   6.219  12.488 -1.4896  0.3873  0.4131
22376SOL    HW268570   6.972   6.309  12.463 -1.8996 -0.7054 -1.8629
22377SOL     OW68571   5.688   4.593   2.206  0.0251 -0.4575 -0.0487
22377SOL    HW168572   5.651   4.679   2.221 -1.5270 -0.9845 -0.6553
22377SOL    HW268573   5.614   4.539   2.178  1.0914 -1.7938 -0.4343
22378SOL     OW68574   5.719   5.680   2.839 -0.5968 -0.0785  0.2338
22378SOL    HW168575   5.643   5.641   2.797 -0.5355 -1.3359  1.2327
22378SOL    HW268576   5.794   5.640   2.796 -0.5192 -0.1073  0.3944
22379SOL     OW68577   5.828   6.662   3.501 -0.3548  0.2421 -0.0768
22379SOL    HW168578   5.891   6.734   3.492  0.7167 -0.7078 -0.3348
22379SOL    HW268579   5.860   6.594   3.442  0.1381 -1.4676  2.0410
22380SOL     OW68580   6.057   5.325   2.866 -0.6760 -0.2735 -0.4783
22380SOL    HW168581   5.981   5.350   2.919 -0.0403 -0.8978  0.7617
22380SOL    HW268582   6.124   5.301   2.929  0.7613  0.7891 -1.5270
22381SOL     OW68583   6.797   6.566   2.804  0.5044 -0.5005  0.0357
22381SOL    HW168584   6.840   6.614   2.875 -1.1324  1.5710 -0.2724
22381SOL    HW268585   6.789   6.476   2.837 -0.2841  0.4065  2.5712
22382SOL     OW68586   5.601   6.134   2.395 -0.0605 -0.7203 -0.1101
22382SOL    HW168587   5.673   6.146   2.334 -1.2572 -0.2800 -1.4767
22382SOL    HW268588   5.586   6.039   2.396  1.2693 -0.9622  1.1142
22383SOL     OW68589   5.416   6.362   0.461 -0.2197  0.3334 -0.2072
22383SOL    HW168590   5.405   6.267   0.461 -0.2284  0.2924 -2.2327
22383SOL    HW268591   5.370   6.391   0.540  0.4558 -1.3897  0.8672
22384SOL     OW68592   6.145   7.534   2.844 -0.0735 -0.3054 -0.0794
22384SOL    HW168593   6.103   7.608   2.887 -0.9200 -0.7398 -0.1425
22384SOL    HW268594   6.082   7.506   2.778  0.5676 -0.5989 -0.5790
22385SOL     OW68595   5.309   0.396   3.814 -0.4364  0.3216 -0.2933
22385SOL    HW168596   5.387   0.447   3.835 -0.4310  0.7522 -1.2910
22385SOL    HW268597   5.244   0.424   3.879 -0.1250  0.8532 -0.2038
22386SOL     OW68598   5.383   6.474   3.109 -0.8346  0.7078 -0.7021
22386SOL    HW168599   5.372   6.398   3.052  2.1454 -1.5309  1.3674
22386SOL    HW268600   5.362   6.441   3.197 -0.1309  2.4753  0.1770
22387SOL     OW68601   7.025   4.880   3.822  0.0448  0.4719 -0.0963
22387SOL    HW168602   6.998   4.847   3.736 -0.7054  0.1193  0.2616
22387SOL    HW268603   7.083   4.953   3.803  0.1574  0.1842 -0.9048
22388SOL     OW68604   4.696   4.212   1.002 -0.5784  0.0999 -0.1191
22388SOL    HW168605   4.707   4.120   0.979  1.4471  0.1513  0.5025
22388SOL    HW268606   4.617   4.214   1.056  0.6507 -1.6909  1.8951
22389SOL     OW68607   3.805   5.754   4.370  0.1309  0.1455  0.3810
22389SOL    HW168608   3.888   5.707   4.364  0.2136  0.2536  0.6452
22389SOL    HW268609   3.771   5.755   4.280 -1.3502 -3.0412  0.7651
22390SOL     OW68610   6.048   6.367   2.560  0.0879 -0.0451 -0.0965
22390SOL    HW168611   6.076   6.312   2.633 -0.7025  0.2424  0.4437
22390SOL    HW268612   5.958   6.392   2.582 -0.5615 -0.8180 -1.6883
22391SOL     OW68613   5.009   5.957   1.706 -0.3674  0.3744  0.3167
22391SOL    HW168614   5.055   5.979   1.787  1.5837  0.1316 -0.6787
22391SOL    HW268615   4.973   6.041   1.675 -0.2103  0.6487  0.8736
22392SOL     OW68616   5.445   5.871   2.693  0.3621  0.2072  0.0296
22392SOL    HW168617   5.503   5.862   2.617  1.7764 -0.4397  1.1357
22392SOL    HW268618   5.436   5.783   2.727 -0.3797  0.4701  0.5473
22393SOL     OW68619   4.626   5.713   3.122  0.5152  0.8055  0.0978
22393SOL    HW168620   4.556   5.779   3.118  0.9091  1.1918 -2.4921
22393SOL    HW268621   4.698   5.757   3.168  0.3973  1.8369 -0.6706
22394SOL     OW68622   6.498   5.815   1.272  0.6021 -0.1629  0.5158
22394SOL    HW168623   6.532   5.726   1.282 -0.8571 -1.2411 -2.5560
22394SOL    HW268624   6.413   5.813   1.316 -1.0510 -1.5664 -2.4014
22395SOL     OW68625   5.901   7.520   2.703  0.0513  0.7462  0.0355
22395SOL    HW168626   5.889   7.478   2.789  2.3326 -1.8562 -0.7380
22395SOL    HW268627   5.823   7.573   2.690 -0.7097  0.6525  3.3845
22396SOL     OW68628   4.398   5.396   2.750  0.1295 -0.4876  0.2794
22396SOL    HW168629   4.430   5.486   2.749  0.6246 -0.6524  0.5560
22396SOL    HW268630   4.428   5.361   2.834 -0.4874 -0.7610  0.3912
22397SOL     OW68631   6.901   5.377   2.918  0.3730  0.1726  0.5747
22397SOL    HW168632   6.875   5.376   3.010 -0.6388 -0.7585  0.2980
22397SOL    HW268633   6.951   5.296   2.906  1.2316  0.7082  0.4993
22398SOL     OW68634   6.383   7.438   3.824 -0.0534 -0.1313  0.0991
22398SOL    HW168635   6.313   7.376   3.799 -0.9624  1.0875 -0.5140
22398SOL    HW268636   6.344   7.524   3.810  1.5792  0.5962 -0.2252
22399SOL     OW68637   6.868   7.815   2.174  0.1575 -0.2760  0.7794
22399SOL    HW168638   6.897   7.903   2.196  2.6459 -0.1604 -2.1708
22399SOL    HW268639   6.917   7.758   2.234 -1.5559  0.2363  2.7778
22400SOL     OW68640   5.290   4.175   2.473 -0.0932  0.1864  0.1911
22400SOL    HW168641   5.262   4.143   2.387 -1.0833 -1.7608  1.1729
22400SOL    HW268642   5.344   4.252   2.453  0.9685 -1.0765 -2.2448
22401SOL     OW68643   6.930   1.134   2.752  0.1429  0.2374 -0.1821
22401SOL    HW168644   6.967   1.060   2.703  0.0980 -0.4522  0.7987
22401SOL    HW268645   6.873   1.093   2.817  0.2635  1.1334  0.4994
22402SOL     OW68646   6.444   5.684   0.391 -0.1885 -0.1393  0.4812
22402SOL    HW168647   6.492   5.681   0.474 -0.6644 -2.9914  0.7517
22402SOL    HW268648   6.490   5.751   0.339  0.6183  1.1336  2.7112
22403SOL     OW68649   5.824   6.129   4.533 -0.5473  0.7961  0.1864
22403SOL    HW168650   5.809   6.059   4.596  0.9925 -0.5658 -0.8815
22403SOL    HW268651   5.885   6.188   4.577  0.5128 -0.1432  0.0272
22404SOL     OW68652   4.084   6.003   3.002  0.0277  0.3192 -0.2588
22404SOL    HW168653   4.174   6.009   3.034  0.2515 -0.8420 -0.6253
22404SOL    HW268654   4.085   5.928   2.942 -0.9299  0.9703 -1.1217
22405SOL     OW68655   7.262   5.094   4.026 -0.2045 -0.3599  0.0095
22405SOL    HW168656   7.262   5.091   3.930 -0.1076  1.3583 -0.0770
22405SOL    HW268657   7.353   5.111   4.050  0.0150 -2.0058  0.5095
22406SOL     OW68658   4.633   5.801   0.447  0.2814  0.0393 -0.6254
22406SOL    HW168659   4.540   5.783   0.444  0.1796  0.5591 -0.6853
22406SOL    HW268660   4.640   5.886   0.491  0.6059  0.7245 -1.9459
22407SOL     OW68661   7.311   0.228   1.969  0.9429 -0.6281  0.4913
22407SOL    HW168662   7.289   0.225   1.876 -1.3169 -1.5467  0.9848
22407SOL    HW268663   7.312   0.137   1.997  2.2494 -0.4081  1.2605
22408SOL     OW68664   4.944   7.239   1.104 -0.2858  0.6827  0.2346
22408SOL    HW168665   4.877   7.301   1.075  0.1634  0.1712 -2.2016
22408SOL    HW268666   4.904   7.153   1.092  0.2438  0.4250  0.2667
22409SOL     OW68667   5.339   6.469   5.145 -0.2797 -0.1970 -0.3505
22409SOL    HW168668   5.372   6.556   5.124 -0.9811  0.6180  1.7465
22409SOL    HW268669   5.301   6.438   5.063 -0.3282  1.6094 -1.0568
22410SOL     OW68670   5.508   6.083   1.760 -0.3030 -0.4181 -0.0605
22410SOL    HW168671   5.594   6.123   1.748 -0.2774  0.0605  1.4987
22410SOL    HW268672   5.510   6.047   1.849 -1.6710 -0.5106 -0.0386
22411SOL     OW68673   0.341   6.828   1.486 -0.2110  0.7054  0.1371
22411SOL    HW168674   0.304   6.908   1.523 -0.6298  1.1550 -1.2300
22411SOL    HW268675   0.285   6.758   1.521 -1.1238  1.2000 -0.2969
22412SOL     OW68676   6.764   4.292  11.853  0.0476  0.2242  0.4002
22412SOL    HW168677   6.735   4.367  11.801  1.6319  1.7899  1.6383
22412SOL    HW268678   6.742   4.316  11.944  1.0932 -0.5352  0.8708
22413SOL     OW68679   5.048   6.579   1.255  0.5615 -0.6583  0.2955
22413SOL    HW168680   5.008   6.666   1.252  1.4266 -0.1089  2.4031
22413SOL    HW268681   5.130   6.593   1.302  0.7870 -2.5913  0.5472
22414SOL     OW68682   6.458   4.912   3.747 -0.5971 -0.1582 -0.2575
22414SOL    HW168683   6.466   4.928   3.841 -0.2902  1.2286 -0.4917
22414SOL    HW268684   6.418   4.825   3.741 -1.3821  0.0696  1.1578
22415SOL     OW68685   6.255   0.217   2.287  0.2197 -0.2864 -0.7972
22415SOL    HW168686   6.300   0.287   2.334  1.8889 -2.0291  0.3345
22415SOL    HW268687   6.165   0.248   2.279  0.7595  1.7194  0.1666
22416SOL     OW68688   6.612   7.156   4.117 -0.1088  0.0316  0.1903
22416SOL    HW168689   6.672   7.139   4.044  0.8809 -0.9808  1.1988
22416SOL    HW268690   6.588   7.069   4.149  1.8226  0.3924  2.9108
22417SOL     OW68691   6.521   7.874   4.545 -0.4222 -0.0091  0.0949
22417SOL    HW168692   6.435   7.833   4.555 -0.0803 -0.8237 -0.2156
22417SOL    HW268693   6.578   7.826   4.605  0.4452 -1.4009 -1.7447
22418SOL     OW68694   0.983   5.840   4.681  0.2482 -0.1438  0.1625
22418SOL    HW168695   1.041   5.814   4.609 -0.8723 -0.6758 -0.5746
22418SOL    HW268696   0.940   5.759   4.707  1.2476 -0.1196  2.0326
22419SOL     OW68697   6.852   5.404   3.207 -0.0738 -0.3763  0.7284
22419SOL    HW168698   6.823   5.493   3.185  0.1463 -0.0056  1.8290
22419SOL    HW268699   6.773   5.360   3.238 -0.3566 -0.8529 -0.6332
22420SOL     OW68700   6.680   7.165   2.639  0.3260  0.4978  0.0056
22420SOL    HW168701   6.682   7.096   2.572  0.6073  0.9738 -0.4835
22420SOL    HW268702   6.749   7.140   2.701 -0.9043 -0.7334  0.9308
22421SOL     OW68703   6.895   0.137   2.511  0.5060 -0.2813 -0.0772
22421SOL    HW168704   6.801   0.152   2.518  0.7071  0.4390  1.5875
22421SOL    HW268705   6.917   0.083   2.587  1.4224 -0.4951 -0.4832
22422SOL     OW68706   6.452   5.931   2.781  0.0786  0.4050  0.0884
22422SOL    HW168707   6.373   5.893   2.742 -1.7306  2.0548  1.8367
22422SOL    HW268708   6.501   5.857   2.814  0.3196 -0.8241 -2.7723
22423SOL     OW68709   6.626   7.437   2.868 -0.5213 -0.3991  0.1670
22423SOL    HW168710   6.557   7.478   2.816  0.5014  0.4423 -0.5830
22423SOL    HW268711   6.703   7.493   2.855  0.5595 -1.7848  0.2197
22424SOL     OW68712   4.393   7.779   4.501 -0.2068 -0.5400 -0.2324
22424SOL    HW168713   4.479   7.768   4.542 -0.1828 -1.0591 -0.4038
22424SOL    HW268714   4.335   7.724   4.553 -0.4048 -0.2925 -0.1967
22425SOL     OW68715   6.546   6.033   1.823  0.3849  0.1265  0.1783
22425SOL    HW168716   6.515   5.949   1.855  0.9887 -0.4111 -0.5906
22425SOL    HW268717   6.584   6.076   1.899  2.8218 -1.5929  0.0688
22426SOL     OW68718   6.471   6.460   4.066 -0.1402 -0.2025  0.1454
22426SOL    HW168719   6.379   6.479   4.052 -0.2322 -1.6233 -1.4896
22426SOL    HW268720   6.507   6.539   4.106 -1.9053  0.6317  0.1327
22427SOL     OW68721   6.652   6.966   1.693 -0.3180 -0.5322  0.3160
22427SOL    HW168722   6.682   7.018   1.768  3.4264 -1.3285 -0.4059
22427SOL    HW268723   6.587   7.021   1.650  1.3052  2.2917  1.2187
22428SOL     OW68724   7.137   1.314   2.845  0.4541  0.1023 -0.0322
22428SOL    HW168725   7.078   1.246   2.812  1.2171 -0.4930 -0.1983
22428SOL    HW268726   7.225   1.283   2.823  0.8460  0.9173  0.3158
22429SOL     OW68727   6.607   6.895   1.066 -0.1130  0.2761  0.1012
22429SOL    HW168728   6.652   6.929   0.988 -0.7734  1.2792  0.1357
22429SOL    HW268729   6.516   6.883   1.039 -0.5087  1.2911  0.8729
22430SOL     OW68730   7.521   5.541   2.450 -0.3770  0.6529 -0.0319
22430SOL    HW168731   7.480   5.627   2.437 -1.4075  0.2945  0.6953
22430SOL    HW268732   7.447   5.481   2.456  0.2285  0.0332  1.7521
22431SOL     OW68733   5.301   5.523   3.647 -0.7485 -0.5075  0.2017
22431SOL    HW168734   5.244   5.495   3.718  1.9894 -0.8604  2.4344
22431SOL    HW268735   5.279   5.615   3.634 -1.1812 -0.3827  1.6539
22432SOL     OW68736   6.106   6.886   4.284 -0.0876 -0.6458 -0.3510
22432SOL    HW168737   6.073   6.964   4.329  1.0074  0.7600 -1.8708
22432SOL    HW268738   6.151   6.837   4.353  1.2762  1.2975  0.2385
22433SOL     OW68739   6.138   6.325   4.387 -0.6871  0.4884 -0.8457
22433SOL    HW168740   6.151   6.323   4.293 -0.9596  1.4447 -0.9122
22433SOL    HW268741   6.052   6.287   4.401 -0.1711 -0.7234 -0.8739
22434SOL     OW68742   5.730   5.845   2.186 -0.4195  0.4222  0.5112
22434SOL    HW168743   5.800   5.795   2.145 -0.4667 -0.0581  1.0029
22434SOL    HW268744   5.775   5.916   2.233 -0.4126  1.4325 -0.9617
22435SOL     OW68745   5.295   5.776   1.862 -0.0771 -0.1686  0.0376
22435SOL    HW168746   5.328   5.761   1.774  1.7274  0.5007  0.5461
22435SOL    HW268747   5.323   5.699   1.911  2.1247  1.0380  0.8064
22436SOL     OW68748   6.579   6.322   1.409 -0.1552 -0.0515  0.1625
22436SOL    HW168749   6.507   6.287   1.357 -1.0296  0.0498  1.2539
22436SOL    HW268750   6.618   6.389   1.354 -1.3708  0.4114 -0.1740
22437SOL     OW68751   6.825   6.987  11.546 -0.1945  0.4478  0.3783
22437SOL    HW168752   6.732   7.007  11.537 -0.1248  0.1700 -1.2458
22437SOL    HW268753   6.850   7.028  11.629 -1.0869  3.1953 -0.5897
22438SOL     OW68754   5.389   6.781   2.518 -0.6244 -0.6086  0.2679
22438SOL    HW168755   5.417   6.833   2.443  0.1457  0.2114  1.1000
22438SOL    HW268756   5.451   6.707   2.520  0.6255  0.4194  1.2322
22439SOL     OW68757   5.701   6.816   3.086  0.1299 -0.3150 -0.3978
22439SOL    HW168758   5.796   6.818   3.078  0.1776  0.9684  0.1364
22439SOL    HW268759   5.676   6.729   3.056  1.3270 -0.1666 -1.9412
22440SOL     OW68760   5.199   5.151   1.479 -0.3614  0.0162 -0.1251
22440SOL    HW168761   5.228   5.060   1.476 -0.8315 -0.1078 -2.8613
22440SOL    HW268762   5.105   5.148   1.461 -0.5953  1.0073  0.7637
22441SOL     OW68763   7.261   5.212   3.462  0.0203  0.3452  0.2813
22441SOL    HW168764   7.333   5.166   3.506 -0.0115  0.6266  0.6325
22441SOL    HW268765   7.242   5.159   3.385  0.0151 -0.2144  0.6574
22442SOL     OW68766   6.601   4.258   1.762 -0.4920  0.1485  0.0367
22442SOL    HW168767   6.673   4.255   1.825  0.4148  1.9399 -0.8356
22442SOL    HW268768   6.644   4.268   1.677 -1.7504 -0.0678 -0.6553
22443SOL     OW68769   7.519   4.489   1.048  0.5869  0.3049  0.1325
22443SOL    HW168770   7.487   4.414   0.997 -1.3320  1.2786 -0.1913
22443SOL    HW268771   7.609   4.500   1.020  0.5110 -1.0773 -0.7859
22444SOL     OW68772   6.674   6.046   3.885 -0.4843  0.1427  0.6011
22444SOL    HW168773   6.638   6.042   3.974 -0.1446  0.8450  0.7793
22444SOL    HW268774   6.748   6.107   3.893 -0.3163  0.0287 -0.1143
22445SOL     OW68775   6.787   7.605   1.491 -0.0373 -0.0763 -1.0436
22445SOL    HW168776   6.841   7.644   1.422 -0.2417 -0.2264 -1.2915
22445SOL    HW268777   6.846   7.543   1.534  0.7515  1.5499  0.3349
22446SOL     OW68778   7.319   0.732   3.438 -0.1750 -0.1981  0.0853
22446SOL    HW168779   7.234   0.760   3.404  0.3536  1.1827 -0.1566
22446SOL    HW268780   7.383   0.782   3.387  0.7340 -0.3086  1.0870
22447SOL     OW68781   5.146   6.836   4.798 -0.0014  0.2549 -0.4656
22447SOL    HW168782   5.224   6.851   4.853 -0.9503 -0.4111  1.1464
22447SOL    HW268783   5.181   6.829   4.709  2.0544 -1.8741  0.3951
22448SOL     OW68784   6.873   5.568   2.118  0.1625  0.1779 -0.1002
22448SOL    HW168785   6.927   5.559   2.196  1.0566  0.0192 -0.7271
22448SOL    HW268786   6.851   5.661   2.115  1.4603  0.4912 -0.5188
22449SOL     OW68787   7.801   6.925   1.538  0.3039 -0.0216 -0.4005
22449SOL    HW168788   7.733   6.868   1.574 -0.2217 -0.1677 -1.5917
22449SOL    HW268789   7.855   6.866   1.484 -0.0505  0.5341 -1.3833
22450SOL     OW68790   6.279   6.863   1.804 -0.1556  0.1139  0.1516
22450SOL    HW168791   6.207   6.799   1.802 -0.7936  0.8362 -0.4579
22450SOL    HW268792   6.298   6.881   1.712 -0.7950  1.6844  0.3000
22451SOL     OW68793   5.246   6.039   2.692 -0.2005 -0.1060  0.0133
22451SOL    HW168794   5.306   6.113   2.695 -0.5209  0.1303  0.8564
22451SOL    HW268795   5.304   5.962   2.684  0.1062  0.2495 -1.3850
22452SOL     OW68796   4.425   7.045   2.377 -0.6129 -0.1776 -0.2506
22452SOL    HW168797   4.466   7.051   2.291 -1.0389  2.1625 -0.3384
22452SOL    HW268798   4.332   7.054   2.360 -0.7139  0.1291  0.4309
22453SOL     OW68799   5.323   3.294   2.870 -0.3157  0.5825 -0.1271
22453SOL    HW168800   5.248   3.257   2.917  0.3003  0.4011  0.7498
22453SOL    HW268801   5.285   3.356   2.809 -1.3436 -1.0365 -1.2065
22454SOL     OW68802   6.278   6.741   2.178 -0.3024  0.5284  0.4604
22454SOL    HW168803   6.360   6.758   2.130 -2.1403  0.5950 -2.9838
22454SOL    HW268804   6.274   6.811   2.244  1.6855  1.4309 -0.2881
22455SOL     OW68805   3.937   6.715   0.624 -0.1433 -0.1935 -0.0774
22455SOL    HW168806   3.990   6.779   0.672 -0.8457  0.9002 -0.7004
22455SOL    HW268807   3.996   6.641   0.610  0.4503 -0.0310  1.3627
22456SOL     OW68808   7.884   0.336   2.886  0.4231  0.3346 -0.0509
22456SOL    HW168809   7.939   0.372   2.955  4.3040 -1.7592 -1.6544
22456SOL    HW268810   7.850   0.254   2.922  1.9308 -0.4426 -0.2898
22457SOL     OW68811   4.481   6.463   1.432 -0.1616 -0.1522  0.6645
22457SOL    HW168812   4.402   6.444   1.483  0.8327 -0.4260  2.1895
22457SOL    HW268813   4.488   6.559   1.434 -0.6030 -0.1111  0.2885
22458SOL     OW68814   6.295   5.753   3.399  0.6710  0.0438  0.4259
22458SOL    HW168815   6.226   5.818   3.386  0.4529 -0.1714  0.4976
22458SOL    HW268816   6.308   5.751   3.494 -0.3068 -1.0219  0.5556
22459SOL     OW68817   5.291   5.658   0.817  0.8807  0.3997  0.6908
22459SOL    HW168818   5.209   5.698   0.847  0.4657  0.0391  0.0703
22459SOL    HW268819   5.355   5.679   0.885 -0.1459 -0.8513  2.1244
22460SOL     OW68820   5.444   6.893   3.120  0.1215  0.0826 -0.0020
22460SOL    HW168821   5.536   6.875   3.100  0.6129  1.4035  0.9110
22460SOL    HW268822   5.395   6.829   3.068  1.5526 -0.7528 -0.3823
22461SOL     OW68823   6.205   6.613   3.073 -0.0338 -0.1069  0.1189
22461SOL    HW168824   6.169   6.638   2.988 -1.1933 -1.1100  0.2778
22461SOL    HW268825   6.300   6.618   3.062 -0.1781  0.3657 -1.0382
22462SOL     OW68826   7.944   5.210   2.270  0.1311 -0.0261  0.4721
22462SOL    HW168827   7.954   5.201   2.175  0.4892  1.5838  0.3412
22462SOL    HW268828   7.867   5.156   2.290 -0.0416 -0.2712 -0.7457
22463SOL     OW68829   6.653   6.651   5.110  0.1642 -0.2503  0.0439
22463SOL    HW168830   6.596   6.718   5.149  0.6467  0.3679 -0.2905
22463SOL    HW268831   6.738   6.665   5.152 -0.0548 -1.5250  0.9463
22464SOL     OW68832   6.540   5.530   2.277  0.4371  0.7104  0.4116
22464SOL    HW168833   6.590   5.506   2.199 -0.3287 -0.6494  0.3174
22464SOL    HW268834   6.565   5.465   2.343 -0.8799  0.2645  0.4891
22465SOL     OW68835   5.875   0.518   3.983  0.0106  0.4782 -0.2636
22465SOL    HW168836   5.817   0.594   3.994 -0.4161  0.0550  0.5139
22465SOL    HW268837   5.961   0.550   4.010 -0.0604  0.8357 -0.4517
22466SOL     OW68838   5.616   5.635   0.446  0.9895 -0.1758 -0.0765
22466SOL    HW168839   5.594   5.613   0.355 -0.0899  1.1183 -0.1632
22466SOL    HW268840   5.550   5.588   0.498  1.2465 -0.4422  0.0149
22467SOL     OW68841   5.562   5.302   2.923 -0.4483  0.1851  0.1866
22467SOL    HW168842   5.486   5.247   2.942 -0.7091  1.3288  3.0119
22467SOL    HW268843   5.582   5.285   2.831 -2.3387 -2.3013  0.1329
22468SOL     OW68844   6.122   6.401   3.287  0.3964 -0.2406 -0.7643
22468SOL    HW168845   6.131   6.424   3.194  0.4833 -1.9027 -1.1883
22468SOL    HW268846   6.182   6.328   3.300 -0.0977 -0.4593  0.4548
22469SOL     OW68847   0.198   7.047   4.021  0.0676  0.1957 -0.3638
22469SOL    HW168848   0.133   6.987   3.986 -2.2403  1.1710  1.9160
22469SOL    HW268849   0.254   6.993   4.077 -0.8537 -0.1640  0.2301
22470SOL     OW68850   5.689   7.799   4.723 -0.6811 -0.6054 -0.1376
22470SOL    HW168851   5.649   7.879   4.689 -1.6157 -1.1571 -0.3902
22470SOL    HW268852   5.649   7.787   4.809  1.3808  0.5684  1.0750
22471SOL     OW68853   7.322   7.439   0.704 -0.1400 -0.0824 -0.3311
22471SOL    HW168854   7.395   7.422   0.644 -0.8907 -1.9702 -0.7828
22471SOL    HW268855   7.338   7.381   0.779 -0.2355  0.8386  0.4251
22472SOL     OW68856   5.774   7.051   3.254  0.3766  0.2457 -0.0145
22472SOL    HW168857   5.747   7.025   3.341  1.4351 -1.7572 -0.2219
22472SOL    HW268858   5.766   6.972   3.201  0.2099  1.2876 -1.6307
22473SOL     OW68859   6.317   5.954   1.633  0.6861 -0.5716 -0.0879
22473SOL    HW168860   6.288   5.890   1.698 -2.0573 -0.4193 -1.0108
22473SOL    HW268861   6.384   6.005   1.677 -0.2580 -1.1997  2.2320
22474SOL     OW68862   6.482   6.434   0.785  0.2220 -0.0348 -0.2103
22474SOL    HW168863   6.424   6.363   0.813 -1.6610  1.5471  0.1327
22474SOL    HW268864   6.538   6.451   0.860 -1.3404  0.7663  0.8362
22475SOL     OW68865   5.578   1.183   3.383  0.4997 -0.2046  0.2813
22475SOL    HW168866   5.487   1.187   3.354 -0.2277 -1.4967  2.2153
22475SOL    HW268867   5.611   1.272   3.372 -1.3521  0.5590  0.6096
22476SOL     OW68868   5.598   0.207   5.068  0.2462  0.2872  0.0266
22476SOL    HW168869   5.543   0.286   5.059  0.5901  0.3185 -2.3036
22476SOL    HW268870   5.551   0.154   5.133 -2.3795  0.4997 -1.5395
22477SOL     OW68871   5.574   6.578   2.756  0.2869 -0.0274 -0.0872
22477SOL    HW168872   5.605   6.604   2.669  3.2279  0.9413  1.1229
22477SOL    HW268873   5.531   6.657   2.790 -0.2469 -0.1850 -0.3893
22478SOL     OW68874   5.983   5.453   2.636  0.0400  0.3122  0.4412
22478SOL    HW168875   6.017   5.409   2.714  0.0374  1.1185  0.9136
22478SOL    HW268876   5.980   5.546   2.661  1.0918  0.7368 -0.8849
22479SOL     OW68877   6.203   7.070   2.223  0.1839 -0.2087  0.0267
22479SOL    HW168878   6.216   7.123   2.144 -0.0246 -0.3731 -0.1197
22479SOL    HW268879   6.291   7.055   2.257  0.2343  0.3984  0.1801
22480SOL     OW68880   7.316   7.421   3.892 -0.4231  0.1559  0.3270
22480SOL    HW168881   7.258   7.449   3.963 -0.3796 -2.8767  1.7242
22480SOL    HW268882   7.258   7.380   3.828 -0.0508 -1.9134  1.2226
22481SOL     OW68883   7.976   4.245   2.613 -0.1640  0.0416 -0.6783
22481SOL    HW168884   7.940   4.170   2.659 -0.2991 -0.2754 -1.2843
22481SOL    HW268885   7.927   4.249   2.531  0.2524  0.4286 -0.9184
22482SOL     OW68886   5.372   5.962   1.544  0.0010 -0.6683 -0.1730
22482SOL    HW168887   5.389   6.014   1.466  1.4736 -0.7842  0.0449
22482SOL    HW268888   5.427   6.002   1.612 -0.1252 -1.4767  0.4177
22483SOL     OW68889   4.671   7.694   3.174  0.2861  0.0392 -0.4006
22483SOL    HW168890   4.713   7.739   3.101 -1.0947  0.1885 -1.1304
22483SOL    HW268891   4.578   7.693   3.152  0.0582 -1.6045  0.4510
22484SOL     OW68892   6.615   6.126   3.621 -0.6313 -0.3081 -0.2505
22484SOL    HW168893   6.701   6.168   3.615 -1.5964  1.8028 -0.1888
22484SOL    HW268894   6.625   6.061   3.690  0.7349  0.3848  0.2466
22485SOL     OW68895   4.636   7.399   2.350 -0.3096 -0.0295  0.2557
22485SOL    HW168896   4.549   7.397   2.389 -1.0131  0.4304 -1.2254
22485SOL    HW268897   4.689   7.451   2.410 -2.1124  3.2589 -0.7825
22486SOL     OW68898   0.469   0.688   2.200 -0.3307  0.3335  0.2522
22486SOL    HW168899   0.543   0.736   2.235  0.4171 -0.6433  0.0549
22486SOL    HW268900   0.461   0.717   2.109  0.2885 -0.1032  0.0536
22487SOL     OW68901   4.806   6.594   3.458  0.1302 -0.2502  0.2132
22487SOL    HW168902   4.847   6.529   3.515  2.4751 -0.1549 -1.2533
22487SOL    HW268903   4.850   6.583   3.373 -2.4088  0.3945 -1.2855
22488SOL     OW68904   6.680   6.796   3.295 -0.0365  0.1188  0.0393
22488SOL    HW168905   6.651   6.719   3.344  0.7863 -0.4990 -0.4216
22488SOL    HW268906   6.599   6.837   3.264 -0.4797 -0.6517  0.1570
22489SOL     OW68907   6.661   7.364   3.216  0.5243  0.0786 -0.2438
22489SOL    HW168908   6.570   7.334   3.225  0.5095  0.1605 -0.1096
22489SOL    HW268909   6.700   7.305   3.152  1.0712 -1.5800  1.5060
22490SOL     OW68910   5.679   5.305   1.842  0.1537 -0.0379  0.1163
22490SOL    HW168911   5.613   5.342   1.784 -1.2948 -2.7963 -0.1192
22490SOL    HW268912   5.752   5.282   1.784  0.2063  0.4790 -0.0310
22491SOL     OW68913   5.165   7.337   2.881  0.3223 -0.7837  0.0772
22491SOL    HW168914   5.199   7.265   2.934 -0.4361  1.0688  3.4019
22491SOL    HW268915   5.072   7.342   2.905  0.7302  2.3389  1.4594
22492SOL     OW68916   0.636   5.554   4.228 -0.1343 -0.5473  0.3252
22492SOL    HW168917   0.645   5.644   4.198 -0.4843 -0.6671 -0.1475
22492SOL    HW268918   0.654   5.558   4.322  1.2415 -0.2217  0.0570
22493SOL     OW68919   5.219   4.625   2.688  0.1596 -0.3520 -0.7963
22493SOL    HW168920   5.124   4.631   2.698  0.1063 -2.1581  0.2088
22493SOL    HW268921   5.254   4.695   2.745 -0.5492 -0.0422 -0.7351
22494SOL     OW68922   6.086   6.295   2.312  0.5164  0.2486  0.2812
22494SOL    HW168923   6.116   6.379   2.278  2.2306 -0.0905  0.8438
22494SOL    HW268924   6.069   6.312   2.405 -0.2100  0.2167  0.1611
22495SOL     OW68925   6.695   5.202   3.904  0.1925  0.0816 -0.1002
22495SOL    HW168926   6.719   5.256   3.979  0.3483  1.9771 -1.4393
22495SOL    HW268927   6.599   5.196   3.908  0.1530  0.6764 -0.0692
22496SOL     OW68928   4.938   5.116   1.960  0.5449  0.4348  0.0470
22496SOL    HW168929   4.885   5.193   1.942  0.9252  0.9656  1.1015
22496SOL    HW268930   5.025   5.151   1.980  0.2203 -0.0428  2.6885
22497SOL     OW68931   7.509   6.291   3.180 -0.1269 -0.5709 -0.2189
22497SOL    HW168932   7.507   6.199   3.202 -1.9646 -0.3770  0.5500
22497SOL    HW268933   7.434   6.304   3.121 -0.8848  0.7040  0.9536
22498SOL     OW68934   4.923   6.220   1.689  0.7118  0.1114  0.2295
22498SOL    HW168935   4.878   6.229   1.605  1.4121 -1.5588 -0.3788
22498SOL    HW268936   4.974   6.300   1.698  0.2852  0.5074 -0.7253
22499SOL     OW68937   6.612   0.542   2.348  0.5650  0.1477 -0.5690
22499SOL    HW168938   6.629   0.622   2.399 -1.1195  0.2097 -0.0538
22499SOL    HW268939   6.666   0.553   2.269  0.9259  1.4442 -0.1740
22500SOL     OW68940   5.632   4.678   1.820  0.6284  0.7685 -0.0179
22500SOL    HW168941   5.602   4.613   1.757  1.1095  1.9819 -1.5813
22500SOL    HW268942   5.564   4.681   1.887  0.7279 -1.4901  0.2425
22501SOL     OW68943   7.229   7.986   2.541 -0.6239 -0.1252  0.2822
22501SOL    HW168944   7.245   7.970   2.448  1.0482 -0.2356  0.5758
22501SOL    HW268945   7.191   8.074   2.543 -0.3058  0.0375 -0.4721
22502SOL     OW68946   6.392   4.064   3.909  0.0394 -0.0071 -0.0497
22502SOL    HW168947   6.410   4.063   4.003  0.2168 -0.4006 -0.0866
22502SOL    HW268948   6.371   3.973   3.887 -2.9945  0.5151  0.1742
22503SOL     OW68949   7.751   7.958   4.522 -0.5239  0.2106 -0.0373
22503SOL    HW168950   7.718   7.872   4.549  0.2390  0.4147  1.7082
22503SOL    HW268951   7.835   7.966   4.569  0.1682  1.2586 -1.4009
22504SOL     OW68952   6.717   6.065   3.021  0.1980  0.0323  0.3516
22504SOL    HW168953   6.808   6.038   3.021  1.3282  3.0122  3.9000
22504SOL    HW268954   6.678   6.020   3.097 -0.9930 -0.3246 -0.4376
22505SOL     OW68955   6.377   1.305   2.473  0.2318 -1.2742  0.3825
22505SOL    HW168956   6.448   1.362   2.444 -2.3228  2.1405  0.2470
22505SOL    HW268957   6.319   1.298   2.396  0.0959 -3.5328  0.6332
22506SOL     OW68958   6.546   3.686   0.489 -0.1817  0.0946  0.2409
22506SOL    HW168959   6.626   3.641   0.514 -1.7862 -1.7859  2.4051
22506SOL    HW268960   6.554   3.774   0.527 -0.0048 -0.7722  2.2930
22507SOL     OW68961   5.650   6.300   3.741 -0.4313  0.2336  0.1872
22507SOL    HW168962   5.720   6.364   3.731  0.1560 -0.2258  1.1714
22507SOL    HW268963   5.644   6.256   3.656  0.8005 -0.0383  0.2224
22508SOL     OW68964   6.509   5.398   4.376 -0.4079 -0.2338 -0.3833
22508SOL    HW168965   6.538   5.489   4.376  1.3320 -0.7481  0.1544
22508SOL    HW268966   6.447   5.392   4.304  1.7563  0.6989 -2.4566
22509SOL     OW68967   7.251   5.864   2.848 -0.1091  1.3365 -0.4476
22509SOL    HW168968   7.185   5.913   2.798 -0.4333  1.0683 -0.2911
22509SOL    HW268969   7.302   5.818   2.782 -1.0409  0.3542 -0.5007
22510SOL     OW68970   7.912   7.823   0.381  0.3577 -0.2067  0.0716
22510SOL    HW168971   7.985   7.870   0.341  1.5376 -2.3548 -0.4755
22510SOL    HW268972   7.925   7.732   0.355 -0.1341 -1.3799  3.3832
22511SOL     OW68973   7.018   6.980   4.371  0.3903  0.3594  0.1255
22511SOL    HW168974   6.931   6.950   4.398  0.3080  0.4233 -0.0671
22511SOL    HW268975   7.001   7.045   4.303  0.5509  1.1146  0.7922
22512SOL     OW68976   5.444   7.090   2.821  0.0791  0.1559 -0.0965
22512SOL    HW168977   5.420   7.112   2.911 -0.9669 -1.8758  0.1914
22512SOL    HW268978   5.481   7.171   2.786 -0.3312  1.2761  1.8537
22513SOL     OW68979   6.282   6.351   1.731  0.2636  0.4681 -0.4138
22513SOL    HW168980   6.367   6.321   1.762  0.1385  1.6428  1.2167
22513SOL    HW268981   6.298   6.439   1.696 -0.0695  0.1943 -1.2708
22514SOL     OW68982   7.134   1.697   3.336 -0.3853 -0.4115 -0.3953
22514SOL    HW168983   7.151   1.787   3.307  1.0903 -0.7600 -0.6681
22514SOL    HW268984   7.170   1.642   3.267  1.7265 -1.2390  1.2362
22515SOL     OW68985   5.381   5.226   2.232  0.2101  0.4415  0.5570
22515SOL    HW168986   5.309   5.248   2.173  1.5368  1.3601 -0.7980
22515SOL    HW268987   5.429   5.156   2.187  0.5615  0.3176  1.1161
22516SOL     OW68988   5.612   6.484   1.781  0.0028  0.3482 -0.4826
22516SOL    HW168989   5.572   6.410   1.736 -0.1003 -1.1866  1.9297
22516SOL    HW268990   5.556   6.500   1.857  2.0079  0.4078  1.0985
22517SOL     OW68991   6.946   7.480   3.062  0.2882 -0.0398 -0.0892
22517SOL    HW168992   6.931   7.501   3.154  0.8000  1.2856 -0.2739
22517SOL    HW268993   6.884   7.536   3.015  0.6539 -0.0377 -0.5725
22518SOL     OW68994   6.874   6.762   2.636  0.1349 -0.3859  0.1435
22518SOL    HW168995   6.886   6.731   2.546 -1.0170 -0.4048 -0.0143
22518SOL    HW268996   6.850   6.684   2.685  0.6387 -0.3518  0.4455
22519SOL     OW68997   5.544   5.162   1.568  0.2595 -0.1570 -0.3273
22519SOL    HW168998   5.603   5.160   1.493  1.1716  1.1609  0.3306
22519SOL    HW268999   5.498   5.246   1.561  0.6223  0.1517  0.7753
22520SOL     OW69000   7.905   4.889   2.162 -0.1853 -0.2032 -0.4619
22520SOL    HW169001   7.974   4.826   2.141  0.5449  0.1141  0.8368
22520SOL    HW269002   7.934   4.970   2.120  0.2543 -0.0731  0.0716
22521SOL     OW69003   4.972   6.400   3.537  0.1307  0.1982 -0.1194
22521SOL    HW169004   5.051   6.375   3.584 -0.5387  0.3611  1.1210
22521SOL    HW269005   4.930   6.317   3.515  0.1330  0.1325  0.1211
22522SOL     OW69006   4.531   5.889   2.808  0.2237  0.5540  0.0113
22522SOL    HW169007   4.603   5.938   2.768 -0.9492  3.2269  0.9322
22522SOL    HW269008   4.532   5.916   2.900  1.1194 -3.2836  1.3337
22523SOL     OW69009   6.335   6.218   3.383 -0.3253  0.0106  0.1150
22523SOL    HW169010   6.376   6.277   3.445  0.5134 -1.5423  1.1141
22523SOL    HW269011   6.384   6.231   3.302 -1.5170  2.1531 -0.3300
22524SOL     OW69012   7.021   4.782   3.551  0.4295  0.5679  0.2954
22524SOL    HW169013   6.997   4.717   3.485  2.0779  0.0051  0.2069
22524SOL    HW269014   7.115   4.769   3.566  0.5238  2.0293  1.2796
22525SOL     OW69015   4.378   0.294   1.191  0.4882  0.0281 -0.2814
22525SOL    HW169016   4.291   0.331   1.177  0.6469  0.5425  0.0898
22525SOL    HW269017   4.368   0.239   1.269  0.0794 -1.3085 -1.2298
22526SOL     OW69018   6.939   6.926   3.231  0.3243  0.3495  0.5116
22526SOL    HW169019   6.864   6.877   3.263  0.6333 -0.1131  0.5390
22526SOL    HW269020   6.915   7.018   3.243 -0.0977  0.1999  0.8310
22527SOL     OW69021   6.784   4.645   2.003 -0.0396 -0.1864 -0.3637
22527SOL    HW169022   6.828   4.592   2.070  0.2752  0.5406  0.0182
22527SOL    HW269023   6.697   4.606   1.995 -0.4086  0.2468  1.1335
22528SOL     OW69024   4.878   7.336   2.864 -0.4042  0.2027  0.3995
22528SOL    HW169025   4.823   7.364   2.790  0.4012 -0.7106 -0.5751
22528SOL    HW269026   4.818   7.288   2.921 -0.6520 -0.7924 -0.6538
22529SOL     OW69027   6.431   6.912   3.345 -0.1585 -0.5596 -0.2678
22529SOL    HW169028   6.344   6.876   3.330 -0.1668 -0.9335  0.6087
22529SOL    HW269029   6.425   7.003   3.315 -1.0608 -0.3691  0.4255
22530SOL     OW69030   5.470   4.984   1.755 -0.2574 -0.4461  0.0131
22530SOL    HW169031   5.502   5.046   1.689  1.7745 -0.5484  0.8341
22530SOL    HW269032   5.539   4.918   1.762 -0.8221 -0.9169  1.6083
22531SOL     OW69033   7.603   0.214   2.010 -0.1634  0.2911 -0.4375
22531SOL    HW169034   7.617   0.242   2.101  0.4573  1.1296 -0.7786
22531SOL    HW269035   7.508   0.215   1.999 -0.5022 -2.8815  1.1250
22532SOL     OW69036   6.956   6.685   4.641 -0.2977 -0.3613 -0.2392
22532SOL    HW169037   6.999   6.687   4.555  0.4985  1.3260  0.1620
22532SOL    HW269038   7.023   6.651   4.700  0.5995  2.2622  0.3853
22533SOL     OW69039   6.508   4.911   4.524  0.1897  0.1730 -0.2303
22533SOL    HW169040   6.484   4.921   4.616 -1.4175 -0.0783 -0.6012
22533SOL    HW269041   6.554   4.828   4.520 -0.1518 -0.0439  0.2669
22534SOL     OW69042   5.946   4.897   4.550 -0.0764 -0.3481 -0.6736
22534SOL    HW169043   5.896   4.819   4.571 -1.2922 -0.1004 -2.4263
22534SOL    HW269044   6.016   4.867   4.493 -0.8131 -0.1458 -1.7228
22535SOL     OW69045   5.850   7.214   4.986  0.2207 -0.1450 -0.1538
22535SOL    HW169046   5.762   7.221   5.022  0.4976 -0.9440  0.7155
22535SOL    HW269047   5.870   7.120   4.990  0.7472 -0.0880 -1.2281
22536SOL     OW69048   1.452   7.750   4.571  0.5162  0.2521  0.5098
22536SOL    HW169049   1.369   7.797   4.563  0.4624  0.2714  1.1347
22536SOL    HW269050   1.427   7.660   4.589  0.6284  0.0901 -0.1027
22537SOL     OW69051   5.382   5.615   2.086 -0.5168 -0.7363  0.2136
22537SOL    HW169052   5.461   5.564   2.068  0.4540  0.5764  0.6626
22537SOL    HW269053   5.385   5.632   2.180 -2.1153 -1.9022  0.5277
22538SOL     OW69054   7.112   5.431   4.136  0.1930  0.1471  0.6197
22538SOL    HW169055   7.144   5.501   4.193  0.4216  0.3225  0.2809
22538SOL    HW269056   7.141   5.350   4.178 -0.2133  0.2473  1.1014
22539SOL     OW69057   5.871   6.505   3.304  0.2175  0.0739  0.3281
22539SOL    HW169058   5.829   6.448   3.240 -2.7325  0.0251  2.1445
22539SOL    HW269059   5.949   6.457   3.332  0.6264 -0.6512 -1.9202
22540SOL     OW69060   5.394   6.477   4.132  0.2715 -0.5373  0.5150
22540SOL    HW169061   5.342   6.525   4.197  0.4823  0.7044 -0.2121
22540SOL    HW269062   5.380   6.385   4.154 -3.2007 -0.3515 -0.3243
22541SOL     OW69063   7.109   6.022   5.082 -0.2322 -0.6414  0.7775
22541SOL    HW169064   7.065   6.050   5.162  1.9625 -1.2455  2.2886
22541SOL    HW269065   7.107   5.927   5.085 -0.2028 -0.6720  0.0659
22542SOL     OW69066   6.747   1.593   5.730 -0.0823  0.2629  0.1880
22542SOL    HW169067   6.756   1.603   5.824 -0.3765  0.1410  0.2288
22542SOL    HW269068   6.793   1.669   5.693 -0.9150  0.9058  0.4535
22543SOL     OW69069   6.301   4.510   3.914  0.2316 -0.4248  0.2652
22543SOL    HW169070   6.320   4.420   3.889  1.6024 -0.7734  2.3225
22543SOL    HW269071   6.205   4.512   3.923  0.1685 -1.6166  0.0274
22544SOL     OW69072   7.330   6.699   4.017 -0.9915 -0.0278 -0.0230
22544SOL    HW169073   7.250   6.751   4.015 -1.6644 -1.0037  0.9237
22544SOL    HW269074   7.373   6.724   4.099  0.1378  1.1140 -0.9063
22545SOL     OW69075   5.523   5.247   4.724  0.1008  1.0040  0.0915
22545SOL    HW169076   5.597   5.306   4.736  0.5047  0.6725 -0.7269
22545SOL    HW269077   5.563   5.162   4.707 -0.4252  1.1567 -2.0990
22546SOL     OW69078   7.177   7.313   4.721 -0.0541 -0.2029  0.1215
22546SOL    HW169079   7.183   7.310   4.626  1.4346 -1.0973  0.2100
22546SOL    HW269080   7.248   7.372   4.748 -0.7551  0.4156  0.6736
22547SOL     OW69081   5.154   0.455   4.067 -0.3214 -0.2020 -0.3193
22547SOL    HW169082   5.113   0.414   4.143 -0.9291 -3.4397 -2.2259
22547SOL    HW269083   5.081   0.476   4.008  0.0732  2.8916  0.1388
22548SOL     OW69084   4.633   7.159   6.162 -0.9126 -0.0732  0.0384
22548SOL    HW169085   4.614   7.222   6.093  2.3442  0.3205 -0.6762
22548SOL    HW269086   4.592   7.078   6.132 -2.1611  0.8310 -0.7911
22549SOL     OW69087   4.280   7.024   5.698  0.3298 -0.0832 -0.2957
22549SOL    HW169088   4.292   7.118   5.692  0.5833 -0.1579 -0.9550
22549SOL    HW269089   4.365   6.990   5.727  0.2984 -0.1328 -0.2602
22550SOL     OW69090   5.001   6.428   4.043 -0.0768 -0.1122  0.1410
22550SOL    HW169091   5.013   6.339   4.075  1.0806 -0.2832 -0.6732
22550SOL    HW269092   5.061   6.481   4.096 -1.6377  0.4234  1.4556
22551SOL     OW69093   3.963   7.856   3.771  0.1716  0.0294 -0.1170
22551SOL    HW169094   3.990   7.882   3.682  0.7122 -1.1936 -0.3263
22551SOL    HW269095   4.012   7.776   3.788 -0.7074 -0.3048  0.9018
22552SOL     OW69096   7.740   7.178   1.616  0.3262 -0.1221  0.4471
22552SOL    HW169097   7.766   7.097   1.571  0.2031 -0.1183  0.3679
22552SOL    HW269098   7.646   7.167   1.631  0.2467  0.1464  0.1494
22553SOL     OW69099   6.755   7.458   6.284 -0.2071 -0.2666 -0.6202
22553SOL    HW169100   6.662   7.481   6.285 -0.3680 -0.7035 -2.1984
22553SOL    HW269101   6.796   7.527   6.232 -0.4263 -2.3764 -3.9084
22554SOL     OW69102   5.605   7.214   4.134  0.1078 -0.2201  0.1652
22554SOL    HW169103   5.579   7.304   4.116  0.5336 -0.2266 -0.5103
22554SOL    HW269104   5.531   7.176   4.181  0.2612  0.7224  1.2305
22555SOL     OW69105   6.106   0.982   2.826 -0.0358  0.2036  0.2715
22555SOL    HW169106   6.133   0.963   2.736  2.3710  2.1390  0.4506
22555SOL    HW269107   6.098   1.078   2.829 -0.1572  0.1844  2.0924
22556SOL     OW69108   5.863   5.769   4.906  0.4573  0.3155  0.0244
22556SOL    HW169109   5.940   5.822   4.927  0.5188 -0.0860  0.8669
22556SOL    HW269110   5.891   5.714   4.833  1.0141  0.0824  0.4064
22557SOL     OW69111   6.687   0.305   3.493 -0.8758  0.2278 -0.0936
22557SOL    HW169112   6.731   0.385   3.521  0.2191 -0.1980 -0.5350
22557SOL    HW269113   6.721   0.237   3.551  0.1542 -0.3575 -1.3229
22558SOL     OW69114   6.860   7.671   1.934  0.4326  0.3193 -0.0976
22558SOL    HW169115   6.844   7.713   2.018 -0.9939  0.0035 -0.1882
22558SOL    HW269116   6.942   7.624   1.945  0.6238  0.8781  0.8835
22559SOL     OW69117   6.327   5.628   4.700 -0.2411 -0.2826 -0.1948
22559SOL    HW169118   6.321   5.537   4.671  1.2917 -0.5983  0.3566
22559SOL    HW269119   6.285   5.678   4.630 -1.0247 -1.3930 -0.5555
22560SOL     OW69120   4.957   7.635   2.966  0.2673  0.2400 -0.1394
22560SOL    HW169121   4.908   7.717   2.959  0.5477  0.6140  1.7599
22560SOL    HW269122   4.895   7.568   2.939 -0.2132  0.9913 -0.9686
22561SOL     OW69123   7.526   0.129   3.310  0.0040  0.0721  0.1349
22561SOL    HW169124   7.522   0.224   3.297  0.9054  0.1845  0.6187
22561SOL    HW269125   7.546   0.119   3.403 -1.4137 -0.6267  0.3887
22562SOL     OW69126   6.334   6.070   3.871  0.3513  0.4066 -0.5398
22562SOL    HW169127   6.358   6.014   3.944 -0.4935 -0.9921 -1.3049
22562SOL    HW269128   6.410   6.129   3.860  1.7484 -1.2974 -0.3992
22563SOL     OW69129   5.680   6.163   3.986 -0.3630 -0.2683  0.5739
22563SOL    HW169130   5.665   6.213   3.906  0.1939 -0.9077  0.0621
22563SOL    HW269131   5.617   6.199   4.048 -1.3194 -0.2775 -0.3620
22564SOL     OW69132   7.227   1.136   5.378 -0.0903 -0.4492 -0.1853
22564SOL    HW169133   7.166   1.200   5.342 -0.8125 -0.8092  0.3669
22564SOL    HW269134   7.313   1.166   5.349 -0.6709 -1.2864 -3.0604
22565SOL     OW69135   7.426   7.092   5.249  0.2370 -0.1108  0.0710
22565SOL    HW169136   7.422   7.183   5.280  0.7698  0.3111 -1.0608
22565SOL    HW269137   7.519   7.069   5.255  0.0662 -0.7009  0.6352
22566SOL     OW69138   5.712   6.364   6.125  0.2622 -0.0525 -1.0835
22566SOL    HW169139   5.718   6.281   6.172 -0.6292  1.0736  1.1638
22566SOL    HW269140   5.629   6.403   6.155  1.8693  2.8152  0.0238
22567SOL     OW69141   6.084   5.911   4.967 -0.3851  0.2455  0.6105
22567SOL    HW169142   6.118   5.988   4.920 -1.0338 -0.6225 -1.3794
22567SOL    HW269143   6.156   5.849   4.967 -0.4384  0.1840  0.6352
22568SOL     OW69144   6.366   6.744   4.015  0.6209  0.1300  0.3998
22568SOL    HW169145   6.294   6.807   4.024  0.3186  0.3985 -2.6998
22568SOL    HW269146   6.322   6.659   4.003  0.7185  0.2871 -1.4528
22569SOL     OW69147   6.144   6.121   4.825 -0.6220  0.0563  0.0807
22569SOL    HW169148   6.072   6.181   4.806  0.5393  1.9824  1.4536
22569SOL    HW269149   6.201   6.126   4.748 -0.2802  1.1469  0.3909
22570SOL     OW69150   5.150   6.286   5.548 -0.2542  0.5663 -0.2778
22570SOL    HW169151   5.235   6.281   5.504 -0.5268  0.9957 -0.8526
22570SOL    HW269152   5.149   6.209   5.605  1.0824  1.2442  0.7469
22571SOL     OW69153   7.318   7.337   4.426  0.2954  0.5218  0.1457
22571SOL    HW169154   7.244   7.382   4.385 -0.0993 -0.3047 -0.0807
22571SOL    HW269155   7.334   7.262   4.369  1.7122  1.0180 -0.1516
22572SOL     OW69156   4.765   6.324   2.414  0.0911 -0.0086 -0.3700
22572SOL    HW169157   4.709   6.264   2.365  1.6729 -1.8673 -0.0150
22572SOL    HW269158   4.735   6.315   2.505 -1.1172  1.4800 -0.5694
22573SOL     OW69159   6.353   7.387   5.449  0.2196  0.3668 -0.6219
22573SOL    HW169160   6.309   7.412   5.530  1.7036 -0.8224  0.6095
22573SOL    HW269161   6.301   7.313   5.416  2.4373 -2.6809  2.1202
22574SOL     OW69162   6.575   7.083   5.442  0.5494  0.2029 -0.2525
22574SOL    HW169163   6.565   7.168   5.485  2.4364  1.1877 -1.6182
22574SOL    HW269164   6.523   7.091   5.362  0.9575  0.1782 -0.5206
22575SOL     OW69165   6.333   5.377   5.791 -0.4549 -0.1424  0.3515
22575SOL    HW169166   6.245   5.406   5.771 -0.6212 -1.0153 -0.2555
22575SOL    HW269167   6.365   5.338   5.709  0.2741 -0.3572  0.7262
22576SOL     OW69168   7.046   5.125   2.853  0.4842  0.0871  0.3788
22576SOL    HW169169   7.060   5.143   2.760 -0.2964  0.6596  0.3659
22576SOL    HW269170   7.129   5.150   2.895  0.3226  1.2615  0.0231
22577SOL     OW69171   7.960   4.957   3.889  0.4563  0.2170  0.1698
22577SOL    HW169172   8.053   4.936   3.879  0.4731 -0.2004  1.1516
22577SOL    HW269173   7.944   5.022   3.820  1.8834  1.5653  1.0192
22578SOL     OW69174   4.877   7.815   7.125  0.0348 -0.1180 -0.2574
22578SOL    HW169175   4.969   7.798   7.141  0.6035  2.1578 -0.6893
22578SOL    HW269176   4.873   7.847   7.035 -1.4068 -1.5406 -0.7424
22579SOL     OW69177   6.199   5.502   3.147  0.0923 -0.0539  0.4677
22579SOL    HW169178   6.205   5.563   3.074  0.2185 -0.0092  0.5144
22579SOL    HW269179   6.187   5.558   3.224 -0.1766 -0.1078  0.4658
22580SOL     OW69180   6.481   4.826   5.288 -0.0358  0.3798 -0.3252
22580SOL    HW169181   6.461   4.777   5.207  1.8344  1.6906 -1.6649
22580SOL    HW269182   6.575   4.817   5.298  0.3031  3.1336 -0.2964
22581SOL     OW69183   5.759   6.980   2.723  0.2165  0.3055 -0.3168
22581SOL    HW169184   5.723   7.058   2.682  2.8206  2.4650  1.1899
22581SOL    HW269185   5.683   6.934   2.759 -1.4133  1.9306 -1.5185
22582SOL     OW69186   5.690   6.749   4.283  0.0248  0.0829 -0.0191
22582SOL    HW169187   5.760   6.748   4.218  0.1649  2.8084 -0.0052
22582SOL    HW269188   5.609   6.750   4.232  0.1041  0.6793 -0.1430
22583SOL     OW69189   7.246   7.616   5.421  0.0204 -0.2850 -0.3781
22583SOL    HW169190   7.268   7.694   5.370  0.0463 -0.5858 -0.8354
22583SOL    HW269191   7.164   7.638   5.465  0.3819  0.2494  0.0430
22584SOL     OW69192   5.688   6.985   3.517 -0.2187 -0.3159  0.6587
22584SOL    HW169193   5.752   6.924   3.554 -0.0288  0.7429  2.1616
22584SOL    HW269194   5.614   6.982   3.578 -0.8627 -0.1973 -0.1042
22585SOL     OW69195   7.113   6.314   7.332 -0.0244  0.7200  0.1141
22585SOL    HW169196   7.146   6.323   7.421 -2.0381  1.0859  0.8712
22585SOL    HW269197   7.042   6.249   7.338 -0.5521  1.1390 -1.1030
22586SOL     OW69198   6.136   7.058   5.190  0.2997 -0.0547  0.0472
22586SOL    HW169199   6.092   7.143   5.201 -0.1090 -0.2363 -0.1469
22586SOL    HW269200   6.206   7.059   5.254  0.1165  0.3174  0.2466
22587SOL     OW69201   5.990   6.810   3.801 -0.0146  0.0567  0.1257
22587SOL    HW169202   5.896   6.816   3.784 -0.0279 -2.7813 -1.3583
22587SOL    HW269203   5.997   6.748   3.874  0.7196 -0.5728 -0.4642
22588SOL     OW69204   6.970   6.846   3.833  0.4768  0.2300 -0.1457
22588SOL    HW169205   6.950   6.753   3.842 -1.4554  0.7286  1.4444
22588SOL    HW269206   7.018   6.869   3.912 -0.9779  0.9926  0.5635
22589SOL     OW69207   6.140   0.266   4.810  0.0809  0.0727 -0.2142
22589SOL    HW169208   6.170   0.357   4.799 -1.0270  0.2260 -2.6061
22589SOL    HW269209   6.075   0.271   4.880  0.7566  0.9194  0.3812
22590SOL     OW69210   7.112   6.144   6.004  0.2567  0.3625 -0.1807
22590SOL    HW169211   7.109   6.060   6.051  1.2971 -0.2555 -1.1559
22590SOL    HW269212   7.168   6.199   6.058  0.7809 -0.0772 -0.2635
22591SOL     OW69213   4.034   6.837   4.389 -0.0368 -0.6439 -0.2605
22591SOL    HW169214   4.082   6.797   4.462 -0.6002 -1.2688 -0.2209
22591SOL    HW269215   3.943   6.808   4.402 -0.3029 -0.0086 -0.6962
22592SOL     OW69216   5.589   6.057   2.858  0.1042  0.0313 -0.2773
22592SOL    HW169217   5.521   5.990   2.850 -1.0487  1.0152  0.7651
22592SOL    HW269218   5.647   6.025   2.927 -0.0417 -0.2158 -0.2686
22593SOL     OW69219   7.226   0.573   5.174 -0.4100 -0.4756 -0.1191
22593SOL    HW169220   7.159   0.640   5.189 -1.1521 -1.5157  1.6023
22593SOL    HW269221   7.304   0.622   5.148 -0.7371  1.1435  1.6943
22594SOL     OW69222   6.450   4.935   4.023 -0.2990 -0.1439 -0.8320
22594SOL    HW169223   6.468   4.983   4.103 -0.5088  1.2806 -1.6076
22594SOL    HW269224   6.460   4.843   4.047  0.0306  0.2750  0.7137
22595SOL     OW69225   4.675   7.822   4.160  0.0517  0.5710 -0.5456
22595SOL    HW169226   4.639   7.854   4.077  0.1934 -0.5240 -1.0568
22595SOL    HW269227   4.615   7.752   4.187 -0.4202  1.4202  0.6871
22596SOL     OW69228   5.216   1.859   4.873 -0.2335  0.5948 -0.2180
22596SOL    HW169229   5.215   1.878   4.779  0.2707 -1.8401 -0.7748
22596SOL    HW269230   5.124   1.862   4.899 -0.3654  1.4286 -0.7437
22597SOL     OW69231   6.403   6.003   6.153 -0.2216  0.3681  0.2555
22597SOL    HW169232   6.378   5.924   6.200 -1.6959  0.1232 -0.8507
22597SOL    HW269233   6.498   5.998   6.144 -0.1963 -0.7569  1.0965
22598SOL     OW69234   6.712   6.960   5.207 -0.0144  0.0738 -0.2706
22598SOL    HW169235   6.753   6.956   5.294  0.0021 -2.3126 -0.3290
22598SOL    HW269236   6.781   6.932   5.147 -0.8273 -1.0843 -0.6994
22599SOL     OW69237   6.064   5.498   5.844  0.0921  0.3319 -0.0852
22599SOL    HW169238   6.062   5.593   5.850  0.7397  0.3149  0.5234
22599SOL    HW269239   5.973   5.471   5.854  0.0635  0.8239  1.0869
22600SOL     OW69240   4.860   6.040   4.825  0.2207 -0.2683 -0.1025
22600SOL    HW169241   4.818   6.072   4.905  2.0035 -2.9932  2.1517
22600SOL    HW269242   4.900   6.117   4.786  0.9678  0.9655  2.7999
22601SOL     OW69243   6.892   5.621   5.781  0.3278 -0.2675  0.1285
22601SOL    HW169244   6.801   5.609   5.752  0.3789  0.6147 -0.4199
22601SOL    HW269245   6.943   5.566   5.723  0.2820  0.3636 -0.5172
22602SOL     OW69246   5.180   6.917   6.024 -0.0896 -0.1996 -0.3888
22602SOL    HW169247   5.274   6.923   6.041  0.0794 -0.2138 -1.2354
22602SOL    HW269248   5.151   7.008   6.019 -0.3106 -0.1951  0.7946
22603SOL     OW69249   6.310   6.032   4.596  0.5922 -0.5127 -0.2279
22603SOL    HW169250   6.381   5.971   4.575 -0.1512 -1.2644 -0.6422
22603SOL    HW269251   6.249   6.022   4.524 -0.5752 -0.8803  0.7804
22604SOL     OW69252   6.479   3.195   3.537 -0.8529 -0.4045  0.0889
22604SOL    HW169253   6.566   3.229   3.554 -1.4030 -0.0016  2.4178
22604SOL    HW269254   6.484   3.159   3.448  1.2228  0.9551 -0.4018
22605SOL     OW69255   6.116   6.579   4.721  0.1023  0.0079  0.0992
22605SOL    HW169256   6.151   6.649   4.775 -0.2531 -0.0806  0.4541
22605SOL    HW269257   6.063   6.623   4.655 -1.9979  0.0141  1.6854
22606SOL     OW69258   4.273   7.943   5.339 -0.1307  0.2055  0.4914
22606SOL    HW169259   4.221   7.863   5.336 -1.8667  1.2572  1.0958
22606SOL    HW269260   4.357   7.916   5.377 -0.6714 -1.3049  0.6805
22607SOL     OW69261   3.698   7.200   3.864 -0.1133  0.1999  0.1368
22607SOL    HW169262   3.704   7.118   3.816  2.1839  0.2362  0.2397
22607SOL    HW269263   3.676   7.265   3.798 -2.6469 -0.5304  0.1649
22608SOL     OW69264   6.297   3.532   4.474 -0.4038 -0.0713 -0.2602
22608SOL    HW169265   6.377   3.510   4.426 -0.9484 -0.4838 -0.9881
22608SOL    HW269266   6.247   3.451   4.475 -0.3261 -0.1361  1.1953
22609SOL     OW69267   5.802   5.497   5.567  0.5884  0.5453 -0.0738
22609SOL    HW169268   5.810   5.450   5.650 -0.2985  0.4917 -0.0130
22609SOL    HW269269   5.888   5.536   5.553  1.3799 -1.1381 -0.1414
22610SOL     OW69270   6.314   5.931   3.645  0.0471 -0.4924 -0.3672
22610SOL    HW169271   6.220   5.949   3.640  0.1867  0.6095  0.5810
22610SOL    HW269272   6.344   5.980   3.722  1.2963 -1.2988 -0.3135
22611SOL     OW69273   7.511   7.379   3.106 -0.1745 -0.2900 -0.3605
22611SOL    HW169274   7.527   7.420   3.022  3.0670  0.3843  0.4323
22611SOL    HW269275   7.472   7.448   3.160  0.6981  0.2898 -0.4439
22612SOL     OW69276   6.409   2.231   4.407  0.1676 -0.8795  0.2545
22612SOL    HW169277   6.319   2.216   4.381 -0.7367 -0.0432  2.6197
22612SOL    HW269278   6.441   2.145   4.433 -0.3017 -1.0145  0.3933
22613SOL     OW69279   5.403   4.827   2.651 -0.7177 -0.4146 -0.2369
22613SOL    HW169280   5.342   4.879   2.703 -0.3942  2.7018 -2.6822
22613SOL    HW269281   5.363   4.739   2.648 -2.7631  0.3331  1.8069
22614SOL     OW69282   6.159   5.397   4.915 -0.5074  0.1493  0.1019
22614SOL    HW169283   6.249   5.402   4.885 -1.0050  0.3730 -1.4166
22614SOL    HW269284   6.139   5.303   4.918 -0.2293  0.0980  0.4782
22615SOL     OW69285   6.882   5.008   4.016  0.3556 -0.3879 -0.2436
22615SOL    HW169286   6.909   4.939   3.956  1.4073 -0.5026  0.3309
22615SOL    HW269287   6.843   5.075   3.960  0.2148 -1.0240 -0.9122
22616SOL     OW69288   0.602   5.900   4.643  0.4386  0.0635 -0.2598
22616SOL    HW169289   0.587   5.989   4.674 -2.9906 -0.0548 -1.1033
22616SOL    HW269290   0.686   5.904   4.597  1.0459  2.4872  0.9017
22617SOL     OW69291   7.857   5.973   5.350 -0.0160 -0.4185 -0.0868
22617SOL    HW169292   7.768   5.938   5.357 -0.3858  0.4837 -0.0556
22617SOL    HW269293   7.910   5.899   5.321 -0.6669 -1.1285  0.4864
22618SOL     OW69294   6.557   5.984   4.481 -0.1008 -0.0205 -0.5331
22618SOL    HW169295   6.537   6.022   4.395  0.7843  0.1706 -0.6718
22618SOL    HW269296   6.606   6.053   4.526  2.4897 -1.2936 -1.1816
22619SOL     OW69297   5.516   0.502   3.955  0.2467  0.0159  0.0300
22619SOL    HW169298   5.561   0.586   3.943  0.3572 -0.1902 -1.1005
22619SOL    HW269299   5.496   0.499   4.049  2.5883  0.1161  0.5804
22620SOL     OW69300   0.381   6.322   4.600  0.4355 -0.3537 -0.4873
22620SOL    HW169301   0.396   6.327   4.694  1.9791 -1.4249 -0.6403
22620SOL    HW269302   0.401   6.409   4.567  1.7636 -0.4750 -0.0440
22621SOL     OW69303   5.530   6.535   5.442 -0.5648 -0.1520  0.0240
22621SOL    HW169304   5.467   6.569   5.379  2.2972  1.9393 -1.9597
22621SOL    HW269305   5.517   6.589   5.520 -0.4649  1.1282 -0.8082
22622SOL     OW69306   6.983   2.782   3.362 -0.0197  0.1613  0.7305
22622SOL    HW169307   7.018   2.723   3.294  1.1413 -0.3371  1.7200
22622SOL    HW269308   6.983   2.729   3.442 -1.5579  0.6803  1.0972
22623SOL     OW69309   5.949   7.175   3.437 -0.0411  0.2333  0.0850
22623SOL    HW169310   5.933   7.094   3.486 -0.9517  1.3893  1.7747
22623SOL    HW269311   5.904   7.161   3.353 -1.9283 -0.2931  1.1119
22624SOL     OW69312   6.216   6.691   5.675 -0.3559 -0.4709  0.0327
22624SOL    HW169313   6.182   6.767   5.721 -0.7498 -1.0707  0.7505
22624SOL    HW269314   6.283   6.655   5.733  1.8017  0.8244 -1.4448
22625SOL     OW69315   6.367   5.935   5.182  0.8968  0.0479 -0.5423
22625SOL    HW169316   6.374   6.023   5.147 -2.7518  0.9303  0.5538
22625SOL    HW269317   6.299   5.893   5.130 -1.1999 -0.2210  2.1576
22626SOL     OW69318   6.929   7.258   5.746 -0.4825  0.0231  0.2653
22626SOL    HW169319   6.990   7.190   5.778 -1.0436 -0.6047  0.0262
22626SOL    HW269320   6.935   7.251   5.651  0.8691  1.6023  0.1874
22627SOL     OW69321   7.455   6.310   5.000 -0.4208 -0.5223  0.2587
22627SOL    HW169322   7.384   6.306   4.937  0.1654  0.1370 -0.4673
22627SOL    HW269323   7.435   6.241   5.063 -1.7332 -0.2975  0.1175
22628SOL     OW69324   5.133   1.602   4.451  0.6934  0.1322 -0.1041
22628SOL    HW169325   5.040   1.604   4.475 -0.1527 -0.8007 -2.9471
22628SOL    HW269326   5.141   1.667   4.382  2.4443  0.9124  0.7667
22629SOL     OW69327   6.183   0.753   5.037 -0.2549 -0.1705  0.6012
22629SOL    HW169328   6.141   0.817   5.094 -3.0476  0.5110 -1.9274
22629SOL    HW269329   6.121   0.680   5.034  0.8154 -1.0778  0.0449
22630SOL     OW69330   6.210   6.991   4.015  0.4676 -0.1511 -0.1864
22630SOL    HW169331   6.187   6.997   4.108 -0.5550 -0.6500 -0.3969
22630SOL    HW269332   6.132   7.021   3.969  0.3126 -1.6012 -0.9224
22631SOL     OW69333   5.687   0.023   4.335 -0.3005 -0.3361  0.3296
22631SOL    HW169334   5.622   0.066   4.278  0.4164  0.2960 -0.0359
22631SOL    HW269335   5.683   0.073   4.416 -0.8918 -0.8568  0.6292
22632SOL     OW69336   7.094   7.281   3.724  0.2356 -0.2206  0.3169
22632SOL    HW169337   7.114   7.189   3.713  0.0001 -0.0154 -2.5431
22632SOL    HW269338   7.006   7.292   3.688  0.1374  1.0947  0.8654
22633SOL     OW69339   3.965   7.752   4.240  0.0417  0.2363 -0.2919
22633SOL    HW169340   3.872   7.770   4.247 -0.0522 -0.1444 -0.5708
22633SOL    HW269341   3.982   7.686   4.308  0.1574  0.4880 -0.0729
22634SOL     OW69342   7.335   7.232   6.384  0.0499  0.4978 -1.0053
22634SOL    HW169343   7.298   7.144   6.393 -0.0372  0.4527 -1.7452
22634SOL    HW269344   7.343   7.264   6.473 -1.6464  0.4597 -0.8207
22635SOL     OW69345   4.958   7.576   5.203 -0.3908 -0.1828  0.2642
22635SOL    HW169346   4.962   7.537   5.116  2.2599 -1.2818  0.7841
22635SOL    HW269347   4.934   7.504   5.261  0.0971 -0.0106  0.6923
22636SOL     OW69348   5.505   6.186   4.904 -0.2664  0.0805 -0.1865
22636SOL    HW169349   5.424   6.236   4.894 -0.8946 -0.5554  1.3954
22636SOL    HW269350   5.476   6.095   4.915  0.8043 -0.5201 -1.9109
22637SOL     OW69351   6.611   6.581   5.536 -0.2309 -0.3034 -0.5937
22637SOL    HW169352   6.541   6.526   5.572  0.2885  0.3514  1.5246
22637SOL    HW269353   6.567   6.662   5.510 -0.1470  0.6443  1.9722
22638SOL     OW69354   6.607   7.416   4.008 -0.2418  0.9571 -0.1856
22638SOL    HW169355   6.554   7.411   3.928 -1.5036  2.7775  0.4670
22638SOL    HW269356   6.608   7.326   4.042 -0.9389  0.4484 -1.4626
22639SOL     OW69357   4.314   7.777   4.829 -0.1706  0.1655 -0.2990
22639SOL    HW169358   4.339   7.869   4.837 -1.4775  0.7379 -2.2311
22639SOL    HW269359   4.392   7.729   4.858  0.8015  1.8620  0.0392
22640SOL     OW69360   7.899   0.038   3.869 -0.1918  0.0787  0.0036
22640SOL    HW169361   7.940  -0.047   3.888  0.5543 -0.2008 -2.5130
22640SOL    HW269362   7.805   0.019   3.871 -0.0799 -1.6277 -3.1850
22641SOL     OW69363   4.735   7.428   4.371  0.0904 -0.4484  0.2126
22641SOL    HW169364   4.812   7.452   4.320  0.3120 -0.1955  0.6640
22641SOL    HW269365   4.762   7.439   4.462 -1.2670  2.2376  0.3885
22642SOL     OW69366   5.621   6.486   5.868 -0.3595  0.0785  0.2103
22642SOL    HW169367   5.658   6.418   5.924  0.7669 -1.0809 -1.8231
22642SOL    HW269368   5.527   6.466   5.864 -0.3349 -0.2438  1.0779
22643SOL     OW69369   5.704   6.003   6.569  0.2424 -0.2044  0.3098
22643SOL    HW169370   5.686   6.060   6.494 -0.7155 -0.5320  0.2707
22643SOL    HW269371   5.681   5.915   6.538 -0.1672 -0.3429  0.9871
22644SOL     OW69372   5.507   6.842   3.976 -0.2951 -0.3066 -0.1328
22644SOL    HW169373   5.484   6.934   3.986 -0.9181 -0.5761  1.0666
22644SOL    HW269374   5.437   6.805   3.921  1.2450  0.4082 -2.7820
22645SOL     OW69375   5.503   6.271   6.479  0.0220  0.5391  0.0371
22645SOL    HW169376   5.547   6.272   6.564 -2.2881 -1.0724  1.3568
22645SOL    HW269377   5.575   6.271   6.415  1.9379 -1.2684  2.0125
22646SOL     OW69378   6.188   6.715   5.185  0.0286  0.8477 -0.0720
22646SOL    HW169379   6.275   6.749   5.205 -0.4097  1.4378  0.9419
22646SOL    HW269380   6.185   6.710   5.089  1.4475  0.0391 -0.0900
22647SOL     OW69381   6.470   7.387   6.048  0.5361 -1.2741 -0.0987
22647SOL    HW169382   6.387   7.381   6.096 -0.0752 -0.8348 -1.0765
22647SOL    HW269383   6.489   7.481   6.047  0.1188 -1.1879 -1.3925
22648SOL     OW69384   5.532   4.249   2.696 -0.3026 -0.2019 -0.3765
22648SOL    HW169385   5.573   4.329   2.660 -1.9859  0.7359 -0.3064
22648SOL    HW269386   5.443   4.251   2.661 -0.5639 -1.7330  0.1658
22649SOL     OW69387   4.909   5.771   5.810  0.7286 -0.3414  0.0544
22649SOL    HW169388   4.883   5.683   5.781 -0.8053  0.0574  0.1500
22649SOL    HW269389   4.850   5.791   5.882  0.3759  1.1669 -0.6274
22650SOL     OW69390   5.273   6.364   3.339 -0.3335 -0.2126  0.0565
22650SOL    HW169391   5.206   6.298   3.318 -1.0514 -0.1438  1.8932
22650SOL    HW269392   5.344   6.314   3.379  0.1801 -0.1354 -0.7478
22651SOL     OW69393   4.736   6.060   5.471 -0.1887  0.1585 -0.4174
22651SOL    HW169394   4.748   5.976   5.426 -0.1836 -0.1541  0.1631
22651SOL    HW269395   4.773   6.047   5.558  1.8148  1.4455 -1.0201
22652SOL     OW69396   7.204   5.093   5.783  0.0050  0.0469 -0.1602
22652SOL    HW169397   7.132   5.130   5.834  0.1601  0.2936 -0.1209
22652SOL    HW269398   7.218   5.006   5.821 -1.3107 -0.6501 -1.1785
22653SOL     OW69399   5.310   4.697   4.252  0.0162 -0.0329  0.0845
22653SOL    HW169400   5.340   4.746   4.176 -1.0987  1.1925  0.3926
22653SOL    HW269401   5.323   4.757   4.326  0.1880 -0.8387  0.7185
22654SOL     OW69402   6.748   6.940   4.455 -0.0844  0.2121 -0.5326
22654SOL    HW169403   6.720   6.947   4.547 -3.5164 -0.1923 -1.3766
22654SOL    HW269404   6.740   7.029   4.421 -2.0335 -0.1301 -1.1229
22655SOL     OW69405   5.818   7.044   4.043 -0.1315  0.4085 -0.0415
22655SOL    HW169406   5.729   7.075   4.062 -0.9156 -0.3578 -2.1182
22655SOL    HW269407   5.869   7.124   4.030 -1.3716  0.9225 -2.2232
22656SOL     OW69408   6.415   0.229   4.185 -0.6344  0.3314  0.0894
22656SOL    HW169409   6.437   0.169   4.257  2.1702  2.0733  0.8333
22656SOL    HW269410   6.487   0.292   4.184 -2.0155  2.0139 -2.5003
22657SOL     OW69411   6.271   6.745   4.881  0.0002 -0.0030  0.1454
22657SOL    HW169412   6.308   6.830   4.906  0.5229 -0.5539  1.3137
22657SOL    HW269413   6.335   6.681   4.910 -0.7614 -0.8535  0.0157
22658SOL     OW69414   6.422   0.138   6.958  0.3192 -0.2944  0.0011
22658SOL    HW169415   6.485   0.070   6.936  0.5911 -0.0867  0.1323
22658SOL    HW269416   6.455   0.176   7.040 -0.3248 -0.6202  0.4251
22659SOL     OW69417   6.772   7.526   4.769  0.5504  0.1333 -0.3022
22659SOL    HW169418   6.850   7.491   4.811  0.3062  1.9624  1.8654
22659SOL    HW269419   6.805   7.576   4.694  1.1714 -1.4404 -1.1139
22660SOL     OW69420   6.732   7.435   2.562  0.7057 -0.2764 -0.2964
22660SOL    HW169421   6.773   7.477   2.637 -0.8035  1.1955 -0.2414
22660SOL    HW269422   6.734   7.341   2.583  0.1571  0.1122  1.6975
22661SOL     OW69423   6.609   0.392   4.120 -0.6952  0.4446  0.2714
22661SOL    HW169424   6.597   0.487   4.114  0.1600  0.5457  0.0136
22661SOL    HW269425   6.681   0.381   4.182 -0.9760 -0.0542  0.5129
22662SOL     OW69426   5.125   5.495   3.846 -0.0064  0.0051 -0.5802
22662SOL    HW169427   5.169   5.494   3.931 -0.7525 -1.7761 -0.1757
22662SOL    HW269428   5.056   5.561   3.856 -1.0473 -1.1948  0.7646
22663SOL     OW69429   6.265   6.244   5.283 -0.7526  0.5193 -0.3325
22663SOL    HW169430   6.296   6.218   5.196 -2.7747 -2.7779 -0.2257
22663SOL    HW269431   6.343   6.238   5.339  0.2087  0.9761 -1.5862
22664SOL     OW69432   4.952   7.104   7.758 -0.1284 -0.0610  0.4626
22664SOL    HW169433   4.990   7.019   7.781 -0.5390  0.0036  1.4110
22664SOL    HW269434   4.858   7.092   7.771 -0.2770  0.2764 -0.2656
22665SOL     OW69435   5.210   7.211   4.407  0.0019 -0.1274 -0.8638
22665SOL    HW169436   5.275   7.153   4.367  1.7010  0.5798  0.7284
22665SOL    HW269437   5.131   7.196   4.356  1.6409 -0.2503 -3.5911
22666SOL     OW69438   5.077   6.088   3.073 -0.4101 -0.0791 -0.1318
22666SOL    HW169439   5.020   6.091   3.149  0.6432  1.7508  0.6742
22666SOL    HW269440   5.147   6.027   3.098 -0.5369 -0.1628  0.0209
22667SOL     OW69441   5.859   0.367   2.861  0.2241 -0.5681 -0.5129
22667SOL    HW169442   5.810   0.439   2.820 -0.6857 -0.5331  0.5886
22667SOL    HW269443   5.922   0.409   2.918  0.2731 -0.6317 -0.5192
22668SOL     OW69444   2.142   0.195   3.266  0.3238 -0.1070 -0.1917
22668SOL    HW169445   2.102   0.276   3.232 -1.5364 -1.2893 -1.0059
22668SOL    HW269446   2.236   0.213   3.266 -0.0832  2.5852  1.0802
22669SOL     OW69447   7.721   6.714   6.518  0.5747 -0.0069  0.2234
22669SOL    HW169448   7.798   6.765   6.493 -0.0352  0.8747  0.0849
22669SOL    HW269449   7.735   6.628   6.480  1.3265  0.2516 -0.1009
22670SOL     OW69450   5.343   4.462   6.155 -0.3149 -0.4221  0.5492
22670SOL    HW169451   5.276   4.530   6.160 -1.4904 -1.5099  0.2473
22670SOL    HW269452   5.312   4.403   6.086  0.5607 -1.3661  0.9343
22671SOL     OW69453   3.593   7.062   5.394 -0.3851  0.1888 -0.2775
22671SOL    HW169454   3.586   6.984   5.339 -1.3972  0.1688 -0.1507
22671SOL    HW269455   3.524   7.051   5.460 -0.9463  1.4652 -0.6200
22672SOL     OW69456   6.387   6.174   2.863  0.7124 -0.3330  0.5319
22672SOL    HW169457   6.405   6.082   2.841  0.1287 -0.2114 -0.5396
22672SOL    HW269458   6.429   6.224   2.794 -0.6795  0.1013 -0.0347
22673SOL     OW69459   4.567   4.863   2.291 -0.3759 -0.3296 -0.2246
22673SOL    HW169460   4.587   4.955   2.275  2.3118 -0.9358 -0.7701
22673SOL    HW269461   4.505   4.864   2.364  0.5077  1.8559  0.5555
22674SOL     OW69462   0.466   5.723   5.388  0.3554 -0.0500  0.1831
22674SOL    HW169463   0.544   5.720   5.334  0.7673  0.1492  0.7628
22674SOL    HW269464   0.463   5.813   5.422  0.4267 -0.3368  0.9613
22675SOL     OW69465   6.879   7.059   6.384  0.1082  0.3816 -0.1748
22675SOL    HW169466   6.827   6.996   6.335  0.5992  1.5500 -2.3562
22675SOL    HW269467   6.936   7.099   6.318  1.9187  0.9867  1.6505
22676SOL     OW69468   4.681   7.783   4.644 -0.3167  0.2189 -0.3533
22676SOL    HW169469   4.690   7.838   4.722 -0.2090 -0.6214  0.2415
22676SOL    HW269470   4.765   7.738   4.636 -1.1039 -1.4982  0.4672
22677SOL     OW69471   6.100   5.092   3.685  0.4072 -0.6615  0.1774
22677SOL    HW169472   6.167   5.078   3.752 -0.8970 -0.0512  1.6633
22677SOL    HW269473   6.095   5.009   3.638  2.0926 -0.7652  0.1019
22678SOL     OW69474   6.198   6.009   4.359 -0.1376  0.3603  0.1973
22678SOL    HW169475   6.265   6.077   4.357 -0.6406  0.8579 -0.6789
22678SOL    HW269476   6.147   6.024   4.279 -0.1046 -1.2128 -0.1385
22679SOL     OW69477   7.428   6.120   6.240 -0.0220 -0.4866 -0.4141
22679SOL    HW169478   7.394   6.187   6.181  0.1621 -0.4477 -0.4788
22679SOL    HW269479   7.423   6.160   6.327 -0.6837 -0.7022 -0.3497
22680SOL     OW69480   5.952   5.502   3.322  0.4005 -0.0986  0.2542
22680SOL    HW169481   6.004   5.445   3.379  0.6685  1.8006  1.9942
22680SOL    HW269482   5.863   5.469   3.329  0.3660  0.3162  2.1036
22681SOL     OW69483   0.147   1.021   5.543  0.6100  0.0198  0.1720
22681SOL    HW169484   0.233   0.981   5.551  0.7071  0.4532  1.4649
22681SOL    HW269485   0.107   1.011   5.629 -0.3635  0.4429 -0.2128
22682SOL     OW69486   4.645   0.571   4.811  0.0199  0.6401  0.0084
22682SOL    HW169487   4.600   0.549   4.730  0.6475  0.0604 -0.1988
22682SOL    HW269488   4.626   0.663   4.826  0.0555  0.8001 -0.9053
22683SOL     OW69489   2.886   1.651   7.065 -0.3038 -0.1217 -0.4110
22683SOL    HW169490   2.889   1.621   7.156 -0.9518 -0.1828 -0.4055
22683SOL    HW269491   2.976   1.644   7.035 -0.2602 -1.1372 -0.1050
22684SOL     OW69492   5.858   6.956   4.927 -0.2100 -0.4989 -0.2135
22684SOL    HW169493   5.895   6.910   5.002 -1.2921 -1.6058 -0.3307
22684SOL    HW269494   5.770   6.920   4.917 -0.6307  0.6952 -1.1099
22685SOL     OW69495   0.286   6.965   4.715  0.0496  0.1925 -0.2862
22685SOL    HW169496   0.287   7.043   4.769  0.8233  0.5523 -0.7943
22685SOL    HW269497   0.372   6.925   4.729 -0.4724 -0.7792  0.2552
22686SOL     OW69498   6.611   0.144   2.561 -0.8310  0.2369  0.4142
22686SOL    HW169499   6.595   0.237   2.546  0.6062  0.5064  0.3486
22686SOL    HW269500   6.532   0.100   2.532 -1.5392  1.4413  0.4625
22687SOL     OW69501   5.529   7.509   5.064 -0.1853  0.0219  0.0130
22687SOL    HW169502   5.498   7.446   4.999 -1.2571  0.4227  0.1114
22687SOL    HW269503   5.456   7.517   5.126  0.3958  0.4661  0.6538
22688SOL     OW69504   6.953   6.524   3.748  0.1988 -0.3757 -0.1910
22688SOL    HW169505   7.004   6.502   3.670  1.7902 -0.1186  0.7162
22688SOL    HW269506   7.016   6.517   3.820 -1.6929 -2.6428  1.3839
22689SOL     OW69507   4.988   7.165   4.851 -0.3806 -0.4194  0.4416
22689SOL    HW169508   4.979   7.130   4.940 -2.0876  0.1122  0.5200
22689SOL    HW269509   4.915   7.125   4.803 -0.2750  0.3373 -0.3613
22690SOL     OW69510   5.375   6.432   2.527  0.3793  0.3970 -0.5623
22690SOL    HW169511   5.427   6.359   2.561 -1.5081 -0.2029  1.3233
22690SOL    HW269512   5.369   6.493   2.600 -2.9103 -0.4038  0.0197
22691SOL     OW69513   5.708   6.336   4.834 -0.0167 -0.1927 -0.1879
22691SOL    HW169514   5.630   6.287   4.861  1.4940 -1.6035  1.9578
22691SOL    HW269515   5.690   6.426   4.858 -0.4378 -0.7436  1.6973
22692SOL     OW69516   7.418   6.677   4.829 -0.1038 -0.2693  0.1490
22692SOL    HW169517   7.488   6.719   4.778  0.5846 -1.9802 -0.3723
22692SOL    HW269518   7.463   6.634   4.901 -0.8534  0.2710  0.9633
22693SOL     OW69519   6.197   6.753   2.496  0.3985  0.3732 -0.4252
22693SOL    HW169520   6.275   6.790   2.537  0.1188  1.1650 -0.5838
22693SOL    HW269521   6.124   6.797   2.540  0.0948  2.1450 -2.5297
22694SOL     OW69522   4.085   7.574   5.556 -0.2135 -0.5947  0.4282
22694SOL    HW169523   4.179   7.580   5.569  0.0869 -2.7776 -0.3058
22694SOL    HW269524   4.056   7.510   5.621 -1.2962  0.4184  0.9788
22695SOL     OW69525   4.805   0.198   5.819  0.1749  0.2517 -0.5969
22695SOL    HW169526   4.878   0.252   5.848 -0.1433  0.7675 -0.7524
22695SOL    HW269527   4.750   0.187   5.898  0.8356 -0.8343 -0.2630
22696SOL     OW69528   5.902   5.583   3.912  0.0321 -0.2949  0.0435
22696SOL    HW169529   5.897   5.584   4.008  0.1464 -1.8736  0.1032
22696SOL    HW269530   5.863   5.499   3.887 -2.1997  1.1156 -1.4815
22697SOL     OW69531   5.940   6.824   2.561 -0.2221 -0.0593  0.0369
22697SOL    HW169532   5.876   6.864   2.621  1.8450 -0.5745  2.8091
22697SOL    HW269533   5.979   6.898   2.515  1.2222  0.9652  2.6714
22698SOL     OW69534   6.482   6.831   5.234  0.2501  0.0960 -0.3028
22698SOL    HW169535   6.568   6.873   5.227  0.0419  0.2649 -2.6917
22698SOL    HW269536   6.463   6.831   5.328  2.8750 -0.0277  0.3004
22699SOL     OW69537   7.138   6.634   4.439 -0.4174  0.7600  0.2599
22699SOL    HW169538   7.142   6.541   4.462 -0.8991  0.4250 -0.9137
22699SOL    HW269539   7.088   6.636   4.358  0.1890  1.9862 -0.1112
22700SOL     OW69540   5.027   0.175   5.507 -0.5712 -0.2515  0.3761
22700SOL    HW169541   5.077   0.182   5.589 -2.0514  0.5675  1.2695
22700SOL    HW269542   5.047   0.256   5.460  0.7355 -0.9838 -0.3790
22701SOL     OW69543   0.796   6.683   3.350  0.0189  0.8389 -0.1375
22701SOL    HW169544   0.819   6.710   3.261  0.2215 -0.7495 -0.5963
22701SOL    HW269545   0.722   6.623   3.338 -0.8167  1.6212  0.8890
22702SOL     OW69546   6.267   7.200   3.689 -0.0613 -0.2240  0.2330
22702SOL    HW169547   6.193   7.148   3.718  0.6786 -0.9331  0.8746
22702SOL    HW269548   6.344   7.147   3.709  0.5493 -0.7072 -2.8106
22703SOL     OW69549   7.029   6.505   5.023 -0.0696 -0.6410 -0.4634
22703SOL    HW169550   7.072   6.539   4.944  2.7573  0.8645  1.5291
22703SOL    HW269551   7.101   6.465   5.073 -1.7566 -1.5500  1.3563
22704SOL     OW69552   5.802   6.955   4.464  0.4348  0.0499 -0.0723
22704SOL    HW169553   5.753   6.896   4.407 -1.1679  1.2816 -0.0245
22704SOL    HW269554   5.770   7.043   4.442  0.1394  0.6119  2.3225
22705SOL     OW69555   5.328   6.750   5.187 -0.7580  0.6075 -0.0586
22705SOL    HW169556   5.324   6.741   5.283 -2.2555 -0.8866 -0.2180
22705SOL    HW269557   5.236   6.746   5.159 -0.2729  0.0106 -1.6325
22706SOL     OW69558   6.998   5.479   4.674  0.1184 -0.4573  0.2282
22706SOL    HW169559   7.089   5.506   4.676  0.6050 -1.8017 -1.3393
22706SOL    HW269560   6.949   5.557   4.702  1.7541 -0.0264  2.0782
22707SOL     OW69561   6.174   4.590   2.763 -0.3691 -0.5277 -0.2832
22707SOL    HW169562   6.142   4.639   2.687 -0.5860 -0.4045 -0.1114
22707SOL    HW269563   6.102   4.594   2.826  0.6479  1.3104  0.8412
22708SOL     OW69564   7.847   6.784   4.834  0.1460  0.4471  0.2911
22708SOL    HW169565   7.901   6.859   4.858  0.8381  0.2429 -0.5707
22708SOL    HW269566   7.866   6.718   4.900 -0.9670  1.2282  1.4486
22709SOL     OW69567   5.000   5.096   4.756 -0.1234 -0.6404  0.0453
22709SOL    HW169568   5.044   5.098   4.841 -0.3845 -1.1605  0.2002
22709SOL    HW269569   4.949   5.014   4.757 -0.0963 -0.6754 -0.6249
22710SOL     OW69570   4.977   7.503   4.312 -0.3591 -0.3959  0.5906
22710SOL    HW169571   5.025   7.471   4.388  0.5867 -2.2444 -0.7157
22710SOL    HW269572   5.036   7.488   4.238 -1.9202 -0.2830 -0.7303
22711SOL     OW69573   4.590   6.255   5.699 -0.1990  0.2591  0.0277
22711SOL    HW169574   4.640   6.182   5.736  1.4383 -0.4701 -3.2041
22711SOL    HW269575   4.651   6.329   5.701 -1.6939  1.5769  2.8494
22712SOL     OW69576   6.926   7.691   4.570 -0.0644  0.4861 -0.2628
22712SOL    HW169577   7.002   7.698   4.626 -0.2796  1.8720 -0.1169
22712SOL    HW269578   6.893   7.780   4.561 -1.1502  0.0431 -1.0459
22713SOL     OW69579   3.898   7.547   3.987  0.8048 -0.3694 -0.0088
22713SOL    HW169580   3.815   7.535   3.939 -0.6668  0.6517  2.1349
22713SOL    HW269581   3.874   7.596   4.065  3.2265 -1.2787  1.4311
22714SOL     OW69582   5.782   6.618   4.754 -0.2527  0.5598 -0.6384
22714SOL    HW169583   5.823   6.703   4.739 -1.1057  1.3220  1.0052
22714SOL    HW269584   5.817   6.589   4.838 -0.2304 -0.5593 -1.0250
22715SOL     OW69585   5.335   6.889   5.446 -0.5850  0.2628  0.4274
22715SOL    HW169586   5.299   6.976   5.465 -2.9845  0.0133 -2.2507
22715SOL    HW269587   5.258   6.832   5.445  0.6769 -1.4875 -0.0165
22716SOL     OW69588   1.787   7.523   4.553 -0.0010 -0.6233 -0.0449
22716SOL    HW169589   1.736   7.442   4.555 -1.6526  0.3577 -0.5574
22716SOL    HW269590   1.877   7.495   4.567 -0.5905 -2.4924  0.2912
22717SOL     OW69591   7.177   4.459   4.278  0.6430  0.2732 -0.0938
22717SOL    HW169592   7.109   4.525   4.274  0.3828  0.0036 -0.1505
22717SOL    HW269593   7.136   4.380   4.242  0.9806  0.1088 -0.1237
22718SOL     OW69594   6.416   6.643   4.631 -0.3711  0.0853  0.0406
22718SOL    HW169595   6.501   6.636   4.675 -0.4342 -0.1999  0.1223
22718SOL    HW269596   6.356   6.670   4.700 -0.4142 -0.0727  0.0662
22719SOL     OW69597   6.461   4.506   5.776  0.0761  0.0729  0.7835
22719SOL    HW169598   6.504   4.422   5.757 -0.6088 -0.0450 -0.3876
22719SOL    HW269599   6.369   4.483   5.788 -0.1038  0.6489  0.5365
22720SOL     OW69600   6.591   6.230   4.134 -0.1414 -0.1884 -0.3441
22720SOL    HW169601   6.675   6.257   4.099 -0.4543  1.5767  0.1370
22720SOL    HW269602   6.532   6.303   4.113 -0.9952 -0.3555  1.2893
22721SOL     OW69603   5.205   6.621   5.691  0.1043 -0.4757 -0.0634
22721SOL    HW169604   5.163   6.652   5.611  0.1688  0.4557  0.2503
22721SOL    HW269605   5.292   6.661   5.690  0.9005 -2.1362 -0.5533
22722SOL     OW69606   6.230   1.227   5.758  0.0418  0.0591  0.1449
22722SOL    HW169607   6.280   1.306   5.738  1.7271 -1.0205 -0.0527
22722SOL    HW269608   6.211   1.188   5.673  0.7029 -0.6152  0.2933
22723SOL     OW69609   5.655   5.606   2.309 -0.0628 -0.3591 -0.4401
22723SOL    HW169610   5.638   5.513   2.325  0.5587 -0.7423 -1.7958
22723SOL    HW269611   5.613   5.623   2.224 -0.4079  0.6718 -0.0740
22724SOL     OW69612   7.424   6.507   1.288 -0.5236  0.8756 -0.0025
22724SOL    HW169613   7.370   6.584   1.275 -0.9435  0.4962 -0.5392
22724SOL    HW269614   7.387   6.441   1.230  0.0237  0.3637  0.2138
22725SOL     OW69615   7.892   7.286   4.751  0.3363  0.3236 -0.4654
22725SOL    HW169616   7.892   7.238   4.834 -3.1215  2.0134  0.7305
22725SOL    HW269617   7.867   7.221   4.685  2.9268 -0.9943 -0.2542
22726SOL     OW69618   4.262   0.435   4.955  0.1838 -0.2045  0.6924
22726SOL    HW169619   4.223   0.448   4.869  1.5689 -4.4178 -0.8229
22726SOL    HW269620   4.337   0.494   4.957  0.4836 -0.4706 -1.2704
22727SOL     OW69621   6.218   6.868   4.547  0.7642  0.2606 -0.1120
22727SOL    HW169622   6.276   6.792   4.540  1.7494  1.0634 -0.9252
22727SOL    HW269623   6.270   6.941   4.514 -0.4433  1.1531 -0.0978
22728SOL     OW69624   4.929   6.256   5.759  0.4170 -0.4518  0.6855
22728SOL    HW169625   4.992   6.184   5.769  0.2553 -1.2472 -2.7108
22728SOL    HW269626   4.967   6.312   5.691 -1.8219 -0.1817 -0.4296
22729SOL     OW69627   7.425   6.656   4.507  0.3204  0.0303  0.0924
22729SOL    HW169628   7.464   6.661   4.594  0.9009 -0.9985 -0.0875
22729SOL    HW269629   7.337   6.691   4.518  1.2870  2.5257  0.4783
22730SOL     OW69630   5.961   5.542   4.778 -0.3594 -0.3273  0.0814
22730SOL    HW169631   6.017   5.486   4.832 -1.6539 -0.3215  1.5121
22730SOL    HW269632   5.991   5.528   4.689  3.2550  1.1878  0.8879
22731SOL     OW69633   6.919   7.675   4.075  0.0306  0.1428  0.0683
22731SOL    HW169634   6.834   7.705   4.108 -0.4756 -0.7015 -0.4503
22731SOL    HW269635   6.970   7.755   4.065 -1.8265  1.0994 -2.8591
22732SOL     OW69636   5.614   5.654   5.280  0.1594  0.1844  0.2957
22732SOL    HW169637   5.596   5.583   5.219 -1.1860 -0.6330  1.5820
22732SOL    HW269638   5.543   5.717   5.264  0.6218  0.6437  0.0362
22733SOL     OW69639   7.273   7.669   2.885 -0.4734 -1.0213 -0.5879
22733SOL    HW169640   7.253   7.660   2.978  0.9037 -0.0162 -0.1538
22733SOL    HW269641   7.289   7.580   2.854  0.4695 -1.2578  0.5060
22734SOL     OW69642   7.804   5.130   4.063  0.3460 -0.3478  0.8548
22734SOL    HW169643   7.816   5.059   4.001  1.7984  0.2847  0.3796
22734SOL    HW269644   7.725   5.175   4.033 -0.0065 -1.1374  0.5690
22735SOL     OW69645   5.491   4.878   5.631  0.2650  0.0198 -0.3440
22735SOL    HW169646   5.562   4.814   5.636 -0.3847 -0.6238  2.7897
22735SOL    HW269647   5.412   4.825   5.619  0.0841  0.6001 -1.9501
22736SOL     OW69648   5.403   7.769   3.835 -0.1194 -0.0820 -0.4386
22736SOL    HW169649   5.317   7.799   3.862  0.3900  1.5964 -0.5863
22736SOL    HW269650   5.408   7.789   3.741 -0.1073 -1.5217 -0.7668
22737SOL     OW69651   3.776   7.064   4.449 -0.2118 -0.6405  0.1102
22737SOL    HW169652   3.748   7.083   4.538 -1.4517 -0.4692 -0.2965
22737SOL    HW269653   3.770   6.968   4.442  0.6433 -0.7264  0.4390
22738SOL     OW69654   7.632   7.007   4.496  0.2441 -0.2335  0.0154
22738SOL    HW169655   7.569   7.000   4.567  0.9351  1.3340  0.8390
22738SOL    HW269656   7.604   7.084   4.446 -0.1709 -1.2435 -1.3888
22739SOL     OW69657   6.575   7.358   4.671  0.0739 -0.3771  0.0933
22739SOL    HW169658   6.648   7.410   4.705  1.4206 -0.5136 -2.3429
22739SOL    HW269659   6.551   7.401   4.589 -1.0962 -1.6083 -0.2474
22740SOL     OW69660   6.852   6.001   5.795  0.1074  0.5999 -0.0483
22740SOL    HW169661   6.877   6.093   5.805 -2.0387  1.1588  0.8532
22740SOL    HW269662   6.790   6.000   5.722 -0.5362  0.0182  0.4901
22741SOL     OW69663   5.602   7.634   4.321  0.0225  0.0035 -0.4291
22741SOL    HW169664   5.669   7.609   4.385 -0.5926 -0.7704 -0.0743
22741SOL    HW269665   5.519   7.622   4.367 -0.4118 -0.1182 -1.2191
22742SOL     OW69666   5.960   6.816   4.650  0.0815 -0.1762 -0.1806
22742SOL    HW169667   5.899   6.865   4.595 -1.5279 -1.5809  0.2493
22742SOL    HW269668   6.044   6.859   4.637 -1.0426  2.0937 -0.5317
22743SOL     OW69669   6.262   5.709   4.960 -0.5785  0.2045 -0.1330
22743SOL    HW169670   6.230   5.637   5.014  1.9946 -1.0781 -0.1818
22743SOL    HW269671   6.288   5.668   4.878  1.0894  1.0855 -0.0993
22744SOL     OW69672   4.778   7.049   6.923  0.0405  0.4823 -0.0678
22744SOL    HW169673   4.857   7.064   6.975  0.1854  1.1202 -0.4679
22744SOL    HW269674   4.716   7.114   6.954 -1.5138 -1.9907  2.5328
22745SOL     OW69675   5.540   5.410   6.668  0.6987  0.1691 -0.3908
22745SOL    HW169676   5.507   5.501   6.667 -0.0730 -0.0873 -1.8566
22745SOL    HW269677   5.601   5.406   6.595  0.0361 -0.7225 -0.9126
22746SOL     OW69678   5.821   5.966   7.051  0.0012 -0.3478  0.2245
22746SOL    HW169679   5.797   5.955   7.143 -0.5587 -1.2995 -0.0285
22746SOL    HW269680   5.854   5.880   7.024 -0.1906 -0.1751 -0.5674
22747SOL     OW69681   7.704   6.978   6.893 -0.6346  0.1526  1.2200
22747SOL    HW169682   7.721   7.052   6.835 -0.1981  2.5788  4.1893
22747SOL    HW269683   7.662   6.913   6.836  1.0424  1.6728 -2.0652
22748SOL     OW69684   3.304   7.926   4.503 -0.3174  0.5797 -0.2366
22748SOL    HW169685   3.378   7.966   4.457  0.5871 -0.3391  0.3782
22748SOL    HW269686   3.239   7.996   4.508 -0.2385  0.8965 -2.3866
22749SOL     OW69687   6.583   6.296   4.907  0.2582  0.3812 -0.4432
22749SOL    HW169688   6.635   6.300   4.987  0.2423  1.0224 -0.4660
22749SOL    HW269689   6.588   6.204   4.881  1.4845  0.4445 -0.5037
22750SOL     OW69690   5.194   5.850   7.655 -0.1141 -0.7630  0.4701
22750SOL    HW169691   5.253   5.880   7.586  0.1063  0.9710  1.3391
22750SOL    HW269692   5.216   5.906   7.730 -0.2685 -2.6356  1.9856
22751SOL     OW69693   4.806   7.281   6.338  0.1640 -0.1065  0.0634
22751SOL    HW169694   4.763   7.215   6.283  1.9911 -1.4885  0.1710
22751SOL    HW269695   4.838   7.347   6.276  0.3389 -0.5462 -0.3239
22752SOL     OW69696   6.501   7.171   7.890 -0.3308 -0.3787  0.7315
22752SOL    HW169697   6.473   7.121   7.813  2.2416 -0.7056 -0.0726
22752SOL    HW269698   6.502   7.107   7.961  0.1986 -0.8085  0.3440
22753SOL     OW69699   5.272   7.533   5.150 -0.2001 -0.1878 -0.1210
22753SOL    HW169700   5.251   7.518   5.243 -0.0812 -1.8686 -0.3429
22753SOL    HW269701   5.188   7.553   5.109 -0.3213  0.1083  0.2687
22754SOL     OW69702   7.226   5.460   7.202 -0.0501  0.2260  0.2987
22754SOL    HW169703   7.242   5.406   7.124 -0.0904  0.3435  0.2096
22754SOL    HW269704   7.247   5.403   7.275  0.7908  0.3754  0.1818
22755SOL     OW69705   5.421   5.736   7.323 -0.1263  0.4755 -0.1430
22755SOL    HW169706   5.493   5.712   7.263 -0.3468 -0.0759 -0.1969
22755SOL    HW269707   5.451   5.816   7.365  0.1860  0.6839 -0.7405
22756SOL     OW69708   5.873   6.816   5.623  0.2389 -0.1051  0.1190
22756SOL    HW169709   5.863   6.800   5.717  1.4439  1.4394  0.5484
22756SOL    HW269710   5.963   6.847   5.613 -0.3474  1.2617 -1.3137
22757SOL     OW69711   6.213   0.002   5.027 -0.0394 -0.4372  0.1703
22757SOL    HW169712   6.178  -0.015   5.114  2.0698 -1.7891  0.8166
22757SOL    HW269713   6.146   0.057   4.985 -1.7722 -0.9467  2.0963
22758SOL     OW69714   7.429   5.872   8.699 -0.8351 -0.7037 -0.2277
22758SOL    HW169715   7.512   5.919   8.710 -0.7281 -0.6379 -1.1933
22758SOL    HW269716   7.445   5.813   8.624 -2.0504  0.2211 -1.2598
22759SOL     OW69717   4.677   7.933   4.888  0.0016 -0.4090 -0.0192
22759SOL    HW169718   4.708   7.845   4.911  1.8142  0.1147 -0.2772
22759SOL    HW269719   4.610   7.953   4.954  0.8266 -1.2904  1.1412
22760SOL     OW69720   5.395   5.107   6.955 -0.0125 -0.3327 -0.3608
22760SOL    HW169721   5.373   5.198   6.976  0.8878 -0.5854  2.0209
22760SOL    HW269722   5.311   5.061   6.956 -0.4904  0.4686 -1.7308
22761SOL     OW69723   5.373   7.712   6.783 -0.4718  0.0412  0.1681
22761SOL    HW169724   5.305   7.734   6.720  1.0520  0.4535 -1.4026
22761SOL    HW269725   5.355   7.621   6.808 -0.9146 -0.2443 -1.1391
22762SOL     OW69726   4.615   5.022   6.116  0.0992  0.0777  0.1981
22762SOL    HW169727   4.694   4.971   6.101 -0.3969 -0.1171 -1.9976
22762SOL    HW269728   4.576   4.984   6.195  2.0096  0.0127  1.1685
22763SOL     OW69729   7.312   5.906   7.800 -0.7791  0.3946 -0.3883
22763SOL    HW169730   7.399   5.910   7.840 -0.9593  1.2165 -0.0648
22763SOL    HW269731   7.327   5.867   7.714 -0.2602 -0.5424  0.1114
22764SOL     OW69732   3.981   5.491   5.250 -0.0538 -0.2639  0.7448
22764SOL    HW169733   4.023   5.432   5.188  1.7089 -0.3209  1.9154
22764SOL    HW269734   3.962   5.437   5.326  0.9000  0.4805  1.5423
22765SOL     OW69735   7.034   7.808   2.870 -0.5536 -0.1632  0.2340
22765SOL    HW169736   7.008   7.793   2.961 -0.0700 -0.0187  0.4007
22765SOL    HW269737   7.115   7.757   2.861 -0.9468 -0.7042 -0.3054
22766SOL     OW69738   4.041   7.075   5.399 -0.0452  0.5965  0.2910
22766SOL    HW169739   4.107   7.144   5.413  0.1212  0.4162  0.3925
22766SOL    HW269740   4.063   7.038   5.314  0.3493  0.1294  0.5960
22767SOL     OW69741   7.810   0.001   5.384 -0.1529 -0.3146  0.0754
22767SOL    HW169742   7.874   0.001   5.456  2.2570  0.0736 -1.9467
22767SOL    HW269743   7.771  -0.086   5.387  0.9840 -0.8296  0.9461
22768SOL     OW69744   6.811   1.802   5.947 -0.4417  0.7351 -0.5043
22768SOL    HW169745   6.751   1.849   5.889 -0.8803  0.9515  0.1126
22768SOL    HW269746   6.892   1.853   5.944 -1.0883  1.8834  0.5892
22769SOL     OW69747   7.649   6.520   9.639 -0.5178  0.1672  0.1972
22769SOL    HW169748   7.634   6.528   9.545 -1.9624  0.9418  0.4725
22769SOL    HW269749   7.629   6.606   9.674 -0.5711 -0.2771  1.2901
22770SOL     OW69750   6.003   6.503   5.678 -0.1524  0.3442 -0.2545
22770SOL    HW169751   6.082   6.545   5.711 -0.8838  2.4922 -1.0745
22770SOL    HW269752   5.934   6.569   5.688 -1.5072 -0.8727 -1.0643
22771SOL     OW69753   7.815   5.591   6.036  0.0664 -0.1361 -0.1854
22771SOL    HW169754   7.799   5.501   6.007 -1.1162  0.1922 -0.6053
22771SOL    HW269755   7.815   5.585   6.131  0.2530 -0.6310 -0.2146
22772SOL     OW69756   5.822   5.831   4.621  0.5189  0.1106  0.8931
22772SOL    HW169757   5.876   5.813   4.544 -0.0747  0.4606  0.3948
22772SOL    HW269758   5.733   5.811   4.594  0.5382 -1.9744  2.1969
22773SOL     OW69759   6.981   5.440   5.995  0.3973 -0.5404  0.5549
22773SOL    HW169760   6.977   5.489   5.914  2.4175  0.6870  1.1323
22773SOL    HW269761   6.984   5.348   5.967 -3.1727 -0.4662 -0.5381
22774SOL     OW69762   6.425   5.227   6.020 -0.4909 -0.3703 -0.0427
22774SOL    HW169763   6.395   5.296   5.960 -0.5123 -0.1057  0.2724
22774SOL    HW269764   6.431   5.149   5.965 -0.0622 -0.0237 -0.4943
22775SOL     OW69765   6.694   7.961   4.337  0.0790 -0.0098 -0.1133
22775SOL    HW169766   6.692   8.045   4.383 -0.2805  0.8753 -1.6916
22775SOL    HW269767   6.636   7.904   4.389 -1.2541  1.3102 -0.0948
22776SOL     OW69768   7.485   5.203   6.403 -0.9122  0.0611 -0.7520
22776SOL    HW169769   7.403   5.231   6.443  0.0987  0.2223  1.3811
22776SOL    HW269770   7.467   5.115   6.369 -1.6723 -0.4004  0.7535
22777SOL     OW69771   5.607   6.590   6.821  0.4128 -0.5616  0.3622
22777SOL    HW169772   5.532   6.637   6.858  0.6442 -0.4210  0.6527
22777SOL    HW269773   5.647   6.652   6.760  1.2577 -0.0455  1.4201
22778SOL     OW69774   7.690   0.247   6.844 -0.4639  0.5225  0.2543
22778SOL    HW169775   7.719   0.303   6.772  2.3911 -1.0000  0.0707
22778SOL    HW269776   7.595   0.260   6.848 -0.3306  2.8724 -1.8207
22779SOL     OW69777   5.591   6.265   4.494  0.0758 -0.0129 -0.7162
22779SOL    HW169778   5.666   6.207   4.509  0.5505  0.6323 -0.5307
22779SOL    HW269779   5.619   6.349   4.531 -0.3740  0.4849 -1.5021
22780SOL     OW69780   5.728   5.910   6.037  0.0319  0.2937 -0.4353
22780SOL    HW169781   5.787   5.951   5.974  0.5124  0.0052 -0.1753
22780SOL    HW269782   5.665   5.979   6.059  1.1271  1.0560  0.3807
22781SOL     OW69783   0.238   6.175   4.046 -0.2951 -0.1495  0.0087
22781SOL    HW169784   0.175   6.240   4.076  1.2384  1.3735  0.0676
22781SOL    HW269785   0.211   6.156   3.956 -1.0349  0.2170  0.1432
22782SOL     OW69786   6.342   5.594   8.494  0.1542  0.3074  0.3138
22782SOL    HW169787   6.417   5.576   8.437 -1.0984 -1.0503 -0.9676
22782SOL    HW269788   6.360   5.544   8.574  0.3651 -0.4564 -0.2046
22783SOL     OW69789   1.136   0.016   5.402  1.1930  0.2004  0.1542
22783SOL    HW169790   1.127   0.078   5.474  0.1259  1.4278 -0.9870
22783SOL    HW269791   1.075  -0.054   5.423 -0.2220  1.2685 -0.2294
22784SOL     OW69792   0.192   6.287   5.857  0.5786  0.5991 -0.0707
22784SOL    HW169793   0.218   6.352   5.791 -3.6235  1.4491 -1.2101
22784SOL    HW269794   0.147   6.337   5.924 -3.8144 -0.8979 -1.5273
22785SOL     OW69795   6.460   5.043   5.775 -0.5781 -0.4812 -0.1060
22785SOL    HW169796   6.441   4.961   5.820  0.3795  0.9723  3.2188
22785SOL    HW269797   6.379   5.063   5.727 -1.5508 -2.3241  0.6714
22786SOL     OW69798   5.352   6.929   4.957 -0.6897 -0.0292 -0.3126
22786SOL    HW169799   5.312   7.009   4.991  0.4374  0.6329 -0.4986
22786SOL    HW269800   5.351   6.868   5.031  1.9929  1.4766  1.1005
22787SOL     OW69801   6.123   6.370   8.058 -0.1013  0.4809  0.2004
22787SOL    HW169802   6.196   6.424   8.086  0.0560  0.0759  0.5852
22787SOL    HW269803   6.051   6.431   8.043 -0.7557  0.5805  3.2054
22788SOL     OW69804   4.510   7.532   6.398  0.2788 -0.1963  0.3905
22788SOL    HW169805   4.545   7.611   6.355 -2.1575 -0.3719 -2.2232
22788SOL    HW269806   4.531   7.544   6.490  1.9818  2.4031 -0.2141
22789SOL     OW69807   5.107   6.719   5.431  0.4134 -0.2190  0.6536
22789SOL    HW169808   5.025   6.751   5.394  0.8844  0.9899  0.6240
22789SOL    HW269809   5.110   6.627   5.405  0.3097  0.3593 -1.6112
22790SOL     OW69810   7.491   6.201   9.241  0.3646 -0.1428 -0.1268
22790SOL    HW169811   7.554   6.268   9.214  2.6188 -2.4605 -1.0698
22790SOL    HW269812   7.438   6.185   9.163 -0.6932  0.9794  0.3223
22791SOL     OW69813   7.499   7.305   7.278 -0.1009 -0.3998  0.5745
22791SOL    HW169814   7.583   7.305   7.233 -0.5460 -0.1081 -0.2856
22791SOL    HW269815   7.521   7.313   7.371  0.7936  0.9601  0.2827
22792SOL     OW69816   5.151   5.697   7.005 -0.0701 -0.1630  0.4728
22792SOL    HW169817   5.098   5.641   7.061 -2.0851  0.2096 -0.9432
22792SOL    HW269818   5.192   5.638   6.942 -0.0697 -0.2892  0.5914
22793SOL     OW69819   7.815   7.478   5.391 -0.3607 -0.4647  0.4619
22793SOL    HW169820   7.897   7.448   5.352 -0.0552  0.5257  0.3189
22793SOL    HW269821   7.757   7.402   5.386  0.2529 -0.8988 -0.2634
22794SOL     OW69822   6.423   6.120   7.989 -0.0570 -0.3023 -0.2365
22794SOL    HW169823   6.407   6.029   8.015 -0.6017  0.9051  4.4146
22794SOL    HW269824   6.337   6.153   7.964 -0.4389 -0.3196  0.9931
22795SOL     OW69825   0.297   7.143   6.881 -0.6874  0.1993  0.3583
22795SOL    HW169826   0.287   7.049   6.870  1.1601 -0.1104  0.8894
22795SOL    HW269827   0.288   7.179   6.793  0.2426 -0.6821 -0.1118
22796SOL     OW69828   7.156   7.666   4.742 -0.1253  0.0145  0.1244
22796SOL    HW169829   7.241   7.649   4.701 -0.0374  1.4738 -0.3667
22796SOL    HW269830   7.128   7.581   4.776  0.6948 -0.8505 -1.2728
22797SOL     OW69831   6.119   7.705   4.950  0.0262 -0.1679 -0.5283
22797SOL    HW169832   6.167   7.724   5.031 -1.5811  0.7262  0.2609
22797SOL    HW269833   6.087   7.615   4.962 -0.8216  0.2121  0.1791
22798SOL     OW69834   6.759   6.837   6.554 -0.4293 -0.3591  0.2329
22798SOL    HW169835   6.733   6.901   6.488 -2.1049  0.9207  2.0028
22798SOL    HW269836   6.854   6.837   6.552 -0.4176  1.2144 -0.7389
22799SOL     OW69837   4.297   6.913   5.957  0.3074  0.6086 -0.1928
22799SOL    HW169838   4.295   6.925   5.862  1.6086  0.7960 -0.2042
22799SOL    HW269839   4.243   6.985   5.992 -1.3148 -0.2435 -0.8298
22800SOL     OW69840   6.262   0.540   4.745 -0.3214 -0.1455 -0.4644
22800SOL    HW169841   6.351   0.570   4.725 -0.8939  0.3870 -2.4114
22800SOL    HW269842   6.206   0.611   4.714 -1.4835 -1.0192 -0.3919
22801SOL     OW69843   6.725   6.403   7.482  0.3750 -0.2558 -0.1551
22801SOL    HW169844   6.721   6.396   7.387 -1.7427 -1.0192 -0.0811
22801SOL    HW269845   6.709   6.314   7.513  0.6448  0.0528  0.9178
22802SOL     OW69846   0.548   1.720   5.144  0.7279  0.2644  0.0486
22802SOL    HW169847   0.501   1.718   5.061 -1.5815 -0.1343  1.2889
22802SOL    HW269848   0.483   1.748   5.208  2.8998  2.3581  1.4927
22803SOL     OW69849   6.439   2.006   3.948 -0.0943  0.4243 -0.5736
22803SOL    HW169850   6.368   1.947   3.974 -0.0237  0.2107 -0.8653
22803SOL    HW269851   6.518   1.953   3.954  0.2006  0.9730  0.8559
22804SOL     OW69852   7.091   6.406   6.532 -0.0128 -0.1395  0.0432
22804SOL    HW169853   7.135   6.345   6.591 -1.7359 -3.5684 -1.8597
22804SOL    HW269854   6.999   6.403   6.558 -0.4983 -0.2553 -1.5753
22805SOL     OW69855   4.843   6.405   5.978  0.6829  0.3808  0.2176
22805SOL    HW169856   4.901   6.378   6.050 -0.2271  0.8593  1.1692
22805SOL    HW269857   4.871   6.353   5.903  1.5086 -0.3132  0.9839
22806SOL     OW69858   5.407   5.601   6.448 -0.1674  0.2139 -0.6229
22806SOL    HW169859   5.442   5.567   6.365 -0.9965  0.2701 -1.0009
22806SOL    HW269860   5.333   5.545   6.468 -0.4405  0.6800 -0.3097
22807SOL     OW69861   5.164   6.265   6.985 -0.8513  0.3660  0.7617
22807SOL    HW169862   5.245   6.249   7.035 -1.0483 -0.4987  0.8279
22807SOL    HW269863   5.125   6.178   6.975 -0.8339  0.5302 -0.8866
22808SOL     OW69864   7.754   5.078   6.673 -0.3461  0.1652 -0.0337
22808SOL    HW169865   7.754   5.036   6.587 -0.2534 -0.5261  0.2985
22808SOL    HW269866   7.840   5.119   6.680 -0.6873  1.0135 -0.6426
22809SOL     OW69867   5.661   4.670   4.801  0.0568  0.2737 -0.1013
22809SOL    HW169868   5.704   4.614   4.866 -1.6016 -1.3575 -0.3306
22809SOL    HW269869   5.568   4.668   4.826 -0.2448  1.7529 -0.9927
22810SOL     OW69870   5.426   4.085   7.783 -0.9673 -0.5962  0.0825
22810SOL    HW169871   5.378   4.115   7.705  0.3174 -0.5787 -0.7357
22810SOL    HW269872   5.364   4.030   7.830 -1.6331 -0.9898 -1.2132
22811SOL     OW69873   7.677   6.091   5.114 -0.3399 -0.2801  0.0538
22811SOL    HW169874   7.605   6.062   5.058 -0.6519 -0.7366  0.6793
22811SOL    HW269875   7.676   6.031   5.188 -0.0979  0.4643  0.6797
22812SOL     OW69876   5.078   6.313   6.099  0.1369 -0.2348  0.0285
22812SOL    HW169877   5.139   6.241   6.086  1.4495  1.2833 -2.9996
22812SOL    HW269878   5.130   6.383   6.139 -0.3061  0.1838 -0.1069
22813SOL     OW69879   4.898   5.495   6.727  0.1178  0.2523  0.0244
22813SOL    HW169880   4.840   5.456   6.791  0.8714  0.5072  0.8924
22813SOL    HW269881   4.899   5.589   6.749 -1.5094  0.7750 -1.8954
22814SOL     OW69882   4.775   6.294   8.258 -0.5221  0.3039  0.4906
22814SOL    HW169883   4.737   6.211   8.285 -3.8094  1.6504  0.4483
22814SOL    HW269884   4.844   6.310   8.323  0.1798 -2.3626  0.5118
22815SOL     OW69885   4.559   6.921   6.781  0.0335  0.2378  0.4054
22815SOL    HW169886   4.585   6.993   6.839  0.5378  1.1643 -0.9334
22815SOL    HW269887   4.591   6.947   6.695 -1.3422 -0.7716 -0.4404
22816SOL     OW69888   7.272   7.356   5.372 -0.0137 -0.1772  0.3779
22816SOL    HW169889   7.243   7.448   5.373  0.5564  0.0072  0.9433
22816SOL    HW269890   7.193   7.306   5.351 -0.2172  0.4790 -0.4725
22817SOL     OW69891   5.974   4.267   5.387  0.4104  0.0489 -0.1279
22817SOL    HW169892   5.906   4.208   5.418  0.4650 -0.6997 -1.3706
22817SOL    HW269893   5.927   4.335   5.339  0.3816  0.7785  0.9137
22818SOL     OW69894   0.061   6.121   6.604  0.8427  0.2109 -0.2648
22818SOL    HW169895   0.032   6.066   6.677 -0.8231  1.8633  0.3784
22818SOL    HW269896   0.041   6.069   6.526  1.6396 -1.1208  0.3867
22819SOL     OW69897   6.243   5.460   6.607  0.0889 -0.6078  0.0988
22819SOL    HW169898   6.189   5.406   6.664 -0.8189  1.4684  1.3242
22819SOL    HW269899   6.208   5.445   6.519 -2.4480  0.5389  0.8209
22820SOL     OW69900   0.852   1.491   6.846 -0.3636 -0.4627  0.1755
22820SOL    HW169901   0.938   1.496   6.804  0.2761  1.4844  1.5649
22820SOL    HW269902   0.869   1.453   6.932 -0.2295  2.7765  1.7460
22821SOL     OW69903   6.575   5.898   7.605 -0.2132 -0.8591  0.2163
22821SOL    HW169904   6.493   5.870   7.563 -0.0810 -1.3012  0.2490
22821SOL    HW269905   6.644   5.857   7.553 -0.0468 -1.4213  0.8680
22822SOL     OW69906   6.817   6.237   6.193  0.1655 -0.3761 -0.1685
22822SOL    HW169907   6.759   6.246   6.269 -0.8572 -3.8837 -0.3532
22822SOL    HW269908   6.902   6.214   6.231  0.5464  1.2126 -0.0178
22823SOL     OW69909   6.434   4.132   5.985 -0.1924  0.1603 -0.1174
22823SOL    HW169910   6.520   4.093   6.000 -0.5859 -2.1688 -3.1429
22823SOL    HW269911   6.453   4.217   5.944  0.6851 -0.4563 -1.0284
22824SOL     OW69912   5.987   5.468   9.343  0.0550  0.4304  0.7580
22824SOL    HW169913   5.989   5.475   9.438  0.5429  0.3617  0.7561
22824SOL    HW269914   6.074   5.497   9.315  0.0353  0.1197  0.3602
22825SOL     OW69915   7.459   4.884   6.409  0.0691 -1.1359 -0.0313
22825SOL    HW169916   7.448   4.872   6.315 -2.1129  0.3942 -0.0526
22825SOL    HW269917   7.482   4.797   6.442  1.0127 -1.6658 -1.9753
22826SOL     OW69918   7.938   7.482   5.626  0.0440  0.0261  0.1278
22826SOL    HW169919   7.879   7.489   5.551 -1.3708  2.3512  1.3588
22826SOL    HW269920   7.886   7.437   5.693  0.2151  0.7086  0.7220
22827SOL     OW69921   5.346   6.384   5.812  0.2312  0.2270 -0.2026
22827SOL    HW169922   5.262   6.425   5.791  0.7143  1.5489  0.3330
22827SOL    HW269923   5.365   6.329   5.736 -2.8096 -3.0645  1.1359
22828SOL     OW69924   6.857   7.667   8.460 -0.1368  0.3731 -0.5877
22828SOL    HW169925   6.934   7.723   8.446  0.2305  0.2292  0.6811
22828SOL    HW269926   6.874   7.589   8.407  0.1434  0.7461 -1.0541
22829SOL     OW69927   5.917   6.069   6.719 -0.3076  0.4464 -0.2766
22829SOL    HW169928   5.960   6.130   6.659 -0.6867  0.7812 -0.2091
22829SOL    HW269929   5.828   6.059   6.685  0.3651 -1.7950 -1.5678
22830SOL     OW69930   0.306   6.516   6.812  0.3871  0.2454  0.6239
22830SOL    HW169931   0.232   6.575   6.826  0.1617 -0.2610  1.7461
22830SOL    HW269932   0.267   6.428   6.816  0.6670 -0.0070 -1.2952
22831SOL     OW69933   4.161   0.077   5.702  0.0240  0.6014  0.2318
22831SOL    HW169934   4.164   0.162   5.659  0.9686  0.0254 -0.8754
22831SOL    HW269935   4.253   0.053   5.715 -0.0910 -1.5141 -2.0981
22832SOL     OW69936   7.844   6.626   5.057 -0.1155  0.9061 -0.2413
22832SOL    HW169937   7.868   6.565   5.127 -0.2136 -1.0233 -1.8016
22832SOL    HW269938   7.750   6.614   5.046 -0.1212  1.2632 -0.6086
22833SOL     OW69939   6.796   7.589   5.515  1.0222  0.0768  0.1271
22833SOL    HW169940   6.854   7.568   5.442 -0.4335  1.3558 -1.4529
22833SOL    HW269941   6.747   7.666   5.486 -0.2859  0.0454  2.0782
22834SOL     OW69942   2.987   7.128   4.632  0.0727 -0.3115 -0.2372
22834SOL    HW169943   2.925   7.171   4.575 -1.2810  0.2651  1.5720
22834SOL    HW269944   2.974   7.034   4.616  0.6560 -0.1621 -1.7636
22835SOL     OW69945   7.096   0.015   5.675 -0.1831  0.3191 -0.3898
22835SOL    HW169946   7.069  -0.071   5.643  0.3784  0.3988 -1.1070
22835SOL    HW269947   7.042   0.077   5.627 -0.5614  0.3794  0.1004
22836SOL     OW69948   5.595   6.945   5.793 -0.0945  0.1821 -0.5961
22836SOL    HW169949   5.648   6.978   5.866  1.4073  1.4059 -2.1632
22836SOL    HW269950   5.552   7.022   5.757  1.2941  0.1150 -2.6023
22837SOL     OW69951   6.884   7.525   5.785 -0.2173  0.2355  0.6788
22837SOL    HW169952   6.897   7.433   5.763 -1.2450  0.0168  0.9180
22837SOL    HW269953   6.790   7.532   5.805 -0.4816  1.6237 -0.7632
22838SOL     OW69954   6.524   6.856   7.001 -0.1515 -0.0033  0.2061
22838SOL    HW169955   6.554   6.858   6.910  0.0079 -1.1325  0.2126
22838SOL    HW269956   6.433   6.885   6.997  0.2200  1.1572 -0.1358
22839SOL     OW69957   6.751   0.088   5.024  0.2075  0.3422  0.2170
22839SOL    HW169958   6.717   0.095   4.935 -1.9767  0.7445  1.0295
22839SOL    HW269959   6.726  -0.000   5.052  1.6614 -0.1134  0.1707
22840SOL     OW69960   5.676   3.400   7.796 -0.3431 -0.4136  0.2745
22840SOL    HW169961   5.695   3.396   7.889  0.3162  1.2115  0.2306
22840SOL    HW269962   5.593   3.447   7.791  0.2258  0.5921  0.0033
22841SOL     OW69963   5.815   4.701   7.488  0.1612 -0.8017  0.4105
22841SOL    HW169964   5.794   4.649   7.566 -1.5763  0.8069  1.0835
22841SOL    HW269965   5.741   4.685   7.428  0.2498 -0.1118  0.1076
22842SOL     OW69966   5.944   6.847   5.159 -0.4946 -0.0436  0.0032
22842SOL    HW169967   5.998   6.777   5.195 -1.8118 -1.2803 -0.3700
22842SOL    HW269968   6.003   6.923   5.155  0.4322 -0.5473  2.2971
22843SOL     OW69969   7.107   7.373   5.957  0.1839  0.0208 -0.1800
22843SOL    HW169970   7.052   7.425   6.016 -0.2043 -0.9697  0.3760
22843SOL    HW269971   7.064   7.380   5.872  0.7875  1.5236 -0.3840
22844SOL     OW69972   6.617   4.939   6.965  0.1290 -0.4232  0.0246
22844SOL    HW169973   6.667   4.887   6.902  0.1643  0.0120 -0.3068
22844SOL    HW269974   6.536   4.890   6.977  0.7781 -1.3246  0.8416
22845SOL     OW69975   5.969   5.987   5.791 -0.5639  0.0427  0.1712
22845SOL    HW169976   6.010   5.940   5.718  0.2081 -0.4130  0.8730
22845SOL    HW269977   5.974   6.079   5.767  0.0340 -0.0764 -0.1952
22846SOL     OW69978   6.797   7.312   6.728  0.4447  0.8657 -0.5841
22846SOL    HW169979   6.818   7.222   6.750  0.0756  0.5612 -1.4418
22846SOL    HW269980   6.837   7.326   6.642  0.9326  1.6778 -0.2350
22847SOL     OW69981   6.695   5.199   6.977  0.1898  0.4591 -0.1033
22847SOL    HW169982   6.672   5.106   6.981 -0.8226  0.7031 -0.0752
22847SOL    HW269983   6.625   5.239   6.926 -0.2079  1.4419  1.1556
22848SOL     OW69984   0.420   0.606   5.413  0.2076 -0.2346  0.4027
22848SOL    HW169985   0.414   0.613   5.508  0.6079 -1.3446  0.5252
22848SOL    HW269986   0.455   0.691   5.385  0.4899 -0.0475  1.2785
22849SOL     OW69987   5.203   4.540   7.258  0.1358 -0.2940  0.4388
22849SOL    HW169988   5.235   4.625   7.229  0.5344  0.2887  2.4444
22849SOL    HW269989   5.114   4.557   7.290  0.6907 -0.3003  2.1083
22850SOL     OW69990   6.406   5.591   6.410 -0.2965 -0.5388 -0.1812
22850SOL    HW169991   6.369   5.549   6.487  1.3484 -2.1105 -0.2010
22850SOL    HW269992   6.413   5.521   6.345 -0.5163  0.4955 -1.3606
22851SOL     OW69993   5.285   6.327   7.915 -0.3938  0.1803  0.1429
22851SOL    HW169994   5.371   6.309   7.951 -0.5145  2.3960  1.7745
22851SOL    HW269995   5.230   6.346   7.991 -2.7058 -2.3610 -0.7559
22852SOL     OW69996   7.764   5.979   5.763 -0.0090 -0.4786  0.0579
22852SOL    HW169997   7.671   5.984   5.786 -0.0335 -1.5371  0.2350
22852SOL    HW269998   7.783   5.885   5.760  1.3184 -0.2710  1.1212
22853SOL     OW69999   7.893   4.918   8.563  0.0717 -0.6839 -0.3420
22853SOL    HW170000   7.881   4.931   8.469  1.2602  0.6954 -0.3352
22853SOL    HW270001   7.816   4.959   8.603  0.7524  0.9458 -0.6281
22854SOL     OW70002   6.390   5.086   7.193 -0.4838  0.3562  0.0524
22854SOL    HW170003   6.379   5.172   7.233  1.6810  0.5286  0.3683
22854SOL    HW270004   6.397   5.026   7.267  0.2843  0.2329 -0.1146
22855SOL     OW70005   6.902   7.317   6.476 -0.5589 -0.5376 -0.5023
22855SOL    HW170006   6.845   7.364   6.415  1.6292  1.2429 -1.3278
22855SOL    HW270007   6.887   7.225   6.457 -2.2516 -0.1002 -1.4963
22856SOL     OW70008   0.241   6.569   7.636 -0.3300 -0.0112  0.0025
22856SOL    HW170009   0.194   6.565   7.553  1.3741 -0.9334 -0.9835
22856SOL    HW270010   0.277   6.658   7.639  0.0544 -0.1457 -0.5237
22857SOL     OW70011   7.914   6.374   6.572  0.6813  0.3108 -0.1842
22857SOL    HW170012   7.841   6.347   6.516 -0.0882  0.6365  0.6427
22857SOL    HW270013   7.951   6.292   6.604 -0.6003  0.1463  0.9865
22858SOL     OW70014   7.265   6.284   4.779  0.2233  0.4971 -0.4030
22858SOL    HW170015   7.318   6.275   4.700 -0.1592 -1.1635 -0.4991
22858SOL    HW270016   7.194   6.343   4.754 -0.5352 -0.9060 -1.6803
22859SOL     OW70017   6.649   6.166   7.595  0.0885 -0.2355 -0.0357
22859SOL    HW170018   6.579   6.217   7.635 -1.1481 -1.5432 -0.4316
22859SOL    HW270019   6.629   6.076   7.617  1.0829 -0.7326 -1.0341
22860SOL     OW70020   5.709   7.904   5.750 -0.3806 -0.8761 -0.9327
22860SOL    HW170021   5.693   7.992   5.785 -0.5588 -0.8286 -1.1317
22860SOL    HW270022   5.622   7.869   5.733 -0.2847 -0.5801 -2.1078
22861SOL     OW70023   6.030   4.812   6.585 -0.0786  0.4867  0.2766
22861SOL    HW170024   6.017   4.836   6.493 -0.8495  2.7506  0.9154
22861SOL    HW270025   6.015   4.893   6.633  1.5216 -0.3644  2.3355
22862SOL     OW70026   7.369   6.079   8.064 -0.4152  0.0008 -0.8939
22862SOL    HW170027   7.427   6.034   8.004  0.9506  0.1696  0.2471
22862SOL    HW270028   7.294   6.020   8.075 -0.5536 -0.1461 -2.5021
22863SOL     OW70029   6.540   6.460   6.299 -0.1474 -0.2102  0.0875
22863SOL    HW170030   6.591   6.379   6.308 -0.5662 -0.4260  0.5747
22863SOL    HW270031   6.562   6.510   6.378  1.5733  1.0049 -1.0951
22864SOL     OW70032   7.507   7.974   5.603  0.1967 -0.0370  0.4535
22864SOL    HW170033   7.463   8.060   5.599  0.0799 -0.0747  0.9263
22864SOL    HW270034   7.510   7.945   5.512  1.6410  1.1798  0.0720
22865SOL     OW70035   7.592   5.909   5.361  0.7910 -0.8981 -0.1082
22865SOL    HW170036   7.608   5.815   5.353  0.2093 -0.9486 -0.7774
22865SOL    HW270037   7.499   5.916   5.381  0.4581 -0.4223 -1.6510
22866SOL     OW70038   4.806   7.119   5.773 -0.1128 -0.7891 -0.4469
22866SOL    HW170039   4.770   7.044   5.819  1.1635 -0.0286  1.9544
22866SOL    HW270040   4.824   7.183   5.841  0.4040  1.0728 -2.2166
22867SOL     OW70041   7.826   6.331   7.551  0.3356 -0.7026  0.7786
22867SOL    HW170042   7.899   6.368   7.501  0.4009  0.6903  1.8363
22867SOL    HW270043   7.749   6.347   7.496  0.6073 -0.6868  0.3963
22868SOL     OW70044   6.548   5.598   8.324  0.3920 -0.0319  0.4666
22868SOL    HW170045   6.503   5.657   8.264  1.5731 -0.0255 -0.4512
22868SOL    HW270046   6.641   5.608   8.302  0.6439 -1.9372  0.5560
22869SOL     OW70047   6.009   6.415   6.312  0.0320  0.1895 -0.0037
22869SOL    HW170048   5.973   6.400   6.224  2.4494  2.5645 -1.5725
22869SOL    HW270049   6.102   6.396   6.303  0.3548  0.6024  2.0406
22870SOL     OW70050   6.877   7.392   7.113  0.2160 -0.2067 -0.3420
22870SOL    HW170051   6.883   7.427   7.202 -2.1843 -0.8676  0.1619
22870SOL    HW270052   6.905   7.464   7.057  0.5907  0.6414  0.8902
22871SOL     OW70053   1.073   5.914   8.084 -0.0807 -0.0094 -0.1029
22871SOL    HW170054   1.097   5.871   8.003 -4.6664 -1.0589 -1.2210
22871SOL    HW270055   1.065   6.007   8.061 -0.5182 -0.1802 -0.6461
22872SOL     OW70056   5.278   6.018   5.587  0.4551  0.2207  0.0832
22872SOL    HW170057   5.225   5.999   5.510  1.4261  0.9332 -0.7840
22872SOL    HW270058   5.237   5.967   5.657 -0.6072 -0.2288 -0.8311
22873SOL     OW70059   6.948   5.749   6.477  0.0006  0.5420 -0.2126
22873SOL    HW170060   6.979   5.682   6.537 -0.4266  0.5025 -0.0370
22873SOL    HW270061   6.982   5.722   6.392  1.0037  0.8391  0.0674
22874SOL     OW70062   7.552   5.238   7.842 -0.2596 -0.1483  0.3576
22874SOL    HW170063   7.607   5.160   7.850  0.3176  0.0726 -1.1023
22874SOL    HW270064   7.569   5.288   7.922  0.2164 -0.9859  0.7933
22875SOL     OW70065   7.732   5.702   6.687 -0.2089 -0.6252 -1.0265
22875SOL    HW170066   7.668   5.756   6.734  0.5848 -0.3119 -0.2722
22875SOL    HW270067   7.724   5.729   6.596  0.7006  1.3889 -0.5725
22876SOL     OW70068   4.016   5.662   6.348 -0.2627 -0.0360 -0.2317
22876SOL    HW170069   4.046   5.711   6.272 -0.7559  1.4768  0.5046
22876SOL    HW270070   3.942   5.611   6.316 -0.0578  0.0751 -0.9036
22877SOL     OW70071   6.856   6.732   5.354  0.2513 -0.1127 -0.1458
22877SOL    HW170072   6.914   6.779   5.295 -1.2166  0.0455 -1.5310
22877SOL    HW270073   6.886   6.641   5.351  2.0466  0.3830  1.2435
22878SOL     OW70074   5.657   6.851   5.444  0.3243 -0.4593  0.1250
22878SOL    HW170075   5.694   6.815   5.524 -0.5104 -2.1887 -0.2313
22878SOL    HW270076   5.562   6.840   5.454  0.0011  1.7224  0.0085
22879SOL     OW70077   5.509   7.192   5.390  0.3497  0.6486 -0.1163
22879SOL    HW170078   5.567   7.116   5.391 -0.6689 -0.1583  1.4019
22879SOL    HW270079   5.545   7.251   5.456  0.7647  1.2262 -0.8381
22880SOL     OW70080   5.358   4.994   6.392  0.2022  0.2353  0.1477
22880SOL    HW170081   5.284   4.977   6.451 -1.1491  0.7442 -1.3239
22880SOL    HW270082   5.345   5.084   6.362  1.8210  0.5666  0.3552
22881SOL     OW70083   5.423   4.508   7.396  0.1346 -0.1748 -0.7356
22881SOL    HW170084   5.345   4.509   7.341 -1.3389  1.9951  1.2115
22881SOL    HW270085   5.391   4.517   7.485  2.5671 -0.3212  0.2389
22882SOL     OW70086   0.325   6.554   7.922  0.0580 -0.0392  0.6825
22882SOL    HW170087   0.337   6.546   7.828  3.0468 -2.4067  1.1015
22882SOL    HW270088   0.325   6.648   7.939  2.9788  0.4859 -1.4328
22883SOL     OW70089   6.747   5.794   7.431 -0.6720  0.4366  0.0351
22883SOL    HW170090   6.748   5.742   7.351 -2.7469 -2.6024  1.7599
22883SOL    HW270091   6.839   5.806   7.454 -0.0489  0.8591 -2.3666
22884SOL     OW70092   7.384   5.699   7.184 -0.2944  0.2496  0.0014
22884SOL    HW170093   7.312   5.637   7.185 -1.9447  2.0455  0.5328
22884SOL    HW270094   7.417   5.700   7.274  0.9500 -1.1123 -0.4027
22885SOL     OW70095   5.788   7.462   5.837 -0.1590  0.1756  0.8006
22885SOL    HW170096   5.809   7.552   5.810  2.3331 -0.4652  0.3480
22885SOL    HW270097   5.752   7.421   5.759 -0.9017  0.6365  0.8886
22886SOL     OW70098   5.994   5.521   7.532  0.3065  0.5722  0.2527
22886SOL    HW170099   5.919   5.578   7.514  0.0945  0.5083  0.8883
22886SOL    HW270100   5.961   5.433   7.517  0.5231  0.5954 -0.3602
22887SOL     OW70101   0.512   6.808   6.367  0.1512 -0.0181  0.4672
22887SOL    HW170102   0.417   6.805   6.368  0.1607 -1.2000 -0.5405
22887SOL    HW270103   0.540   6.717   6.375  1.2060  0.3370  1.0352
22888SOL     OW70104   5.622   6.833   4.925 -0.4110 -0.2007  0.0278
22888SOL    HW170105   5.637   6.758   4.982 -1.2461 -0.8514 -0.5684
22888SOL    HW270106   5.528   6.849   4.931 -0.4983 -0.2219 -1.0640
22889SOL     OW70107   5.991   7.757   5.892 -0.2086 -0.1476  0.1153
22889SOL    HW170108   6.001   7.851   5.904  0.3366 -0.2747  0.6807
22889SOL    HW270109   5.950   7.748   5.806 -0.6084  0.6170  0.2213
22890SOL     OW70110   7.505   0.818   5.931 -0.5413 -0.6946 -0.0980
22890SOL    HW170111   7.506   0.914   5.928 -2.4260 -0.5152  1.8830
22890SOL    HW270112   7.574   0.791   5.871  0.5114  1.9145 -0.2101
22891SOL     OW70113   0.416   7.554   5.800 -0.8086  0.4428  0.0798
22891SOL    HW170114   0.477   7.481   5.791 -0.8615  0.3740  0.2605
22891SOL    HW270115   0.406   7.565   5.895 -1.1540  0.3888  0.0508
22892SOL     OW70116   0.000   5.725   6.775 -0.4718  0.6940 -0.2545
22892SOL    HW170117  -0.089   5.704   6.747 -0.7843  2.0598 -0.3512
22892SOL    HW270118   0.053   5.714   6.696 -0.5370 -0.2014 -0.1760
22893SOL     OW70119   7.259   6.600   7.520 -0.0801 -0.4323  0.2599
22893SOL    HW170120   7.293   6.663   7.457 -0.0633 -1.1128 -0.4334
22893SOL    HW270121   7.182   6.563   7.477 -0.2540 -0.6774  0.7759
22894SOL     OW70122   5.215   6.690   8.019 -0.0074  0.2197 -0.0716
22894SOL    HW170123   5.255   6.754   8.079  0.0353 -0.8797  1.1214
22894SOL    HW270124   5.179   6.623   8.077  0.4397 -1.1265 -1.3011
22895SOL     OW70125   5.774   6.264   7.557 -0.1950  0.0240 -0.4850
22895SOL    HW170126   5.820   6.348   7.558 -0.3853  0.1321  0.1927
22895SOL    HW270127   5.704   6.276   7.493 -0.2923  0.4249 -0.3094
22896SOL     OW70128   6.870   6.351   5.651 -0.7833 -0.3962 -0.2076
22896SOL    HW170129   6.899   6.341   5.742 -4.2477 -0.4721  1.0310
22896SOL    HW270130   6.900   6.439   5.627 -0.3367 -0.1185  1.2407
22897SOL     OW70131   7.701   0.236   5.486 -0.4836 -0.2554  0.1913
22897SOL    HW170132   7.765   0.165   5.480  0.5981  0.7717 -1.1823
22897SOL    HW270133   7.745   0.303   5.538 -0.2376  0.6077 -1.0719
22898SOL     OW70134   6.200   0.038   6.244 -0.2225  0.7715 -0.4196
22898SOL    HW170135   6.261   0.061   6.314  0.8251  1.1309 -1.4120
22898SOL    HW270136   6.191  -0.057   6.250  1.1916  0.5800 -0.8099
22899SOL     OW70137   5.865   6.833   6.535 -0.3372  0.3581  0.0063
22899SOL    HW170138   5.843   6.757   6.482  1.2527  0.0459 -0.2525
22899SOL    HW270139   5.958   6.847   6.519 -0.1619  1.1595  1.5629
22900SOL     OW70140   6.348   5.705   7.237  0.0540 -0.0104  0.0196
22900SOL    HW170141   6.422   5.753   7.199  1.0818 -0.8864  0.8544
22900SOL    HW270142   6.343   5.624   7.186 -0.2361 -0.0224  0.0662
22901SOL     OW70143   5.120   7.784   5.339 -1.0055  0.5023 -0.6518
22901SOL    HW170144   5.062   7.709   5.324 -0.8032  0.0241  0.8661
22901SOL    HW270145   5.153   7.773   5.428 -0.8259  2.3024 -0.4466
22902SOL     OW70146   6.967   0.957   5.216  0.2006  0.0499 -0.1059
22902SOL    HW170147   6.988   0.940   5.308  1.0785  0.4233 -0.2360
22902SOL    HW270148   6.939   1.048   5.214  1.4164  0.4350 -0.4026
22903SOL     OW70149   5.654   5.663   7.182  0.2513 -0.6215  0.6867
22903SOL    HW170150   5.668   5.666   7.087 -2.5007 -2.2407  0.1344
22903SOL    HW270151   5.739   5.689   7.219  0.9734  1.6625 -2.1642
22904SOL     OW70152   5.594   4.980   6.536 -0.0268  0.0146  0.1003
22904SOL    HW170153   5.631   4.902   6.496 -0.4233  0.1512 -0.5623
22904SOL    HW270154   5.513   4.996   6.486 -0.7152  0.0017  1.1797
22905SOL     OW70155   4.279   5.850   5.249 -0.4011 -0.4132  0.0238
22905SOL    HW170156   4.250   5.940   5.265 -2.5356 -1.4858  2.9468
22905SOL    HW270157   4.203   5.807   5.209  0.3272 -1.1480 -0.6139
22906SOL     OW70158   6.671   7.245   7.026 -0.0124  0.2300 -0.2319
22906SOL    HW170159   6.719   7.319   7.062 -1.8578  1.6817 -0.5508
22906SOL    HW270160   6.704   7.236   6.937  1.0659 -0.1494  0.1864
22907SOL     OW70161   7.283   6.423   6.936 -0.6405 -0.1572  0.2808
22907SOL    HW170162   7.201   6.463   6.964 -0.9932 -1.6359  1.4626
22907SOL    HW270163   7.278   6.333   6.967  0.8485 -0.6649 -0.8380
22908SOL     OW70164   7.408   0.818   5.584  0.1604  0.0275 -0.3301
22908SOL    HW170165   7.452   0.894   5.622 -0.5701  0.9590 -1.2747
22908SOL    HW270166   7.327   0.853   5.547 -0.6846 -1.3951  0.1023
22909SOL     OW70167   6.588   6.201   6.874  0.1843 -0.0110  0.4323
22909SOL    HW170168   6.643   6.129   6.902  1.8018  0.9361 -0.1787
22909SOL    HW270169   6.526   6.161   6.813  0.0902 -1.1208  1.2344
22910SOL     OW70170   1.383   0.389   6.153 -0.0387 -0.0247  0.2905
22910SOL    HW170171   1.358   0.305   6.192 -0.2118  0.4054  1.1343
22910SOL    HW270172   1.470   0.406   6.188 -0.3041  0.4921  0.7160
22911SOL     OW70173   6.023   7.510   6.293  0.4940  0.1741 -0.5033
22911SOL    HW170174   5.944   7.529   6.345  0.1119 -0.4590 -0.8386
22911SOL    HW270175   5.997   7.527   6.203  0.7294 -0.0676 -0.6180
22912SOL     OW70176   0.664   7.611   4.932  0.4336  0.0022  0.0146
22912SOL    HW170177   0.697   7.700   4.949  0.7377 -0.1887  0.4347
22912SOL    HW270178   0.732   7.554   4.966  0.9039 -0.4074 -1.5180
22913SOL     OW70179   3.986   6.575   4.809 -0.0378  0.6389 -0.0772
22913SOL    HW170180   4.034   6.492   4.814 -1.2195 -0.0675 -0.0789
22913SOL    HW270181   3.990   6.600   4.716  1.2477  1.1769  0.0974
22914SOL     OW70182   0.405   6.276   5.392 -0.6935 -0.1972 -0.1651
22914SOL    HW170183   0.309   6.280   5.390 -0.7188 -0.1163  0.9890
22914SOL    HW270184   0.433   6.358   5.351 -1.1602  1.7747  3.1036
22915SOL     OW70185   5.457   5.871   5.248 -0.4601 -0.3314 -0.0414
22915SOL    HW170186   5.371   5.890   5.285  0.3863  0.6980  1.4951
22915SOL    HW270187   5.509   5.949   5.266  1.2510 -1.5425  0.4968
22916SOL     OW70188   5.834   0.032   6.422  0.2460 -0.2088  0.2877
22916SOL    HW170189   5.853  -0.034   6.356 -2.0232 -1.1907  0.5566
22916SOL    HW270190   5.838  -0.015   6.505  2.2140  0.8330  0.8499
22917SOL     OW70191   6.051   5.786   6.654 -0.2132 -0.1014 -0.3008
22917SOL    HW170192   5.991   5.713   6.639  0.4268 -0.5875 -0.5430
22917SOL    HW270193   6.009   5.861   6.612 -0.9386 -0.2956  0.0651
22918SOL     OW70194   5.441   4.613   4.563  0.0702  0.3040  0.1088
22918SOL    HW170195   5.350   4.595   4.588 -0.1284  1.0213 -0.0532
22918SOL    HW270196   5.436   4.697   4.516  0.8418  0.4526  0.2803
22919SOL     OW70197   6.334   5.083   6.661  0.1578  0.2389 -0.1289
22919SOL    HW170198   6.330   5.007   6.719  0.6947  0.6331  0.4403
22919SOL    HW270199   6.330   5.047   6.573 -2.7246 -0.2747  0.1079
22920SOL     OW70200   5.505   4.428   5.240  0.1915  0.9895  0.1887
22920SOL    HW170201   5.442   4.481   5.191  1.4441  2.3688  0.0206
22920SOL    HW270202   5.521   4.478   5.320  0.3399  0.1552  0.6912
22921SOL     OW70203   5.391   7.324   4.914 -0.4747 -0.5285  0.4993
22921SOL    HW170204   5.329   7.300   4.984 -0.3800 -2.9776 -0.1574
22921SOL    HW270205   5.402   7.243   4.863  0.2287  0.9116 -1.7781
22922SOL     OW70206   5.492   3.671   7.402  0.0070  0.0115 -0.2220
22922SOL    HW170207   5.444   3.703   7.478 -0.8307 -1.4572 -0.0874
22922SOL    HW270208   5.433   3.606   7.363  1.8265 -1.7797 -0.1227
22923SOL     OW70209   7.609   7.461   6.363  0.3593 -0.1818 -0.1920
22923SOL    HW170210   7.556   7.440   6.286  0.0333  2.8115 -0.8914
22923SOL    HW270211   7.626   7.555   6.356 -0.4857  0.4615  3.8664
22924SOL     OW70212   4.547   6.340   8.087 -0.3813 -0.5566  0.1400
22924SOL    HW170213   4.519   6.309   8.000  1.0652  2.0803 -1.4055
22924SOL    HW270214   4.634   6.301   8.099 -1.2382 -2.2543  1.2541
22925SOL     OW70215   6.417   6.270   7.676 -0.2487 -0.1511  0.3988
22925SOL    HW170216   6.350   6.256   7.609 -0.3204  1.4512  0.0855
22925SOL    HW270217   6.375   6.247   7.759 -0.6563 -0.6953  0.0413
22926SOL     OW70218   5.542   0.258   7.405  0.4451  0.0013 -0.0859
22926SOL    HW170219   5.488   0.328   7.439  2.4807  1.3233  0.6180
22926SOL    HW270220   5.522   0.182   7.460 -0.3921  0.5534  0.3797
22927SOL     OW70221   5.692   5.191   8.449 -0.5263 -0.0095  0.2727
22927SOL    HW170222   5.655   5.167   8.533  0.6349  0.9786  1.1049
22927SOL    HW270223   5.698   5.108   8.400  2.7132 -1.4719  2.7536
22928SOL     OW70224   7.051   7.760   5.114  0.4113 -0.4093 -0.9623
22928SOL    HW170225   6.957   7.780   5.110  0.1515 -1.7027 -3.2389
22928SOL    HW270226   7.087   7.800   5.034  1.5160 -1.2229 -0.8887
22929SOL     OW70227   6.183   6.963   7.472  0.1863 -0.3166  0.2192
22929SOL    HW170228   6.256   6.910   7.440  1.5137  1.4390  0.1573
22929SOL    HW270229   6.193   6.961   7.568 -0.6429 -1.3327  0.2963
22930SOL     OW70230   0.544   5.213   6.184  0.1785 -0.4849  0.1962
22930SOL    HW170231   0.631   5.208   6.224  0.2944 -1.0540 -0.1151
22930SOL    HW270232   0.526   5.124   6.155  0.2325 -0.0293 -1.3285
22931SOL     OW70233   7.319   6.785   6.198  0.0736  0.0851  0.0863
22931SOL    HW170234   7.299   6.691   6.205  0.4890  0.0393  0.8644
22931SOL    HW270235   7.358   6.807   6.283  1.0006  0.7123 -0.4805
22932SOL     OW70236   6.734   6.149   5.115  1.0199 -0.1190 -0.0258
22932SOL    HW170237   6.793   6.150   5.190  1.2763  0.7358 -0.2238
22932SOL    HW270238   6.763   6.075   5.062  0.8112 -0.7503  0.7355
22933SOL     OW70239   7.232   6.365   5.834  0.3348 -0.9029  0.6608
22933SOL    HW170240   7.183   6.300   5.783 -0.0238 -0.8801  0.9687
22933SOL    HW270241   7.175   6.442   5.835  0.8432 -0.5114  0.1300
22934SOL     OW70242   5.889   5.450   6.775 -0.7067  0.2992  0.5758
22934SOL    HW170243   5.902   5.477   6.684 -0.4489 -1.4610  0.0600
22934SOL    HW270244   5.969   5.403   6.798 -0.9660  0.3163  1.5787
22935SOL     OW70245   5.913   6.234   5.789  0.2247  0.1914 -0.1824
22935SOL    HW170246   5.910   6.312   5.733 -2.0478  0.4187  0.1672
22935SOL    HW270247   5.946   6.266   5.873  0.0995  0.6110 -0.2921
22936SOL     OW70248   6.229   7.354   4.763 -0.2213  0.3384 -0.5941
22936SOL    HW170249   6.212   7.263   4.788 -0.0526  0.4885  0.0810
22936SOL    HW270250   6.272   7.347   4.678  0.8242 -0.2731 -0.0365
22937SOL     OW70251   6.573   7.460   5.295  0.6862 -0.4928 -0.1791
22937SOL    HW170252   6.492   7.416   5.320  0.4483 -1.4087 -2.2983
22937SOL    HW270253   6.604   7.501   5.375 -2.2912  0.6158  0.5237
22938SOL     OW70254   6.241   5.671   6.792 -0.2003 -0.1683  0.1441
22938SOL    HW170255   6.171   5.729   6.763  1.2514  0.6463 -2.0080
22938SOL    HW270256   6.257   5.614   6.717  0.4387 -1.3282  1.1388
22939SOL     OW70257   6.068   6.535   5.355 -0.1467 -0.4486 -0.1501
22939SOL    HW170258   6.100   6.593   5.287 -2.2273 -0.3646 -1.1279
22939SOL    HW270259   6.124   6.554   5.431  0.7115  1.1305 -1.1218
22940SOL     OW70260   6.491   5.744   6.893  0.7456  0.6970 -0.3018
22940SOL    HW170261   6.399   5.751   6.865  0.8184  1.0259 -0.4625
22940SOL    HW270262   6.523   5.666   6.848  0.3110  0.0831  0.4254
22941SOL     OW70263   6.407   0.066   4.385  0.2347  0.0590 -0.3488
22941SOL    HW170264   6.336   0.108   4.432 -0.9742 -0.9939 -1.1604
22941SOL    HW270265   6.446   0.007   4.449 -0.6304 -0.4867 -0.3052
22942SOL     OW70266   7.039   7.179   6.179  0.8561 -0.9045 -0.6672
22942SOL    HW170267   7.112   7.239   6.159  1.0989 -1.1134 -0.4168
22942SOL    HW270268   7.039   7.117   6.106 -1.5464  1.3417 -2.7940
22943SOL     OW70269   7.198   6.740   5.474  0.4210  0.0005  0.2129
22943SOL    HW170270   7.142   6.814   5.496 -0.5723 -0.6933  0.0544
22943SOL    HW270271   7.240   6.715   5.557 -1.5668 -1.1711  0.9194
22944SOL     OW70272   4.782   5.696   6.268 -0.5674 -0.2721 -0.3420
22944SOL    HW170273   4.864   5.649   6.254 -1.3156 -1.4739 -0.8193
22944SOL    HW270274   4.715   5.639   6.232 -1.5494  1.0595 -0.7014
22945SOL     OW70275   6.804   4.249   4.997  0.4099  0.3732  0.4497
22945SOL    HW170276   6.733   4.256   5.061  0.5127 -1.1240  0.7738
22945SOL    HW270277   6.867   4.190   5.038  1.8426  1.6644  0.1523
22946SOL     OW70278   7.673   7.143   7.765 -0.3783  0.4518  0.3009
22946SOL    HW170279   7.705   7.053   7.771  1.0817  0.9501  0.3605
22946SOL    HW270280   7.577   7.134   7.760 -0.2957 -1.0646  0.8839
22947SOL     OW70281   5.911   6.913   2.924 -0.1627 -0.4809  0.0808
22947SOL    HW170282   5.973   6.986   2.928 -0.0257 -0.5399 -0.6955
22947SOL    HW270283   5.851   6.937   2.852 -0.9828 -0.4745  0.7511
22948SOL     OW70284   4.521   7.848   6.693  0.5917  0.5607 -0.0392
22948SOL    HW170285   4.465   7.829   6.618 -0.9488  1.5019  0.8284
22948SOL    HW270286   4.584   7.913   6.661  1.7527 -1.0717 -1.2299
22949SOL     OW70287   7.757   5.649   5.498 -0.0195 -0.1035 -0.0348
22949SOL    HW170288   7.804   5.683   5.422 -0.3868  0.6122  0.0398
22949SOL    HW270289   7.668   5.632   5.466 -1.4282  3.9445  0.9899
22950SOL     OW70290   7.127   5.251   6.763 -0.1733  0.5063  0.1669
22950SOL    HW170291   7.185   5.327   6.757 -0.0932  0.4759  0.5194
22950SOL    HW270292   7.109   5.242   6.857  0.9222 -0.7426  0.2912
22951SOL     OW70293   6.740   7.348   5.028  0.5962  0.7323 -0.3647
22951SOL    HW170294   6.702   7.363   4.941 -1.0169 -1.4305 -0.0984
22951SOL    HW270295   6.672   7.377   5.089  0.7231 -0.0382  0.1499
22952SOL     OW70296   5.673   0.104   5.986  0.4752  1.1245 -0.3621
22952SOL    HW170297   5.714   0.152   6.058  0.7809 -0.6916  0.7493
22952SOL    HW270298   5.681   0.012   6.011  0.2192  0.4396 -2.5415
22953SOL     OW70299   5.509   6.684   5.686  0.5385  0.1081 -0.3682
22953SOL    HW170300   5.565   6.643   5.752  0.2783  0.5603  0.1391
22953SOL    HW270301   5.519   6.778   5.702 -1.5295  0.1919  0.7342
22954SOL     OW70302   5.056   5.780   8.671 -0.1357  0.3761 -0.0127
22954SOL    HW170303   5.139   5.786   8.718  0.0613 -0.4356 -0.2320
22954SOL    HW270304   4.995   5.831   8.724  0.6898  1.7168 -0.3070
22955SOL     OW70305   5.185   6.825   8.979 -0.3127 -0.1350 -0.3650
22955SOL    HW170306   5.112   6.793   8.927 -0.5196  1.7490 -1.3392
22955SOL    HW270307   5.204   6.912   8.943  1.0420  0.2987  1.2389
22956SOL     OW70308   5.135   6.536   6.279  0.1632  0.6752 -0.4898
22956SOL    HW170309   5.118   6.613   6.224 -0.3002  1.6435  0.9372
22956SOL    HW270310   5.048   6.503   6.301  0.2481  1.3104  0.9685
22957SOL     OW70311   5.727   7.782   8.704  0.0876  0.0800 -0.8200
22957SOL    HW170312   5.763   7.708   8.656  1.3286 -2.0078  2.8895
22957SOL    HW270313   5.797   7.808   8.765 -2.1627  0.6560  1.7291
22958SOL     OW70314   0.411   7.627   8.563 -0.4624  0.2885  0.0591
22958SOL    HW170315   0.352   7.604   8.634 -0.3663 -0.1200  0.0078
22958SOL    HW270316   0.364   7.695   8.513 -1.2440 -0.6218 -0.4676
22959SOL     OW70317   5.082   6.071   7.233 -0.1253 -0.4099  0.2395
22959SOL    HW170318   5.112   6.048   7.145 -0.3121 -1.1694  0.3677
22959SOL    HW270319   5.047   5.989   7.268 -1.0507  0.1420  0.6222
22960SOL     OW70320   0.644   6.231   8.692 -1.0765 -0.2671 -0.2173
22960SOL    HW170321   0.654   6.225   8.597  0.2871  0.5070 -0.1470
22960SOL    HW270322   0.617   6.142   8.718  0.0355 -0.9134 -1.1669
22961SOL     OW70323   6.171   6.800   8.928  0.5959  0.1636 -0.5487
22961SOL    HW170324   6.228   6.815   8.852  0.4928  0.2521 -0.6092
22961SOL    HW270325   6.085   6.829   8.899  0.3080 -0.9473 -0.8101
22962SOL     OW70326   6.393   6.544   8.865 -0.2594  0.1909  0.6241
22962SOL    HW170327   6.408   6.572   8.956 -0.1884 -0.6759  0.8864
22962SOL    HW270328   6.336   6.468   8.873 -0.7617  0.4826 -0.1023
22963SOL     OW70329   6.468   5.113   8.457  0.1207 -0.0616  0.0961
22963SOL    HW170330   6.388   5.099   8.406  1.0295  2.5854 -2.3210
22963SOL    HW270331   6.491   5.205   8.442  1.7489  0.2672  3.5898
22964SOL     OW70332   6.760   7.576   8.111 -0.2134 -0.3691  0.3114
22964SOL    HW170333   6.836   7.622   8.075 -0.3497  0.5243  1.1348
22964SOL    HW270334   6.734   7.515   8.042 -0.5068  1.3258 -1.1571
22965SOL     OW70335   5.037   0.090   8.662 -0.0243  0.2037 -0.0186
22965SOL    HW170336   5.015   0.000   8.637 -0.7490  0.4364 -0.2456
22965SOL    HW270337   5.084   0.125   8.586  1.4355 -0.3833  0.5753
22966SOL     OW70338   5.437   5.962   7.496  0.3561 -0.1421  0.2782
22966SOL    HW170339   5.496   5.991   7.427 -1.9177  0.2655 -1.5991
22966SOL    HW270340   5.419   6.041   7.547 -0.4750  0.2809 -0.6551
22967SOL     OW70341   6.255   6.675   7.470  0.1483 -0.4012 -0.6396
22967SOL    HW170342   6.252   6.589   7.429 -1.0275 -0.1915 -1.0354
22967SOL    HW270343   6.341   6.679   7.512 -0.2814 -2.2828  0.5237
22968SOL     OW70344   7.655   7.464  10.294  0.1376  0.3150  0.0521
22968SOL    HW170345   7.657   7.381  10.247  1.4285  0.7728 -0.7462
22968SOL    HW270346   7.613   7.525  10.233  1.3347  0.7820 -0.3428
22969SOL     OW70347   5.463   7.154   7.983  0.1356  0.1028 -0.2243
22969SOL    HW170348   5.450   7.236   8.031  2.4129  1.4505 -1.6915
22969SOL    HW270349   5.519   7.102   8.040 -0.2716  0.1039  0.1792
22970SOL     OW70350   6.414   5.991  11.008  0.0759  1.0751  0.6390
22970SOL    HW170351   6.438   5.913  11.059  1.1463  0.2732 -1.0312
22970SOL    HW270352   6.346   5.960  10.948 -0.7516  1.8828  1.1197
22971SOL     OW70353   6.218   0.266   7.419 -0.6653 -0.3262 -0.3205
22971SOL    HW170354   6.162   0.286   7.343 -1.0598  0.3271  0.1400
22971SOL    HW270355   6.269   0.345   7.433 -0.4825 -0.5023  0.0041
22972SOL     OW70356   5.787   7.321   9.177 -0.7059 -0.2793  0.7988
22972SOL    HW170357   5.709   7.274   9.206 -0.5268 -1.6185 -0.6977
22972SOL    HW270358   5.860   7.265   9.206 -0.4551 -0.5942 -0.3929
22973SOL     OW70359   7.343   7.330   7.873 -0.5109 -0.1319 -1.1156
22973SOL    HW170360   7.295   7.277   7.809 -1.3313  0.4749 -1.0209
22973SOL    HW270361   7.393   7.267   7.924 -0.5385 -0.7005 -1.7821
22974SOL     OW70362   3.967   0.637   7.533 -0.0747 -0.0579 -0.4511
22974SOL    HW170363   3.960   0.619   7.627  0.5555 -2.4870 -0.7960
22974SOL    HW270364   3.876   0.651   7.506 -0.1259  2.4257  0.7584
22975SOL     OW70365   5.945   5.086   8.303 -0.8297  0.0114 -0.0149
22975SOL    HW170366   5.951   5.175   8.269  1.1913 -0.8777 -2.2460
22975SOL    HW270367   5.853   5.061   8.291 -1.6712  2.0500  1.5729
22976SOL     OW70368   7.666   7.042   7.159  0.0197 -0.1473 -0.0565
22976SOL    HW170369   7.723   7.117   7.173  0.5434 -0.6255  0.4752
22976SOL    HW270370   7.683   7.014   7.069  1.7760 -1.1993  0.5564
22977SOL     OW70371   0.007   7.737   5.583 -0.1313 -0.0170  0.2841
22977SOL    HW170372   0.084   7.711   5.532 -1.8841 -0.2470 -2.4211
22977SOL    HW270373  -0.024   7.655   5.622  0.4447 -0.0677  0.6610
22978SOL     OW70374   5.858   6.757   8.156 -0.2008 -0.2503 -0.7467
22978SOL    HW170375   5.763   6.750   8.165 -0.0441 -0.1942  1.7513
22978SOL    HW270376   5.872   6.842   8.113 -1.2641 -0.7699 -2.2015
22979SOL     OW70377   0.940   7.845   8.393 -0.2552  0.5138 -0.7859
22979SOL    HW170378   0.911   7.929   8.359 -0.4285 -0.3819 -3.0336
22979SOL    HW270379   1.032   7.857   8.415 -0.9524  2.0246  1.7153
22980SOL     OW70380   6.836   6.254   8.950 -0.6860 -0.2592 -0.2839
22980SOL    HW170381   6.752   6.234   8.909 -1.1331  0.1268  0.4171
22980SOL    HW270382   6.813   6.302   9.029  0.1634 -0.9660  0.4043
22981SOL     OW70383   4.210   6.127   9.510 -0.4883  0.0005  0.1197
22981SOL    HW170384   4.215   6.177   9.429 -1.2658  1.1722  0.7574
22981SOL    HW270385   4.243   6.040   9.488  3.3318  1.4062 -0.5203
22982SOL     OW70386   6.509   6.433   7.016 -0.0794 -0.0393  0.5207
22982SOL    HW170387   6.498   6.344   6.981 -1.7446  1.1025 -2.0646
22982SOL    HW270388   6.574   6.473   6.959  1.8366  0.0605  2.5980
22983SOL     OW70389   7.089   6.150   9.830 -0.0346  0.0844 -0.1615
22983SOL    HW170390   7.022   6.215   9.812  0.0910  0.1955 -0.2350
22983SOL    HW270391   7.169   6.188   9.793  0.0133 -0.1713 -0.3289
22984SOL     OW70392   5.417   5.506   7.761  0.2852 -0.1020 -0.2322
22984SOL    HW170393   5.378   5.457   7.689  2.4109  0.8575 -2.1500
22984SOL    HW270394   5.454   5.584   7.720  1.8929  0.3225  1.8537
22985SOL     OW70395   6.815   6.095   8.392  0.1354  0.3698 -1.1545
22985SOL    HW170396   6.858   6.063   8.471 -0.1820  0.3535 -0.9850
22985SOL    HW270397   6.721   6.086   8.411  0.0370  1.3513 -1.1193
22986SOL     OW70398   7.020   7.217   8.120  0.3080  0.4552  0.2219
22986SOL    HW170399   6.958   7.151   8.088  1.6432 -0.3268 -0.8799
22986SOL    HW270400   7.102   7.169   8.132  1.1503  1.7855 -0.0134
22987SOL     OW70401   7.752   6.612   7.420  0.7540  0.5556 -0.2241
22987SOL    HW170402   7.703   6.653   7.348  0.9827 -0.0101 -0.7130
22987SOL    HW270403   7.697   6.540   7.449  0.4769  1.0253  0.4542
22988SOL     OW70404   4.877   5.637   8.938  0.3081 -0.4287 -0.0366
22988SOL    HW170405   4.921   5.572   8.884  0.1221  1.1719 -2.2813
22988SOL    HW270406   4.944   5.703   8.956 -0.5748  1.0669 -1.8551
22989SOL     OW70407   7.392   6.367   6.434  0.1084  0.4253 -0.4890
22989SOL    HW170408   7.305   6.377   6.397  0.6056  2.1271 -1.3210
22989SOL    HW270409   7.381   6.386   6.527 -0.4663  0.3094 -0.5324
22990SOL     OW70410   7.507   7.439   5.276  0.5932 -0.1535  0.2933
22990SOL    HW170411   7.417   7.419   5.301  0.5596 -0.6875 -0.2354
22990SOL    HW270412   7.499   7.481   5.190  0.8869 -0.6922  0.0010
22991SOL     OW70413   7.096   6.472   7.922  0.2993  0.5782  0.1938
22991SOL    HW170414   7.067   6.536   7.856  1.0243 -0.1357 -0.8333
22991SOL    HW270415   7.091   6.520   8.004 -0.5772  1.5089 -0.3689
22992SOL     OW70416   6.332   7.505   6.751  0.2171  0.1679  0.2974
22992SOL    HW170417   6.362   7.415   6.758  0.4523  0.2705  0.6173
22992SOL    HW270418   6.236   7.498   6.755 -0.0518 -0.4114 -3.3733
22993SOL     OW70419   5.644   7.199   5.918  0.0699 -0.0399 -0.4476
22993SOL    HW170420   5.712   7.266   5.907 -0.4923  0.8505  1.1939
22993SOL    HW270421   5.577   7.222   5.854  0.0332  0.8056 -0.1237
22994SOL     OW70422   7.883   7.590   9.110 -0.0181 -0.2102 -0.0693
22994SOL    HW170423   7.935   7.633   9.178  1.5019 -1.6734 -0.2530
22994SOL    HW270424   7.931   7.605   9.029 -0.4251 -0.6849 -0.4065
22995SOL     OW70425   7.028   6.229   9.290  0.1865 -0.2918 -0.9285
22995SOL    HW170426   6.962   6.172   9.251  0.1316 -0.1455 -1.0522
22995SOL    HW270427   6.996   6.245   9.379  0.0964 -0.2839 -0.9622
22996SOL     OW70428   6.173   6.980   7.747 -0.2137 -0.1611  0.4011
22996SOL    HW170429   6.087   7.014   7.775 -0.3692  0.2744 -0.5788
22996SOL    HW270430   6.223   6.974   7.828 -0.8052  0.6404  0.8447
22997SOL     OW70431   7.268   6.809   8.196  0.0523 -0.2882  0.1099
22997SOL    HW170432   7.352   6.765   8.193  0.0891 -0.4492  2.1009
22997SOL    HW270433   7.207   6.742   8.228 -0.4305  0.3471  0.5470
22998SOL     OW70434   7.722   5.055   6.950 -0.0474 -0.2324  0.6019
22998SOL    HW170435   7.723   5.072   6.855 -3.1072 -0.2520  0.4634
22998SOL    HW270436   7.756   4.966   6.958 -0.6369 -0.6092 -0.6401
22999SOL     OW70437   6.306   5.539   7.978  0.0542  0.4738  0.5688
22999SOL    HW170438   6.218   5.577   7.982 -0.1245  0.0298  0.9361
22999SOL    HW270439   6.297   5.465   7.918  0.1622  0.3895  0.6567
23000SOL     OW70440   6.015   6.560  11.333 -0.0069  0.0421  0.1760
23000SOL    HW170441   6.081   6.513  11.384  0.4654  0.5432  0.0283
23000SOL    HW270442   6.063   6.628  11.287 -0.8293  1.4003  1.2499
23001SOL     OW70443   6.273   4.684   9.274  0.1668 -0.1049  0.0589
23001SOL    HW170444   6.357   4.704   9.234  1.8751 -2.7183  1.9666
23001SOL    HW270445   6.254   4.594   9.246 -0.3949 -0.6586  2.0275
23002SOL     OW70446   7.773   0.025  10.587  0.4650 -0.0571  0.0887
23002SOL    HW170447   7.791  -0.046  10.525 -1.7537  0.2998 -1.0779
23002SOL    HW270448   7.859   0.046  10.624  1.6775 -1.2562 -1.8084
23003SOL     OW70449   7.501   7.226   8.064  0.0361 -0.4103 -0.6495
23003SOL    HW170450   7.593   7.211   8.088 -0.2317  0.5302  1.1996
23003SOL    HW270451   7.476   7.302   8.117 -2.1447 -1.3561 -0.2300
23004SOL     OW70452   4.583   6.970   9.014 -0.2881  0.0762  0.2574
23004SOL    HW170453   4.676   6.953   9.001 -0.1822  0.3042  0.7126
23004SOL    HW270454   4.543   6.946   8.931  0.2202  0.3145 -0.0609
23005SOL     OW70455   0.075   7.227   5.435  0.3931  0.2641 -0.0570
23005SOL    HW170456   0.057   7.320   5.427 -1.1475  0.1202  1.1902
23005SOL    HW270457   0.149   7.211   5.376 -0.7846  1.8321 -2.0918
23006SOL     OW70458   5.865   7.205   9.779 -0.0086  0.6200  0.1597
23006SOL    HW170459   5.917   7.133   9.813 -1.6474 -0.3411  0.7322
23006SOL    HW270460   5.926   7.279   9.775  1.9153 -0.9246 -1.1284
23007SOL     OW70461   6.853   7.154   8.687 -0.1130 -1.0185  0.7403
23007SOL    HW170462   6.902   7.195   8.615 -0.9074 -0.6055  0.4263
23007SOL    HW270463   6.911   7.162   8.763  0.5601 -1.0838  0.2463
23008SOL     OW70464   7.337   7.753   7.438  0.2775  0.3473 -0.2341
23008SOL    HW170465   7.260   7.809   7.446 -0.1844 -0.3593  0.4070
23008SOL    HW270466   7.347   7.714   7.525  1.6950  0.8462 -0.1508
23009SOL     OW70467   6.436   6.772   7.703 -0.5644  0.5180 -0.2715
23009SOL    HW170468   6.455   6.743   7.792 -0.6103  1.7126  0.1423
23009SOL    HW270469   6.494   6.719   7.648  1.0703  1.2652  0.6466
23010SOL     OW70470   6.867   5.330   7.805  0.5479  0.7889  0.5683
23010SOL    HW170471   6.876   5.411   7.754 -0.2108  1.0035  0.7580
23010SOL    HW270472   6.775   5.330   7.832  0.3920 -0.4308  0.0852
23011SOL     OW70473   6.558   5.878   8.495 -0.5292  0.0853  0.1117
23011SOL    HW170474   6.560   5.934   8.417 -1.0564 -0.6516 -0.4444
23011SOL    HW270475   6.562   5.789   8.460  2.8726 -0.2836  1.0570
23012SOL     OW70476   7.648   7.015   6.049  0.2818 -0.0120 -0.3177
23012SOL    HW170477   7.619   7.070   6.122  1.5034  1.3825 -0.8567
23012SOL    HW270478   7.714   6.957   6.087  1.5405  1.2861 -0.4456
23013SOL     OW70479   5.638   7.580   9.118 -0.2037 -0.2207  0.3546
23013SOL    HW170480   5.689   7.655   9.088 -0.0287  0.1301  1.4873
23013SOL    HW270481   5.702   7.510   9.129 -0.3453 -0.5089 -0.5580
23014SOL     OW70482   7.910   7.513   6.787 -0.2412 -0.0934 -0.0096
23014SOL    HW170483   7.941   7.592   6.830  0.0584  0.5103 -1.2775
23014SOL    HW270484   7.990   7.463   6.770 -0.2436  0.1195 -0.6916
23015SOL     OW70485   5.840   7.535   6.484 -0.4127  0.8446 -0.2553
23015SOL    HW170486   5.880   7.469   6.541  0.8613  1.8985  0.1364
23015SOL    HW270487   5.771   7.574   6.537 -0.2150  0.7942  0.0439
23016SOL     OW70488   7.230   4.764   7.349 -0.6316  0.1618 -0.3361
23016SOL    HW170489   7.273   4.850   7.357  0.0034 -0.0242 -1.5007
23016SOL    HW270490   7.232   4.728   7.437  1.3014  0.3261 -0.2687
23017SOL     OW70491   6.230   5.721   8.221 -0.8739  0.3113 -0.2240
23017SOL    HW170492   6.223   5.660   8.294 -0.5574  0.1850 -0.2950
23017SOL    HW270493   6.151   5.706   8.169 -0.4159 -0.6317 -0.6766
23018SOL     OW70494   6.176   6.190   7.867 -0.2227  0.3255  0.0683
23018SOL    HW170495   6.137   6.244   7.936 -0.7786 -1.0557  0.8703
23018SOL    HW270496   6.144   6.102   7.885  0.3797 -0.2188 -1.4218
23019SOL     OW70497   5.277   6.405   7.487 -0.4908 -0.1438  0.3044
23019SOL    HW170498   5.199   6.368   7.447 -0.0785  0.6856 -1.3464
23019SOL    HW270499   5.243   6.461   7.557 -1.4013  0.3591 -0.5144
23020SOL     OW70500   7.268   4.821   9.965  0.2676  0.0072 -0.2372
23020SOL    HW170501   7.186   4.833   9.917  1.0024  1.2039 -1.2607
23020SOL    HW270502   7.311   4.747   9.923  0.2463  0.1361 -0.4860
23021SOL     OW70503   6.188   6.153   6.278  0.4911  0.3841  0.0826
23021SOL    HW170504   6.269   6.112   6.246  0.3169 -0.1515  0.3280
23021SOL    HW270505   6.208   6.177   6.368  1.0660  2.1208 -0.4604
23022SOL     OW70506   4.965   0.246   9.145 -0.3062  0.7594  0.0623
23022SOL    HW170507   4.889   0.276   9.194 -1.9207 -2.5477 -0.1709
23022SOL    HW270508   5.026   0.213   9.211 -0.7991 -0.1506  0.0731
23023SOL     OW70509   6.529   7.614   9.095  0.4180  0.0041  0.1277
23023SOL    HW170510   6.571   7.576   9.172 -0.7396 -0.0014  0.7714
23023SOL    HW270511   6.534   7.709   9.109  0.3525  0.0069  0.1317
23024SOL     OW70512   7.107   6.516   7.141  0.0840  0.8511 -0.2698
23024SOL    HW170513   7.037   6.574   7.170 -3.2198 -0.9355 -3.7137
23024SOL    HW270514   7.133   6.467   7.219 -0.2813  3.6281  1.7334
23025SOL     OW70515   0.932   6.446   9.399  0.0572 -0.6728 -0.5406
23025SOL    HW170516   0.929   6.542   9.397  2.1542 -0.5470 -0.0143
23025SOL    HW270517   0.904   6.419   9.312 -2.6453  0.2833 -0.0679
23026SOL     OW70518   5.966   5.324   8.218  0.6732 -0.4016 -0.2373
23026SOL    HW170519   6.007   5.408   8.236  0.4212 -0.8190  2.6224
23026SOL    HW270520   5.887   5.345   8.169  0.2478  1.1057  1.0436
23027SOL     OW70521   6.075   4.380   6.708 -0.1293  0.0806 -0.7323
23027SOL    HW170522   6.137   4.440   6.750 -2.6312  2.1142  0.3783
23027SOL    HW270523   5.990   4.422   6.720 -2.0344 -3.4844 -0.3539
23028SOL     OW70524   6.054   0.020   5.977  0.1784 -0.0826 -0.7397
23028SOL    HW170525   6.137   0.007   5.931  0.2852 -1.0855 -0.2832
23028SOL    HW270526   6.080   0.041   6.066 -0.0569 -0.1161 -0.6647
23029SOL     OW70527   5.672   2.934   8.417 -0.6352  0.4185  0.2343
23029SOL    HW170528   5.670   2.997   8.489 -0.7219 -0.0950  0.6877
23029SOL    HW270529   5.590   2.948   8.370  0.3490  2.2543 -1.0926
23030SOL     OW70530   5.835   7.616   7.319  0.0895 -0.3337  0.6308
23030SOL    HW170531   5.878   7.531   7.322  0.3204 -0.2000  1.1330
23030SOL    HW270532   5.813   7.636   7.410  1.2894  0.7722  0.7161
23031SOL     OW70533   4.954   3.934  10.365 -0.6786  0.3051  0.1525
23031SOL    HW170534   4.981   3.976  10.283 -2.5680 -0.9218 -1.2086
23031SOL    HW270535   4.938   3.842  10.340 -1.4259 -0.0587  1.8614
23032SOL     OW70536   6.532   7.265   5.819  0.4322  0.4364 -0.2765
23032SOL    HW170537   6.501   7.314   5.895 -0.4121  0.8689 -0.8808
23032SOL    HW270538   6.578   7.330   5.765  1.6467 -0.0163  0.1863
23033SOL     OW70539   4.922   6.048   6.823 -0.3667 -0.8505  0.0376
23033SOL    HW170540   4.930   6.084   6.734  1.3958  0.5481  0.6893
23033SOL    HW270541   4.839   6.082   6.856 -0.9203 -1.1825 -0.9710
23034SOL     OW70542   0.870   6.829   6.324  0.0013  0.0673  0.2111
23034SOL    HW170543   0.842   6.901   6.380  1.5393  0.1121  0.9600
23034SOL    HW270544   0.923   6.871   6.256 -0.0630 -0.2353 -0.0273
23035SOL     OW70545   7.701   5.376   7.667 -0.1295  0.2259  0.3432
23035SOL    HW170546   7.650   5.331   7.735  0.0735  0.2550  0.5155
23035SOL    HW270547   7.671   5.337   7.585  1.6408 -1.8908  0.5977
23036SOL     OW70548   4.516   0.266   7.575 -0.5713  0.1593  0.1320
23036SOL    HW170549   4.423   0.272   7.552 -0.6248  1.0925  0.5379
23036SOL    HW270550   4.555   0.344   7.536  0.1828 -0.5833 -0.6300
23037SOL     OW70551   6.576   6.022   9.114  0.2728 -0.0395  0.4715
23037SOL    HW170552   6.597   6.074   9.037  0.9923 -0.9515  0.0437
23037SOL    HW270553   6.618   6.069   9.186 -0.8670  1.1196  0.4182
23038SOL     OW70554   6.259   7.414   6.425  0.9323 -0.1863 -0.7261
23038SOL    HW170555   6.178   7.454   6.392  0.8084 -1.0571 -1.5175
23038SOL    HW270556   6.230   7.354   6.493  0.8599 -0.7928 -1.2812
23039SOL     OW70557   5.305   5.035   8.900 -0.1617  0.1224 -0.6482
23039SOL    HW170558   5.216   5.050   8.930 -0.1214  0.9023 -0.8936
23039SOL    HW270559   5.308   4.942   8.880 -0.8101  0.0174 -0.2863
23040SOL     OW70560   6.818   7.017   9.451  0.3154 -0.2664  0.1223
23040SOL    HW170561   6.879   6.975   9.391 -0.6456 -0.9440 -0.4115
23040SOL    HW270562   6.807   6.955   9.523 -0.1462 -0.3872 -0.0491
23041SOL     OW70563   7.935   7.131   7.860 -0.0318  0.2936 -0.4694
23041SOL    HW170564   7.857   7.170   7.820  1.0581  2.4645 -0.5819
23041SOL    HW270565   7.990   7.106   7.786  0.5016  1.1850 -0.3860
23042SOL     OW70566   7.794   5.539   8.280  0.4458  0.4151 -0.2215
23042SOL    HW170567   7.816   5.601   8.210  0.6947 -0.0176 -0.5294
23042SOL    HW270568   7.782   5.594   8.358 -1.0859  1.0392 -0.8664
23043SOL     OW70569   0.267   5.739   5.838 -0.3717  0.1974 -0.7216
23043SOL    HW170570   0.275   5.834   5.833 -0.6297  0.2512 -0.1212
23043SOL    HW270571   0.212   5.716   5.764 -2.2018  0.7484  0.4067
23044SOL     OW70572   7.186   7.546   7.234  0.2964 -0.4049 -0.3407
23044SOL    HW170573   7.108   7.552   7.290  0.5171 -1.6587  0.1190
23044SOL    HW270574   7.242   7.618   7.263 -0.0625 -0.3871  0.3211
23045SOL     OW70575   7.473   4.158   8.255 -0.5311 -0.1703 -0.0659
23045SOL    HW170576   7.439   4.108   8.181 -2.0953  0.2151  0.3613
23045SOL    HW270577   7.404   4.222   8.275  0.2339  0.3074  1.1699
23046SOL     OW70578   6.742   6.450   9.171 -0.2735 -0.5850  0.5063
23046SOL    HW170579   6.694   6.531   9.185  1.1860  0.4001  0.0124
23046SOL    HW270580   6.824   6.461   9.220  1.9685  0.1902 -2.9883
23047SOL     OW70581   7.201   7.724   9.106  0.1735 -0.3660 -0.4744
23047SOL    HW170582   7.252   7.744   9.028  0.4731  2.5198  0.3409
23047SOL    HW270583   7.110   7.732   9.077  0.2824  0.6605 -0.5437
23048SOL     OW70584   6.327   1.186   9.639  0.1540  0.3877  0.1531
23048SOL    HW170585   6.378   1.200   9.560  0.5068 -0.3309  0.2475
23048SOL    HW270586   6.258   1.125   9.613  0.9808 -0.7985  0.6676
23049SOL     OW70587   7.754   5.980   8.100  0.0595  0.6196  0.0725
23049SOL    HW170588   7.742   6.029   8.181  1.0285  1.2199 -0.1341
23049SOL    HW270589   7.819   6.030   8.050  0.4267 -0.4100 -0.5196
23050SOL     OW70590   7.622   7.462   7.873  0.0804 -0.2565  0.1316
23050SOL    HW170591   7.672   7.414   7.939  1.1586 -0.8027 -1.0309
23050SOL    HW270592   7.535   7.422   7.876  0.8574 -2.1456 -0.5819
23051SOL     OW70593   7.364   5.264   8.658  0.2014 -0.4123 -0.4981
23051SOL    HW170594   7.439   5.285   8.603 -1.4706  0.5921 -2.5364
23051SOL    HW270595   7.324   5.349   8.677 -1.3323 -1.0163 -0.8859
23052SOL     OW70596   7.325   7.485   9.211  0.7531 -0.0758  0.0903
23052SOL    HW170597   7.314   7.569   9.167  0.4922  0.2305  0.7408
23052SOL    HW270598   7.237   7.462   9.240  0.3687 -1.6791 -2.0492
23053SOL     OW70599   7.692   5.071   8.107 -0.2959  1.0976  0.3477
23053SOL    HW170600   7.690   5.035   8.019  1.0816 -0.7311  0.9932
23053SOL    HW270601   7.617   5.030   8.151 -0.0816  0.8024  0.4414
23054SOL     OW70602   7.318   6.835   7.364 -0.1179 -0.7177  0.2142
23054SOL    HW170603   7.396   6.889   7.379 -0.2213 -1.0702  2.2507
23054SOL    HW270604   7.247   6.898   7.354  0.4082 -0.3821 -1.9017
23055SOL     OW70605   5.338   6.612   8.866 -0.7524  0.3613  0.4885
23055SOL    HW170606   5.280   6.538   8.880 -2.2977  1.1224 -1.3209
23055SOL    HW270607   5.292   6.686   8.907 -0.1565  0.6512  0.6362
23056SOL     OW70608   6.561   7.359  10.022  0.2928 -0.4641  0.5434
23056SOL    HW170609   6.580   7.289   9.958  1.3870 -0.0195  0.3636
23056SOL    HW270610   6.578   7.318  10.107 -0.0725 -0.7166  0.5009
23057SOL     OW70611   5.850   7.836   6.219 -0.1641 -0.2143  0.1005
23057SOL    HW170612   5.764   7.844   6.177  0.0848  1.5787 -0.1238
23057SOL    HW270613   5.906   7.800   6.150  0.0634  1.9949 -0.9514
23058SOL     OW70614   6.410   7.248   6.783  0.0576 -0.4747 -0.0290
23058SOL    HW170615   6.439   7.235   6.693  2.0835  2.6282  0.0463
23058SOL    HW270616   6.486   7.224   6.837  0.6739  2.2891  0.4912
23059SOL     OW70617   7.134   5.852   9.441  0.2707 -0.1199  0.4752
23059SOL    HW170618   7.114   5.945   9.452  1.1800  0.0412  0.8399
23059SOL    HW270619   7.067   5.807   9.492 -0.3633  0.3157  0.0432
23060SOL     OW70620   5.854   0.410   8.770 -0.1372  0.2863 -0.3038
23060SOL    HW170621   5.830   0.402   8.677  0.6023 -1.1995 -0.3940
23060SOL    HW270622   5.889   0.499   8.777 -2.2219  1.2040 -0.9428
23061SOL     OW70623   6.066   2.005   9.155 -0.4185 -0.2763 -1.0653
23061SOL    HW170624   6.008   2.011   9.078 -0.6766 -1.2353 -0.9688
23061SOL    HW270625   6.056   2.089   9.199 -0.6590  0.0985 -1.8140
23062SOL     OW70626   4.221   5.763   9.594 -0.3315  0.4602  0.5701
23062SOL    HW170627   4.286   5.727   9.534 -0.3793  0.8533  0.2782
23062SOL    HW270628   4.173   5.686   9.626 -0.6902  0.2805 -0.3440
23063SOL     OW70629   7.315   7.234   9.028  0.3899 -0.0025 -0.1902
23063SOL    HW170630   7.267   7.232   9.111 -2.3334  1.4844 -1.5894
23063SOL    HW270631   7.365   7.315   9.031 -0.4297  0.5257 -0.3118
23064SOL     OW70632   7.386   0.497   9.272 -0.0123  0.2397  0.2789
23064SOL    HW170633   7.386   0.418   9.218 -0.8781 -0.0866  0.7421
23064SOL    HW270634   7.294   0.516   9.288  0.1793  1.4185  0.0811
23065SOL     OW70635   6.987   4.160   9.218 -0.1453  0.3215 -0.2007
23065SOL    HW170636   7.050   4.231   9.234 -0.5111  0.4067  0.9190
23065SOL    HW270637   6.936   4.154   9.298 -0.3710 -0.9699 -0.4100
23066SOL     OW70638   6.108   6.366   7.121 -0.5788 -0.1636  0.1539
23066SOL    HW170639   6.164   6.291   7.142  1.3658  0.9481 -0.7647
23066SOL    HW270640   6.062   6.340   7.041 -1.1479 -0.9544  0.7177
23067SOL     OW70641   6.189   6.384   8.937  0.1975  0.4843 -0.3009
23067SOL    HW170642   6.164   6.292   8.938  1.5025  0.1053  0.8093
23067SOL    HW270643   6.119   6.428   8.888  0.4541 -1.3420 -2.4673
23068SOL     OW70644   0.087   0.482   9.723  0.4377  0.2411  0.2689
23068SOL    HW170645   0.132   0.501   9.640  0.9100  2.0032  0.8754
23068SOL    HW270646   0.005   0.529   9.717 -0.4851 -1.3287 -0.0013
23069SOL     OW70647   0.479   4.989   8.074  0.1484 -0.7321  0.3002
23069SOL    HW170648   0.429   5.006   8.153 -0.5208 -0.8538 -0.0873
23069SOL    HW270649   0.511   4.899   8.084  0.5133 -0.5630  0.6649
23070SOL     OW70650   6.020   5.315   7.125  0.1303  0.6370 -0.7080
23070SOL    HW170651   6.007   5.223   7.104  1.3055 -0.1367  1.5591
23070SOL    HW270652   5.954   5.362   7.074 -1.2270 -1.5511 -1.0721
23071SOL     OW70653   7.718   6.897   8.935  0.0260 -0.0380 -0.1007
23071SOL    HW170654   7.747   6.866   8.850  1.2324  1.0668 -0.1195
23071SOL    HW270655   7.653   6.965   8.915 -3.0172 -2.7069 -0.0589
23072SOL     OW70656   0.289   6.036   5.771  0.3444  0.4530 -0.6521
23072SOL    HW170657   0.254   6.115   5.812  0.4647  0.3126 -0.2729
23072SOL    HW270658   0.379   6.030   5.804  0.3167  0.1245 -0.6354
23073SOL     OW70659   7.265   6.842  11.145  0.1532 -0.2330  0.0195
23073SOL    HW170660   7.199   6.883  11.201  0.1715  0.6080 -0.5457
23073SOL    HW270661   7.341   6.831  11.202 -0.5005 -1.3463  0.7151
23074SOL     OW70662   4.223   5.968   8.824  0.0544 -0.6771 -0.1394
23074SOL    HW170663   4.172   6.038   8.783 -0.1310 -0.5581  0.2958
23074SOL    HW270664   4.266   5.924   8.750  0.7543  0.3431 -0.3485
23075SOL     OW70665   5.975   4.795   8.331  0.8744  0.0504 -0.0777
23075SOL    HW170666   6.034   4.870   8.342  1.0883 -0.0402 -0.5988
23075SOL    HW270667   5.993   4.763   8.243 -1.2355  1.1173 -0.9779
23076SOL     OW70668   7.534   6.194   8.765 -0.3453  0.8477  0.6032
23076SOL    HW170669   7.461   6.186   8.704 -0.9282  2.0548  1.0848
23076SOL    HW270670   7.502   6.153   8.846 -0.0041  0.2429  0.4303
23077SOL     OW70671   6.063   6.741   9.995 -0.4907  0.6076  0.2396
23077SOL    HW170672   6.074   6.826   9.953  0.7766  0.4240  0.1552
23077SOL    HW270673   6.099   6.678   9.932 -1.1096  0.0392  0.4399
23078SOL     OW70674   3.164   0.012   6.003 -0.2003 -0.3382 -0.2616
23078SOL    HW170675   3.077   0.052   6.001  0.3437  1.4627  3.4942
23078SOL    HW270676   3.223   0.081   5.971  0.2682  0.2223  1.7207
23079SOL     OW70677   4.733   7.249   8.754  0.0282  0.3774  0.0210
23079SOL    HW170678   4.814   7.200   8.763 -0.3360 -0.1907  0.2861
23079SOL    HW270679   4.713   7.281   8.842 -1.4467 -1.8037  0.5608
23080SOL     OW70680   7.844   6.787   8.701 -0.3808  0.0619 -0.2506
23080SOL    HW170681   7.799   6.702   8.701 -1.4555  0.6024  0.6763
23080SOL    HW270682   7.854   6.809   8.608 -0.7868 -0.7238 -0.4899
23081SOL     OW70683   0.380   6.343   7.435  0.5504  0.4674  0.1039
23081SOL    HW170684   0.319   6.296   7.379  2.8383 -1.3503 -1.0343
23081SOL    HW270685   0.388   6.288   7.513  2.1993 -0.4404 -0.6455
23082SOL     OW70686   7.108   5.344   7.676 -0.3922 -0.2169 -0.1748
23082SOL    HW170687   7.035   5.321   7.732 -0.8720  1.3938 -0.0864
23082SOL    HW270688   7.068   5.371   7.593  0.1348  0.1356 -0.3232
23083SOL     OW70689   4.632   5.836   6.663  0.4797 -0.1834 -0.6776
23083SOL    HW170690   4.578   5.757   6.666 -0.3820  0.4213  0.3937
23083SOL    HW270691   4.570   5.908   6.674  1.3986  0.5736 -0.3149
23084SOL     OW70692   5.667   7.539   9.979  0.2022 -0.4636 -0.2339
23084SOL    HW170693   5.736   7.600  10.007 -3.8736  4.2261  0.8606
23084SOL    HW270694   5.650   7.485  10.056  0.9911  0.0509  0.3217
23085SOL     OW70695   7.349   4.681   8.246 -0.6653 -0.5639 -0.0696
23085SOL    HW170696   7.339   4.701   8.339 -0.9803 -0.9268 -0.0264
23085SOL    HW270697   7.266   4.640   8.221  0.2956 -2.7360  0.0779
23086SOL     OW70698   7.201   5.705   9.218 -0.3876 -0.1345 -0.0006
23086SOL    HW170699   7.139   5.636   9.242  0.4340 -0.6505  0.6923
23086SOL    HW270700   7.211   5.757   9.298 -0.4367  0.3403 -0.3038
23087SOL     OW70701   6.937   6.809   6.933  0.4601  0.0142 -0.3389
23087SOL    HW170702   6.986   6.792   6.853 -2.4611 -0.7628 -2.1160
23087SOL    HW270703   6.962   6.898   6.959  1.2972  0.3715 -2.2503
23088SOL     OW70704   4.026   7.489   8.895 -0.7635 -0.0809  0.8553
23088SOL    HW170705   4.062   7.414   8.942  0.6461  0.2118  0.3112
23088SOL    HW270706   3.959   7.525   8.953  1.5710  0.8670  3.1637
23089SOL     OW70707   5.600   6.987   8.932 -0.6530 -0.4178  0.0976
23089SOL    HW170708   5.651   7.053   8.885  1.5710  0.0718  2.9099
23089SOL    HW270709   5.603   6.909   8.877  0.1249  0.6512 -1.4267
23090SOL     OW70710   0.431   5.095   7.786 -0.0581 -0.3826  0.5572
23090SOL    HW170711   0.346   5.130   7.813  0.0538 -0.6471  1.2515
23090SOL    HW270712   0.454   5.032   7.854  0.8500 -0.0739  0.5468
23091SOL     OW70713   3.705   0.226   8.984 -0.3391 -0.5926  0.3642
23091SOL    HW170714   3.721   0.239   8.891 -0.3294 -2.6305  0.0467
23091SOL    HW270715   3.613   0.200   8.990  0.3859 -3.3580  0.5522
23092SOL     OW70716   4.756   3.898   8.841 -0.1494  0.3860  0.1046
23092SOL    HW170717   4.674   3.872   8.799 -0.1520  1.4359 -0.5739
23092SOL    HW270718   4.800   3.816   8.862 -0.7103 -0.1678 -0.8565
23093SOL     OW70719   6.857   6.862   8.299 -0.0577  0.2704 -0.0510
23093SOL    HW170720   6.930   6.919   8.321 -1.9894  2.0674  2.2026
23093SOL    HW270721   6.787   6.921   8.272 -1.0868 -1.2947 -0.9804
23094SOL     OW70722   6.902   5.859   8.252  0.0985  0.1552  0.0912
23094SOL    HW170723   6.919   5.926   8.319  0.0245  0.8671 -0.5895
23094SOL    HW270724   6.859   5.907   8.181  1.6027 -0.2651 -1.1542
23095SOL     OW70725   7.152   4.770   8.009 -0.3773 -0.1071  0.4853
23095SOL    HW170726   7.090   4.720   8.062  0.5719 -1.8538  0.0178
23095SOL    HW270727   7.222   4.708   7.990  1.3936  1.7280  0.7631
23096SOL     OW70728   7.221   0.655   7.456 -0.2665 -0.2059  0.4514
23096SOL    HW170729   7.287   0.619   7.396  0.7057 -0.1976  1.4764
23096SOL    HW270730   7.145   0.600   7.444  0.9093 -2.1279  1.3647
23097SOL     OW70731   7.582   6.749   6.751  0.1902  0.8850  0.1711
23097SOL    HW170732   7.634   6.740   6.671 -0.2429  0.0808 -0.0310
23097SOL    HW270733   7.586   6.662   6.791 -0.9723  0.8099  0.1558
23098SOL     OW70734   6.838   7.473   8.717 -0.4757 -0.5864 -0.8926
23098SOL    HW170735   6.841   7.542   8.651 -1.4631 -1.1108 -1.4870
23098SOL    HW270736   6.829   7.392   8.668 -0.3130 -1.0678 -0.1473
23099SOL     OW70737   0.002   6.483   7.904 -0.2324  0.0563 -0.2800
23099SOL    HW170738  -0.093   6.495   7.910  0.0793  2.6595  1.4445
23099SOL    HW270739   0.038   6.569   7.926  2.5545 -0.8518 -0.8715
23100SOL     OW70740   6.060   6.407   8.573 -0.1498  0.0817 -0.0257
23100SOL    HW170741   5.989   6.459   8.534 -0.0365  0.5015  0.3173
23100SOL    HW270742   6.136   6.464   8.569  0.0329 -0.1507  0.1303
23101SOL     OW70743   5.771   5.815   8.384 -0.0216  0.0123 -0.7004
23101SOL    HW170744   5.750   5.729   8.349  0.7692 -1.0168  1.2137
23101SOL    HW270745   5.865   5.826   8.368  0.2601 -0.2890  0.6242
23102SOL     OW70746   7.572   4.998   8.431 -0.1156  0.9303  0.7292
23102SOL    HW170747   7.514   4.975   8.358  1.7545  1.0192 -0.8663
23102SOL    HW270748   7.527   4.964   8.508 -1.7142 -0.0642 -0.5610
23103SOL     OW70749   0.885   0.227   6.866  0.1060  0.2532 -0.5433
23103SOL    HW170750   0.887   0.131   6.861 -2.8130  0.1106 -0.3134
23103SOL    HW270751   0.894   0.246   6.960 -0.7934  0.1217 -0.4277
23104SOL     OW70752   6.500   0.212   7.230  0.1676  0.2131 -0.3493
23104SOL    HW170753   6.595   0.211   7.226  0.1684  0.9399 -0.6841
23104SOL    HW270754   6.479   0.202   7.323  0.6187  1.8672 -0.0444
23105SOL     OW70755   7.482   7.690   6.862 -0.1434  0.0068  0.0466
23105SOL    HW170756   7.525   7.635   6.796  0.9944  0.7185  0.1684
23105SOL    HW270757   7.401   7.719   6.821 -0.5184 -1.3350 -0.2117
23106SOL     OW70758   7.626   6.271   8.514 -0.4474 -0.0298 -0.4372
23106SOL    HW170759   7.592   6.245   8.599  0.9519 -0.0425  0.1496
23106SOL    HW270760   7.583   6.354   8.495  0.5106  0.8885  1.1399
23107SOL     OW70761   6.399   6.712   8.049  0.4419 -0.0568  0.1224
23107SOL    HW170762   6.363   6.656   8.117  0.1435  0.8962  0.7781
23107SOL    HW270763   6.448   6.653   7.991  0.7607 -0.8757  1.2022
23108SOL     OW70764   7.250   6.661   6.612 -0.9242  0.0956  0.4348
23108SOL    HW170765   7.196   6.608   6.553  0.4587 -1.3508  0.4136
23108SOL    HW270766   7.313   6.599   6.649 -0.0131  1.5137  1.3363
23109SOL     OW70767   4.440   7.599   8.634 -0.2586 -0.5016  0.7453
23109SOL    HW170768   4.396   7.535   8.692 -0.2369  0.7178  2.1601
23109SOL    HW270769   4.368   7.646   8.593 -0.2897 -1.8353 -0.8427
23110SOL     OW70770   1.229   6.445   7.320 -0.1715  0.4783 -0.1139
23110SOL    HW170771   1.161   6.511   7.333  1.2912  2.2512 -1.0559
23110SOL    HW270772   1.280   6.447   7.401 -0.0351  0.5954 -0.2038
23111SOL     OW70773   5.985   6.735   7.482 -0.6030 -0.3661 -0.1341
23111SOL    HW170774   5.989   6.831   7.490  0.0038 -0.4158  0.1507
23111SOL    HW270775   6.075   6.708   7.469 -0.6509 -0.9837  0.7348
23112SOL     OW70776   7.344   5.603   7.666  0.5098  0.1405 -0.3772
23112SOL    HW170777   7.279   5.673   7.675  1.5347  1.0143  0.6141
23112SOL    HW270778   7.355   5.568   7.755  1.5860  0.2171 -0.4595
23113SOL     OW70779   6.946   7.289   8.483 -0.3862  0.0083  0.1113
23113SOL    HW170780   6.919   7.307   8.393 -0.9482 -1.9243 -0.1368
23113SOL    HW270781   7.011   7.357   8.502  0.0277  0.2235 -1.8723
23114SOL     OW70782   7.750   6.162   8.308 -0.1329  0.1332 -0.0044
23114SOL    HW170783   7.796   6.098   8.361 -1.7692 -2.4275 -1.4728
23114SOL    HW270784   7.693   6.209   8.369 -1.6034 -2.3795  0.6705
23115SOL     OW70785   5.528   5.497   8.781  0.7691 -0.0372  0.5118
23115SOL    HW170786   5.506   5.437   8.852  0.4608  0.3340  0.7343
23115SOL    HW270787   5.477   5.465   8.706 -0.0033  0.4028  0.8383
23116SOL     OW70788   7.952   0.719   6.553 -0.3620  0.5127  0.6003
23116SOL    HW170789   8.004   0.640   6.567 -0.4444  0.4158  0.3758
23116SOL    HW270790   7.861   0.687   6.553 -0.4091  0.6510  0.8044
23117SOL     OW70791   5.930   6.279   6.553 -0.1676  0.1654  0.3421
23117SOL    HW170792   5.945   6.329   6.472 -1.1951  0.7711  0.5089
23117SOL    HW270793   5.838   6.295   6.574  0.0417 -0.1502  1.5342
23118SOL     OW70794   5.980   6.160   8.604 -0.2572  0.2541 -0.2934
23118SOL    HW170795   6.050   6.105   8.639  0.1210  0.2321 -1.0666
23118SOL    HW270796   6.018   6.248   8.599 -0.7366  0.5316  0.5719
23119SOL     OW70797   7.948   5.412   8.030 -0.3821  0.1819  0.2113
23119SOL    HW170798   7.938   5.378   7.941 -0.2991 -1.5221  0.8096
23119SOL    HW270799   7.886   5.484   8.035 -1.0129 -0.2484 -0.9669
23120SOL     OW70800   7.130   0.177   6.655 -0.4380  0.2635 -0.4882
23120SOL    HW170801   7.101   0.267   6.642  0.6667  0.6236 -0.6080
23120SOL    HW270802   7.078   0.145   6.729 -3.0537 -0.0786 -2.3608
23121SOL     OW70803   7.313   7.546   7.624 -0.1432  0.3403 -0.4385
23121SOL    HW170804   7.345   7.464   7.586  0.5248  0.6633 -0.5964
23121SOL    HW270805   7.297   7.525   7.716 -0.4413 -0.0870 -0.5819
23122SOL     OW70806   6.538   7.651   6.091  0.5978 -0.1525  0.1257
23122SOL    HW170807   6.528   7.627   6.184 -1.3930 -0.1025 -0.0368
23122SOL    HW270808   6.551   7.746   6.093 -0.4292 -0.0072  0.3163
23123SOL     OW70809   7.479   5.535   8.414  0.5682 -0.4027  0.2679
23123SOL    HW170810   7.419   5.529   8.489  0.3164 -2.1316 -0.0433
23123SOL    HW270811   7.463   5.622   8.378 -2.0460 -0.9208 -0.0075
23124SOL     OW70812   7.059   6.561   5.789 -0.4193  0.0889 -0.0578
23124SOL    HW170813   7.122   6.605   5.732 -1.0196 -0.6265 -1.3487
23124SOL    HW270814   6.974   6.596   5.762 -0.6702  0.2109  0.8664
23125SOL     OW70815   6.593   6.253   8.616  0.3073  0.4348  0.3786
23125SOL    HW170816   6.651   6.324   8.592  1.3887 -0.5880 -0.1465
23125SOL    HW270817   6.523   6.256   8.551  1.0118  0.2607 -0.3995
23126SOL     OW70818   7.545   1.060   6.672 -0.4464 -0.5937 -0.0227
23126SOL    HW170819   7.504   1.137   6.634  1.2783  0.9006  0.9748
23126SOL    HW270820   7.524   1.064   6.765 -0.1681 -1.1960  0.0708
23127SOL     OW70821   4.758   7.093  10.501 -0.3251 -0.0955  0.0971
23127SOL    HW170822   4.822   7.023  10.495  0.3361  0.5082 -0.0183
23127SOL    HW270823   4.679   7.051  10.534 -0.2658 -1.0893 -0.9779
23128SOL     OW70824   5.238   5.225   7.957  0.2413 -0.1658  0.5930
23128SOL    HW170825   5.170   5.238   7.891 -1.1798 -0.7308  1.9005
23128SOL    HW270826   5.276   5.140   7.936 -0.5289 -0.5604  0.7726
23129SOL     OW70827   5.368   6.239   8.318  0.3534  0.2582  0.1529
23129SOL    HW170828   5.439   6.185   8.282 -0.0808 -0.1368 -0.1290
23129SOL    HW270829   5.350   6.303   8.249 -0.9920 -0.9684 -0.7101
23130SOL     OW70830   6.646   6.489  10.240 -0.4626  0.6789 -0.1219
23130SOL    HW170831   6.595   6.412  10.264 -0.2651  0.6989  0.3959
23130SOL    HW270832   6.582   6.556  10.219 -0.6326  0.3024 -0.8067
23131SOL     OW70833   7.289   5.017   8.573 -0.4503  0.1015 -0.1775
23131SOL    HW170834   7.315   5.090   8.631  0.4697 -0.6705  0.4094
23131SOL    HW270835   7.256   5.060   8.495  1.0959  1.1878 -0.2930
23132SOL     OW70836   6.286   5.932   6.608  0.0434  0.8858 -0.3160
23132SOL    HW170837   6.341   5.986   6.665  0.2485 -0.6208  0.9621
23132SOL    HW270838   6.223   5.892   6.667 -0.1534 -0.2022 -1.2427
23133SOL     OW70839   7.991   6.894   9.389 -0.3780  0.7722 -0.1884
23133SOL    HW170840   7.971   6.891   9.296  0.6745 -1.7725 -0.4144
23133SOL    HW270841   7.970   6.984   9.415 -0.9200  1.4920 -2.7952
23134SOL     OW70842   0.457   7.341   8.560 -0.5480  0.2111  0.2292
23134SOL    HW170843   0.437   7.406   8.627 -2.6522  0.5170 -0.6275
23134SOL    HW270844   0.376   7.332   8.510  0.3533 -1.4901 -1.0269
23135SOL     OW70845   6.580   4.433   9.796 -0.8830 -0.3289  0.3485
23135SOL    HW170846   6.511   4.414   9.733 -2.2672  1.7755  1.1290
23135SOL    HW270847   6.619   4.514   9.766  2.9584 -2.5234 -1.3494
23136SOL     OW70848   7.369   7.850   7.836  0.7722 -0.2828 -0.2395
23136SOL    HW170849   7.427   7.898   7.778  1.5759 -1.9252 -0.8504
23136SOL    HW270850   7.293   7.908   7.847  2.0631  1.4964 -0.1818
23137SOL     OW70851   6.679   5.820   7.840 -0.7568  0.3837  0.0848
23137SOL    HW170852   6.653   5.869   7.761  0.7805  0.6750 -0.2874
23137SOL    HW270853   6.717   5.739   7.806  1.0206  1.0314  0.4218
23138SOL     OW70854   7.890   7.718   8.247 -0.7735 -0.0744  0.6764
23138SOL    HW170855   7.861   7.655   8.313  2.3138 -0.1717  2.0748
23138SOL    HW270856   7.929   7.665   8.178 -1.6471  0.1628 -0.0177
23139SOL     OW70857   6.657   5.184   7.340  0.2437 -0.4273 -0.2428
23139SOL    HW170858   6.750   5.186   7.318  0.3553 -1.2749  0.1161
23139SOL    HW270859   6.623   5.108   7.292 -0.1713 -0.3802 -0.0296
23140SOL     OW70860   5.911   5.048   7.136  0.0152  0.1482 -0.2283
23140SOL    HW170861   5.865   4.965   7.146 -0.6085  0.3470 -1.2610
23140SOL    HW270862   5.847   5.114   7.163  0.4477  0.3148  0.4183
23141SOL     OW70863   0.320   6.814   8.715 -0.0595  0.5666 -0.2496
23141SOL    HW170864   0.304   6.773   8.630  0.6150 -2.7288  1.0487
23141SOL    HW270865   0.240   6.797   8.765 -0.2459  2.0123 -0.0263
23142SOL     OW70866   6.684   6.085  10.941  0.7544 -0.1971 -0.4618
23142SOL    HW170867   6.739   6.146  10.990 -0.6749 -0.0758  1.1129
23142SOL    HW270868   6.601   6.084  10.990 -0.0221 -1.6962 -1.7290
23143SOL     OW70869   6.985   6.699   7.801 -0.8796 -0.0850 -0.5952
23143SOL    HW170870   6.920   6.743   7.856 -0.4865  0.5431 -0.6252
23143SOL    HW270871   6.979   6.744   7.716  0.1505  0.5176 -0.3601
23144SOL     OW70872   7.411   6.592   9.908 -0.1441 -0.1583  0.1983
23144SOL    HW170873   7.447   6.628   9.826 -0.1007  1.1776  0.7688
23144SOL    HW270874   7.472   6.621   9.975 -0.4109 -0.8869  0.7660
23145SOL     OW70875   6.563   6.333   8.114 -0.0676 -0.2380  0.5727
23145SOL    HW170876   6.510   6.258   8.086  1.0383 -0.8381 -0.0408
23145SOL    HW270877   6.577   6.383   8.033 -0.0857  0.1464  0.8110
23146SOL     OW70878   7.327   6.313   6.084  1.2698 -0.0870 -0.0765
23146SOL    HW170879   7.287   6.379   6.141  4.2061  1.3896  0.4926
23146SOL    HW270880   7.294   6.334   5.996 -0.7848 -0.3356  0.5883
23147SOL     OW70881   6.553   4.932   7.725  0.1431  0.3531 -0.3312
23147SOL    HW170882   6.474   4.969   7.685 -1.1297 -0.1558  1.5703
23147SOL    HW270883   6.609   5.008   7.740  1.1086  0.4902 -3.7253
23148SOL     OW70884   6.297   6.142  10.201 -0.3291 -0.3419 -0.5378
23148SOL    HW170885   6.214   6.187  10.216 -1.0080 -0.6880 -2.9194
23148SOL    HW270886   6.286   6.057  10.243 -0.6425  0.1134  0.3299
23149SOL     OW70887   6.013   4.978   8.983 -0.6667  0.2004 -0.0922
23149SOL    HW170888   5.928   5.020   8.972  0.2690  2.2634  0.1045
23149SOL    HW270889   6.065   5.041   9.032  0.5606 -1.6145  1.0509
23150SOL     OW70890   4.637   6.599   8.666 -0.0745  0.2483  0.4536
23150SOL    HW170891   4.656   6.509   8.690  0.3651  0.4282  0.8160
23150SOL    HW270892   4.691   6.615   8.588 -0.0863  0.2195  0.4404
23151SOL     OW70893   6.035   5.669   8.887 -0.9534  0.2753  0.3390
23151SOL    HW170894   6.095   5.674   8.962  0.8097 -0.8271 -0.9137
23151SOL    HW270895   6.022   5.576   8.872  1.4494  0.2568 -2.6620
23152SOL     OW70896   5.475   5.634   8.059  0.1145  0.0368 -0.4437
23152SOL    HW170897   5.407   5.590   8.110  0.4174  0.6401  0.5273
23152SOL    HW270898   5.447   5.625   7.968 -0.4409 -1.0939 -0.1874
23153SOL     OW70899   6.687   6.334   7.211 -0.2408 -0.0292  0.4523
23153SOL    HW170900   6.618   6.373   7.157  0.3701  1.6649  0.8334
23153SOL    HW270901   6.645   6.258   7.251 -1.3226 -0.1225 -0.7685
23154SOL     OW70902   6.773   6.486   8.563  0.0231  0.4289 -1.1712
23154SOL    HW170903   6.742   6.576   8.558  1.0731  0.8055 -1.2262
23154SOL    HW270904   6.767   6.454   8.473  1.2939  1.0414 -1.5016
23155SOL     OW70905   5.195   7.624   7.457 -0.1789 -0.9666 -0.2441
23155SOL    HW170906   5.270   7.669   7.417 -0.4047 -1.2577 -1.0165
23155SOL    HW270907   5.231   7.541   7.489 -0.3107 -1.4809 -1.3557
23156SOL     OW70908   0.215   5.339   7.998  0.1620 -0.3861 -0.0437
23156SOL    HW170909   0.125   5.355   8.027  0.2742 -2.4769  1.7842
23156SOL    HW270910   0.268   5.354   8.077  1.3723  0.3367 -0.9687
23157SOL     OW70911   6.253   4.904   8.840  0.1580 -0.5691 -0.4521
23157SOL    HW170912   6.246   4.969   8.771  0.9222 -0.9425 -0.9032
23157SOL    HW270913   6.163   4.876   8.856 -0.2369  0.9272  0.0926
23158SOL     OW70914   5.444   0.148   4.235  0.0803 -0.2057  0.0325
23158SOL    HW170915   5.370   0.136   4.176  0.2453  1.4271 -0.5771
23158SOL    HW270916   5.443   0.242   4.255  0.3764 -0.6151  2.1898
23159SOL     OW70917   6.708   7.354   7.966 -0.1359 -0.1637 -0.1501
23159SOL    HW170918   6.631   7.300   7.952 -0.3953  0.4186 -1.0212
23159SOL    HW270919   6.767   7.298   8.017 -1.8225  0.0030  2.1510
23160SOL     OW70920   0.299   5.064   6.810  0.1861 -0.3661  0.0586
23160SOL    HW170921   0.349   5.143   6.789  1.0456 -0.7559  0.5622
23160SOL    HW270922   0.338   4.997   6.753 -1.5759 -0.1258 -1.5233
23161SOL     OW70923   7.021   6.186   8.154 -0.5942 -0.0205  0.4328
23161SOL    HW170924   6.970   6.107   8.138 -0.8503  0.4608 -1.3092
23161SOL    HW270925   7.007   6.240   8.077  2.9743 -0.0828 -0.4403
23162SOL     OW70926   0.903   6.260   8.791 -0.1967  0.0207 -0.2530
23162SOL    HW170927   0.816   6.272   8.753  0.4053  0.9197 -1.3866
23162SOL    HW270928   0.945   6.194   8.735  0.1211  0.1509 -0.1720
23163SOL     OW70929   5.804   7.647   7.577  0.1083  0.4004 -0.1523
23163SOL    HW170930   5.767   7.729   7.611 -0.3395  0.2174 -0.1935
23163SOL    HW270931   5.760   7.578   7.627 -0.1812  0.1516 -0.7413
23164SOL     OW70932   7.097   6.897   8.944 -0.6602 -0.0428  0.1147
23164SOL    HW170933   7.026   6.889   8.880  0.5237  0.6252 -1.3356
23164SOL    HW270934   7.127   6.808   8.959 -2.1253 -0.4019  1.1766
23165SOL     OW70935   6.384   5.552   9.257  0.5485  0.1605  0.6359
23165SOL    HW170936   6.469   5.555   9.212  0.3878 -0.8314  0.2479
23165SOL    HW270937   6.405   5.577   9.347  1.5312 -1.5408  0.9142
23166SOL     OW70938   5.094   5.711  10.029  0.0212  0.1534 -0.4773
23166SOL    HW170939   5.071   5.795   9.989 -1.1299 -0.0771 -0.3387
23166SOL    HW270940   5.162   5.733  10.093  0.4269  0.8249 -1.1204
23167SOL     OW70941   5.266   6.051   7.863 -0.7397  0.0271  0.3269
23167SOL    HW170942   5.274   6.124   7.802 -0.8971 -0.5248 -0.3598
23167SOL    HW270943   5.240   6.092   7.946 -2.1324  0.6236 -0.3737
23168SOL     OW70944   4.749   5.214   9.605  0.2380 -0.7838  0.1819
23168SOL    HW170945   4.702   5.266   9.540 -0.9013  0.2575  1.7848
23168SOL    HW270946   4.689   5.143   9.628  0.1753 -0.5087  0.8960
23169SOL     OW70947   0.600   7.899   9.880  0.2141 -0.3483  0.3790
23169SOL    HW170948   0.622   7.806   9.880  1.1927 -0.2304 -3.0175
23169SOL    HW270949   0.667   7.941   9.827 -2.0173  1.7520 -1.0426
23170SOL     OW70950   5.936   6.437   8.818  0.8063 -0.1546 -0.6031
23170SOL    HW170951   5.889   6.356   8.801 -0.4886  0.4653 -0.0956
23170SOL    HW270952   5.941   6.480   8.732 -0.6791  0.3412 -0.4684
23171SOL     OW70953   4.870   5.569   9.932  0.1678  0.1995  0.6345
23171SOL    HW170954   4.950   5.596   9.977 -0.9546  2.4628  1.4150
23171SOL    HW270955   4.898   5.552   9.842  1.4771  1.3530  0.7856
23172SOL     OW70956   7.239   7.315  10.500  0.1093 -0.0330  0.3359
23172SOL    HW170957   7.199   7.394  10.464  0.6211 -0.4334 -1.1986
23172SOL    HW270958   7.229   7.250  10.431  2.5939 -0.3974  0.2215
23173SOL     OW70959   6.996   4.892  11.928  0.4822  0.3659  0.0251
23173SOL    HW170960   6.937   4.898  11.854  0.0594 -0.1382  0.3108
23173SOL    HW270961   6.954   4.830  11.988  1.0474  0.3914  0.4666
23174SOL     OW70962   5.703   7.515  10.453  0.1764 -0.0417  0.0837
23174SOL    HW170963   5.735   7.550  10.537  1.1405 -0.0259 -0.2794
23174SOL    HW270964   5.678   7.592  10.403 -1.3832 -0.0923  0.7104
23175SOL     OW70965   6.681   0.000   0.084 -0.1474  0.1350 -0.5553
23175SOL    HW170966   6.621  -0.069   0.056 -0.8601  0.3032  0.5011
23175SOL    HW270967   6.768  -0.035   0.067 -0.5186 -0.3240 -1.6377
23176SOL     OW70968   5.309   0.007  11.264 -0.3013  0.8108  0.4935
23176SOL    HW170969   5.364   0.050  11.199  0.5090  1.0972  1.3333
23176SOL    HW270970   5.288   0.076  11.327 -2.0068  0.8097 -0.0286
23177SOL     OW70971   7.969   7.131   9.476 -0.4427  0.1838 -0.7210
23177SOL    HW170972   7.943   7.212   9.432 -0.7317  0.6795  0.3286
23177SOL    HW270973   7.989   7.158   9.566 -2.8890 -1.2618  0.3372
23178SOL     OW70974   3.576   6.300  10.059 -0.0426  0.4379 -0.1992
23178SOL    HW170975   3.616   6.247   9.989  0.6943  0.5286  0.1423
23178SOL    HW270976   3.506   6.348  10.015 -0.4719 -0.5286 -0.5982
23179SOL     OW70977   0.774   5.938   9.130 -0.1683 -0.1139  0.0771
23179SOL    HW170978   0.720   5.921   9.053  0.2560  1.3876 -0.5945
23179SOL    HW270979   0.854   5.887   9.114  0.2673  0.8438 -0.9131
23180SOL     OW70980   6.024   7.931   9.669  0.2707 -0.2476 -0.0031
23180SOL    HW170981   6.036   8.021   9.699  2.5617  0.5027 -2.7204
23180SOL    HW270982   6.040   7.935   9.574  2.0819 -3.7325 -0.0014
23181SOL     OW70983   5.500   5.019  10.915 -0.4229  0.3529  0.3604
23181SOL    HW170984   5.509   4.939  10.862 -1.7715 -0.8075  1.7965
23181SOL    HW270985   5.455   4.990  10.994 -0.5833  2.4869  1.0987
23182SOL     OW70986   3.928   0.174   9.714  0.2371 -0.2139  0.1839
23182SOL    HW170987   4.000   0.116   9.736 -0.8223 -1.4385  0.5362
23182SOL    HW270988   3.883   0.130   9.642 -1.3073 -0.4697  1.2695
23183SOL     OW70989   4.945   7.133  11.155 -0.1382 -0.0105  0.6322
23183SOL    HW170990   4.898   7.146  11.073 -0.0045 -0.6394  0.4484
23183SOL    HW270991   5.006   7.207  11.160 -0.3686  0.1987  0.3196
23184SOL     OW70992   6.438   0.418  10.386  0.5947 -0.1314  0.2719
23184SOL    HW170993   6.432   0.331  10.424  0.7882 -0.2783 -0.0294
23184SOL    HW270994   6.528   0.447  10.404 -0.1902  1.1015  2.7060
23185SOL     OW70995   6.709   7.088   8.242  0.2409  0.7342 -0.0057
23185SOL    HW170996   6.722   7.177   8.275 -0.0829  0.6113  0.4666
23185SOL    HW270997   6.619   7.088   8.209 -0.6579 -0.0772  2.2311
23186SOL     OW70998   7.045   6.004  10.538 -0.3399  0.7824 -0.2818
23186SOL    HW170999   7.110   5.987  10.606 -0.8803  1.9728  0.5729
23186SOL    HW271000   7.095   6.007  10.457  0.3049 -0.7527  0.0240
23187SOL     OW71001   6.365   7.124   8.365  1.0017 -0.0449  0.3260
23187SOL    HW171002   6.395   7.055   8.306  1.7948 -0.1245  0.8130
23187SOL    HW271003   6.274   7.101   8.385  0.7602 -0.0925 -0.7422
23188SOL     OW71004   6.188   7.405   9.230  0.1427  0.3169  0.1623
23188SOL    HW171005   6.268   7.400   9.282  0.4414  0.9725 -0.2233
23188SOL    HW271006   6.129   7.461   9.280  0.1640  0.3616  0.1371
23189SOL     OW71007   6.498   0.971   7.405 -0.1827  0.1617 -0.1291
23189SOL    HW171008   6.419   0.951   7.354 -1.0639  1.9732  0.4434
23189SOL    HW271009   6.481   0.933   7.491 -0.0558 -0.1769 -0.2515
23190SOL     OW71010   6.308   7.400   9.891  0.3747 -0.6639 -0.2047
23190SOL    HW171011   6.383   7.399   9.951  1.3349 -0.7369 -1.3713
23190SOL    HW271012   6.295   7.309   9.867 -0.5917 -0.7450  0.5737
23191SOL     OW71013   6.472   6.149  10.709  0.5167  0.0359 -0.1973
23191SOL    HW171014   6.554   6.177  10.668  0.6297 -1.2570 -0.9100
23191SOL    HW271015   6.500   6.083  10.773  0.1899  0.9276  0.8994
23192SOL     OW71016   4.361   0.257   9.143 -0.4092  0.2149 -0.0927
23192SOL    HW171017   4.402   0.179   9.105 -2.1060 -0.9018  0.2587
23192SOL    HW271018   4.269   0.252   9.115 -0.3200  2.8086 -1.1521
23193SOL     OW71019   0.560   5.779  11.621  0.1965 -0.2885 -0.1350
23193SOL    HW171020   0.607   5.862  11.609 -0.4164  0.0856  0.0133
23193SOL    HW271021   0.598   5.720  11.556  0.9822 -0.0407  0.0851
23194SOL     OW71022   5.912   6.543  10.165 -0.5711 -0.0610 -0.0023
23194SOL    HW171023   5.973   6.504  10.227 -0.2737  1.3876  0.6798
23194SOL    HW271024   5.964   6.606  10.116 -1.3028  0.5073 -0.0753
23195SOL     OW71025   5.557   6.822  10.548 -0.3054  0.5139  0.0424
23195SOL    HW171026   5.643   6.792  10.518 -1.1765 -0.9477 -1.0714
23195SOL    HW271027   5.552   6.912  10.518  0.3330  0.2180 -1.0201
23196SOL     OW71028   6.961   5.079   8.396 -0.0281 -0.2077 -0.2061
23196SOL    HW171029   6.891   5.024   8.362  0.8766 -0.8894 -1.0338
23196SOL    HW271030   6.963   5.061   8.490 -0.6967 -0.4836 -0.2441
23197SOL     OW71031   5.728   5.372  10.831 -0.1216  0.6201 -0.1376
23197SOL    HW171032   5.722   5.460  10.793 -2.9553  0.3585 -0.5337
23197SOL    HW271033   5.706   5.313  10.759 -1.5696 -0.1448  0.8784
23198SOL     OW71034   6.394   0.323  11.073  0.2983 -0.4889  0.7279
23198SOL    HW171035   6.459   0.286  11.133  3.1365  0.8313 -1.2609
23198SOL    HW271036   6.355   0.247  11.031  0.7841 -1.3453  1.7679
23199SOL     OW71037   5.413   6.158  11.806 -0.4470  0.0973  0.1886
23199SOL    HW171038   5.396   6.175  11.899  0.5812  2.4146  0.0192
23199SOL    HW271039   5.462   6.234  11.777  0.5628 -1.2808 -1.9208
23200SOL     OW71040   7.671   6.536   9.267  0.0282  0.6817 -0.9983
23200SOL    HW171041   7.576   6.524   9.269  0.1980 -1.0702  1.3727
23200SOL    HW271042   7.688   6.577   9.182 -2.7623  0.4842 -1.7683
23201SOL     OW71043   0.086   7.710   7.897 -0.4314 -0.2502 -0.3866
23201SOL    HW171044   0.006   7.729   7.848 -0.5283 -0.0906 -0.1697
23201SOL    HW271045   0.061   7.642   7.959 -1.1542  1.6887  1.5939
23202SOL     OW71046   6.404   4.525   9.475  0.4818  0.4872  0.4375
23202SOL    HW171047   6.341   4.482   9.532  0.8383 -1.1739 -0.3609
23202SOL    HW271048   6.350   4.572   9.411 -0.0071 -0.9776 -0.2858
23203SOL     OW71049   0.126   7.734   9.691  0.0759 -0.0648  0.1255
23203SOL    HW171050   0.139   7.797   9.620  0.4261 -0.0471  0.2018
23203SOL    HW271051   0.209   7.735   9.739  0.1768 -0.7582 -0.0158
23204SOL     OW71052   7.427   4.428  11.302  0.0044  0.6251 -0.1797
23204SOL    HW171053   7.465   4.467  11.224  0.1484 -1.5128 -1.2405
23204SOL    HW271054   7.463   4.339  11.305 -0.0968  0.5807  2.2563
23205SOL     OW71055   6.404   5.537  11.147 -0.0184 -0.1655  0.0185
23205SOL    HW171056   6.431   5.454  11.108 -0.6585 -0.4180  0.0991
23205SOL    HW271057   6.343   5.513  11.216 -2.2535  0.4336 -1.6046
23206SOL     OW71058   5.567   0.416   0.166  0.2045 -0.4943  1.1204
23206SOL    HW171059   5.537   0.495   0.120  2.0718 -0.6742 -0.5202
23206SOL    HW271060   5.541   0.430   0.257  0.1627  1.8355  0.8036
23207SOL     OW71061   5.788   5.039  11.279  0.3447  0.8207 -0.5620
23207SOL    HW171062   5.865   4.988  11.305 -0.2762 -0.0460 -0.3596
23207SOL    HW271063   5.822   5.107  11.222  1.3058  0.6657 -0.1910
23208SOL     OW71064   6.720   5.810   9.329  0.0367 -0.0685  0.2697
23208SOL    HW171065   6.706   5.839   9.419 -1.7106  1.3259 -0.3941
23208SOL    HW271066   6.650   5.852   9.279  1.5549 -0.0060 -1.9273
23209SOL     OW71067   5.436   5.416   9.819  0.4655  0.3556 -0.3446
23209SOL    HW171068   5.519   5.411   9.771  0.3358 -0.8291 -0.4981
23209SOL    HW271069   5.389   5.489   9.779  0.8098  0.0626 -1.3212
23210SOL     OW71070   6.784   5.143   9.426  0.0329 -0.0030 -0.1760
23210SOL    HW171071   6.779   5.226   9.379 -1.5771  0.1339  0.1714
23210SOL    HW271072   6.852   5.156   9.491 -0.7065  1.3284  0.3726
23211SOL     OW71073   5.874   7.571   7.976 -0.3399 -0.0844  0.2061
23211SOL    HW171074   5.839   7.637   7.916  0.7755  1.4973  1.2404
23211SOL    HW271075   5.949   7.534   7.929 -0.0816  0.4300  0.2084
23212SOL     OW71076   6.567   5.543  10.824  0.3976  0.0269 -0.5034
23212SOL    HW171077   6.563   5.489  10.745 -1.5204  1.7506 -1.6744
23212SOL    HW271078   6.544   5.482  10.895  0.6820 -1.2249 -1.4562
23213SOL     OW71079   5.579   6.228   9.809  0.2074  0.5434 -0.6059
23213SOL    HW171080   5.606   6.137   9.803  0.3337  0.5469 -0.1429
23213SOL    HW271081   5.494   6.231   9.765  0.3529  0.2709 -0.9125
23214SOL     OW71082   4.858   5.149  10.613  0.2187  0.7611  0.3281
23214SOL    HW171083   4.926   5.166  10.549 -1.4358  1.6620 -1.2761
23214SOL    HW271084   4.875   5.060  10.643  1.6876  0.7314 -0.5177
23215SOL     OW71085   7.660   7.217  10.169  0.8511 -0.0733  0.0213
23215SOL    HW171086   7.580   7.183  10.129 -1.3278  2.4062  1.9004
23215SOL    HW271087   7.678   7.155  10.241 -1.1114  0.7804  1.3352
23216SOL     OW71088   5.884   7.334   8.916  0.1090 -0.5146  0.2491
23216SOL    HW171089   5.973   7.369   8.915  0.2493 -0.7138  2.1664
23216SOL    HW271090   5.863   7.323   9.009 -1.6483 -1.1730 -0.1769
23217SOL     OW71091   6.429   6.496  10.919 -0.0146 -0.1428  0.1940
23217SOL    HW171092   6.357   6.507  10.981  0.5004  0.0769  0.7624
23217SOL    HW271093   6.390   6.452  10.844 -0.9652  0.8494  0.0790
23218SOL     OW71094   4.668   0.401  10.855 -0.1795 -0.2527 -0.1566
23218SOL    HW171095   4.605   0.442  10.914  1.0040 -1.1609  1.8893
23218SOL    HW271096   4.721   0.473  10.822 -0.8576  0.2881 -0.0664
23219SOL     OW71097   4.205   6.679   9.457 -0.7564  0.5039  0.1330
23219SOL    HW171098   4.287   6.640   9.486 -1.1975 -1.3349 -0.9431
23219SOL    HW271099   4.164   6.710   9.538  0.1371 -0.2749  0.9123
23220SOL     OW71100   6.526   6.283  10.011  0.3952 -0.6774 -0.0563
23220SOL    HW171101   6.604   6.319  10.054 -0.6848  0.9546  0.6134
23220SOL    HW271102   6.561   6.214   9.953  2.2629 -0.3760  0.6312
23221SOL     OW71103   6.486   6.288  11.070  0.3205 -0.5267 -0.2616
23221SOL    HW171104   6.496   6.370  11.021  2.4601  0.5566  1.8166
23221SOL    HW271105   6.393   6.266  11.060 -1.0077  3.5511  1.1927
23222SOL     OW71106   7.394   7.641   8.279  0.0041 -0.2651  0.0495
23222SOL    HW171107   7.456   7.668   8.212 -1.5821  1.2604 -0.8827
23222SOL    HW271108   7.413   7.548   8.293  0.4654 -0.6159 -2.4241
23223SOL     OW71109   5.727   6.574  10.700 -0.2043  0.2026 -0.1677
23223SOL    HW171110   5.717   6.503  10.637  1.5323 -0.1621 -0.0851
23223SOL    HW271111   5.662   6.639  10.674 -2.2335 -1.6148  0.0909
23224SOL     OW71112   6.798   0.652   9.195 -0.0509 -0.6334  0.1581
23224SOL    HW171113   6.792   0.722   9.260  0.8740 -2.9789  2.9556
23224SOL    HW271114   6.890   0.628   9.193 -0.0975 -0.8433 -1.8979
23225SOL     OW71115   6.199   6.244   9.237  0.4179  0.5869 -0.0080
23225SOL    HW171116   6.185   6.310   9.305  1.5996  0.2804  0.5575
23225SOL    HW271117   6.207   6.294   9.156  0.0977  1.0385  0.2320
23226SOL     OW71118   6.981   4.975   8.632 -0.3548 -0.6269 -0.4359
23226SOL    HW171119   6.951   5.043   8.693 -0.4310 -0.1729 -0.9701
23226SOL    HW271120   7.075   4.972   8.645 -0.4761 -1.2049  0.3827
23227SOL     OW71121   4.815   7.142   9.380  0.3803 -0.3686  0.1010
23227SOL    HW171122   4.755   7.186   9.441 -0.2821 -0.9993 -0.0723
23227SOL    HW271123   4.763   7.070   9.343  1.0553 -0.5478 -0.5325
23228SOL     OW71124   4.711   7.280  10.320  0.8946 -0.1367  0.6937
23228SOL    HW171125   4.628   7.308  10.357  1.1610  0.7394  0.6493
23228SOL    HW271126   4.743   7.213  10.380  0.0800 -0.6161  0.6090
23229SOL     OW71127   4.568   7.204   9.168  0.0886 -0.0260  0.1555
23229SOL    HW171128   4.580   7.275   9.105 -3.1748 -0.9653 -1.7249
23229SOL    HW271129   4.571   7.124   9.115 -0.5627 -1.0016  1.5300
23230SOL     OW71130   7.272   4.754  11.040  0.0650  0.1431  0.4116
23230SOL    HW171131   7.298   4.822  11.102  0.4480  1.4152 -1.0794
23230SOL    HW271132   7.228   4.802  10.970 -4.2631 -1.5996  1.5910
23231SOL     OW71133   4.820   4.214   9.240 -0.2523  0.2392 -0.3725
23231SOL    HW171134   4.737   4.181   9.204 -0.6568  1.7209 -0.8725
23231SOL    HW271135   4.883   4.205   9.169 -0.2923  0.2733 -0.4128
23232SOL     OW71136   4.385   5.561  10.390 -0.0291  0.0572 -0.0395
23232SOL    HW171137   4.309   5.591  10.340 -3.2993 -1.3519  3.5850
23232SOL    HW271138   4.418   5.640  10.433  2.1448  1.0735 -3.1677
23233SOL     OW71139   7.447   7.952  10.140 -0.1562 -0.3094 -0.3172
23233SOL    HW171140   7.390   7.947  10.063  1.6159  0.0431 -1.7310
23233SOL    HW271141   7.426   7.873  10.191 -0.9777 -0.8559 -1.4562
23234SOL     OW71142   7.223   4.948  10.867  0.0054  0.4083  0.3899
23234SOL    HW171143   7.138   4.990  10.885 -0.2978 -0.0561  0.0511
23234SOL    HW271144   7.228   4.944  10.772  1.1005  1.8263  0.3519
23235SOL     OW71145   5.337   6.751  10.246  0.2764  0.4054 -0.5414
23235SOL    HW171146   5.387   6.693  10.303  0.5867  2.2048  1.1272
23235SOL    HW271147   5.362   6.725  10.157 -0.3271 -2.5976  0.0570
23236SOL     OW71148   3.837   7.502   9.850 -0.3426 -0.0114  0.0649
23236SOL    HW171149   3.893   7.473   9.922 -2.2071  1.4915  2.2536
23236SOL    HW271150   3.895   7.554   9.794  1.6593 -2.9579 -0.8260
23237SOL     OW71151   6.399   6.814   8.751 -0.2629  0.2975 -0.1185
23237SOL    HW171152   6.424   6.729   8.785  0.0171  0.3764 -0.1281
23237SOL    HW271153   6.481   6.854   8.722 -0.3669  0.6416  0.0473
23238SOL     OW71154   7.107   6.489   9.251 -0.0666 -0.4123 -0.3068
23238SOL    HW171155   7.047   6.495   9.325 -1.0477  1.3587 -1.1966
23238SOL    HW271156   7.085   6.406   9.209 -1.0028 -0.4009  0.1352
23239SOL     OW71157   6.897   5.993   9.589 -0.2328 -0.2261 -0.1443
23239SOL    HW171158   6.964   6.030   9.646 -1.8864  1.4367  0.8421
23239SOL    HW271159   6.850   6.069   9.555 -1.6210 -1.3274 -0.7960
23240SOL     OW71160   6.686   5.929   9.937  0.0575 -0.2298  0.1348
23240SOL    HW171161   6.691   6.024   9.923  0.0172 -0.1031  0.9585
23240SOL    HW271162   6.650   5.895   9.855 -0.6367  0.5446  0.1012
23241SOL     OW71163   5.463   7.001   9.906 -0.2993 -0.6443  0.0800
23241SOL    HW171164   5.369   7.016   9.920 -0.4008 -0.9104 -0.3098
23241SOL    HW271165   5.468   6.915   9.866  0.0576 -0.3169 -0.5904
23242SOL     OW71166   4.597   7.389   8.956  0.2394  0.1920 -0.5006
23242SOL    HW171167   4.626   7.479   8.966 -1.8198  0.7941  0.6405
23242SOL    HW271168   4.531   7.393   8.887  0.6935 -0.6134 -1.0039
23243SOL     OW71169   0.370   6.731   9.743 -0.1092  0.7032 -0.1993
23243SOL    HW171170   0.309   6.660   9.721  1.1334 -0.6213  0.4617
23243SOL    HW271171   0.320   6.787   9.804 -0.6897 -0.3459  0.3284
23244SOL     OW71172   6.527   7.337   8.426  0.5375  0.3407  0.0047
23244SOL    HW171173   6.489   7.373   8.506  0.7615  0.7071 -0.0535
23244SOL    HW271174   6.474   7.259   8.408  0.3231  0.3992  0.3659
23245SOL     OW71175   6.850   6.048   9.192 -0.0477  0.0086  0.4516
23245SOL    HW171176   6.787   6.000   9.247 -0.5413  0.5569  0.3762
23245SOL    HW271177   6.895   5.980   9.142 -2.0812 -0.2888 -1.0900
23246SOL     OW71178   4.181   7.934  10.283 -0.2956  0.0554  0.1285
23246SOL    HW171179   4.173   7.902  10.194  2.4871 -2.7142  0.7039
23246SOL    HW271180   4.131   7.872  10.336 -1.2244  1.1880  0.6233
23247SOL     OW71181   7.343   5.573  10.210 -0.2218  0.5072  0.0838
23247SOL    HW171182   7.282   5.647  10.208 -0.7690  0.0565 -0.0347
23247SOL    HW271183   7.378   5.569  10.121  1.1802  1.7365  0.5327
23248SOL     OW71184   4.721   6.342   9.260 -0.0698  0.4552  0.3520
23248SOL    HW171185   4.767   6.288   9.195  0.7551  0.6909  0.7304
23248SOL    HW271186   4.643   6.290   9.283 -0.2435  0.2671 -0.6438
23249SOL     OW71187   7.353   6.121   8.579 -0.3477 -0.3093 -0.7137
23249SOL    HW171188   7.261   6.130   8.554 -0.3944 -0.3716 -0.5697
23249SOL    HW271189   7.361   6.030   8.607 -0.3107 -0.2233 -0.4452
23250SOL     OW71190   5.386   7.550   8.952  0.5092 -0.3566 -0.0337
23250SOL    HW171191   5.404   7.549   9.046  0.1742 -0.4638  0.0285
23250SOL    HW271192   5.423   7.633   8.922 -3.0279  1.7850  0.9312
23251SOL     OW71193   6.660   6.520  10.750  0.6489 -0.3023 -0.2880
23251SOL    HW171194   6.602   6.534  10.825  0.0053 -1.4195 -0.5603
23251SOL    HW271195   6.747   6.543  10.782  0.2333  0.2319  0.4833
23252SOL     OW71196   6.199   7.386  10.877  0.5553  0.3827 -0.0590
23252SOL    HW171197   6.195   7.414  10.785  2.0340  0.6308 -0.0694
23252SOL    HW271198   6.109   7.362  10.898  0.2324  0.0170 -1.6688
23253SOL     OW71199   5.811   6.295   9.102 -0.0669  0.0623  0.9080
23253SOL    HW171200   5.899   6.332   9.109 -0.6303  1.2769  2.2486
23253SOL    HW271201   5.813   6.239   9.024  0.9098  2.8041 -1.1766
23254SOL     OW71202   6.667   7.519   9.327  0.2554  0.1539  0.1849
23254SOL    HW171203   6.649   7.601   9.374 -0.4691  0.0719  0.0618
23254SOL    HW271204   6.721   7.468   9.387  2.2474  1.4262 -0.4267
23255SOL     OW71205   5.082   6.525   9.446 -0.7517  0.5175  0.4517
23255SOL    HW171206   5.034   6.443   9.461  0.6485 -0.4737 -0.2103
23255SOL    HW271207   5.087   6.533   9.351  0.0814  0.7761  0.5099
23256SOL     OW71208   7.136   6.522  10.796 -0.3406 -0.4056  0.7776
23256SOL    HW171209   7.205   6.485  10.853 -0.6264 -1.5003  0.4386
23256SOL    HW271210   7.165   6.500  10.707 -1.5392 -1.6560  0.6677
23257SOL     OW71211   6.790   7.951  11.102  0.4820 -0.3057 -0.1763
23257SOL    HW171212   6.750   7.993  11.179  1.5653 -0.3452  0.4277
23257SOL    HW271213   6.716   7.931  11.045 -0.1336  2.1476 -0.3726
23258SOL     OW71214   6.723   0.042   9.153  0.0762  0.1907  0.8519
23258SOL    HW171215   6.713   0.125   9.106  0.6967 -0.5457 -0.6638
23258SOL    HW271216   6.778  -0.011   9.095 -1.0231 -1.5897  1.3674
23259SOL     OW71217   4.806   7.495  10.150  0.0270 -0.0420  0.2590
23259SOL    HW171218   4.769   7.407  10.160  0.3117 -0.2195 -0.1838
23259SOL    HW271219   4.858   7.489  10.070 -0.1442  0.5986  0.0997
23260SOL     OW71220   0.228   6.450   9.749 -0.2554 -0.4485  0.6321
23260SOL    HW171221   0.173   6.487   9.680 -0.7753 -2.0295  0.1563
23260SOL    HW271222   0.243   6.359   9.722  0.4339 -0.7923  2.0601
23261SOL     OW71223   6.114   6.129   8.922  0.0638 -0.1876 -0.0619
23261SOL    HW171224   6.050   6.072   8.879  0.2696 -0.3189 -0.1947
23261SOL    HW271225   6.190   6.073   8.938  0.3362  0.0950 -0.3566
23262SOL     OW71226   5.690   6.778  12.470 -0.2626  0.8254 -0.0227
23262SOL    HW171227   5.699   6.841  12.398  0.1260 -1.0653 -1.7201
23262SOL    HW271228   5.608   6.732  12.450  0.5284 -0.6233 -0.0143
23263SOL     OW71229   7.328   4.736   8.575  0.6610 -0.0181  0.2333
23263SOL    HW171230   7.409   4.736   8.626  0.3019  0.3490  0.8197
23263SOL    HW271231   7.304   4.829   8.569 -1.2915 -0.2535  2.6585
23264SOL     OW71232   5.608   6.321  11.656  0.1847 -0.0027 -0.2268
23264SOL    HW171233   5.638   6.251  11.597  1.0434 -0.6413  0.9371
23264SOL    HW271234   5.688   6.362  11.687 -0.2926  0.9020 -0.1624
23265SOL     OW71235   5.930   6.761  11.751 -0.3132 -0.1487 -0.3153
23265SOL    HW171236   5.918   6.844  11.707  0.0402 -0.1472 -0.4106
23265SOL    HW271237   5.857   6.707  11.721 -1.1432  0.4590  0.5449
23266SOL     OW71238   5.918   0.149  10.744 -0.1699 -1.0029  0.1632
23266SOL    HW171239   5.852   0.209  10.779  2.5461  2.1357  0.4818
23266SOL    HW271240   5.870   0.091  10.686 -3.0365  2.2244 -1.0570
23267SOL     OW71241   4.863   5.888   9.346  0.2368 -0.4935  0.0293
23267SOL    HW171242   4.927   5.830   9.388  3.6271  0.3648 -3.4015
23267SOL    HW271243   4.805   5.828   9.298  1.2056 -1.2120 -0.2832
23268SOL     OW71244   4.926   6.299   9.499 -0.3967 -0.0861 -0.3939
23268SOL    HW171245   4.964   6.272   9.583 -0.5977  1.5651  0.2768
23268SOL    HW271246   4.921   6.219   9.448 -0.6745 -1.2208  1.3251
23269SOL     OW71247   6.040   6.096   9.785  0.2732  0.1951 -0.8759
23269SOL    HW171248   6.003   6.114   9.699 -1.1592 -0.9159 -0.5204
23269SOL    HW271249   5.966   6.102   9.845  1.1592  0.4841  0.2244
23270SOL     OW71250   6.617   1.097  11.071 -0.4083 -0.1101  0.0829
23270SOL    HW171251   6.594   1.142  10.989  0.0837  2.3518  1.1919
23270SOL    HW271252   6.712   1.085  11.065 -0.3140  0.4268  0.4330
23271SOL     OW71253   6.137   5.606  10.286 -0.3241 -0.2400 -1.2140
23271SOL    HW171254   6.167   5.601  10.376  0.2420  0.8671 -1.3277
23271SOL    HW271255   6.064   5.543  10.281 -0.3416 -0.3299 -0.0118
23272SOL     OW71256   6.416   7.049  11.997  0.4805  0.4558  0.0279
23272SOL    HW171257   6.470   6.997  11.937  1.2063  0.8904  0.2879
23272SOL    HW271258   6.477   7.077  12.066  0.3264  2.3295 -0.5330
23273SOL     OW71259   4.594   5.981  10.300  0.0909 -0.2321  0.0531
23273SOL    HW171260   4.599   5.916  10.370  0.4523 -0.9951 -0.6627
23273SOL    HW271261   4.643   6.057  10.334 -2.2060  0.5954  1.8131
23274SOL     OW71262   7.666   6.705  10.008 -0.3855 -0.3615 -0.2337
23274SOL    HW171263   7.637   6.757   9.934 -0.2686  0.7663  0.4968
23274SOL    HW271264   7.751   6.743  10.033  0.3742 -1.7638 -0.5276
23275SOL     OW71265   4.413   5.238  11.244 -0.1807 -0.1458  0.1115
23275SOL    HW171266   4.430   5.176  11.314 -1.9073  0.9451  1.5921
23275SOL    HW271267   4.371   5.312  11.287  0.6945  1.5381 -1.7668
23276SOL     OW71268   6.049   5.941  11.696 -0.5059 -0.0168  0.0433
23276SOL    HW171269   6.141   5.940  11.723 -0.1112 -0.5760 -1.2253
23276SOL    HW271270   6.051   5.923  11.602 -2.0188 -2.3642  0.3601
23277SOL     OW71271   4.399   6.101  11.377 -0.0721 -0.5542 -0.1656
23277SOL    HW171272   4.490   6.086  11.352  0.3323  1.3517  0.0080
23277SOL    HW271273   4.403   6.119  11.471 -0.1657  2.3448 -0.6153
23278SOL     OW71274   5.510   7.321  11.369  0.0776 -0.2083 -0.4688
23278SOL    HW171275   5.488   7.302  11.460  0.4337 -1.7114 -0.6601
23278SOL    HW271276   5.597   7.360  11.372  0.6859 -1.5344 -0.2342
23279SOL     OW71277   4.509   7.704   8.898  0.1604  0.1744  0.1753
23279SOL    HW171278   4.485   7.665   8.814 -1.4424 -4.2110  2.3771
23279SOL    HW271279   4.427   7.706   8.948  0.7527  4.0191  1.3552
23280SOL     OW71280   6.498   7.441  12.217  0.4902 -0.2778  0.3270
23280SOL    HW171281   6.588   7.445  12.185  0.5555  0.4350  0.5748
23280SOL    HW271282   6.502   7.477  12.306 -0.5589  3.3213 -0.8853
23281SOL     OW71283   5.953   6.189   9.524  0.5252  0.2513  0.1211
23281SOL    HW171284   5.863   6.202   9.495  0.3738  1.0471  0.8896
23281SOL    HW271285   5.998   6.150   9.449 -0.1806  0.9542 -0.6777
23282SOL     OW71286   5.471   4.811  10.540  0.4770 -0.5047  0.0464
23282SOL    HW171287   5.545   4.802  10.481  2.3642 -0.0713  2.2099
23282SOL    HW271288   5.510   4.812  10.627 -1.8902  1.5332  1.2211
23283SOL     OW71289   7.350   4.430  10.746  0.3102 -0.0863  0.1618
23283SOL    HW171290   7.347   4.511  10.696 -1.1931  0.0968  0.5002
23283SOL    HW271291   7.310   4.365  10.689 -0.6744 -0.0518  0.7922
23284SOL     OW71292   6.941   5.817   9.091  0.4140  0.0920 -0.2700
23284SOL    HW171293   6.926   5.775   9.006 -2.3252 -1.0682  0.6624
23284SOL    HW271294   7.030   5.791   9.115  0.4025 -1.5209 -1.7291
23285SOL     OW71295   6.332   7.136   9.782 -0.5216 -0.3189  0.1774
23285SOL    HW171296   6.353   7.083   9.705 -2.3963 -2.3968  0.9662
23285SOL    HW271297   6.362   7.084   9.856  2.6495  2.3230  0.9629
23286SOL     OW71298   6.589   0.129  11.678 -0.0603 -0.1364 -0.4656
23286SOL    HW171299   6.670   0.171  11.649  0.2544  1.3158  2.1669
23286SOL    HW271300   6.618   0.055  11.731 -0.4587  0.1433  0.1548
23287SOL     OW71301   5.061   4.348  10.561 -0.8908 -0.3034  0.4142
23287SOL    HW171302   4.975   4.390  10.560 -1.2012 -0.8797  1.3397
23287SOL    HW271303   5.100   4.375  10.644 -0.6053 -0.8818  0.4710
23288SOL     OW71304   6.075   5.143  11.618 -0.7203  0.2029 -0.8567
23288SOL    HW171305   6.102   5.152  11.709 -1.6360  0.5366 -0.6129
23288SOL    HW271306   6.039   5.055  11.612 -2.1317  0.7320 -0.4907
23289SOL     OW71307   7.276   5.314  10.431 -0.1901  1.2820 -0.1935
23289SOL    HW171308   7.252   5.245  10.369  1.3164 -0.1161  0.6891
23289SOL    HW271309   7.255   5.278  10.517  0.4897  1.9739  0.2836
23290SOL     OW71310   6.987   5.328   8.515  0.4207  0.3770  0.2262
23290SOL    HW171311   6.967   5.246   8.471  0.9331 -0.4367  1.4825
23290SOL    HW271312   7.060   5.365   8.465 -1.8859  1.8097 -2.4317
23291SOL     OW71313   5.195   7.010   9.906  0.2076 -0.2436 -0.1777
23291SOL    HW171314   5.157   7.002   9.818 -0.0078  1.1675 -0.2451
23291SOL    HW271315   5.133   6.964   9.963 -1.4784  1.6161 -0.3543
23292SOL     OW71316   6.876   6.991   9.818  0.0084 -0.5191  0.4363
23292SOL    HW171317   6.969   7.006   9.836 -0.0952 -0.0907  0.6273
23292SOL    HW271318   6.874   6.914   9.761  0.6834  1.2026 -2.0695
23293SOL     OW71319   4.272   6.731  10.704  0.3216  0.0731 -0.3962
23293SOL    HW171320   4.346   6.780  10.741  0.3850 -0.5002  0.2586
23293SOL    HW271321   4.215   6.798  10.666  1.4671  0.4902 -1.4485
23294SOL     OW71322   4.874   6.625  11.085 -0.4694 -0.1814  0.2762
23294SOL    HW171323   4.891   6.709  11.127 -1.0646  1.0608 -1.8512
23294SOL    HW271324   4.781   6.610  11.097 -0.5851  0.0342 -0.3645
23295SOL     OW71325   6.143   4.509  10.451 -0.2378 -0.0227 -0.4655
23295SOL    HW171326   6.188   4.460  10.520 -1.0486 -2.0407 -1.2866
23295SOL    HW271327   6.079   4.562  10.497  0.8066  0.4578  0.4791
23296SOL     OW71328   5.129   5.662  11.407 -0.9569 -0.3098  0.3865
23296SOL    HW171329   5.126   5.584  11.352 -0.7125 -0.2993  0.3568
23296SOL    HW271330   5.134   5.628  11.497  1.6878 -0.3904  0.2943
23297SOL     OW71331   4.439   7.646  10.202  0.4756  0.0252  0.3145
23297SOL    HW171332   4.476   7.699  10.131 -2.4300  2.2885  0.2760
23297SOL    HW271333   4.503   7.651  10.272  2.5895 -0.7332 -1.4638
23298SOL     OW71334   6.024   1.213   7.595 -0.4467  0.4493 -0.5577
23298SOL    HW171335   6.042   1.307   7.594 -0.6995  0.5449  1.0583
23298SOL    HW271336   6.110   1.172   7.601 -0.4113  0.6857  0.9766
23299SOL     OW71337   4.972   6.115   9.309 -0.2839 -0.0989 -0.3142
23299SOL    HW171338   4.944   6.132   9.220  0.7293 -0.2196 -0.6764
23299SOL    HW271339   4.951   6.023   9.324 -2.1497  0.3731  0.2496
23300SOL     OW71340   6.385   4.905  12.347  0.2601 -0.3765 -0.8933
23300SOL    HW171341   6.472   4.923  12.309 -0.1684  0.4818 -1.5306
23300SOL    HW271342   6.402   4.889  12.439  1.0105  0.8443 -0.7869
23301SOL     OW71343   4.514   7.605   0.145 -0.0824  0.0088  0.2412
23301SOL    HW171344   4.488   7.680   0.093 -1.1249 -1.0433 -0.7911
23301SOL    HW271345   4.555   7.644   0.223 -1.3993  1.6483  0.1752
23302SOL     OW71346   6.668   7.206   1.117  0.2890  0.1922  0.0684
23302SOL    HW171347   6.754   7.248   1.116  0.2257  0.3175 -0.8323
23302SOL    HW271348   6.648   7.189   1.025 -0.4543 -0.2445  0.2991
23303SOL     OW71349   6.329   6.640  11.476  0.0785 -0.7498 -0.0404
23303SOL    HW171350   6.361   6.683  11.397 -0.7639  2.0969  1.0318
23303SOL    HW271351   6.408   6.612  11.523  0.8241  1.3184  0.0373
23304SOL     OW71352   5.767   5.551   9.205 -0.1761  0.1046  0.4325
23304SOL    HW171353   5.755   5.498   9.126  0.7144  1.1938 -0.4597
23304SOL    HW271354   5.850   5.523   9.242  0.2874  0.8306 -0.0288
23305SOL     OW71355   4.858   5.380  11.553 -0.3326 -0.8667 -0.2911
23305SOL    HW171356   4.881   5.400  11.644  0.7631  0.1306 -0.7482
23305SOL    HW271357   4.890   5.291  11.539 -0.6992 -1.1047  0.3604
23306SOL     OW71358   5.023   6.447  10.950  0.5788  0.3917 -0.1270
23306SOL    HW171359   5.093   6.501  10.988 -0.5378  1.4459  0.4895
23306SOL    HW271360   4.942   6.489  10.979 -0.3270 -1.3537 -0.0231
23307SOL     OW71361   5.138   5.608  10.401  0.6888  0.0810 -0.1596
23307SOL    HW171362   5.065   5.660  10.369  0.8491  0.4735  0.1114
23307SOL    HW271363   5.114   5.518  10.379  0.3368  0.2507 -0.4807
23308SOL     OW71364   4.916   7.920  12.102 -0.2552  0.1090  0.8631
23308SOL    HW171365   4.960   7.858  12.045 -1.3314  0.2369 -0.1624
23308SOL    HW271366   4.829   7.883  12.115  0.0356 -0.0279  2.6396
23309SOL     OW71367   6.378   7.523   7.627  0.6019 -0.2174 -0.1720
23309SOL    HW171368   6.346   7.433   7.614  0.0035  0.0963 -0.9291
23309SOL    HW271369   6.333   7.574   7.560  0.5988  0.7333  0.5445
23310SOL     OW71370   6.537   0.446   0.363 -0.3513 -0.1888 -0.0636
23310SOL    HW171371   6.543   0.533   0.324 -0.5218 -0.8705 -1.7002
23310SOL    HW271372   6.448   0.417   0.345  0.0959 -1.2136 -0.7416
23311SOL     OW71373   5.552   7.370   9.809  0.2621  0.2024  0.1882
23311SOL    HW171374   5.573   7.438   9.873 -3.3291  0.4159  1.3276
23311SOL    HW271375   5.482   7.407   9.756 -1.0988 -2.1770  0.1891
23312SOL     OW71376   7.336   5.118   8.900 -0.1671  0.3661 -0.4887
23312SOL    HW171377   7.401   5.159   8.843 -0.1612  0.5470 -0.3518
23312SOL    HW271378   7.254   5.122   8.850  0.3118 -1.7037 -1.5372
23313SOL     OW71379   6.389   7.161  11.681  0.3365 -0.1499 -0.2848
23313SOL    HW171380   6.408   7.253  11.698 -0.4201  0.0229 -0.3259
23313SOL    HW271381   6.295   7.153  11.699  0.4125 -0.9281 -0.2156
23314SOL     OW71382   7.110   5.323  10.043  0.2750 -0.0585  0.7454
23314SOL    HW171383   7.204   5.336  10.058  0.3272 -0.3125  0.6474
23314SOL    HW271384   7.077   5.292  10.127  0.5634 -1.4586  0.3651
23315SOL     OW71385   5.407   7.277  11.116 -0.1662  0.3779  0.1022
23315SOL    HW171386   5.435   7.243  11.200 -0.1970  0.3442  0.0993
23315SOL    HW271387   5.403   7.201  11.058 -2.3357  0.0074  0.6489
23316SOL     OW71388   5.427   6.813  11.842 -0.1612 -0.0023  0.6714
23316SOL    HW171389   5.389   6.795  11.927  1.5564  0.0627  1.5004
23316SOL    HW271390   5.404   6.738  11.788  0.2667 -0.9236  1.7487
23317SOL     OW71391   0.183   6.586   8.450  0.0429  0.5776 -0.3076
23317SOL    HW171392   0.229   6.668   8.432  1.0373  0.0222 -0.3961
23317SOL    HW271393   0.188   6.537   8.368  0.7873 -0.1760  0.1642
23318SOL     OW71394   6.570   5.950   9.517 -0.1086 -0.2343  0.3106
23318SOL    HW171395   6.491   5.939   9.465  1.2105 -0.0952 -1.8325
23318SOL    HW271396   6.608   6.033   9.487  0.4535  0.1197  1.8826
23319SOL     OW71397   6.267   7.319  11.355 -0.5169  0.4465  0.1949
23319SOL    HW171398   6.274   7.382  11.283  0.6784 -1.1944 -1.2309
23319SOL    HW271399   6.358   7.296  11.375 -0.8627  0.3517  1.8146
23320SOL     OW71400   5.575   6.987  11.651  0.1092 -0.6987 -0.1794
23320SOL    HW171401   5.506   7.052  11.638 -0.0572 -0.3901  1.8633
23320SOL    HW271402   5.547   6.937  11.727  0.7238 -2.5469 -1.1209
23321SOL     OW71403   7.057   5.549  10.644  0.8500 -0.1382 -0.3134
23321SOL    HW171404   7.016   5.574  10.561  1.2960 -0.3636 -0.6068
23321SOL    HW271405   6.987   5.554  10.708  0.2735 -0.8825 -0.8771
23322SOL     OW71406   7.778   7.353   9.563 -0.0233  0.0732 -0.3383
23322SOL    HW171407   7.714   7.424   9.563 -0.1250 -0.0051 -1.1413
23322SOL    HW271408   7.740   7.288   9.504  0.3638 -0.3792 -0.0937
23323SOL     OW71409   6.059   0.935  11.603 -0.0891  0.2956 -0.4325
23323SOL    HW171410   6.103   0.987  11.670  0.1064  0.9555 -1.0594
23323SOL    HW271411   6.127   0.916  11.538 -0.2778 -0.3215 -0.4656
23324SOL     OW71412   0.922   6.734   8.541 -0.3072 -0.1594  0.5184
23324SOL    HW171413   0.868   6.758   8.466 -0.5080  0.2720  0.7951
23324SOL    HW271414   0.884   6.652   8.573  0.8834 -1.3326 -0.9226
23325SOL     OW71415   0.032   6.515   9.583  0.5029 -0.4692  0.3950
23325SOL    HW171416  -0.026   6.445   9.553 -0.6178  0.8644 -0.7097
23325SOL    HW271417   0.072   6.549   9.502  1.2418 -0.0077  0.9425
23326SOL     OW71418   5.701   6.635   9.979 -0.5725 -0.0348  0.0664
23326SOL    HW171419   5.769   6.585  10.024 -1.1042 -1.2851 -0.4906
23326SOL    HW271420   5.695   6.595   9.892 -0.1403  1.7994 -0.8838
23327SOL     OW71421   6.389   7.302   0.074 -0.0359  0.3234  0.0338
23327SOL    HW171422   6.306   7.335   0.040  0.6199 -0.1095 -2.1491
23327SOL    HW271423   6.409   7.226   0.019  1.7955  0.4176  0.5176
23328SOL     OW71424   4.694   7.478   8.623  0.5584 -0.0720  0.0377
23328SOL    HW171425   4.699   7.395   8.670  0.7998 -0.2498 -0.2955
23328SOL    HW271426   4.604   7.507   8.636  0.3007 -0.6772 -0.3164
23329SOL     OW71427   6.587   6.668   7.247  0.7273  0.2718 -0.0009
23329SOL    HW171428   6.524   6.606   7.211  0.2499  0.5841  0.2880
23329SOL    HW271429   6.562   6.753   7.209 -0.9990  0.9722  2.4921
23330SOL     OW71430   5.396   6.466  10.192 -0.2228 -0.0283 -0.2989
23330SOL    HW171431   5.453   6.393  10.173 -0.4650 -0.6389  1.1868
23330SOL    HW271432   5.403   6.523  10.116  1.5455 -0.5929 -0.5874
23331SOL     OW71433   6.354   6.731  10.662  0.1909 -0.0557 -0.1237
23331SOL    HW171434   6.292   6.786  10.710  0.3043  1.0101 -1.1475
23331SOL    HW271435   6.317   6.725  10.574  1.3890  0.3921 -0.6785
23332SOL     OW71436   5.028   7.368   9.449  0.3023 -0.3630 -0.3575
23332SOL    HW171437   4.983   7.446   9.480  0.7493  0.0083 -0.6268
23332SOL    HW271438   4.979   7.295   9.486 -1.7357 -0.0519 -2.2804
23333SOL     OW71439   4.555   6.428  11.379 -0.1789 -0.2363  0.1372
23333SOL    HW171440   4.539   6.360  11.445 -3.1289 -0.2745 -0.4840
23333SOL    HW271441   4.540   6.510  11.425  2.1161  0.0410  0.5457
23334SOL     OW71442   6.665   6.795   8.981  0.2375 -0.1035  1.1293
23334SOL    HW171443   6.604   6.865   9.005  1.1138  0.4094  1.9188
23334SOL    HW271444   6.678   6.746   9.062  2.3584  0.9627  1.5025
23335SOL     OW71445   7.743   4.781  10.128  0.0809  0.0341 -0.5090
23335SOL    HW171446   7.720   4.865  10.088 -0.0891 -0.0245 -0.5365
23335SOL    HW271447   7.787   4.804  10.209 -0.3537  0.1478 -0.3038
23336SOL     OW71448   6.674   7.440   9.708  0.0706  0.1325 -0.0293
23336SOL    HW171449   6.727   7.412   9.634  1.3311 -1.0680  1.2586
23336SOL    HW271450   6.642   7.359   9.747 -1.5078  0.7815  0.1193
23337SOL     OW71451   5.779   6.676  10.447 -0.0177  0.0606 -0.2814
23337SOL    HW171452   5.776   6.714  10.359  1.0664  1.2095  0.1456
23337SOL    HW271453   5.862   6.708  10.483  0.1160 -1.3681  0.7293
23338SOL     OW71454   5.302   7.211   9.416 -0.1194 -0.0078  0.0670
23338SOL    HW171455   5.225   7.268   9.418  0.9145  1.4270  0.1512
23338SOL    HW271456   5.268   7.125   9.442 -1.3377  1.0176  2.1810
23339SOL     OW71457   5.292   6.933   8.202  0.0285  0.0963 -0.6651
23339SOL    HW171458   5.370   6.984   8.224 -1.0269  1.0817  1.0112
23339SOL    HW271459   5.225   6.999   8.185 -0.7360 -0.7338 -0.8990
23340SOL     OW71460   7.128   6.150  10.895  0.0183  0.0427 -0.1187
23340SOL    HW171461   7.072   6.151  10.973  0.9112 -0.6222  0.5539
23340SOL    HW271462   7.067   6.142  10.822 -0.7973 -0.1073  0.5596
23341SOL     OW71463   4.477   4.650  10.254  0.3422 -0.3199  0.6326
23341SOL    HW171464   4.441   4.584  10.312  0.8330  0.5854  2.0200
23341SOL    HW271465   4.509   4.601  10.178 -0.2198 -1.5405  1.1635
23342SOL     OW71466   7.064   5.486   9.609 -0.1817 -0.0238  0.3442
23342SOL    HW171467   7.151   5.458   9.639  0.2992  0.8720 -0.1594
23342SOL    HW271468   7.030   5.538   9.681  1.2930  2.7763 -0.8256
23343SOL     OW71469   6.823   5.479  10.430  0.4810  0.0199 -0.1950
23343SOL    HW171470   6.807   5.570  10.404 -0.2900  0.3584  1.3084
23343SOL    HW271471   6.911   5.459  10.399  0.6783  1.3055 -0.4947
23344SOL     OW71472   0.136   0.052  10.146  0.4391 -0.5350 -0.2378
23344SOL    HW171473   0.203   0.015  10.203  1.1761 -0.2151 -0.8793
23344SOL    HW271474   0.183   0.074  10.065 -0.5509 -0.8294 -0.9076
23345SOL     OW71475   4.508   6.674   9.228  0.4575 -0.1801 -0.2132
23345SOL    HW171476   4.520   6.644   9.138 -1.3256 -0.6561 -0.3269
23345SOL    HW271477   4.431   6.627   9.259  0.0929  1.1688  1.0365
23346SOL     OW71478   4.521   7.548   9.763  0.9163  0.7395  0.1821
23346SOL    HW171479   4.568   7.628   9.788  0.4297  0.5980  1.6452
23346SOL    HW271480   4.560   7.479   9.817  0.3961  0.2460 -0.0602
23347SOL     OW71481   7.509   6.830   8.616 -0.2301 -0.3774 -0.0701
23347SOL    HW171482   7.438   6.805   8.556  0.4645 -2.2774 -0.1734
23347SOL    HW271483   7.465   6.859   8.695 -1.1448 -1.6433 -0.0939
23348SOL     OW71484   4.537   4.928  10.212  0.1970 -0.5690  0.3513
23348SOL    HW171485   4.531   4.838  10.246 -0.5110 -0.4730  0.5102
23348SOL    HW271486   4.571   4.979  10.286 -1.3924 -0.3518  0.9867
23349SOL     OW71487   6.027   5.707   9.753  0.6129 -0.4402 -0.0246
23349SOL    HW171488   6.114   5.728   9.719  0.6614 -0.7884 -0.1209
23349SOL    HW271489   6.006   5.780   9.810  0.4497  0.2482 -0.9446
23350SOL     OW71490   4.871   6.556   8.082 -0.5497  0.0954 -0.0253
23350SOL    HW171491   4.834   6.629   8.033  0.8351  0.4350 -0.6410
23350SOL    HW271492   4.813   6.482   8.064 -0.4693  0.3891 -1.6354
23351SOL     OW71493   5.317   7.441  11.670 -0.4485  0.0646  0.5935
23351SOL    HW171494   5.309   7.489  11.753  0.2104  1.9131 -0.3519
23351SOL    HW271495   5.245   7.474  11.616  0.5591  0.7145 -0.4025
23352SOL     OW71496   7.188   5.785  10.121  0.0206 -0.8372 -0.2965
23352SOL    HW171497   7.151   5.871  10.141 -1.2302 -1.4504  0.0789
23352SOL    HW271498   7.114   5.733  10.091  0.7195 -1.8688 -0.2803
23353SOL     OW71499   5.351   5.460  10.097  0.2135 -0.0529 -0.2261
23353SOL    HW171500   5.418   5.421  10.153 -0.0313 -0.4329 -0.1935
23353SOL    HW271501   5.380   5.441  10.008 -0.2844 -0.9604 -0.2006
23354SOL     OW71502   5.114   6.203  10.441  0.0141 -0.0436  0.1389
23354SOL    HW171503   5.053   6.270  10.409 -0.0216  0.2951  0.9039
23354SOL    HW271504   5.162   6.176  10.362 -1.5166 -0.7528 -0.5862
23355SOL     OW71505   6.003   6.827   9.591  0.1228 -0.0325  0.0462
23355SOL    HW171506   6.018   6.842   9.497  0.9482 -1.1487 -0.0278
23355SOL    HW271507   5.944   6.752   9.594 -1.0047  0.8524  0.4213
23356SOL     OW71508   0.117   5.782   9.823 -0.3761 -0.0563  0.7352
23356SOL    HW171509   0.061   5.746   9.891 -0.0215  0.4583  1.3123
23356SOL    HW271510   0.138   5.871   9.854  1.2584 -0.4539  0.8521
23357SOL     OW71511   0.744   7.476  10.587 -0.5332 -0.2169  0.4762
23357SOL    HW171512   0.668   7.457  10.642  1.0210  0.8173  3.2023
23357SOL    HW271513   0.782   7.391  10.567 -1.5079 -0.6482  0.4189
23358SOL     OW71514   5.459   7.641  11.229  0.0021  0.2926 -0.4779
23358SOL    HW171515   5.416   7.593  11.157 -1.1859  0.4781  0.0870
23358SOL    HW271516   5.393   7.645  11.298  1.6596 -1.3347  1.3100
23359SOL     OW71517   5.685   6.630   7.758 -0.2999 -0.3959 -0.5528
23359SOL    HW171518   5.754   6.598   7.816  0.0751  1.8048  0.2959
23359SOL    HW271519   5.702   6.586   7.675 -0.0572 -2.6164  0.6009
23360SOL     OW71520   0.099   7.296  11.637 -0.6203 -0.7761  0.0778
23360SOL    HW171521   0.155   7.327  11.565  1.0424 -1.5352  0.9761
23360SOL    HW271522   0.047   7.372  11.661 -0.6036 -0.2747 -1.3749
23361SOL     OW71523   7.276   0.411  10.019 -0.1341 -0.4213 -0.1307
23361SOL    HW171524   7.259   0.400   9.925 -1.4547  1.3175 -0.1462
23361SOL    HW271525   7.360   0.455  10.023  0.8495 -2.1861 -0.3869
23362SOL     OW71526   4.151   5.576  10.850  0.0413 -0.4570  0.4820
23362SOL    HW171527   4.199   5.656  10.871 -2.6087  1.1974  0.6183
23362SOL    HW271528   4.164   5.519  10.926  2.1823 -0.3620  0.2586
23363SOL     OW71529   0.019   7.177   9.753  0.1175  0.7692 -0.6820
23363SOL    HW171530  -0.032   7.234   9.811 -1.4005 -0.4617 -0.7315
23363SOL    HW271531   0.106   7.217   9.751 -0.0037  1.3528  1.7378
23364SOL     OW71532   4.744   6.182  12.026 -0.0013 -0.2675  0.8318
23364SOL    HW171533   4.649   6.173  12.013  0.2996  0.0382 -2.2829
23364SOL    HW271534   4.765   6.118  12.094 -1.8604 -3.4966 -1.3752
23365SOL     OW71535   5.087   6.435  10.243  0.1674 -0.3378  0.0238
23365SOL    HW171536   5.102   6.521  10.281  0.3137  0.5377 -1.9076
23365SOL    HW271537   5.172   6.391  10.248  0.4570  0.1789 -0.2606
23366SOL     OW71538   6.230   4.806   9.714 -0.2538 -0.3891 -0.3325
23366SOL    HW171539   6.171   4.802   9.639 -0.6930  0.2344 -0.0331
23366SOL    HW271540   6.210   4.891   9.756  0.5204 -0.3838  0.0435
23367SOL     OW71541   7.527   5.340  10.623 -0.3486  0.2568 -0.2592
23367SOL    HW171542   7.603   5.371  10.673  0.3113 -1.1419 -0.3439
23367SOL    HW271543   7.454   5.343  10.686  0.3717 -1.0175  0.6967
23368SOL     OW71544   7.163   6.654   9.014 -0.2149  0.1570 -0.4315
23368SOL    HW171545   7.173   6.571   8.968  1.1618 -0.5791  1.0579
23368SOL    HW271546   7.153   6.629   9.106 -0.5675  1.6191 -0.0428
23369SOL     OW71547   5.554   5.653  11.006 -0.4122 -0.0775 -0.0554
23369SOL    HW171548   5.502   5.623  10.931 -0.3592 -1.7690  0.5592
23369SOL    HW271549   5.501   5.633  11.083 -0.7625  2.2525  0.3939
23370SOL     OW71550   7.661   4.681   8.099  0.1201  0.0392  0.3812
23370SOL    HW171551   7.612   4.599   8.101 -0.0581  0.1514  1.0833
23370SOL    HW271552   7.635   4.726   8.180  1.8692 -0.1944  1.1234
23371SOL     OW71553   4.222   6.523  10.092 -0.1576  0.0901 -0.4417
23371SOL    HW171554   4.188   6.478  10.015  1.2191 -2.5195  0.3516
23371SOL    HW271555   4.310   6.486  10.104  0.3605  1.7495  1.3603
23372SOL     OW71556   6.851   5.618  10.833 -0.2534  0.1274 -0.4545
23372SOL    HW171557   6.762   5.586  10.816 -0.7111  1.2149 -0.1515
23372SOL    HW271558   6.849   5.710  10.807  0.8134  0.1444 -0.5162
23373SOL     OW71559   5.969   6.426   9.628  0.9167 -0.0877 -0.3068
23373SOL    HW171560   5.958   6.336   9.595  2.6734 -0.6084  0.4170
23373SOL    HW271561   5.880   6.453   9.654  0.4818 -1.9745  0.3484
23374SOL     OW71562   6.018   6.833  10.502  0.4242  0.4905  0.3292
23374SOL    HW171563   6.074   6.775  10.450 -0.5686  1.1267 -1.5454
23374SOL    HW271564   6.077   6.874  10.565  1.3069 -1.8691  1.1475
23375SOL     OW71565   6.866   4.349  10.505 -0.1226 -0.3125 -0.0105
23375SOL    HW171566   6.903   4.278  10.557 -0.8952 -1.6166 -1.1616
23375SOL    HW271567   6.847   4.309  10.420 -1.4526  1.0454 -0.3913
23376SOL     OW71568   6.381   6.130  12.335 -0.1849  0.0978 -0.5512
23376SOL    HW171569   6.359   6.059  12.395  0.4802  2.2154  2.4584
23376SOL    HW271570   6.462   6.102  12.292  1.0921 -0.3364  1.9487
23377SOL     OW71571   6.217   6.335  11.357  0.1240  0.0524  0.3263
23377SOL    HW171572   6.183   6.353  11.445  3.5981 -1.9440  2.2900
23377SOL    HW271573   6.196   6.243  11.341 -1.3400  0.6443 -1.4659
23378SOL     OW71574   5.404   6.446  11.524 -0.0463 -0.0931 -0.4486
23378SOL    HW171575   5.461   6.389  11.575  0.2109  1.4539  1.1009
23378SOL    HW271576   5.374   6.512  11.587 -2.1011  0.1968 -1.6398
23379SOL     OW71577   0.644   4.889  11.577 -0.1021 -0.2472 -0.0495
23379SOL    HW171578   0.669   4.805  11.615 -0.2362 -0.2901 -0.0568
23379SOL    HW271579   0.600   4.866  11.495 -0.3147 -0.1785  0.0440
23380SOL     OW71580   6.045   5.061  11.926 -0.5910 -0.1243  0.1280
23380SOL    HW171581   6.031   4.969  11.906  0.2547 -0.4398  0.8967
23380SOL    HW271582   6.114   5.061  11.993  1.3649  1.1928 -1.7649
23381SOL     OW71583   5.805   6.528  10.964  0.0766  0.2276 -0.6053
23381SOL    HW171584   5.721   6.569  10.985  0.4250  2.0574 -2.5243
23381SOL    HW271585   5.804   6.517  10.869  1.8534 -0.0804 -0.6184
23382SOL     OW71586   7.916   4.817  11.036 -0.2900  0.3223 -0.3197
23382SOL    HW171587   8.009   4.821  11.058 -0.2770 -2.3582  0.4504
23382SOL    HW271588   7.909   4.745  10.974 -1.8451  0.5288 -0.4221
23383SOL     OW71589   7.572   7.199  11.538 -0.1555  0.0248 -0.0941
23383SOL    HW171590   7.619   7.133  11.488  1.3722  0.8094  0.2667
23383SOL    HW271591   7.637   7.235  11.599 -1.1735  1.2571  0.3098
23384SOL     OW71592   5.809   0.268  11.117  0.2164 -0.4059  0.3098
23384SOL    HW171593   5.812   0.191  11.174  0.9872 -0.1588  0.6171
23384SOL    HW271594   5.856   0.335  11.166  3.3738 -0.9365 -1.7431
23385SOL     OW71595   6.371   7.493  11.673 -0.2243  0.1343 -0.3818
23385SOL    HW171596   6.377   7.528  11.762 -2.3857  0.5077 -0.3306
23385SOL    HW271597   6.429   7.549  11.621  0.1941  0.6204  0.5818
23386SOL     OW71598   5.821   7.817   1.679 -0.0629 -0.1267  0.3032
23386SOL    HW171599   5.790   7.860   1.759 -2.1846  0.0773 -0.5520
23386SOL    HW271600   5.756   7.749   1.661  1.3244 -1.3463 -0.3279
23387SOL     OW71601   7.977   1.891  10.437 -0.5339  0.3327  0.0022
23387SOL    HW171602   7.941   1.802  10.435 -1.4337  0.6809 -0.9548
23387SOL    HW271603   7.900   1.947  10.431  0.1213  1.1343 -1.3465
23388SOL     OW71604   5.410   6.660   0.236  0.1354  0.4397  0.1126
23388SOL    HW171605   5.386   6.751   0.220  2.1020  0.6533 -2.1755
23388SOL    HW271606   5.363   6.611   0.169 -0.7235 -0.2548  1.1841
23389SOL     OW71607   4.085   5.414   9.410  0.2721 -0.3277  0.1554
23389SOL    HW171608   4.141   5.449   9.341 -0.5089 -1.2404 -0.9779
23389SOL    HW271609   4.129   5.333   9.437  0.9507  0.3908  1.2525
23390SOL     OW71610   6.811   2.341  11.006 -0.3988  0.3397 -0.1058
23390SOL    HW171611   6.873   2.382  10.946 -0.1167 -0.5957 -0.4700
23390SOL    HW271612   6.790   2.257  10.966 -2.6200  0.9967 -0.4633
23391SOL     OW71613   1.448   6.503  11.698  0.2519  0.1941 -0.0730
23391SOL    HW171614   1.376   6.560  11.727  0.8861  0.7977  0.3475
23391SOL    HW271615   1.472   6.538  11.612  0.7118  0.6402  0.2317
23392SOL     OW71616   5.509   0.032  11.067  0.2938  0.1805  0.0754
23392SOL    HW171617   5.540  -0.059  11.064  0.2556  0.1851 -0.6275
23392SOL    HW271618   5.571   0.081  11.014 -0.6522  0.2585 -1.0063
23393SOL     OW71619   6.907   4.775  11.577 -0.4455 -0.3707  0.0898
23393SOL    HW171620   6.836   4.729  11.534 -0.4074  0.5933 -1.0528
23393SOL    HW271621   6.968   4.799  11.507 -1.0994  2.5125  0.3661
23394SOL     OW71622   7.998   6.296  11.768 -0.5317 -0.2150 -0.1483
23394SOL    HW171623   8.031   6.206  11.764  0.4931  0.0986  0.7700
23394SOL    HW271624   8.036   6.339  11.691  1.3237  0.1469  0.8985
23395SOL     OW71625   5.572   6.225   0.685 -0.0571 -0.1530 -0.4847
23395SOL    HW171626   5.535   6.138   0.676  0.5041 -0.3304 -1.1373
23395SOL    HW271627   5.590   6.234   0.779 -0.4894 -0.5790 -0.3581
23396SOL     OW71628   5.650   0.635  12.073 -0.4106  0.0611  0.9724
23396SOL    HW171629   5.558   0.637  12.046 -0.4302  0.2494  1.0518
23396SOL    HW271630   5.697   0.678  12.002 -0.1659 -1.5347  0.1114
23397SOL     OW71631   6.876   5.602  11.300 -0.2769  0.7191  0.0080
23397SOL    HW171632   6.829   5.658  11.238 -0.1760  2.8940  1.7595
23397SOL    HW271633   6.925   5.663  11.355  1.2150 -1.2335  0.9810
23398SOL     OW71634   7.514   6.276  12.219  0.1044 -0.1861 -0.2009
23398SOL    HW171635   7.532   6.183  12.200 -0.6199 -0.5196  0.6721
23398SOL    HW271636   7.420   6.285  12.205 -0.1142  0.0248  1.2471
23399SOL     OW71637   0.394   6.518  10.566  0.5418  0.2137  0.3299
23399SOL    HW171638   0.415   6.435  10.608  2.1262  0.9739  1.1091
23399SOL    HW271639   0.323   6.555  10.619 -0.4073 -0.7602 -0.2229
23400SOL     OW71640   6.773   5.779  11.110 -0.4354  0.5152 -0.0912
23400SOL    HW171641   6.822   5.799  11.030 -0.6364  1.1964 -0.0524
23400SOL    HW271642   6.798   5.849  11.171  1.8195 -1.4260  1.3914
23401SOL     OW71643   6.841   7.785  10.071  0.2171 -0.7716  0.5618
23401SOL    HW171644   6.797   7.869  10.068  0.4750 -0.6534 -1.4344
23401SOL    HW271645   6.782   7.725  10.026  0.0714 -1.6639  1.8942
23402SOL     OW71646   5.452   5.264  11.826 -0.0927  0.0611 -0.1393
23402SOL    HW171647   5.507   5.326  11.777 -0.1273 -0.4960 -0.9178
23402SOL    HW271648   5.513   5.220  11.885  0.7133 -1.7118 -2.1231
23403SOL     OW71649   5.836   6.057   9.993 -0.2056 -0.4106 -0.3222
23403SOL    HW171650   5.862   6.148  10.004 -0.7024 -0.3734  0.6340
23403SOL    HW271651   5.775   6.040  10.065  0.5274 -1.7291  0.0320
23404SOL     OW71652   7.958   6.660  11.628  0.1196  0.4484  0.0649
23404SOL    HW171653   7.865   6.649  11.609 -0.1866  2.0622  0.5312
23404SOL    HW271654   7.961   6.705  11.713  1.3344  0.1670  0.1996
23405SOL     OW71655   7.350   5.407  12.197 -0.4582 -0.0285  0.7235
23405SOL    HW171656   7.407   5.342  12.156 -0.7476  1.4589 -2.2942
23405SOL    HW271657   7.271   5.358  12.219 -0.6890 -0.7803 -1.5127
23406SOL     OW71658   4.783   5.862  10.754  0.1270  0.0333 -0.2908
23406SOL    HW171659   4.844   5.912  10.700 -0.7879  0.8800 -0.5697
23406SOL    HW271660   4.835   5.834  10.829  1.0497  0.0764 -0.8988
23407SOL     OW71661   5.697   7.275  11.046 -0.2547  0.1406 -0.2604
23407SOL    HW171662   5.752   7.351  11.066  0.5225 -0.0320 -1.6175
23407SOL    HW271663   5.609   7.301  11.074  0.2747  0.9341  0.7190
23408SOL     OW71664   5.444   6.520  10.863  0.3178 -0.2656  0.2672
23408SOL    HW171665   5.397   6.499  10.944 -0.7418 -0.0540 -0.2717
23408SOL    HW271666   5.422   6.449  10.803 -0.0449  0.3013 -0.2804
23409SOL     OW71667   7.477   4.143  11.627  0.4844  0.3904  0.2444
23409SOL    HW171668   7.546   4.084  11.595  1.4613  1.2969  0.6011
23409SOL    HW271669   7.397   4.092  11.621  0.9487 -0.1947 -1.6166
23410SOL     OW71670   6.561   7.079  11.503  0.0274  0.0416 -0.0930
23410SOL    HW171671   6.531   7.106  11.590 -0.5706 -1.1592  0.0914
23410SOL    HW271672   6.480   7.057  11.456  0.3740  0.3608 -0.8494
23411SOL     OW71673   5.731   0.319  12.486  0.3805 -0.3022  0.3468
23411SOL    HW171674   5.718   0.359  12.400  0.2965 -1.6234 -0.2850
23411SOL    HW271675   5.669   0.363  12.543  0.5732  0.7295 -0.2157
23412SOL     OW71676   5.649   7.252   0.637 -0.4750 -0.0155 -0.1105
23412SOL    HW171677   5.639   7.160   0.661  0.6316 -0.1932 -0.2425
23412SOL    HW271678   5.691   7.250   0.551 -1.5544  0.6235 -0.6746
23413SOL     OW71679   0.360   7.348  11.816 -0.3635 -0.0791 -0.5821
23413SOL    HW171680   0.266   7.343  11.798 -0.4112  0.6560 -0.5740
23413SOL    HW271681   0.366   7.398  11.897  0.0714  0.5799 -1.0142
23414SOL     OW71682   4.857   6.590  11.514 -0.4452 -0.2540 -0.2137
23414SOL    HW171683   4.851   6.533  11.437 -1.6276 -1.0086  0.4121
23414SOL    HW271684   4.786   6.653  11.502  0.2456  0.5107 -0.4113
23415SOL     OW71685   5.553   5.939  11.718 -0.5310 -0.3413  0.7888
23415SOL    HW171686   5.525   6.028  11.740 -0.6419  0.0729 -0.8622
23415SOL    HW271687   5.506   5.883  11.779 -1.1570  0.6762  1.2706
23416SOL     OW71688   7.403   7.309  12.134  0.8788 -0.1366 -0.1919
23416SOL    HW171689   7.429   7.217  12.135  1.6544  0.0745 -0.1123
23416SOL    HW271690   7.453   7.349  12.205  0.8182  0.4132 -0.4490
23417SOL     OW71691   0.354   5.975  11.651  0.8981  0.1831 -0.1723
23417SOL    HW171692   0.427   5.912  11.646 -1.0218 -2.1278 -1.1889
23417SOL    HW271693   0.339   6.000  11.560 -0.5579 -0.6151 -0.1734
23418SOL     OW71694   0.966   6.732  11.200 -0.1885  0.4210 -0.1626
23418SOL    HW171695   1.004   6.779  11.274 -3.1153  0.0152  1.7772
23418SOL    HW271696   0.937   6.801  11.141  0.9997  0.7921 -0.3543
23419SOL     OW71697   0.427   6.292  10.696 -0.1197  0.3805 -0.2762
23419SOL    HW171698   0.482   6.222  10.730 -1.1230 -1.0555 -1.4587
23419SOL    HW271699   0.352   6.247  10.656 -1.8920  2.2213  0.7542
23420SOL     OW71700   6.017   7.993   0.319  0.3042  0.5064 -0.4078
23420SOL    HW171701   5.958   8.021   0.248  0.1441  1.5628  0.1303
23420SOL    HW271702   6.026   8.070   0.375 -0.0793 -0.4931  1.0818
23421SOL     OW71703   6.121   6.556   9.824  0.0991 -0.4391  0.6197
23421SOL    HW171704   6.057   6.530   9.757  1.7796 -0.8260 -0.9004
23421SOL    HW271705   6.147   6.473   9.865  1.2663 -0.5620 -0.3278
23422SOL     OW71706   6.114   5.880  12.397 -0.5803  0.6555 -0.3269
23422SOL    HW171707   6.198   5.872  12.351 -0.8929 -1.1649 -0.6712
23422SOL    HW271708   6.056   5.923  12.335 -0.5524 -0.3249 -1.0668
23423SOL     OW71709   4.968   6.851  11.213  0.5293  0.3942 -0.5429
23423SOL    HW171710   4.955   6.937  11.173  0.0543  1.5969  1.9904
23423SOL    HW271711   5.047   6.860  11.266 -0.1960 -0.3088  0.7214
23424SOL     OW71712   6.240   6.858   9.694  0.1470 -0.8160  0.3014
23424SOL    HW171713   6.257   6.772   9.733 -0.5359 -0.9974  0.2160
23424SOL    HW271714   6.146   6.857   9.676  0.1942 -0.1629  0.0228
23425SOL     OW71715   7.392   6.114   8.988  0.6760  0.6192 -0.5191
23425SOL    HW171716   7.378   6.021   9.004  0.7502  0.1074 -3.0420
23425SOL    HW271717   7.304   6.152   8.989  0.3063 -0.0756 -2.4893
23426SOL     OW71718   5.924   6.051   0.051 -0.1981  0.2481  0.1219
23426SOL    HW171719   5.861   5.979   0.058  0.4145 -0.4116 -0.9642
23426SOL    HW271720   6.006   6.009   0.025  0.7667  1.0697  1.6703
23427SOL     OW71721   6.188   6.089  11.324 -0.0976  0.1394  0.4969
23427SOL    HW171722   6.267   6.037  11.340 -0.0007  0.3760  0.7734
23427SOL    HW271723   6.117   6.024  11.321  0.1761 -0.1374 -0.3063
23428SOL     OW71724   6.362   5.196  10.542 -0.1180 -0.3065 -0.1433
23428SOL    HW171725   6.393   5.116  10.500 -0.4336 -0.1079 -0.7625
23428SOL    HW271726   6.270   5.203  10.517 -0.2228 -0.0013  0.3042
23429SOL     OW71727   5.877   6.154  11.571  0.2198 -0.7283 -0.5059
23429SOL    HW171728   5.906   6.063  11.574 -0.4223 -0.9478 -0.7514
23429SOL    HW271729   5.845   6.166  11.481  0.3923 -0.2310 -0.5033
23430SOL     OW71730   5.037   0.201  12.379 -0.1085  0.1889  0.5704
23430SOL    HW171731   5.082   0.131  12.332  0.2017  0.2416  0.7856
23430SOL    HW271732   5.032   0.169  12.469 -1.1019 -0.1067  0.4166
23431SOL     OW71733   6.362   7.113  12.358 -0.0096  0.0822  0.3957
23431SOL    HW171734   6.270   7.140  12.354  0.4047  1.6645  0.8886
23431SOL    HW271735   6.359   7.017  12.357 -1.5566  0.0865 -1.5975
23432SOL     OW71736   5.801   0.780  11.893 -0.0078 -0.0125  0.3146
23432SOL    HW171737   5.839   0.806  11.809 -1.6323  0.0380 -0.4363
23432SOL    HW271738   5.877   0.769  11.951  1.1405  0.0988 -1.1037
23433SOL     OW71739   6.519   5.307  11.332 -0.1416 -0.9713  0.1002
23433SOL    HW171740   6.484   5.218  11.325 -0.0062 -0.9924 -0.3114
23433SOL    HW271741   6.564   5.322  11.249  0.6813 -0.8881  0.5498
23434SOL     OW71742   7.523   6.178  10.521  0.5408 -0.1963  0.2509
23434SOL    HW171743   7.583   6.252  10.524 -0.6795  0.8075  0.6577
23434SOL    HW271744   7.476   6.182  10.604 -1.5001  0.2601 -0.8680
23435SOL     OW71745   5.263   5.831  11.185 -0.5999 -0.9654  0.1803
23435SOL    HW171746   5.205   5.756  11.169 -2.5507  0.4114  0.3989
23435SOL    HW271747   5.325   5.799  11.250  1.9298 -3.9267 -3.2650
23436SOL     OW71748   5.561   6.232  11.169  0.2783 -1.0983 -0.3504
23436SOL    HW171749   5.468   6.252  11.160 -0.0198 -1.5338  1.3770
23436SOL    HW271750   5.568   6.141  11.141  0.3785 -0.7973 -1.3656
23437SOL     OW71751   6.374   7.855  11.764  0.8968  0.6950 -0.4626
23437SOL    HW171752   6.327   7.894  11.838  0.1106  1.7809 -1.5107
23437SOL    HW271753   6.466   7.874  11.782  0.5688  2.6450 -0.6952
23438SOL     OW71754   6.589   6.630  11.091 -0.9252  0.2097  0.4336
23438SOL    HW171755   6.551   6.718  11.096  1.7405  1.4505  0.1891
23438SOL    HW271756   6.536   6.585  11.025 -2.3428  1.5969  0.5563
23439SOL     OW71757   6.399   6.241  12.078  0.3532 -0.3330 -0.6833
23439SOL    HW171758   6.389   6.213  12.169  2.4751  0.3392 -0.1879
23439SOL    HW271759   6.328   6.304  12.064 -1.2835 -1.9812 -0.1995
23440SOL     OW71760   6.735   7.837   0.658 -0.0962  0.2206  0.0473
23440SOL    HW171761   6.670   7.769   0.676 -0.5684  0.5536 -0.3673
23440SOL    HW271762   6.777   7.809   0.576  0.7324 -0.3157  0.6325
23441SOL     OW71763   5.313   6.562  11.751 -0.2217  0.2149 -0.0496
23441SOL    HW171764   5.281   6.550  11.840 -0.5301  2.3532  0.1809
23441SOL    HW271765   5.235   6.551  11.696 -0.0332 -1.0954 -0.0737
23442SOL     OW71766   5.436   7.883  11.540  0.1557  0.2745  0.0246
23442SOL    HW171767   5.519   7.844  11.513  0.2496  0.9561 -0.6907
23442SOL    HW271768   5.412   7.942  11.468 -1.6077 -0.8922 -0.4118
23443SOL     OW71769   4.845   5.649   0.508 -0.1861  0.4927  0.1791
23443SOL    HW171770   4.760   5.692   0.515  0.0159  0.8994  0.2134
23443SOL    HW271771   4.877   5.644   0.598  0.3589  1.4625  0.0577
23444SOL     OW71772   5.316   7.636  11.454 -0.4517  0.7873  0.4643
23444SOL    HW171773   5.368   7.570  11.499  0.1350  1.3644  0.6610
23444SOL    HW271774   5.354   7.720  11.482 -0.8311  1.1902 -0.1878
23445SOL     OW71775   7.201   7.485  12.121 -0.0689 -0.3489  0.0353
23445SOL    HW171776   7.121   7.464  12.074 -1.2051  0.9360  1.3058
23445SOL    HW271777   7.262   7.415  12.097 -1.7254 -1.6673 -0.5388
23446SOL     OW71778   5.084   6.550  11.641  0.2100  0.3206 -0.3873
23446SOL    HW171779   5.009   6.581  11.591  1.0174 -0.1744 -1.9453
23446SOL    HW271780   5.079   6.454  11.634  2.1698  0.2887 -2.4057
23447SOL     OW71781   6.248   6.814   1.545 -0.3039 -0.0521 -0.9970
23447SOL    HW171782   6.214   6.876   1.481 -1.9295  1.1144  0.8629
23447SOL    HW271783   6.175   6.754   1.561  1.2873 -2.7482 -2.9089
23448SOL     OW71784   6.429   4.935  11.946  0.1881  0.1608  0.2131
23448SOL    HW171785   6.417   4.841  11.955 -0.8941  0.2015 -0.5766
23448SOL    HW271786   6.519   4.951  11.974  0.3514 -1.0888  0.4468
23449SOL     OW71787   5.992   6.511  12.227 -0.6190  0.5308 -0.0336
23449SOL    HW171788   5.949   6.440  12.276  1.2722 -0.8366 -0.2552
23449SOL    HW271789   6.029   6.567  12.295  1.0377 -0.7539  0.1928
23450SOL     OW71790   6.671   5.174  11.888 -0.0932  0.3212  0.8961
23450SOL    HW171791   6.710   5.118  11.820  0.4576  1.6490  0.0728
23450SOL    HW271792   6.689   5.128  11.970  2.0946  0.2176  0.4170
23451SOL     OW71793   6.613   7.132  12.202 -0.0128 -0.1767 -0.0166
23451SOL    HW171794   6.629   7.051  12.250 -0.6966  0.3328  1.0979
23451SOL    HW271795   6.532   7.167  12.239 -0.1842  0.5987 -1.0621
23452SOL     OW71796   7.156   5.950  11.883 -0.4642 -0.2399  0.4053
23452SOL    HW171797   7.099   5.950  11.959 -2.6139  0.3661 -1.1180
23452SOL    HW271798   7.227   6.011  11.905  0.2768 -1.8176  2.7441
23453SOL     OW71799   6.467   5.798  10.725  0.3046 -0.1453 -0.2809
23453SOL    HW171800   6.433   5.840  10.804 -0.2475  0.5372 -0.8706
23453SOL    HW271801   6.490   5.709  10.754  1.3130  0.4783  0.9319
23454SOL     OW71802   1.007   7.186   0.008 -0.0127 -0.1534  0.0963
23454SOL    HW171803   0.939   7.205   0.073  0.7785  2.0010  0.3667
23454SOL    HW271804   1.088   7.218   0.048  1.2158 -2.6078 -0.2367
23455SOL     OW71805   7.087   7.250  11.153  0.1280 -0.0706 -0.1675
23455SOL    HW171806   7.171   7.207  11.170 -0.5630 -1.7409 -0.7298
23455SOL    HW271807   7.039   7.187  11.100 -1.5590  0.7698  0.3061
23456SOL     OW71808   0.514   7.404   0.715 -0.1075  0.2464 -0.3628
23456SOL    HW171809   0.543   7.313   0.727 -0.1034  0.4365  1.4701
23456SOL    HW271810   0.503   7.414   0.621 -0.3478 -1.7375 -0.5983
23457SOL     OW71811   6.356   4.389  12.359 -0.4952 -0.1658  0.4464
23457SOL    HW171812   6.347   4.300  12.325 -0.9678  0.1304 -0.2349
23457SOL    HW271813   6.311   4.387  12.444  0.4173 -0.8363  0.9294
23458SOL     OW71814   5.494   5.745   8.924 -0.8503  0.0171  0.3662
23458SOL    HW171815   5.500   5.730   9.019 -2.3658 -1.7288  0.2480
23458SOL    HW271816   5.535   5.668   8.886  1.0815  1.3965 -0.4539
23459SOL     OW71817   4.996   7.131  11.769  0.5528 -0.1660 -0.1557
23459SOL    HW171818   4.980   7.225  11.767  0.2904 -0.1430  1.5407
23459SOL    HW271819   5.031   7.110  11.682  0.7073  1.5020 -0.5185
23460SOL     OW71820   5.373   7.377  12.161 -0.0880  0.8497 -0.4788
23460SOL    HW171821   5.372   7.289  12.123  0.6503  1.0053 -0.8609
23460SOL    HW271822   5.437   7.372  12.232  1.2455  1.5149 -1.5877
23461SOL     OW71823   6.563   6.357  11.746  0.5098 -0.1672  0.2396
23461SOL    HW171824   6.534   6.282  11.797 -0.3325 -0.7629 -1.0536
23461SOL    HW271825   6.490   6.418  11.749  1.0632  0.4852  1.0101
23462SOL     OW71826   7.014   5.425  11.475 -0.2812  0.3673 -0.1384
23462SOL    HW171827   7.091   5.393  11.426 -0.9605 -0.4203 -0.7274
23462SOL    HW271828   6.991   5.508  11.432  0.5792  0.9151  0.4233
23463SOL     OW71829   7.564   5.699  12.445  0.5004 -0.2635 -0.2528
23463SOL    HW171830   7.621   5.747  12.385  0.8642 -2.0464 -1.4350
23463SOL    HW271831   7.476   5.731  12.426  0.6686 -0.4536 -1.4399
23464SOL     OW71832   6.713   4.508  11.709  0.7509 -0.7665 -0.2721
23464SOL    HW171833   6.714   4.477  11.618 -1.0309 -0.3693 -0.4682
23464SOL    HW271834   6.641   4.571  11.711  0.4783 -1.0982  1.5151
23465SOL     OW71835   7.472   7.036  12.130 -0.2885  0.2304 -0.2427
23465SOL    HW171836   7.504   7.070  12.046  0.3278  0.7625  0.1982
23465SOL    HW271837   7.528   6.961  12.149 -1.1393 -0.5830 -0.8282
23466SOL     OW71838   4.921   0.113  10.473 -0.6044  0.4416 -0.1319
23466SOL    HW171839   4.860   0.130  10.545 -0.5452  1.4974 -0.3167
23466SOL    HW271840   4.881   0.155  10.397  0.7620  1.9302 -0.0656
23467SOL     OW71841   5.687   6.674  11.658 -0.3808  0.4073  0.3082
23467SOL    HW171842   5.674   6.587  11.621  1.4517  0.2265 -0.0433
23467SOL    HW271843   5.612   6.725  11.628 -0.5046 -0.5506 -1.1152
23468SOL     OW71844   6.725   5.690   0.140 -0.1631  0.3785  0.3042
23468SOL    HW171845   6.672   5.734   0.075 -0.7049 -0.4954  0.1388
23468SOL    HW271846   6.801   5.658   0.092 -0.2350  0.3134  0.2345
23469SOL     OW71847   5.519   6.134  10.816  0.1515  0.4240 -0.4771
23469SOL    HW171848   5.579   6.202  10.847  0.6400 -0.6287  0.9716
23469SOL    HW271849   5.532   6.061  10.877  0.2202 -1.2829 -2.4224
23470SOL     OW71850   5.931   7.311  10.817 -0.2723 -0.0812  0.2261
23470SOL    HW171851   5.891   7.311  10.730 -0.4683 -0.0939  0.3163
23470SOL    HW271852   5.860   7.338  10.876 -0.3549 -0.8488  0.4815
23471SOL     OW71853   5.206   0.339  10.710 -0.1803  0.2849 -0.1351
23471SOL    HW171854   5.285   0.390  10.728 -0.2094  1.3300 -2.5876
23471SOL    HW271855   5.185   0.359  10.618 -0.3437 -3.9335 -1.2173
23472SOL     OW71856   6.508   7.310  10.706 -0.5817 -0.1082  0.7407
23472SOL    HW171857   6.440   7.352  10.652 -0.3603 -1.3474 -0.5476
23472SOL    HW271858   6.493   7.216  10.695  1.2900 -0.4165  0.4611
23473SOL     OW71859   5.632   7.178  12.076 -0.2285 -0.1481 -0.0988
23473SOL    HW171860   5.542   7.147  12.072 -0.8342  1.5003 -0.1245
23473SOL    HW271861   5.652   7.205  11.987  0.7616 -1.6911 -0.3675
23474SOL     OW71862   5.333   6.233  12.366 -0.1907  0.7774 -0.1120
23474SOL    HW171863   5.303   6.156  12.415 -0.7782 -0.8410 -2.7960
23474SOL    HW271864   5.415   6.258  12.408 -0.7082 -0.4133  1.7192
23475SOL     OW71865   6.547   4.257  11.673  0.0404  0.1960  0.5096
23475SOL    HW171866   6.550   4.263  11.768  0.4306 -1.1005  0.5901
23475SOL    HW271867   6.638   4.260  11.645 -0.0956  1.1319  0.1230
23476SOL     OW71868   6.959   7.369  11.342  0.1479 -0.3817 -0.5197
23476SOL    HW171869   6.972   7.298  11.279 -1.9411 -1.3159  0.0342
23476SOL    HW271870   6.884   7.342  11.394  0.1331  1.6362  0.6082
23477SOL     OW71871   6.299   5.697  11.487 -0.4579  0.3273 -0.3531
23477SOL    HW171872   6.273   5.621  11.436 -2.1403 -1.0730  2.3707
23477SOL    HW271873   6.388   5.679  11.516 -1.2020 -1.2467  1.1612
23478SOL     OW71874   6.496   7.068   0.366 -0.5325  0.2922 -0.2622
23478SOL    HW171875   6.471   6.980   0.395  0.1692 -0.5188 -2.0005
23478SOL    HW271876   6.484   7.122   0.444 -0.7663 -1.3756  0.9287
23479SOL     OW71877   6.404   5.448  11.557  0.1890 -0.2509 -0.1377
23479SOL    HW171878   6.472   5.434  11.623  1.6266  2.7464 -0.8169
23479SOL    HW271879   6.439   5.410  11.477  0.8111  0.6861 -0.3263
23480SOL     OW71880   6.802   0.087   1.405  0.3763 -0.1186  0.7347
23480SOL    HW171881   6.813   0.060   1.314 -0.6995  0.6472  0.3594
23480SOL    HW271882   6.715   0.127   1.408  1.0631  1.3837  1.7147
23481SOL     OW71883   0.016   4.971   9.370 -0.4789 -0.1643  0.1886
23481SOL    HW171884   0.106   4.966   9.338 -0.2593 -0.8109  0.8741
23481SOL    HW271885  -0.025   5.038   9.315  0.6113  0.6709  0.3552
23482SOL     OW71886   6.627   6.088  11.413 -0.2688 -0.0276  0.6282
23482SOL    HW171887   6.557   6.026  11.396 -0.4494 -0.2223  1.9458
23482SOL    HW271888   6.586   6.174  11.403 -0.0806 -0.0918 -0.9434
23483SOL     OW71889   7.605   7.678  11.410 -0.2634  0.3106  0.0836
23483SOL    HW171890   7.576   7.680  11.319 -0.9980  0.4197  0.3133
23483SOL    HW271891   7.531   7.641  11.458  0.5476 -0.8696  0.4887
23484SOL     OW71892   6.783   0.335   0.309  0.5429  0.8854  1.0300
23484SOL    HW171893   6.711   0.397   0.318  0.4108  1.0599 -0.8340
23484SOL    HW271894   6.741   0.249   0.303  0.4722  0.9801  0.0181
23485SOL     OW71895   6.781   6.003  10.555 -0.1640  0.1249 -0.5418
23485SOL    HW171896   6.749   6.092  10.566 -0.5633 -0.1073  0.2281
23485SOL    HW271897   6.872   6.013  10.528  0.4979  0.7593  1.7071
23486SOL     OW71898   0.635   6.389  10.201 -0.0614  0.6226 -0.2773
23486SOL    HW171899   0.678   6.433  10.128 -0.9665 -0.4558 -1.4997
23486SOL    HW271900   0.705   6.340  10.245  0.2087 -0.1115 -1.4836
23487SOL     OW71901   4.325   7.428   0.106  0.1815 -0.3747  0.6243
23487SOL    HW171902   4.404   7.483   0.115  0.6993 -1.2790  1.7710
23487SOL    HW271903   4.290   7.453   0.020  1.3886  0.4694  0.3319
23488SOL     OW71904   5.634   6.565  12.162 -0.2338  0.1263  0.1131
23488SOL    HW171905   5.645   6.542  12.070 -0.9586 -1.6706  0.4346
23488SOL    HW271906   5.655   6.659  12.166 -1.7813  0.6653 -2.1660
23489SOL     OW71907   6.183   0.582  12.251 -0.4688  0.3327 -0.4275
23489SOL    HW171908   6.225   0.497  12.259 -1.4233  0.0157  2.2573
23489SOL    HW271909   6.240   0.642  12.299 -0.8884  0.7528 -0.4412
23490SOL     OW71910   5.679   6.045  10.231 -0.1506 -0.0596 -0.2749
23490SOL    HW171911   5.601   5.990  10.243  0.2662 -0.6667 -0.2780
23490SOL    HW271912   5.705   6.070  10.320  0.5461 -1.1492 -0.1529
23491SOL     OW71913   6.772   6.689  11.570  0.5059  0.1331 -0.2669
23491SOL    HW171914   6.725   6.667  11.489 -0.7170  0.1150  0.4277
23491SOL    HW271915   6.785   6.784  11.565  0.0819  0.1912 -0.3079
23492SOL     OW71916   7.621   7.372  10.876  0.5278  0.4722 -0.2646
23492SOL    HW171917   7.526   7.375  10.870  0.2804 -1.4648  1.5097
23492SOL    HW271918   7.648   7.464  10.871 -1.3665  1.0319 -1.2270
23493SOL     OW71919   7.508   5.823  11.624 -0.0370 -0.4161  0.0020
23493SOL    HW171920   7.426   5.829  11.574  1.0565  0.6571 -1.7399
23493SOL    HW271921   7.555   5.749  11.585 -0.0983 -0.9658  0.9343
23494SOL     OW71922   5.209   7.575   0.032 -0.1560 -0.6805  0.5177
23494SOL    HW171923   5.272   7.614   0.093 -1.2401 -1.5482  2.2649
23494SOL    HW271924   5.251   7.581  -0.053  1.1993  1.0702  1.2537
23495SOL     OW71925   6.360   0.372  10.738  0.7464 -0.3825  0.0797
23495SOL    HW171926   6.335   0.464  10.731 -0.0099 -0.5814  0.0764
23495SOL    HW271927   6.282   0.328  10.770  1.4443 -0.8631  1.1943
23496SOL     OW71928   4.860   6.536   0.315 -0.4654 -0.1316  0.6197
23496SOL    HW171929   4.948   6.558   0.346 -0.6339  0.0992  0.9458
23496SOL    HW271930   4.803   6.602   0.356 -0.8382 -0.5037  0.7063
23497SOL     OW71931   7.899   5.374  11.812  0.1462 -0.4064  0.2281
23497SOL    HW171932   7.947   5.428  11.875 -0.0147 -0.8424  0.7329
23497SOL    HW271933   7.897   5.427  11.732  3.1143 -1.1408 -0.4542
23498SOL     OW71934   4.277   0.183  10.312  0.4629 -0.2766  0.6528
23498SOL    HW171935   4.233   0.100  10.298 -0.2523  0.1673  0.2347
23498SOL    HW271936   4.213   0.237  10.358  0.3528  0.5564 -0.4356
23499SOL     OW71937   7.277   6.458  12.091 -0.4962  0.0004  0.3054
23499SOL    HW171938   7.340   6.438  12.022 -0.9528 -0.2390 -0.0544
23499SOL    HW271939   7.318   6.527  12.143 -0.3030  0.4566 -0.4399
23500SOL     OW71940   5.966   6.046  10.965  0.1089  0.3697  0.7159
23500SOL    HW171941   5.890   6.075  10.915 -0.0358  0.3130  0.9028
23500SOL    HW271942   6.009   6.128  10.991  0.4714  0.3951  0.0680
23501SOL     OW71943   6.384   3.242  12.107 -0.3934 -0.3673 -0.5984
23501SOL    HW171944   6.299   3.260  12.148 -0.9699 -0.7130 -1.5949
23501SOL    HW271945   6.434   3.197  12.175 -1.2498 -0.7666 -0.2138
23502SOL     OW71946   4.296   6.873  12.263  0.3129  0.0467 -0.1245
23502SOL    HW171947   4.340   6.942  12.214  0.5180 -0.5815 -0.8487
23502SOL    HW271948   4.326   6.884  12.353  0.3949  0.8559 -0.2480
23503SOL     OW71949   6.408   0.922  10.979 -0.1016 -0.1048 -0.3454
23503SOL    HW171950   6.474   0.971  11.027  1.0286 -2.0051  0.1379
23503SOL    HW271951   6.456   0.881  10.907 -0.8601 -1.0368 -0.3403
23504SOL     OW71952   6.961   6.269  11.448 -0.9936  0.2536 -0.2876
23504SOL    HW171953   6.881   6.318  11.432 -2.2075 -1.3808  0.5122
23504SOL    HW271954   7.002   6.315  11.522 -0.9328  1.3496 -0.9756
23505SOL     OW71955   7.065   7.522  10.376  0.1508  1.0956 -0.1620
23505SOL    HW171956   6.980   7.486  10.350  0.3383 -0.7955  1.6029
23505SOL    HW271957   7.055   7.542  10.469  2.6221 -2.7658  1.1565
23506SOL     OW71958   6.593   4.819  10.612  0.1859 -0.2053  0.3240
23506SOL    HW171959   6.591   4.724  10.614  0.9434 -0.2289  0.5432
23506SOL    HW271960   6.655   4.843  10.681  0.8372  0.4011 -0.4438
23507SOL     OW71961   6.533   7.495  11.354  0.5071  0.6212  0.2575
23507SOL    HW171962   6.506   7.559  11.288  0.5968  0.4534  0.0593
23507SOL    HW271963   6.573   7.548  11.423  2.2982  0.6336 -0.7422
23508SOL     OW71964   1.540   7.122  10.277 -0.0670 -0.0296 -0.2819
23508SOL    HW171965   1.607   7.090  10.337  0.6665 -0.6371 -1.3928
23508SOL    HW271966   1.568   7.211  10.256 -0.1188  0.0470 -0.0353
23509SOL     OW71967   7.900   6.589  12.416 -0.3377 -0.1335 -0.0110
23509SOL    HW171968   7.841   6.545  12.355 -1.3364  0.4061  0.5433
23509SOL    HW271969   7.987   6.577  12.378 -0.8979 -0.1248 -1.3508
23510SOL     OW71970   5.727   6.370  10.320  0.2106 -0.3168 -0.0132
23510SOL    HW171971   5.668   6.384  10.246  1.4453 -0.4522 -1.0542
23510SOL    HW271972   5.784   6.446  10.321 -0.1024 -0.0726  1.1320
23511SOL     OW71973   7.209   4.783  12.257  0.1030 -0.5130  0.2506
23511SOL    HW171974   7.166   4.715  12.204  0.3043  1.2584 -2.3573
23511SOL    HW271975   7.139   4.845  12.277  0.5555  0.1610 -0.2314
23512SOL     OW71976   6.553   7.344  11.949  0.8671  0.4830  0.3265
23512SOL    HW171977   6.524   7.305  12.032 -0.1970 -0.7589 -0.5776
23512SOL    HW271978   6.499   7.423  11.940  2.0567  1.4669  1.5116
23513SOL     OW71979   7.566   7.156  11.052  0.6500 -0.3211 -0.6071
23513SOL    HW171980   7.597   7.233  11.005  1.1308  0.0757  0.3352
23513SOL    HW271981   7.642   7.127  11.103 -0.4985  0.7856  1.8988
23514SOL     OW71982   5.006   6.243  10.723 -0.1672  0.0865 -0.3249
23514SOL    HW171983   5.039   6.317  10.774 -0.9531  0.9490 -1.0274
23514SOL    HW271984   5.056   6.247  10.641 -2.1745  1.6600 -1.5740
23515SOL     OW71985   0.022   2.934  11.579  0.1383 -0.5128 -0.2133
23515SOL    HW171986   0.095   2.915  11.639 -0.8985 -3.1291  0.3506
23515SOL    HW271987  -0.033   2.995  11.628 -0.1995 -1.8677  1.1902
23516SOL     OW71988   6.009   5.688  11.828  0.2537  0.0396  0.2714
23516SOL    HW171989   6.093   5.681  11.875  0.2544 -1.0931  0.1269
23516SOL    HW271990   6.022   5.761  11.767  0.3321  1.4153  1.8404
23517SOL     OW71991   6.193   6.756  11.229 -0.2262 -0.3046  0.4612
23517SOL    HW171992   6.171   6.811  11.154  1.6217  1.3350  1.0444
23517SOL    HW271993   6.152   6.799  11.304 -1.1954 -1.3653  0.5676
23518SOL     OW71994   7.342   7.346  11.554 -0.3999 -0.2398 -0.3601
23518SOL    HW171995   7.277   7.275  11.550 -1.7646  0.9117  0.5821
23518SOL    HW271996   7.426   7.301  11.557 -1.2132 -1.8187 -0.1421
23519SOL     OW71997   7.981   4.659  11.728 -0.5744  0.0834 -0.0635
23519SOL    HW171998   8.070   4.660  11.762 -0.6654 -1.3774  0.2763
23519SOL    HW271999   7.986   4.604  11.650 -1.2258 -0.2417  0.1197
23520SOL     OW72000   6.267   6.492  11.803 -0.4291 -0.3939  0.0226
23520SOL    HW172001   6.216   6.464  11.879 -2.1327 -0.1307 -0.9764
23520SOL    HW272002   6.281   6.586  11.817 -0.3449 -0.4319  0.2067
23521SOL     OW72003   6.279   7.522   1.267 -0.2273 -0.4094  0.0020
23521SOL    HW172004   6.373   7.532   1.284 -0.1698 -0.6960 -0.1416
23521SOL    HW272005   6.242   7.505   1.354  0.1653 -2.5960 -0.1936
23522SOL     OW72006   5.465   4.403   9.883  0.2355  0.3711  0.0727
23522SOL    HW172007   5.468   4.310   9.902 -0.6049  0.4306  0.5459
23522SOL    HW272008   5.487   4.409   9.789  0.3233 -0.2889  0.0462
23523SOL     OW72009   6.205   5.966  12.000  0.5662 -0.3021  0.1648
23523SOL    HW172010   6.270   5.915  12.048  2.6388  2.2016  0.2720
23523SOL    HW272011   6.207   5.932  11.911  1.1447 -1.0579  0.4598
23524SOL     OW72012   7.971   5.896  10.809 -0.3774 -0.2590 -0.3791
23524SOL    HW172013   7.907   5.829  10.784 -0.0050 -0.0335 -1.9905
23524SOL    HW272014   7.942   5.975  10.765  0.2979  0.1571 -0.0878
23525SOL     OW72015   6.923   6.613  11.362  0.5590  0.8203 -0.3903
23525SOL    HW172016   7.017   6.629  11.368  0.3596  1.9643 -0.1011
23525SOL    HW272017   6.896   6.592  11.452  0.1638  2.8270  0.0077
23526SOL     OW72018   6.350   0.819  12.320 -0.4030  0.2157 -0.3328
23526SOL    HW172019   6.314   0.870  12.247  0.3350  1.2416  0.0021
23526SOL    HW272020   6.422   0.872  12.353  0.2365 -0.9490  0.1888
23527SOL     OW72021   3.760   0.985   0.854 -0.4713 -0.3791 -0.1156
23527SOL    HW172022   3.798   0.967   0.940 -0.0122  0.0377 -0.2280
23527SOL    HW272023   3.709   0.906   0.834  0.3039 -0.9452  0.0613
23528SOL     OW72024   7.599   0.158   1.465 -0.0624 -0.0710 -0.7105
23528SOL    HW172025   7.586   0.245   1.502  0.5962 -0.3699  0.2645
23528SOL    HW272026   7.638   0.107   1.536  0.3876 -0.9185 -1.5385
23529SOL     OW72027   7.962   7.804  10.948 -0.4865  0.6257 -0.0190
23529SOL    HW172028   7.883   7.759  10.981 -0.0481  0.4424  0.8152
23529SOL    HW272029   8.021   7.733  10.923 -1.4830  0.7250 -3.0149
23530SOL     OW72030   5.687   6.312   0.982  0.0902 -0.2368  0.6086
23530SOL    HW172031   5.782   6.313   0.980  0.0874 -0.4321  0.1789
23530SOL    HW272032   5.661   6.386   0.927 -0.0047  0.0599  1.0525
23531SOL     OW72033   7.078   0.588   2.694  0.7670 -0.1325  0.6443
23531SOL    HW172034   7.163   0.585   2.651  0.4143 -2.3393 -0.0074
23531SOL    HW272035   7.015   0.566   2.625 -0.3549  1.2258  1.1620
23532SOL     OW72036   6.694   0.311   0.600  0.1464  0.1662 -0.2522
23532SOL    HW172037   6.709   0.357   0.518 -0.4562  1.2353  0.2126
23532SOL    HW272038   6.626   0.247   0.581 -0.9613  1.3198 -0.2953
23533SOL     OW72039   5.355   6.853   0.738  0.4488  0.4329 -0.0708
23533SOL    HW172040   5.378   6.809   0.656  0.6688  0.4177 -0.0013
23533SOL    HW272041   5.436   6.893   0.768  0.7782 -0.9726  1.0094
23534SOL     OW72042   6.185   6.856   0.449 -0.1727  0.1752  0.0061
23534SOL    HW172043   6.270   6.839   0.408 -1.4730  1.4018 -3.5840
23534SOL    HW272044   6.134   6.777   0.433 -1.0804  1.1124 -2.0303
23535SOL     OW72045   6.471   7.209   2.026 -0.2454 -0.2766 -0.5094
23535SOL    HW172046   6.433   7.221   1.938 -0.7411 -0.4280 -0.3202
23535SOL    HW272047   6.447   7.289   2.073  0.6445  0.1266 -0.7285
23536SOL     OW72048   7.370   7.224   0.875  0.9237  0.5846  0.1202
23536SOL    HW172049   7.362   7.205   0.969  2.4703 -0.2640  0.1045
23536SOL    HW272050   7.464   7.229   0.859  0.7499 -0.7352 -1.6452
23537SOL     OW72051   7.235   1.541   3.550 -0.6387  0.1633 -0.5224
23537SOL    HW172052   7.239   1.583   3.465  0.0998 -1.4014 -1.3126
23537SOL    HW272053   7.150   1.498   3.552  0.2447 -1.7773 -1.5296
23538SOL     OW72054   7.187   0.802   1.200  0.1978  0.9261  0.1587
23538SOL    HW172055   7.094   0.806   1.222  0.0018  0.5636 -0.5754
23538SOL    HW272056   7.206   0.708   1.199  0.4515  0.9825 -0.1837
23539SOL     OW72057   7.123   6.795   0.857  0.0392  0.1188 -0.2856
23539SOL    HW172058   7.142   6.887   0.836  2.0602 -0.3567 -0.7056
23539SOL    HW272059   7.105   6.754   0.773 -0.4475  0.0274 -0.1405
23540SOL     OW72060   0.011   7.216  12.073 -0.2101 -0.0445 -0.0555
23540SOL    HW172061   0.085   7.169  12.111  0.2673 -2.9119 -3.9068
23540SOL    HW272062  -0.065   7.187  12.123  0.6001 -1.7888  0.2231
23541SOL     OW72063   0.064   7.117   2.251  0.2285  0.3418  0.0656
23541SOL    HW172064   0.086   7.210   2.239 -0.4915  0.4310 -0.6671
23541SOL    HW272065   0.136   7.082   2.304  1.1370  1.0450 -0.6580
23542SOL     OW72066   6.925   0.618   1.298  0.3521 -0.2281 -0.3470
23542SOL    HW172067   6.962   0.627   1.386 -1.7713 -1.8863  0.8006
23542SOL    HW272068   6.864   0.691   1.290  1.5301  0.7139 -1.0262
23543SOL     OW72069   7.070   0.598  11.841 -0.0942  0.1782 -0.0271
23543SOL    HW172070   7.156   0.633  11.864 -0.1159  0.4311 -0.3314
23543SOL    HW272071   7.009   0.642  11.901  0.1441 -1.0660  1.1930
23544SOL     OW72072   0.821   6.296   1.072  0.4360  0.1214 -0.2875
23544SOL    HW172073   0.822   6.335   1.160 -0.5517  1.4096 -0.8247
23544SOL    HW272074   0.881   6.222   1.079 -0.4672 -0.5087  1.7900
23545SOL     OW72075   6.064   0.200   1.590 -0.3401  0.2315 -1.1882
23545SOL    HW172076   5.971   0.195   1.567 -0.9072  0.0866  0.9021
23545SOL    HW272077   6.104   0.250   1.519 -1.9934  0.2083 -2.1851
23546SOL     OW72078   6.831   5.979  11.263  0.0882 -0.0241  0.0970
23546SOL    HW172079   6.856   6.067  11.233 -1.6397  0.7621  0.8170
23546SOL    HW272080   6.753   5.993  11.315 -1.0820 -2.1651 -0.9344
23547SOL     OW72081   7.419   2.465   4.003  0.1174 -0.1141  0.0577
23547SOL    HW172082   7.360   2.535   3.977  0.8015  0.7837  0.8430
23547SOL    HW272083   7.373   2.420   4.074  0.1232  0.2285  0.2832
23548SOL     OW72084   0.034   0.036  12.487  0.0082 -0.1471 -0.0201
23548SOL    HW172085  -0.004   0.121  12.465  0.7740  0.0789 -0.5208
23548SOL    HW272086   0.083   0.010  12.409  0.8241 -0.4518  0.5655
23549SOL     OW72087   0.377   7.061  11.200  0.7554 -0.7342  0.2727
23549SOL    HW172088   0.351   7.095  11.114  0.3898 -0.1716  0.6050
23549SOL    HW272089   0.317   7.102  11.262 -0.0537 -2.3703  0.6400
23550SOL     OW72090   6.181   0.335   0.271 -0.2983  0.2767 -0.2306
23550SOL    HW172091   6.102   0.351   0.219  1.0311  1.3917 -2.0154
23550SOL    HW272092   6.201   0.419   0.311 -0.2677 -0.1231  0.6060
23551SOL     OW72093   7.204   7.226  11.844 -0.8411 -0.4095  0.2325
23551SOL    HW172094   7.160   7.148  11.877 -1.4076 -0.6694 -1.0702
23551SOL    HW272095   7.146   7.260  11.775 -0.2870  0.7849  0.3207
23552SOL     OW72096   7.298   1.333   2.284  0.2472 -0.1789 -0.3237
23552SOL    HW172097   7.208   1.352   2.313  0.8946 -2.1023  3.5769
23552SOL    HW272098   7.336   1.419   2.267 -1.3821  0.9459  1.3027
23553SOL     OW72099   0.033   7.521   0.487  0.4270  0.3455 -0.4909
23553SOL    HW172100   0.051   7.431   0.513  1.6847  0.7683  0.1956
23553SOL    HW272101   0.110   7.549   0.438  0.6272  1.4442  0.3937
23554SOL     OW72102   0.182   6.622  12.321 -0.5502 -0.0088 -0.0989
23554SOL    HW172103   0.251   6.657  12.377 -1.4325  2.3237 -0.3487
23554SOL    HW272104   0.224   6.607  12.237  0.1317 -0.8114  0.3699
23555SOL     OW72105   0.564   7.058  11.877 -0.1563  0.2199 -0.6065
23555SOL    HW172106   0.492   6.995  11.874  0.4656 -0.4895 -1.5924
23555SOL    HW272107   0.643   7.004  11.879  0.3850  0.9536  2.3389
23556SOL     OW72108   0.042   6.906  12.430  0.2087  0.0125  0.1507
23556SOL    HW172109   0.011   6.908  12.520  0.7859  0.0239  0.3565
23556SOL    HW272110   0.049   6.812  12.410  0.3471  0.0079  0.2163
23557SOL     OW72111   5.945   6.913   1.139 -0.0308  0.3431 -0.0206
23557SOL    HW172112   5.988   6.845   1.087 -0.4117  1.0427 -1.3194
23557SOL    HW272113   5.861   6.876   1.165  0.0542  0.0690 -0.1387
23558SOL     OW72114   7.725   7.130   0.634 -0.0588 -0.3336 -0.0178
23558SOL    HW172115   7.660   7.063   0.613 -0.3705  0.4297 -1.6803
23558SOL    HW272116   7.729   7.184   0.555  0.6830  1.1908  1.0213
23559SOL     OW72117   4.434   0.895   0.170 -0.5146  0.3481  0.3126
23559SOL    HW172118   4.453   0.818   0.116  0.6972  1.3432 -0.7332
23559SOL    HW272119   4.501   0.958   0.146  1.0267  0.3795  4.0000
23560SOL     OW72120   6.019   1.870   2.128  0.4875  0.0881  0.1849
23560SOL    HW172121   5.931   1.859   2.165  0.9526 -3.6049  0.5630
23560SOL    HW272122   6.073   1.896   2.202  0.0417  0.5400  0.3592
23561SOL     OW72123   5.328   0.147   1.237 -0.2946  0.0254  0.0713
23561SOL    HW172124   5.351   0.069   1.287  0.4192 -0.7776 -1.4192
23561SOL    HW272125   5.373   0.219   1.282 -0.6650 -0.4737  1.2572
23562SOL     OW72126   4.549   0.179   1.979 -0.4764  0.0057 -0.4932
23562SOL    HW172127   4.638   0.192   1.947 -0.9381  2.3266 -0.9914
23562SOL    HW272128   4.558   0.180   2.075  0.1525 -0.9110 -0.5318
23563SOL     OW72129   7.746   0.818  12.408 -0.3882 -0.4102 -0.3316
23563SOL    HW172130   7.818   0.851  12.461 -0.7916  0.1949 -0.1576
23563SOL    HW272131   7.667   0.850  12.451 -0.7027  1.3854 -2.1281
23564SOL     OW72132   7.970   6.451   0.607  0.2700 -0.2939  0.2229
23564SOL    HW172133   8.012   6.390   0.667 -1.5817 -1.4135  0.4488
23564SOL    HW272134   7.946   6.526   0.662 -0.2076 -0.7217  0.5999
23565SOL     OW72135   1.469   7.268   0.472 -0.3388  0.2064  0.1244
23565SOL    HW172136   1.560   7.297   0.467 -0.2782 -0.1329 -2.7100
23565SOL    HW272137   1.419   7.341   0.434 -0.4990 -1.8315 -4.1363
23566SOL     OW72138   7.540   7.221   0.175 -0.0883  0.1108 -0.3893
23566SOL    HW172139   7.480   7.223   0.250  1.0371 -1.5362  0.6267
23566SOL    HW272140   7.572   7.311   0.168 -0.4034  0.3574  0.9562
23567SOL     OW72141   4.916   5.817   1.094 -0.1253  0.6666 -0.8791
23567SOL    HW172142   4.894   5.910   1.091  1.0549  0.9423 -1.4572
23567SOL    HW272143   4.987   5.811   1.159 -2.3589 -0.3329  1.6581
23568SOL     OW72144   6.541   7.603   1.351 -0.3747 -0.0968  0.1431
23568SOL    HW172145   6.609   7.592   1.417 -0.2275  0.7677  0.1512
23568SOL    HW272146   6.524   7.698   1.350 -1.4681 -0.2768  0.0393
23569SOL     OW72147   7.764   0.269   1.794 -0.1922 -0.2349  0.1665
23569SOL    HW172148   7.722   0.237   1.874  0.1703  1.5137  1.1042
23569SOL    HW272149   7.857   0.275   1.817  0.1351 -1.0739 -0.8722
23570SOL     OW72150   7.218   0.472   0.569  0.1636  0.1645 -0.1999
23570SOL    HW172151   7.124   0.457   0.574  0.2864 -0.2420  1.1266
23570SOL    HW272152   7.256   0.385   0.557  0.3337  0.4334 -2.0232
23571SOL     OW72153   5.547   0.175   2.216  0.0784  0.0671 -0.2717
23571SOL    HW172154   5.619   0.193   2.155  0.8797  0.8698  0.8691
23571SOL    HW272155   5.581   0.202   2.302 -1.0061 -1.0533  0.5458
23572SOL     OW72156   7.180   1.330  12.381 -0.1678 -0.1782 -0.5787
23572SOL    HW172157   7.191   1.392  12.309  0.5807  0.2891 -0.0773
23572SOL    HW272158   7.162   1.246  12.337 -0.6195  0.2753 -1.2746
23573SOL     OW72159   5.750   7.722  11.681  0.1949  0.4789  0.4820
23573SOL    HW172160   5.700   7.642  11.697 -0.5392  0.9029  0.3209
23573SOL    HW272161   5.842   7.694  11.688 -0.0605  0.0041  2.2644
23574SOL     OW72162   7.415   6.987   0.164  1.1826  0.1236  0.1833
23574SOL    HW172163   7.323   7.009   0.147  1.5536  1.2705 -0.4908
23574SOL    HW272164   7.463   7.066   0.138  2.0845  1.0332  4.0786
23575SOL     OW72165   7.503   7.594  10.102 -0.4538  0.2930 -0.0006
23575SOL    HW172166   7.411   7.570  10.113 -0.7627  1.7496  0.7306
23575SOL    HW272167   7.505   7.651  10.025  0.0540 -0.7136 -0.7753
23576SOL     OW72168   0.354   7.815  11.977 -0.1108  0.8330  0.4146
23576SOL    HW172169   0.307   7.806  11.893  1.0441 -0.3564 -0.1317
23576SOL    HW272170   0.301   7.878  12.027 -1.3422  0.8425 -0.8345
23577SOL     OW72171   0.521   5.492   1.176 -0.5836 -0.3399 -0.4746
23577SOL    HW172172   0.497   5.437   1.251 -0.2809 -0.0178 -0.1374
23577SOL    HW272173   0.482   5.578   1.196  0.1006 -0.0533 -0.3345
23578SOL     OW72174   4.370   0.321   1.825  0.2469 -0.4010 -0.3923
23578SOL    HW172175   4.434   0.274   1.879  0.4773  0.7661  0.3854
23578SOL    HW272176   4.419   0.347   1.747  1.0082  1.1947  0.5557
23579SOL     OW72177   7.675   7.941   1.891  0.6029 -0.2411  0.6802
23579SOL    HW172178   7.670   8.027   1.933  2.4728 -0.3381  1.1792
23579SOL    HW272179   7.768   7.919   1.890  0.1697 -2.3795  0.7929
23580SOL     OW72180   7.679   7.729   3.150 -0.4504 -0.0227 -0.1934
23580SOL    HW172181   7.600   7.687   3.183 -0.5420 -1.6166 -2.2177
23580SOL    HW272182   7.649   7.814   3.116 -1.3412 -0.6516 -1.0228
23581SOL     OW72183   5.226   0.071   2.798 -0.6534 -0.0267  0.5126
23581SOL    HW172184   5.257   0.046   2.711 -2.1898 -0.5426  0.0916
23581SOL    HW272185   5.191  -0.010   2.835 -1.5766  0.5506  0.9264
23582SOL     OW72186   6.567   7.499   0.001 -0.1391 -0.5387  0.0310
23582SOL    HW172187   6.647   7.448   0.016  0.2627  0.1799  0.3797
23582SOL    HW272188   6.499   7.449   0.045  0.4368 -0.2320  1.3341
23583SOL     OW72189   6.538   0.890   2.598  0.1885 -0.0674 -0.1962
23583SOL    HW172190   6.596   0.839   2.542  0.7717  2.2219 -1.8268
23583SOL    HW272191   6.569   0.980   2.588 -1.2091  0.7302  2.0034
23584SOL     OW72192   7.859   1.237   0.122  0.1111  0.0197 -0.3006
23584SOL    HW172193   7.898   1.150   0.123  2.3509  0.8800 -2.0844
23584SOL    HW272194   7.913   1.288   0.183  0.4723  0.7287 -1.1847
23585SOL     OW72195   7.006   2.421  12.037  0.4510 -0.1283 -0.0946
23585SOL    HW172196   7.019   2.449  11.947  1.6363  0.3407  0.2026
23585SOL    HW272197   6.956   2.339  12.030 -2.0931  1.3791 -1.0340
23586SOL     OW72198   0.492   7.263   0.105 -0.2574  0.4017 -0.2309
23586SOL    HW172199   0.483   7.295   0.194  0.3087  2.1659 -0.7621
23586SOL    HW272200   0.403   7.239   0.079 -0.4925  0.2957  0.6539
23587SOL     OW72201   7.907   6.379   1.010 -0.2212  0.1896 -0.0731
23587SOL    HW172202   7.911   6.310   1.076  1.5019  0.1169 -0.2109
23587SOL    HW272203   7.825   6.426   1.029  0.4094  0.4123  2.3837
23588SOL     OW72204   6.185   7.134  11.971  0.0777 -0.2026  0.7205
23588SOL    HW172205   6.148   7.122  11.883  0.9557  1.8446  0.0072
23588SOL    HW272206   6.274   7.098  11.965  0.3544  0.4822  0.5553
23589SOL     OW72207   7.682   0.245   0.952 -0.3712  0.0633  0.6493
23589SOL    HW172208   7.724   0.192   1.020 -0.7839 -0.4828  0.4750
23589SOL    HW272209   7.727   0.221   0.871 -0.2201  0.3487  0.6462
23590SOL     OW72210   6.262   7.257   0.879  0.2470  0.1224 -0.4004
23590SOL    HW172211   6.169   7.277   0.868  0.3125 -0.0028 -1.2235
23590SOL    HW272212   6.267   7.161   0.872  0.7784  0.2835 -3.2718
23591SOL     OW72213   7.335   0.677  11.943  0.0203 -0.2663 -0.1494
23591SOL    HW172214   7.362   0.718  11.860  2.1448 -1.7202 -0.2710
23591SOL    HW272215   7.370   0.588  11.938 -0.1187 -0.5145  2.1522
23592SOL     OW72216   6.278   6.210   0.851 -0.2261  0.5235 -0.3947
23592SOL    HW172217   6.302   6.151   0.780 -0.4776 -0.6775  0.4775
23592SOL    HW272218   6.300   6.161   0.931 -1.0297  1.3555  0.3639
23593SOL     OW72219   6.979   7.232   0.804 -0.6644 -0.5357  0.4674
23593SOL    HW172220   6.974   7.301   0.870  0.2906 -0.9225  0.9782
23593SOL    HW272221   6.972   7.151   0.855  0.4994 -0.8487  0.1579
23594SOL     OW72222   6.265   7.727   4.500  0.3596  0.4199 -0.9462
23594SOL    HW172223   6.220   7.648   4.470  0.9901 -0.7579  1.0078
23594SOL    HW272224   6.206   7.765   4.565  0.5479  0.9621 -1.0846
23595SOL     OW72225   4.130   0.277   3.471  0.0703  0.2041  0.0007
23595SOL    HW172226   4.222   0.255   3.481 -0.3636 -0.9291  2.0996
23595SOL    HW272227   4.085   0.193   3.468 -1.2623  0.5390  4.0020
23596SOL     OW72228   7.760   0.913   3.125  0.1863  0.5147  0.4961
23596SOL    HW172229   7.739   0.998   3.164 -0.2920  0.0680  1.2519
23596SOL    HW272230   7.761   0.929   3.031  0.8655  1.5195  0.6626
23597SOL     OW72231   5.574   7.862   2.571 -0.4441  0.6937 -0.5434
23597SOL    HW172232   5.622   7.854   2.489  0.3205 -0.2855 -0.0171
23597SOL    HW272233   5.630   7.821   2.636 -0.9684  1.5856  0.5106
23598SOL     OW72234   5.482   6.818   2.822 -0.1399  0.5604 -0.4557
23598SOL    HW172235   5.411   6.763   2.855 -0.6043  0.2184 -1.9514
23598SOL    HW272236   5.455   6.908   2.845 -0.9239  0.4119 -0.7427
23599SOL     OW72237   6.248   7.139   2.890 -0.1277  0.3709 -0.1461
23599SOL    HW172238   6.275   7.195   2.963 -1.9584  1.9445 -0.5834
23599SOL    HW272239   6.298   7.172   2.815 -0.2245  0.5499 -0.1332
23600SOL     OW72240   5.665   6.569   3.021  0.0611 -0.2566  0.4252
23600SOL    HW172241   5.675   6.566   2.926 -1.9266 -1.3708  0.1803
23600SOL    HW272242   5.574   6.542   3.036  0.6880 -1.3848  2.6985
23601SOL     OW72243   7.965   1.168   2.719 -0.5810 -0.3518  0.5698
23601SOL    HW172244   7.955   1.234   2.787 -0.1676 -1.1183  1.3930
23601SOL    HW272245   8.045   1.192   2.673 -1.0182  0.3355  0.1431
23602SOL     OW72246   4.974   6.630   3.231 -0.2539 -0.1716  0.3965
23602SOL    HW172247   5.054   6.675   3.259  0.2501  0.8649 -2.4163
23602SOL    HW272248   5.005   6.553   3.184 -0.9308 -0.3045  0.1563
23603SOL     OW72249   7.147   0.257   2.478 -0.2746 -0.4572  0.3207
23603SOL    HW172250   7.055   0.240   2.499 -0.3158 -0.5590  0.0594
23603SOL    HW272251   7.152   0.353   2.472  0.0040 -0.3259  1.9872
23604SOL     OW72252   7.673   1.886   3.260 -0.3831 -0.1006 -0.0206
23604SOL    HW172253   7.621   1.871   3.338 -2.0470 -0.3038 -1.1164
23604SOL    HW272254   7.617   1.858   3.188  0.6810  1.0645 -1.3661
23605SOL     OW72255   7.166   0.626   4.070  0.0995  0.1860  0.1805
23605SOL    HW172256   7.197   0.546   4.028 -2.5069 -0.7491 -0.1000
23605SOL    HW272257   7.236   0.689   4.054  1.8542 -1.7672 -0.3347
23606SOL     OW72258   7.385   6.849   4.264  0.5137 -0.2988  0.5088
23606SOL    HW172259   7.334   6.929   4.250  0.4047 -0.5453 -0.6353
23606SOL    HW272260   7.384   6.836   4.359 -1.1274 -0.0033  0.5693
23607SOL     OW72261   6.271   1.182   3.160 -0.4996 -0.1470  0.6023
23607SOL    HW172262   6.192   1.161   3.210 -1.2688  3.9587  1.4921
23607SOL    HW272263   6.247   1.163   3.069 -1.6609 -1.1218  1.0824
23608SOL     OW72264   7.532   0.708   3.134 -0.8012 -0.1004  0.1662
23608SOL    HW172265   7.607   0.753   3.096 -0.2085 -0.9434  0.3171
23608SOL    HW272266   7.524   0.743   3.223  0.2636 -0.9790  0.6288
23609SOL     OW72267   4.945   7.344   3.277  0.1699  0.0104  0.2364
23609SOL    HW172268   5.006   7.270   3.268  0.5929  0.2474  1.0436
23609SOL    HW272269   4.898   7.326   3.358 -0.5139  0.0715 -0.1427
23610SOL     OW72270   5.374   6.991   3.413 -0.2025 -0.0581  0.4492
23610SOL    HW172271   5.383   6.926   3.343  0.8731 -1.7400  2.0400
23610SOL    HW272272   5.417   7.069   3.379 -2.7008  0.3814 -2.0493
23611SOL     OW72273   7.199   1.134   2.102  0.1793  0.4407 -0.1766
23611SOL    HW172274   7.263   1.095   2.042 -0.3631  0.3713 -0.7170
23611SOL    HW272275   7.252   1.168   2.175  0.5046 -4.0365  1.9999
23612SOL     OW72276   6.726   0.487   3.212  0.6765 -0.3018 -0.3566
23612SOL    HW172277   6.692   0.398   3.212  0.5583 -0.2621  0.0396
23612SOL    HW272278   6.673   0.533   3.278  0.6159  0.1066 -0.6813
23613SOL     OW72279   5.765   7.874   1.227 -0.2588  0.2978 -0.0516
23613SOL    HW172280   5.798   7.962   1.213  1.5779  0.0778  2.2774
23613SOL    HW272281   5.838   7.817   1.204 -0.4409 -0.4541  1.1652
23614SOL     OW72282   6.562   5.241   3.047  0.0749 -0.5150 -0.4987
23614SOL    HW172283   6.525   5.191   3.119  0.0759 -1.4549 -1.1362
23614SOL    HW272284   6.643   5.196   3.025  0.3163  0.0406 -0.7810
23615SOL     OW72285   7.460   2.421   3.272  0.2103  0.3539  0.1237
23615SOL    HW172286   7.467   2.367   3.194 -2.5443 -1.0252  0.7325
23615SOL    HW272287   7.514   2.377   3.337  0.8760  0.3963 -0.3820
23616SOL     OW72288   5.607   7.565   3.219  0.2685  0.0564  0.2054
23616SOL    HW172289   5.638   7.532   3.304 -0.4826 -0.7385  0.1845
23616SOL    HW272290   5.646   7.653   3.212  0.1178  0.2448  1.4978
23617SOL     OW72291   5.440   7.686   2.877  0.4620 -0.3395  0.0977
23617SOL    HW172292   5.489   7.767   2.868  0.1814 -0.0620  0.9071
23617SOL    HW272293   5.350   7.709   2.852  0.1338 -0.0867  1.4099
23618SOL     OW72294   6.216   6.036   0.372 -0.0389 -0.0158 -0.4987
23618SOL    HW172295   6.128   6.073   0.381 -0.2604 -0.6887  0.2215
23618SOL    HW272296   6.210   5.950   0.414  1.5051  0.7489  1.4216
23619SOL     OW72297   5.715   0.417   5.869  0.0549 -0.4156  0.4471
23619SOL    HW172298   5.805   0.446   5.857  0.5133 -0.4658  3.2019
23619SOL    HW272299   5.715   0.325   5.844  0.1304  0.1661 -1.9223
23620SOL     OW72300   6.495   6.099   2.550  0.5665 -0.0573 -0.5011
23620SOL    HW172301   6.528   6.173   2.601  1.1255 -1.2344  0.9065
23620SOL    HW272302   6.474   6.032   2.615 -0.0986 -1.0808 -1.7230
23621SOL     OW72303   7.277   0.028   2.985 -0.2371  0.1245 -0.2821
23621SOL    HW172304   7.251  -0.010   2.901 -4.4773 -0.5981  1.1351
23621SOL    HW272305   7.232   0.112   2.988  3.9710  2.6739 -0.6816
23622SOL     OW72306   0.325   2.259   3.277  0.2187 -0.1003 -0.2988
23622SOL    HW172307   0.390   2.281   3.211 -1.1575  1.9351 -1.0622
23622SOL    HW272308   0.309   2.341   3.324 -1.3828 -0.6588  0.2053
23623SOL     OW72309   6.582   7.849   2.197  0.0950  0.0803 -0.2471
23623SOL    HW172310   6.670   7.812   2.190 -0.2262 -0.6424 -0.5671
23623SOL    HW272311   6.588   7.913   2.268  1.5147  1.9131 -1.8789
23624SOL     OW72312   4.829   0.743   4.598  0.4804 -0.5413 -0.2386
23624SOL    HW172313   4.870   0.830   4.593 -1.6762  0.6919  1.4743
23624SOL    HW272314   4.793   0.728   4.511 -1.9650  1.9292  0.1786
23625SOL     OW72315   7.988   0.305   3.167  0.2288 -0.4164 -0.3568
23625SOL    HW172316   8.013   0.337   3.253  1.3282  1.8631 -1.4264
23625SOL    HW272317   7.933   0.228   3.184  1.3442 -0.7068  2.2951
23626SOL     OW72318   5.626   7.912   3.968 -0.2537 -0.0350  0.0091
23626SOL    HW172319   5.627   8.008   3.975 -1.6742 -0.0512  0.9570
23626SOL    HW272320   5.534   7.891   3.952  0.1430 -1.2144 -0.8092
23627SOL     OW72321   5.905   6.803   4.115 -0.0189  0.0681  0.2592
23627SOL    HW172322   5.871   6.874   4.061 -1.7784 -0.0316  1.1834
23627SOL    HW272323   5.974   6.844   4.167  0.6940  0.4929 -0.9752
23628SOL     OW72324   5.370   7.451   3.245  0.0569 -1.0353 -0.2630
23628SOL    HW172325   5.313   7.505   3.189  0.1240  0.7914  1.3447
23628SOL    HW272326   5.449   7.504   3.257  0.7147 -2.1043  0.2753
23629SOL     OW72327   6.148   1.048   4.387  0.5380  0.5061  0.0110
23629SOL    HW172328   6.144   1.013   4.477 -0.2429  0.4096 -0.0488
23629SOL    HW272329   6.115   1.137   4.395  0.5838  0.5387 -0.1643
23630SOL     OW72330   5.050   0.814   1.532  0.0004  0.0881 -0.2436
23630SOL    HW172331   5.111   0.825   1.459  0.9490  0.4306  0.5831
23630SOL    HW272332   5.077   0.880   1.596  0.0283 -1.0625  0.9848
23631SOL     OW72333   6.286   5.793   2.604 -0.3723  0.0647 -0.2508
23631SOL    HW172334   6.294   5.738   2.526  0.7279  1.4440 -1.1657
23631SOL    HW272335   6.210   5.849   2.587 -1.4715 -1.0962  0.6650
23632SOL     OW72336   0.258   2.409   2.537  0.6063 -0.4627 -0.0139
23632SOL    HW172337   0.262   2.504   2.528  0.9377 -0.4954 -0.2707
23632SOL    HW272338   0.322   2.388   2.605  0.9841 -0.5522 -0.3938
23633SOL     OW72339   0.200   1.990   4.274 -0.6944  0.1290 -0.0231
23633SOL    HW172340   0.199   1.895   4.282  0.2039  0.2130  1.3445
23633SOL    HW272341   0.123   2.010   4.220 -2.3083 -1.2054  1.6558
23634SOL     OW72342   7.499   1.253   3.620 -0.7307  0.0613 -0.4857
23634SOL    HW172343   7.404   1.256   3.611 -0.9793 -1.1408  1.2630
23634SOL    HW272344   7.517   1.295   3.704  0.2546 -0.0543 -0.6218
23635SOL     OW72345   5.989   6.402   2.943  0.5670  0.4009  0.1281
23635SOL    HW172346   5.964   6.414   3.034  1.0224  0.8059  0.2055
23635SOL    HW272347   5.999   6.491   2.909 -2.0802  0.3494 -1.0505
23636SOL     OW72348   4.232   6.612   2.538  0.0246 -0.1780 -0.1226
23636SOL    HW172349   4.274   6.656   2.464  0.7136 -0.5403  0.0439
23636SOL    HW272350   4.303   6.592   2.598 -0.4140 -0.6143  0.2660
23637SOL     OW72351   6.100   0.493   2.717  0.4921  0.2015 -0.3082
23637SOL    HW172352   6.037   0.421   2.716  0.9102 -0.1713 -0.1625
23637SOL    HW272353   6.085   0.540   2.635 -0.4460  0.5311  0.0490
23638SOL     OW72354   5.039   0.253   3.570 -0.5078 -0.0144 -0.7604
23638SOL    HW172355   5.025   0.189   3.500 -0.7859 -0.9914  0.1616
23638SOL    HW272356   4.983   0.327   3.546 -1.2183 -0.6682 -1.1613
23639SOL     OW72357   6.031   7.358   4.371  0.2622  0.1366  0.0472
23639SOL    HW172358   6.051   7.443   4.331 -2.0038  0.1999 -1.1707
23639SOL    HW272359   5.989   7.380   4.454  0.1588  0.2117 -0.0233
23640SOL     OW72360   7.634   7.506   0.146  0.0666  0.2311  0.2487
23640SOL    HW172361   7.718   7.549   0.158  0.0570  0.7664 -1.3971
23640SOL    HW272362   7.570   7.568   0.184  0.3349  0.1729  0.8030
23641SOL     OW72363   7.508   7.001   0.476  0.2373  0.1451  0.0549
23641SOL    HW172364   7.458   7.082   0.486  1.3632  0.7861  0.7024
23641SOL    HW272365   7.486   6.970   0.388 -0.9516  0.6246  0.1572
23642SOL     OW72366   7.013   1.436   2.371 -0.2179  0.2694  0.9729
23642SOL    HW172367   6.981   1.359   2.324  2.2411  0.1205 -0.6394
23642SOL    HW272368   6.935   1.491   2.383 -1.3536 -0.6299 -1.5234
23643SOL     OW72369   2.073   0.132   2.648 -0.1182  0.3006 -0.1639
23643SOL    HW172370   2.148   0.074   2.636 -0.7283 -0.2762 -1.4372
23643SOL    HW272371   2.054   0.164   2.560 -1.6528  0.0429  0.0418
23644SOL     OW72372   6.902   0.706   2.081  0.4705  0.7519 -0.1483
23644SOL    HW172373   6.842   0.774   2.113 -0.8328  0.5154 -1.9386
23644SOL    HW272374   6.930   0.736   1.995  1.6472  0.0579 -0.0272
23645SOL     OW72375   5.589   7.373   2.205  0.3369  0.2069 -0.1126
23645SOL    HW172376   5.622   7.420   2.128 -1.2521  0.4236 -0.6941
23645SOL    HW272377   5.499   7.403   2.215  0.7161  0.7530  2.3108
23646SOL     OW72378   5.730   1.087   2.818  0.3822 -0.1102 -0.4613
23646SOL    HW172379   5.713   0.994   2.833  1.7479 -0.3939 -0.4970
23646SOL    HW272380   5.694   1.131   2.895  1.0290 -0.8395  0.2772
23647SOL     OW72381   6.056   6.018   3.090 -0.5103  0.5831 -0.0086
23647SOL    HW172382   5.965   6.043   3.078 -0.3939  0.6528 -0.7698
23647SOL    HW272383   6.076   5.960   3.017  0.0214  0.4696  0.2183
23648SOL     OW72384   7.753   0.066   2.470 -0.4690 -0.5152  0.0353
23648SOL    HW172385   7.811   0.130   2.511 -0.0654  0.6217 -2.1777
23648SOL    HW272386   7.809  -0.011   2.456  0.6831  0.6373 -2.2610
23649SOL     OW72387   5.192   7.567   3.087  0.2028  0.4428  0.4197
23649SOL    HW172388   5.101   7.577   3.061  0.3736 -1.0684 -0.9018
23649SOL    HW272389   5.237   7.541   3.007  1.5528 -0.1242  1.3267
23650SOL     OW72390   6.123   6.829   0.881  0.9432 -0.2471  0.7305
23650SOL    HW172391   6.135   6.895   0.812  0.5796 -0.9046  0.0253
23650SOL    HW272392   6.207   6.782   0.883 -0.2955 -2.9573 -2.2089
23651SOL     OW72393   6.124   7.839   2.456  0.3793 -0.0774 -0.2643
23651SOL    HW172394   6.097   7.767   2.514  0.9983  0.9006  1.2802
23651SOL    HW272395   6.064   7.910   2.477  2.1325  1.1036  1.0044
23652SOL     OW72396   1.341   7.620   0.671  0.3581  0.5882 -0.5287
23652SOL    HW172397   1.386   7.689   0.720  0.3051  1.1842 -1.3106
23652SOL    HW272398   1.366   7.539   0.717  0.3646  1.1145  0.4334
23653SOL     OW72399   6.032   7.519   2.269 -0.0642  0.3636  0.2662
23653SOL    HW172400   5.947   7.477   2.283  0.5988 -1.4487 -0.7751
23653SOL    HW272401   6.028   7.552   2.180  0.1163  0.7972  0.4194
23654SOL     OW72402   7.410   7.955   2.023 -0.1040 -0.3763 -0.3379
23654SOL    HW172403   7.471   7.937   1.952 -0.3994 -1.7144 -0.2732
23654SOL    HW272404   7.339   7.892   2.012 -2.1163  1.8691 -1.0794
23655SOL     OW72405   6.773   0.022   3.090 -0.3740  0.5138 -0.1986
23655SOL    HW172406   6.723   0.005   3.010  1.6272 -0.6519 -1.2869
23655SOL    HW272407   6.843   0.081   3.063 -0.1925  0.8497  0.9299
23656SOL     OW72408   5.186   7.956   3.673 -0.4290 -0.3993 -0.0432
23656SOL    HW172409   5.252   8.014   3.710 -0.4317 -0.2792 -0.2260
23656SOL    HW272410   5.236   7.897   3.616 -0.5223 -0.0581 -0.4899
23657SOL     OW72411   7.368   1.976   3.523  0.4684 -0.5591 -0.8096
23657SOL    HW172412   7.332   1.919   3.591 -2.2953  1.6299 -0.2390
23657SOL    HW272413   7.296   1.991   3.463  1.4398  1.3042 -1.6073
23658SOL     OW72414   6.510   1.656   0.921 -0.4918 -0.6390  0.4901
23658SOL    HW172415   6.435   1.688   0.972 -0.7984 -1.0546  0.2995
23658SOL    HW272416   6.557   1.736   0.895 -0.5800 -0.4010  1.0437
23659SOL     OW72417   5.607   7.676   1.639 -0.0688  0.1338  0.0202
23659SOL    HW172418   5.597   7.584   1.664 -1.1697 -0.2638 -1.6817
23659SOL    HW272419   5.617   7.673   1.543  1.2787  1.7079  0.0735
23660SOL     OW72420   7.826   7.977   2.186 -0.0801  0.3210 -0.2420
23660SOL    HW172421   7.865   7.994   2.272  0.6759 -0.8153 -0.3283
23660SOL    HW272422   7.812   7.883   2.185 -1.4652  0.5186 -0.8181
23661SOL     OW72423   7.146   7.923   4.303  0.2513  0.1603 -0.0338
23661SOL    HW172424   7.113   7.979   4.373  0.0292 -0.4486  0.3564
23661SOL    HW272425   7.232   7.959   4.282 -0.3507  1.3654 -0.6011
23662SOL     OW72426   6.312   1.108   5.489 -0.4100  0.1808 -0.2337
23662SOL    HW172427   6.401   1.087   5.517 -0.5950  1.2517  1.2664
23662SOL    HW272428   6.323   1.146   5.402  0.6700  0.9029  0.2003
23663SOL     OW72429   6.043   0.365   5.067 -0.1960  0.0201 -0.0009
23663SOL    HW172430   6.015   0.452   5.097 -0.2985  0.4133 -1.2168
23663SOL    HW272431   5.968   0.309   5.086  0.2291 -0.0301  1.6947
23664SOL     OW72432   6.776   2.077   4.216  0.5264 -0.1537  0.3210
23664SOL    HW172433   6.842   2.047   4.278  0.8494  0.4803  0.2959
23664SOL    HW272434   6.826   2.121   4.148  0.1441 -0.5048 -0.1938
23665SOL     OW72435   5.819   0.270   4.063  0.2672  0.1828 -0.3470
23665SOL    HW172436   5.776   0.305   4.141  1.1339 -0.8492  0.6198
23665SOL    HW272437   5.846   0.348   4.014 -0.4355  0.8433  0.2882
23666SOL     OW72438   6.715   5.240   6.059 -0.5734  0.4108 -0.4461
23666SOL    HW172439   6.620   5.249   6.052 -0.7044 -0.4396  0.1225
23666SOL    HW272440   6.739   5.294   6.134 -0.9313 -1.1655  0.8735
23667SOL     OW72441   6.677   6.011   5.584 -0.1495  0.3798 -0.1310
23667SOL    HW172442   6.619   5.975   5.517  0.5675 -0.5486 -0.2796
23667SOL    HW272443   6.664   6.106   5.580 -0.3232  0.3164 -1.3944
23668SOL     OW72444   5.210   7.799   4.478  0.2846  0.2721  0.3027
23668SOL    HW172445   5.235   7.831   4.564 -1.9843  0.9817  0.7512
23668SOL    HW272446   5.272   7.841   4.418  0.2182  1.9165  1.3234
23669SOL     OW72447   4.691   1.395   3.414 -0.2216  0.0340 -0.6322
23669SOL    HW172448   4.711   1.487   3.427 -1.7311  0.0990  1.9019
23669SOL    HW272449   4.774   1.350   3.426  0.5476  1.0382 -1.9677
23670SOL     OW72450   5.758   1.011   7.910 -0.3986 -0.1452 -0.0324
23670SOL    HW172451   5.664   1.009   7.893 -0.1574 -1.9107 -1.4381
23670SOL    HW272452   5.790   1.085   7.858 -0.9817  0.5038  0.5054
23671SOL     OW72453   6.256   2.401   4.578  0.0827  0.3110  0.2715
23671SOL    HW172454   6.341   2.361   4.594  0.4032  0.0378 -1.8150
23671SOL    HW272455   6.244   2.395   4.483 -3.2191 -1.6297  0.6461
23672SOL     OW72456   0.214   0.088   5.631 -0.0053  0.0217 -0.0711
23672SOL    HW172457   0.227   0.008   5.683 -1.0236 -0.2029 -0.1244
23672SOL    HW272458   0.266   0.075   5.552  1.1035  0.1121  0.6205
23673SOL     OW72459   6.248   1.992   5.788  0.1709 -0.1510  0.7239
23673SOL    HW172460   6.202   2.018   5.868  2.4411 -1.0282  2.4636
23673SOL    HW272461   6.256   1.897   5.795  1.4856 -0.1136  0.1132
23674SOL     OW72462   6.707   0.217   3.944  0.4972  0.0462 -0.1287
23674SOL    HW172463   6.793   0.257   3.952  0.6861 -0.4077  0.1475
23674SOL    HW272464   6.649   0.274   3.995  0.6692  0.2480 -0.1602
23675SOL     OW72465   6.794   0.973   2.952 -0.9047 -0.5116 -0.2371
23675SOL    HW172466   6.785   0.894   3.005  0.8345 -0.7781 -0.2892
23675SOL    HW272467   6.707   0.987   2.915 -1.5188 -1.7478  0.6780
23676SOL     OW72468   6.916   1.179   3.984  0.3438 -0.0654  0.9715
23676SOL    HW172469   6.941   1.233   4.059  1.4754  0.5505  0.1727
23676SOL    HW272470   6.998   1.149   3.946 -0.1777 -0.0383 -0.2579
23677SOL     OW72471   5.349   0.899   4.014 -0.5594 -0.3331  0.4260
23677SOL    HW172472   5.391   0.969   3.965  0.6692 -1.3507 -0.0512
23677SOL    HW272473   5.295   0.854   3.949 -0.0527 -0.8090  0.3214
23678SOL     OW72474   4.048   7.838   7.288  0.0588 -0.4743  0.0816
23678SOL    HW172475   4.041   7.933   7.283  0.3745 -0.4989 -1.1889
23678SOL    HW272476   4.017   7.807   7.203  0.5639 -1.4725  0.2441
23679SOL     OW72477   6.035   0.488   3.601  0.3147 -0.1726  0.2029
23679SOL    HW172478   6.055   0.543   3.525  2.0946  0.1049  0.8419
23679SOL    HW272479   6.075   0.404   3.580  0.2041 -0.3075  0.5333
23680SOL     OW72480   5.863   7.645   5.158  0.2778 -1.2172 -0.0986
23680SOL    HW172481   5.882   7.713   5.094 -0.4336 -1.5451 -0.6702
23680SOL    HW272482   5.888   7.563   5.115  0.7519 -1.3571  0.4326
23681SOL     OW72483   4.156   7.330   3.572 -0.6848 -0.2638 -0.6852
23681SOL    HW172484   4.083   7.310   3.631 -1.9992  0.2799 -2.0783
23681SOL    HW272485   4.231   7.285   3.612 -1.4308  0.3370  1.5495
23682SOL     OW72486   5.575   0.352   4.526 -0.2115 -0.5463 -0.2358
23682SOL    HW172487   5.610   0.391   4.607 -0.6231  2.1989 -1.2468
23682SOL    HW272488   5.480   0.351   4.538 -0.1790 -2.1623  0.1003
23683SOL     OW72489   6.555   1.270   4.969  0.2964  0.2313 -0.4777
23683SOL    HW172490   6.572   1.301   5.058  0.5927  0.5625 -0.6499
23683SOL    HW272491   6.479   1.212   4.978  1.0265 -0.6533  0.1706
23684SOL     OW72492   5.858   6.474   3.695 -0.2849  0.3292 -0.0595
23684SOL    HW172493   5.902   6.506   3.774 -0.5543  1.2911 -0.2903
23684SOL    HW272494   5.841   6.552   3.643 -0.0646 -0.3000 -1.1046
23685SOL     OW72495   6.145   7.984   4.219 -0.6110  0.3535 -0.1584
23685SOL    HW172496   6.104   7.915   4.271  1.1915 -0.7441 -0.0907
23685SOL    HW272497   6.217   8.015   4.273 -0.9795  1.8595 -0.4735
23686SOL     OW72498   6.534   7.520   4.456 -0.0563  0.2998  0.2151
23686SOL    HW172499   6.621   7.492   4.426 -0.8606 -1.6371 -0.4612
23686SOL    HW272500   6.510   7.590   4.395 -0.4279 -1.6026 -1.9603
23687SOL     OW72501   4.976   7.161   5.560 -0.5935  0.3663 -0.2632
23687SOL    HW172502   4.906   7.141   5.622  0.4594 -0.6034  0.6591
23687SOL    HW272503   5.049   7.105   5.587  0.1565  0.4799 -1.9170
23688SOL     OW72504   4.726   7.410   4.894 -0.1977 -0.2103  0.0532
23688SOL    HW172505   4.803   7.398   4.949 -0.2356 -0.1552  0.1163
23688SOL    HW272506   4.680   7.326   4.899 -0.0565 -0.2995 -0.1149
23689SOL     OW72507   7.473   1.677   3.902 -0.4017  0.0204 -0.5109
23689SOL    HW172508   7.539   1.743   3.878  0.6290 -0.9425 -0.3932
23689SOL    HW272509   7.521   1.615   3.957 -1.2036 -1.1638 -1.1233
23690SOL     OW72510   5.689   1.498   4.921  0.6367  0.2656 -0.5774
23690SOL    HW172511   5.610   1.447   4.937  1.1752 -0.4086 -0.0119
23690SOL    HW272512   5.676   1.578   4.972 -0.0391  0.5493 -1.1616
23691SOL     OW72513   6.358   6.167   5.046  0.4724  0.9152 -1.0205
23691SOL    HW172514   6.287   6.175   4.982  0.7491 -1.9522 -1.8094
23691SOL    HW272515   6.438   6.176   4.993  0.6945  0.5739 -0.7476
23692SOL     OW72516   6.988   1.916   5.417 -0.0665 -0.7901  0.7184
23692SOL    HW172517   6.900   1.943   5.390 -0.0140 -1.6025 -0.3136
23692SOL    HW272518   6.983   1.822   5.430  0.7108 -0.8886  0.4041
23693SOL     OW72519   7.377   1.129   5.024  0.2274 -0.8265  0.4944
23693SOL    HW172520   7.307   1.064   5.033 -0.5756  0.0497  0.7647
23693SOL    HW272521   7.399   1.127   4.931 -1.7804  0.4774 -0.0685
23694SOL     OW72522   4.530   0.158   4.425 -0.3596 -0.4717 -0.1943
23694SOL    HW172523   4.437   0.168   4.408 -0.3391  0.6650  0.2476
23694SOL    HW272524   4.570   0.237   4.387  0.2315 -0.2149  0.8980
23695SOL     OW72525   5.441   1.227   5.331  0.1811 -0.1478 -0.2187
23695SOL    HW172526   5.369   1.286   5.353 -1.2630 -1.8575 -0.1148
23695SOL    HW272527   5.456   1.176   5.410  1.3060 -0.0472 -0.3464
23696SOL     OW72528   6.024   0.204   3.355  0.0909  0.0505 -0.2359
23696SOL    HW172529   6.004   0.164   3.270  2.2889 -0.3031 -0.6596
23696SOL    HW272530   6.013   0.132   3.418  0.6306 -0.3089 -0.5410
23697SOL     OW72531   5.793   0.592   4.666  0.3479 -0.2969 -0.1680
23697SOL    HW172532   5.735   0.538   4.720  1.2086 -0.6594  0.4275
23697SOL    HW272533   5.740   0.667   4.641 -0.4211 -0.6964  0.2272
23698SOL     OW72534   7.938   1.973   3.806 -0.3993 -0.3754 -0.0224
23698SOL    HW172535   7.886   2.014   3.737 -1.4732  0.6335  1.3199
23698SOL    HW272536   8.013   1.935   3.760 -1.4668 -0.4356 -1.8192
23699SOL     OW72537   5.802   5.143   4.776  0.0455 -0.3830 -0.2761
23699SOL    HW172538   5.751   5.076   4.731 -0.4116  0.7167 -1.4588
23699SOL    HW272539   5.881   5.153   4.723 -0.3972  0.7680 -0.7765
23700SOL     OW72540   5.481   1.945   4.436  0.3465  0.2488 -0.5360
23700SOL    HW172541   5.396   1.987   4.421 -0.7979 -1.0738  1.7755
23700SOL    HW272542   5.526   2.005   4.496 -0.0394 -0.3016  0.3161
23701SOL     OW72543   6.024   7.419   4.968  0.1271 -0.5646  0.1623
23701SOL    HW172544   6.078   7.405   4.890 -1.3363  0.0323 -1.0126
23701SOL    HW272545   5.951   7.358   4.958 -0.7592  0.4184  0.3569
23702SOL     OW72546   6.485   2.286   3.891  0.1270  0.1776  0.3734
23702SOL    HW172547   6.533   2.302   3.972 -0.4041 -0.2230  0.7784
23702SOL    HW272548   6.496   2.192   3.875  1.0707  0.4248 -0.5785
23703SOL     OW72549   7.562   0.794   6.781  0.2990  0.2020 -0.0091
23703SOL    HW172550   7.554   0.887   6.759  0.3471  0.0823 -0.5484
23703SOL    HW272551   7.486   0.776   6.836  0.0141  0.4437 -0.3198
23704SOL     OW72552   7.258   0.048   5.926 -0.3226 -0.3405 -0.2943
23704SOL    HW172553   7.245   0.032   5.833 -0.5974 -0.0536 -0.3061
23704SOL    HW272554   7.353   0.061   5.935 -0.3437  0.0112 -0.5906
23705SOL     OW72555   0.642   0.237   5.744 -0.3584  0.1319 -0.5688
23705SOL    HW172556   0.661   0.262   5.653  0.0652 -2.3475 -1.2411
23705SOL    HW272557   0.728   0.232   5.785 -0.3771 -0.7152 -0.6174
23706SOL     OW72558   4.615   7.362   5.205 -0.2438 -0.2905 -0.7886
23706SOL    HW172559   4.690   7.357   5.264 -1.2873 -0.5689  0.5495
23706SOL    HW272560   4.595   7.456   5.199  0.1778 -0.2165 -1.1400
23707SOL     OW72561   5.354   1.176   4.925  0.0408  0.5615 -0.3388
23707SOL    HW172562   5.324   1.265   4.943 -1.1938  0.2970 -0.9699
23707SOL    HW272563   5.384   1.179   4.835  0.3228  0.4210 -0.2493
23708SOL     OW72564   4.959   7.445   3.661 -0.6542 -0.1313  0.1571
23708SOL    HW172565   5.016   7.468   3.735 -0.2433  1.7484 -0.6757
23708SOL    HW272566   4.994   7.362   3.629  0.4226  0.0345  0.8479
23709SOL     OW72567   6.051   7.087   3.811  0.0417  0.4724 -0.0407
23709SOL    HW172568   6.015   7.004   3.780  2.2409 -0.4685 -0.2144
23709SOL    HW272569   5.974   7.140   3.832 -1.4188 -1.4513 -0.3004
23710SOL     OW72570   4.979   7.131   5.176 -0.0144 -0.0721 -0.0642
23710SOL    HW172571   4.936   7.210   5.209  2.5990  0.9146  1.1985
23710SOL    HW272572   4.979   7.071   5.250  0.4871 -0.1753 -0.1456
23711SOL     OW72573   7.063   0.195   4.014 -0.0908 -0.0995 -0.4049
23711SOL    HW172574   7.045   0.210   4.107  0.2169  1.1562 -0.5243
23711SOL    HW272575   7.004   0.256   3.969  0.7260  0.2863 -0.9727
23712SOL     OW72576   5.916   0.501   4.435 -0.3185  0.2270  0.1692
23712SOL    HW172577   5.871   0.528   4.515  0.2067 -0.4146  0.6885
23712SOL    HW272578   5.846   0.471   4.377 -0.8196  1.7519 -0.0606
23713SOL     OW72579   5.752   7.691   4.093 -0.2002 -0.4910 -0.3086
23713SOL    HW172580   5.710   7.768   4.054  1.7787  1.6396  1.4692
23713SOL    HW272581   5.706   7.677   4.175 -2.3678 -3.0941 -1.7771
23714SOL     OW72582   4.171   2.076   5.293  0.4757  0.4154  0.3475
23714SOL    HW172583   4.220   2.022   5.355  1.5078  2.3664  1.3535
23714SOL    HW272584   4.239   2.124   5.245 -0.4035  1.6220  0.2739
23715SOL     OW72585   7.608   0.260   6.187  0.2125 -0.1416 -0.1566
23715SOL    HW172586   7.558   0.336   6.157  1.0350  0.5995  0.2884
23715SOL    HW272587   7.565   0.234   6.269  2.2553  2.4112  1.9237
23716SOL     OW72588   4.825   6.945   3.838 -0.5599 -0.3155 -0.2640
23716SOL    HW172589   4.797   7.027   3.796 -1.1299 -1.2152 -1.6873
23716SOL    HW272590   4.808   6.877   3.773  1.1755 -1.4190  0.3638
23717SOL     OW72591   4.503   6.896   3.669 -0.1883 -0.2892  0.6785
23717SOL    HW172592   4.523   6.990   3.664 -0.4988 -0.2696 -1.1086
23717SOL    HW272593   4.566   6.861   3.731  1.5204  0.7430 -0.3875
23718SOL     OW72594   5.112   6.916   4.451  0.2815  0.1086 -0.4811
23718SOL    HW172595   5.193   6.880   4.488  0.0326 -0.8172 -0.7929
23718SOL    HW272596   5.109   7.006   4.482 -0.1777 -0.7438  2.2372
23719SOL     OW72597   4.319   0.018   4.192 -0.0160 -0.9995  0.6351
23719SOL    HW172598   4.225   0.035   4.185 -0.1386 -1.3330  1.4431
23719SOL    HW272599   4.329  -0.025   4.276  0.8897 -0.8088  0.6251
23720SOL     OW72600   5.754   0.887   4.536 -0.2672 -0.3885  0.0866
23720SOL    HW172601   5.716   0.911   4.451  1.2326 -2.0082 -1.0985
23720SOL    HW272602   5.839   0.930   4.538 -1.2005  1.5928  1.8820
23721SOL     OW72603   3.868   6.852   2.905 -0.1038 -0.5165 -0.4328
23721SOL    HW172604   3.806   6.914   2.944 -0.2040 -0.6445 -0.3861
23721SOL    HW272605   3.940   6.848   2.968  1.2972  1.7215 -1.7336
23722SOL     OW72606   7.193   6.338   5.230  0.3257  0.6756  0.2245
23722SOL    HW172607   7.163   6.304   5.314 -0.6969 -0.0106 -0.3996
23722SOL    HW272608   7.258   6.274   5.200  2.7308  2.2785  1.6836
23723SOL     OW72609   7.469   1.449   5.575 -0.0475 -0.0744  0.2141
23723SOL    HW172610   7.483   1.366   5.530 -0.2421 -0.1003  0.1973
23723SOL    HW272611   7.542   1.505   5.549  0.0108 -0.1959  0.1195
23724SOL     OW72612   7.848   0.158   5.175  0.2299  0.1070 -0.0563
23724SOL    HW172613   7.760   0.194   5.182 -0.0063 -0.4887  0.1495
23724SOL    HW272614   7.852   0.091   5.244  0.7425 -0.0645 -0.2470
23725SOL     OW72615   4.239   0.974   4.187 -0.0019 -0.1163  0.3699
23725SOL    HW172616   4.288   0.986   4.268  0.4570 -1.4111  0.3078
23725SOL    HW272617   4.283   1.031   4.124 -0.9992  1.7044  1.2427
23726SOL     OW72618   6.376   7.892   4.842 -0.0100  0.7263  0.6786
23726SOL    HW172619   6.332   7.925   4.920  0.8225  0.9884  1.0441
23726SOL    HW272620   6.319   7.918   4.769 -0.8484  0.3777  1.1973
23727SOL     OW72621   0.046   7.929   2.704  0.3563 -0.2523  0.4415
23727SOL    HW172622   0.060   8.021   2.726  0.7299 -0.1528 -0.1766
23727SOL    HW272623   0.108   7.881   2.758  0.7859 -0.0684  0.1138
23728SOL     OW72624   7.720   7.409   3.868  0.2750  0.5534 -0.1096
23728SOL    HW172625   7.806   7.403   3.909  0.1352  2.5960  0.5773
23728SOL    HW272626   7.658   7.388   3.938  0.1553 -0.4335 -0.4824
23729SOL     OW72627   6.116   0.739   4.666  0.2026  0.5767  0.2051
23729SOL    HW172628   6.085   0.829   4.670 -0.6808  0.2525  1.5793
23729SOL    HW272629   6.038   0.688   4.642  0.6915  0.1677 -0.5492
23730SOL     OW72630   6.189   7.357   5.711 -0.1552 -0.6207  0.6446
23730SOL    HW172631   6.195   7.288   5.776 -2.3609 -1.1462  0.3764
23730SOL    HW272632   6.108   7.338   5.663  0.5531  0.6633 -1.1832
23731SOL     OW72633   4.489   0.577   4.580  0.2972 -0.0422 -0.3052
23731SOL    HW172634   4.465   0.546   4.493  1.2624  0.3357 -0.7205
23731SOL    HW272635   4.407   0.608   4.618  0.0651  0.9583 -1.5645
23732SOL     OW72636   1.804   0.513   7.924 -0.6987  0.5874 -0.0297
23732SOL    HW172637   1.824   0.455   7.850 -1.7760 -0.5946  0.5750
23732SOL    HW272638   1.821   0.601   7.890  0.7027 -0.0312 -1.0643
23733SOL     OW72639   6.220   0.487   6.067  0.2170  0.4577  0.2797
23733SOL    HW172640   6.240   0.540   5.989  0.7538  1.0817  0.8347
23733SOL    HW272641   6.305   0.473   6.109  0.0224 -0.4903  0.3782
23734SOL     OW72642   5.953   7.840   4.379  0.1528  0.1180  0.1233
23734SOL    HW172643   5.935   7.772   4.444 -0.4043  0.2966  0.1639
23734SOL    HW272644   5.866   7.862   4.344  0.5692 -1.1416 -1.8787
23735SOL     OW72645   0.585   7.338   5.764 -0.4257  0.0465 -0.1364
23735SOL    HW172646   0.500   7.295   5.752  0.4322 -1.1479 -2.7254
23735SOL    HW272647   0.639   7.274   5.811  0.1113 -0.7719 -1.8061
23736SOL     OW72648   5.493   7.208   5.694  0.2800  0.3247  0.2766
23736SOL    HW172649   5.546   7.248   5.625 -1.2474  1.4141 -0.3387
23736SOL    HW272650   5.436   7.280   5.724 -1.2988 -0.9188  0.4096
23737SOL     OW72651   5.986   0.890   7.193 -0.1114 -0.1854  0.6143
23737SOL    HW172652   5.946   0.975   7.173  0.3689 -0.3792 -1.3467
23737SOL    HW272653   5.921   0.826   7.166  0.4122 -0.4685  0.0259
23738SOL     OW72654   6.975   0.038   5.952 -0.5281  0.4929 -0.4519
23738SOL    HW172655   7.048   0.048   5.891 -0.4489  0.9166 -0.2908
23738SOL    HW272656   6.950  -0.054   5.945 -0.7710  0.6228 -1.4059
23739SOL     OW72657   6.182   7.963   5.537  0.2340 -0.1639  0.3506
23739SOL    HW172658   6.134   8.025   5.592  0.7189 -0.8856  1.6451
23739SOL    HW272659   6.148   7.877   5.563  0.9426 -0.5660 -0.0098
23740SOL     OW72660   6.883   0.995   5.765 -0.3090  0.5136 -0.1978
23740SOL    HW172661   6.814   0.932   5.746 -0.2206 -0.1522  1.4887
23740SOL    HW272662   6.839   1.080   5.764 -0.4999  0.4265 -2.1327
23741SOL     OW72663   6.104   1.015   4.690  0.1472  0.0428 -0.2126
23741SOL    HW172664   6.041   1.056   4.749 -0.9322 -0.1838 -1.1763
23741SOL    HW272665   6.175   0.985   4.747 -1.2746 -0.9788  1.0756
23742SOL     OW72666   4.705   7.545   5.427  0.4644  0.8706 -0.1062
23742SOL    HW172667   4.702   7.612   5.496  1.5382  1.0692 -0.2306
23742SOL    HW272668   4.675   7.590   5.348  0.7628  1.0904 -0.0965
23743SOL     OW72669   6.002   7.420   5.478 -0.1885 -0.8187 -0.0271
23743SOL    HW172670   5.908   7.420   5.494 -0.0766 -1.5217  0.7927
23743SOL    HW272671   6.014   7.363   5.402 -0.5640  0.7687 -1.3020
23744SOL     OW72672   7.433   6.729   7.751  0.0957  0.2463 -0.1747
23744SOL    HW172673   7.380   6.807   7.763  0.7252  0.8600 -1.1314
23744SOL    HW272674   7.378   6.670   7.699  0.0976  0.6205 -0.6151
23745SOL     OW72675   4.865   7.339   5.380  0.0590 -0.2319  0.3344
23745SOL    HW172676   4.833   7.422   5.415 -0.4004  0.3067 -1.2594
23745SOL    HW272677   4.927   7.307   5.445  0.8864  1.7792  0.5842
23746SOL     OW72678   4.511   0.003   7.658  0.2595 -0.2910 -0.7257
23746SOL    HW172679   4.502  -0.035   7.571 -1.6342  0.6439 -0.9930
23746SOL    HW272680   4.526   0.096   7.642  0.3903 -0.1909 -0.0428
23747SOL     OW72681   7.537   6.816   5.819 -0.0227 -0.4076 -0.2253
23747SOL    HW172682   7.604   6.823   5.751  0.9643 -1.5341  0.5749
23747SOL    HW272683   7.572   6.752   5.880 -2.1362 -1.5332 -0.0937
23748SOL     OW72684   6.501   7.557   6.347 -0.1974  0.3202 -0.5209
23748SOL    HW172685   6.516   7.582   6.438  0.3542 -3.6679  0.7095
23748SOL    HW272686   6.414   7.516   6.347 -1.0431  1.9789 -2.2937
23749SOL     OW72687   5.110   0.055   6.402 -0.7497 -0.5502 -0.1444
23749SOL    HW172688   5.075   0.125   6.347 -1.6089 -0.5482  0.3852
23749SOL    HW272689   5.200   0.083   6.421 -0.4143 -0.5905 -1.5829
23750SOL     OW72690   5.783   1.021   3.979 -0.0313 -0.0662 -0.0204
23750SOL    HW172691   5.868   0.975   3.976 -0.4557 -0.9371  0.8186
23750SOL    HW272692   5.783   1.076   3.900  0.7565 -1.0535 -0.7416
23751SOL     OW72693   6.544   1.060   6.253  0.3786  0.4328  0.0432
23751SOL    HW172694   6.470   1.002   6.236  0.9156 -0.9475  2.1092
23751SOL    HW272695   6.612   1.030   6.193  0.0302  0.2030 -0.2415
23752SOL     OW72696   7.890   7.055   4.597 -0.2288 -0.6245 -0.1507
23752SOL    HW172697   7.806   7.022   4.565 -0.9886  0.2773  0.8223
23752SOL    HW272698   7.943   6.976   4.611 -1.0797 -1.2419 -0.3368
23753SOL     OW72699   6.181   0.263   5.269  0.1286  0.2730 -0.2096
23753SOL    HW172700   6.133   0.308   5.199 -1.7575 -0.6955  0.3867
23753SOL    HW272701   6.167   0.170   5.251  0.4023 -0.0040  0.9479
23754SOL     OW72702   7.043   6.858   6.589  0.4037  0.4942  0.2554
23754SOL    HW172703   7.117   6.798   6.604  1.6903  1.7554 -0.7795
23754SOL    HW272704   7.065   6.902   6.507 -1.9736  0.2694 -0.5686
23755SOL     OW72705   5.217   0.933   7.282 -0.2338  0.7120 -0.0953
23755SOL    HW172706   5.187   1.010   7.234  1.3175  0.9707 -0.7374
23755SOL    HW272707   5.242   0.967   7.368 -0.8303  0.6807  0.0885
23756SOL     OW72708   7.458   6.826   5.418  0.3162  0.1075 -0.4275
23756SOL    HW172709   7.440   6.877   5.339 -0.3736  0.3533 -0.1186
23756SOL    HW272710   7.381   6.771   5.430 -0.4074  1.3703  1.0733
23757SOL     OW72711   5.462   6.486   4.877 -0.1839 -0.0139  0.3358
23757SOL    HW172712   5.479   6.511   4.786 -0.3047  1.5664  0.7294
23757SOL    HW272713   5.372   6.454   4.876 -0.1268 -0.1810 -0.1183
23758SOL     OW72714   7.498   6.093   6.624  0.5830  0.5450  0.1523
23758SOL    HW172715   7.404   6.091   6.640  0.8880 -0.2169  2.2294
23758SOL    HW272716   7.523   6.184   6.642  0.4598  0.3739  1.2649
23759SOL     OW72717   4.513   6.375   5.236  0.3857  0.0722  0.1215
23759SOL    HW172718   4.491   6.373   5.143 -0.6677 -0.7634  0.3663
23759SOL    HW272719   4.519   6.468   5.257 -0.2583  0.2898 -0.5848
23760SOL     OW72720   7.406   5.651   6.914  0.4882 -0.8202  0.1834
23760SOL    HW172721   7.450   5.726   6.876  0.5202 -0.7697  0.3177
23760SOL    HW272722   7.435   5.650   7.006 -2.4729  1.2785  1.2880
23761SOL     OW72723   5.803   0.415   7.738  0.0575  0.0438  0.2426
23761SOL    HW172724   5.806   0.450   7.827 -1.4884 -0.4220  0.5051
23761SOL    HW272725   5.805   0.320   7.749 -0.7981 -0.0323 -0.1649
23762SOL     OW72726   6.163   1.672   4.604  0.7843  0.1527  0.0477
23762SOL    HW172727   6.225   1.726   4.555 -0.6437  1.3976 -0.5076
23762SOL    HW272728   6.213   1.595   4.631  2.1668  0.3910 -1.6340
23763SOL     OW72729   7.613   7.166   4.999  0.5666 -0.2773 -0.0486
23763SOL    HW172730   7.586   7.114   5.074  2.0739  0.0205  0.7455
23763SOL    HW272731   7.608   7.106   4.924 -0.6601 -0.6592  0.3236
23764SOL     OW72732   0.017   7.752   6.810  0.1848  0.2928 -0.2012
23764SOL    HW172733  -0.070   7.786   6.790 -0.1944 -0.0662  0.8054
23764SOL    HW272734   0.065   7.827   6.844  0.1967  0.4293 -0.5097
23765SOL     OW72735   6.319   0.646   5.820 -0.2064 -0.2956 -0.5560
23765SOL    HW172736   6.405   0.624   5.785  0.2038  1.6370 -0.9174
23765SOL    HW272737   6.259   0.632   5.746 -0.1815 -1.4320 -0.3694
23766SOL     OW72738   5.400   7.486   5.582  0.1175 -0.7558 -0.5030
23766SOL    HW172739   5.494   7.475   5.567  0.1993 -1.1985  0.2900
23766SOL    HW272740   5.391   7.493   5.677 -0.4699  1.1636 -0.6567
23767SOL     OW72741   6.439   6.801   5.523  0.2921 -0.1845 -0.2972
23767SOL    HW172742   6.357   6.760   5.551  1.0455 -0.4070  1.8242
23767SOL    HW272743   6.439   6.887   5.565  1.6674 -0.6919  0.8679
23768SOL     OW72744   6.564   0.680   5.248 -0.2736  0.5052  0.4019
23768SOL    HW172745   6.529   0.625   5.177  0.6130  0.6374 -0.1604
23768SOL    HW272746   6.604   0.754   5.203 -0.9363  1.3167  1.1298
23769SOL     OW72747   5.827   7.955   5.320 -0.3069 -0.1045 -0.1328
23769SOL    HW172748   5.834   7.913   5.234  0.0812 -1.8569  0.7005
23769SOL    HW272749   5.767   7.899   5.369  0.2376  0.3044  1.0400
23770SOL     OW72750   6.413   0.373   5.314 -0.2309 -0.1565 -0.3969
23770SOL    HW172751   6.333   0.327   5.290  0.6121 -0.6499 -2.5131
23770SOL    HW272752   6.403   0.460   5.276 -0.5066  0.3895  0.8982
23771SOL     OW72753   4.303   7.379   7.048  0.3325 -0.0985  0.3323
23771SOL    HW172754   4.382   7.372   7.101 -0.6586 -0.0324  1.8821
23771SOL    HW272755   4.293   7.473   7.031  1.1286 -0.1937 -0.7696
23772SOL     OW72756   0.237   1.357   6.813  0.3850 -0.2960 -0.0014
23772SOL    HW172757   0.217   1.414   6.887  0.3026 -0.7528  0.3305
23772SOL    HW272758   0.333   1.352   6.813  0.3627 -0.8475  0.5020
23773SOL     OW72759   7.640   7.285   5.467 -0.6471 -0.1510  0.0468
23773SOL    HW172760   7.576   7.275   5.538 -1.7205  0.8880 -0.7225
23773SOL    HW272761   7.588   7.316   5.393  0.6878  0.2582 -0.7496
23774SOL     OW72762   5.023   0.422   7.183  0.1387 -0.2197  0.3200
23774SOL    HW172763   5.021   0.516   7.203 -0.3218 -0.4766  1.6014
23774SOL    HW272764   4.933   0.402   7.158  0.0950 -0.4448  0.6606
23775SOL     OW72765   0.392   0.339   7.102 -0.2508 -0.8103  0.0185
23775SOL    HW172766   0.374   0.261   7.155 -0.0910 -1.7695 -1.2941
23775SOL    HW272767   0.451   0.308   7.033  2.5674  1.1918  1.3473
23776SOL     OW72768   7.328   7.259   6.077 -0.0756 -0.3816  0.3268
23776SOL    HW172769   7.349   7.169   6.051 -1.8308 -0.3899 -1.2871
23776SOL    HW272770   7.264   7.288   6.012 -0.5067  1.6088  1.5688
23777SOL     OW72771   7.836   7.323   5.827  0.1302  0.7258  0.0855
23777SOL    HW172772   7.798   7.361   5.906  0.5134  0.2809  0.4917
23777SOL    HW272773   7.781   7.246   5.809 -1.8947  2.5122 -1.8805
23778SOL     OW72774   5.386   0.144   5.934 -0.3459 -0.2987 -0.1053
23778SOL    HW172775   5.340   0.101   6.006 -0.8235  0.6007  0.1516
23778SOL    HW272776   5.479   0.135   5.955 -0.4067 -1.6617 -0.3467
23779SOL     OW72777   0.265   7.261   4.770 -0.3021 -0.6299 -0.6134
23779SOL    HW172778   0.331   7.307   4.718 -1.7003  0.6976 -1.2806
23779SOL    HW272779   0.212   7.214   4.705  1.2110 -3.4798  0.0559
23780SOL     OW72780   1.565   6.231   6.562 -0.4967  0.4171  0.3399
23780SOL    HW172781   1.605   6.231   6.649  1.4143  1.0928 -0.4640
23780SOL    HW272782   1.515   6.312   6.558  0.0445  0.7718  0.5713
23781SOL     OW72783   6.171   7.667   5.479 -0.2315 -0.0940  0.4786
23781SOL    HW172784   6.106   7.610   5.439 -1.3915  1.2390  0.3775
23781SOL    HW272785   6.177   7.637   5.570 -2.3672  0.8436  0.9949
23782SOL     OW72786   5.907   7.356   7.165  0.2300 -0.2432 -0.6234
23782SOL    HW172787   5.979   7.383   7.109  0.9671 -0.7267  0.0737
23782SOL    HW272788   5.861   7.289   7.115  0.6907 -0.4458 -0.7793
23783SOL     OW72789   1.487   6.049   8.589  0.6571  0.1746  0.4460
23783SOL    HW172790   1.464   6.125   8.643  0.7658  1.2556 -0.9529
23783SOL    HW272791   1.577   6.066   8.562  0.0890  0.5314 -1.3930
23784SOL     OW72792   4.901   6.824   5.290 -0.9062 -0.6231  0.2231
23784SOL    HW172793   4.812   6.831   5.256 -0.8283 -0.9372 -0.0555
23784SOL    HW272794   4.956   6.818   5.212 -0.5766  0.2468  0.3890
23785SOL     OW72795   5.570   6.581   6.451  0.5828 -0.5775  0.5144
23785SOL    HW172796   5.539   6.542   6.533  0.0115 -1.3889 -0.0749
23785SOL    HW272797   5.527   6.666   6.448 -4.0962 -2.6672 -1.6159
23786SOL     OW72798   5.329   6.227   5.333  0.3764 -0.1355 -0.0395
23786SOL    HW172799   5.402   6.200   5.277  1.6961  1.4697  0.8113
23786SOL    HW272800   5.363   6.219   5.422  0.1772  2.2442  0.3211
23787SOL     OW72801   6.825   0.073   5.339 -0.3188 -0.6008 -0.7036
23787SOL    HW172802   6.769   0.135   5.293  1.3580 -1.1224 -3.6737
23787SOL    HW272803   6.768  -0.002   5.359 -2.1049  1.3053  2.0232
23788SOL     OW72804   0.305   7.580   6.355  0.5043  0.2642 -0.1995
23788SOL    HW172805   0.322   7.486   6.345 -1.4318 -0.2148  0.6363
23788SOL    HW272806   0.388   7.621   6.330  0.6899 -1.5070 -2.9645
23789SOL     OW72807   5.402   0.387   5.574 -0.4613 -0.4010  0.0092
23789SOL    HW172808   5.465   0.448   5.612 -2.0870  0.6523  1.1366
23789SOL    HW272809   5.319   0.434   5.575 -1.7811 -2.5798  0.8899
23790SOL     OW72810   0.803   0.917   7.037  0.9046 -0.0534  0.3327
23790SOL    HW172811   0.892   0.899   7.007  1.0383 -0.4087  0.9300
23790SOL    HW272812   0.747   0.870   6.975  1.0915  0.6906 -0.4310
23791SOL     OW72813   7.163   5.446   6.444 -0.0754 -0.8480 -0.1713
23791SOL    HW172814   7.187   5.523   6.495 -1.3053  0.0680 -0.9029
23791SOL    HW272815   7.204   5.461   6.358 -0.6567 -0.7971 -0.4437
23792SOL     OW72816   5.934   1.048   6.619  1.3847  0.4071 -0.3739
23792SOL    HW172817   6.000   1.091   6.564  1.0642  1.3288 -0.0553
23792SOL    HW272818   5.933   1.099   6.700 -0.1466  0.7933 -0.6046
23793SOL     OW72819   7.417   1.911   5.772 -0.2350 -0.3134 -0.2215
23793SOL    HW172820   7.397   1.818   5.787  0.1034 -0.6834 -1.8719
23793SOL    HW272821   7.364   1.935   5.696 -0.0677  0.7722 -0.0141
23794SOL     OW72822   6.354   7.562   4.873  0.1955  0.0325  0.4433
23794SOL    HW172823   6.304   7.644   4.867  1.5417  0.8735  0.3314
23794SOL    HW272824   6.304   7.499   4.820 -0.8599  0.7780  0.5340
23795SOL     OW72825   7.320   0.000   8.139 -0.2168  0.0176  0.5441
23795SOL    HW172826   7.250  -0.040   8.087 -1.8050  0.2195  2.3949
23795SOL    HW272827   7.394  -0.060   8.130 -1.1417 -1.0603 -0.1744
23796SOL     OW72828   6.775   7.194   4.337 -0.0044  0.0636  0.0922
23796SOL    HW172829   6.699   7.204   4.280  0.3962  0.7625 -0.3362
23796SOL    HW272830   6.814   7.281   4.340  0.4274 -0.1497  0.8063
23797SOL     OW72831   1.232   7.788   5.002  0.3837 -0.1757 -0.1826
23797SOL    HW172832   1.231   7.780   5.098  0.6483  1.2145 -0.0436
23797SOL    HW272833   1.325   7.784   4.979  0.2409 -2.6910 -0.6359
23798SOL     OW72834   6.295   6.538   8.586  0.2458  0.1303  0.1936
23798SOL    HW172835   6.369   6.511   8.532 -0.8981 -0.5102 -1.1240
23798SOL    HW272836   6.334   6.559   8.671  1.7368 -1.9109  0.1060
23799SOL     OW72837   4.935   7.445   6.676  0.4054 -0.8288  0.1936
23799SOL    HW172838   4.972   7.438   6.588 -2.6105  0.8463 -1.3857
23799SOL    HW272839   4.961   7.363   6.719  0.3335 -2.7051 -2.9784
23800SOL     OW72840   5.570   2.495   7.256  0.5618  0.2685 -0.9090
23800SOL    HW172841   5.487   2.504   7.302  0.7247 -1.6876 -0.1330
23800SOL    HW272842   5.629   2.554   7.302 -0.4261  1.9374 -1.6812
23801SOL     OW72843   7.478   6.488   8.750 -0.1815 -0.6489 -0.0842
23801SOL    HW172844   7.498   6.404   8.793  0.1974  0.4698  2.0607
23801SOL    HW272845   7.398   6.518   8.793  0.7179  0.9470  0.5675
23802SOL     OW72846   7.819   0.888   7.085 -0.1631 -0.9621  0.3277
23802SOL    HW172847   7.730   0.862   7.108 -0.0269 -1.3418  0.4345
23802SOL    HW272848   7.833   0.853   6.997 -0.5235  0.1008 -0.1699
23803SOL     OW72849   6.019   0.015   7.260  0.3813 -0.2489  0.0710
23803SOL    HW172850   5.974   0.053   7.185  0.0652  0.5646  0.6576
23803SOL    HW272851   6.112   0.020   7.237  0.2590 -0.6384 -0.5418
23804SOL     OW72852   5.121   7.708   7.169 -0.4837 -0.0202  0.0718
23804SOL    HW172853   5.216   7.711   7.178 -0.5076 -0.1434  0.3452
23804SOL    HW272854   5.092   7.639   7.229 -0.9305  1.3892  1.5529
23805SOL     OW72855   5.610   7.968   7.817 -0.3184 -0.1419 -0.3885
23805SOL    HW172856   5.579   8.024   7.888 -0.2215  0.4899 -0.8349
23805SOL    HW272857   5.672   8.022   7.768 -1.9549  0.2036 -2.2276
23806SOL     OW72858   0.885   7.593   5.444  0.1524 -0.0278 -0.0285
23806SOL    HW172859   0.813   7.541   5.479  0.7486 -1.3967 -0.7309
23806SOL    HW272860   0.913   7.545   5.366  0.8186  1.3064 -0.6343
23807SOL     OW72861   7.293   6.927   9.671 -0.3231 -0.2450 -0.0852
23807SOL    HW172862   7.332   6.998   9.620 -0.0345 -0.1889  0.2103
23807SOL    HW272863   7.269   6.861   9.606 -0.2994 -0.0156 -0.3295
23808SOL     OW72864   6.140   0.010   9.443 -0.1128 -0.1473  0.1029
23808SOL    HW172865   6.105   0.084   9.394 -0.4602 -0.5032 -0.1965
23808SOL    HW272866   6.186  -0.043   9.378 -0.0083 -0.2807  0.2832
23809SOL     OW72867   5.496   0.932   7.566 -0.2925 -0.4490  0.4136
23809SOL    HW172868   5.487   0.947   7.472  0.4872  0.2335  0.4295
23809SOL    HW272869   5.587   0.904   7.577  0.5796  2.4043  1.2593
23810SOL     OW72870   0.532   7.187   4.842  0.7941  0.3518 -0.0687
23810SOL    HW172871   0.540   7.120   4.911  0.0958  0.4727  0.1363
23810SOL    HW272872   0.440   7.215   4.846  1.0471  1.2338 -0.2393
23811SOL     OW72873   0.574   7.766   8.136 -0.4021  0.0370 -0.0347
23811SOL    HW172874   0.507   7.798   8.076  1.8445  2.2013 -1.5815
23811SOL    HW272875   0.592   7.840   8.194  0.2894 -0.6727  0.6757
23812SOL     OW72876   2.902   7.478   8.666 -0.2939 -0.1995  0.4929
23812SOL    HW172877   2.878   7.570   8.667 -1.4347 -0.4884  0.3613
23812SOL    HW272878   2.980   7.473   8.722 -0.9966  0.6384  1.5762
23813SOL     OW72879   3.059   0.346   8.458  0.1601 -0.2767  0.3583
23813SOL    HW172880   3.153   0.353   8.473 -0.0178 -0.0631  1.4453
23813SOL    HW272881   3.051   0.323   8.365  1.2012  2.0298 -0.3736
23814SOL     OW72882   0.317   5.852   6.841 -0.0195 -0.3779  0.7477
23814SOL    HW172883   0.279   5.846   6.754 -2.1111 -0.1052  1.5855
23814SOL    HW272884   0.338   5.761   6.865 -0.0676 -0.5223  0.2426
23815SOL     OW72885   7.334   0.812   9.105 -0.2494  0.0422 -0.2135
23815SOL    HW172886   7.313   0.719   9.102 -2.0707  0.4393 -0.3787
23815SOL    HW272887   7.265   0.851   9.158  1.5164  1.0622  1.4914
23816SOL     OW72888   7.238   7.511   6.952  0.1610 -0.6486 -0.2870
23816SOL    HW172889   7.312   7.452   6.940 -0.2657 -1.0949 -0.7793
23816SOL    HW272890   7.233   7.526   7.046  2.9013  1.9906 -0.3696
23817SOL     OW72891   6.755   7.359   8.282  0.1852  0.1486  0.2082
23817SOL    HW172892   6.736   7.431   8.221 -0.0194 -0.0323  0.0615
23817SOL    HW272893   6.679   7.355   8.340  0.3916  0.3396  0.4995
23818SOL     OW72894   7.941   7.949   9.441  0.4171  0.2403  0.1941
23818SOL    HW172895   7.905   7.877   9.493  0.5312  0.2822  0.3296
23818SOL    HW272896   8.028   7.920   9.416  0.0368 -0.1670 -0.7333
23819SOL     OW72897   5.558   6.698   8.044  0.4196  0.1288 -0.0266
23819SOL    HW172898   5.602   6.650   7.973  0.1260 -0.3525  0.1112
23819SOL    HW272899   5.572   6.790   8.022  1.1625 -0.0124 -0.1917
23820SOL     OW72900   0.175   7.811   6.250  0.2276  0.4269 -0.5882
23820SOL    HW172901   0.122   7.838   6.325 -2.7879 -0.5053 -2.1829
23820SOL    HW272902   0.217   7.730   6.277  0.2334  0.7845  0.4959
23821SOL     OW72903   7.217   0.911   6.497 -0.3353  0.5130 -0.5589
23821SOL    HW172904   7.134   0.945   6.462 -0.5201  0.5543 -0.0860
23821SOL    HW272905   7.251   0.983   6.550  0.4121  0.8034 -1.4081
23822SOL     OW72906   6.250   0.524   9.297  0.1278 -0.5107 -0.1665
23822SOL    HW172907   6.213   0.436   9.293 -0.2167 -0.3100 -1.9767
23822SOL    HW272908   6.198   0.569   9.363 -1.2612 -0.9711 -0.9200
23823SOL     OW72909   6.551   7.847   7.468  0.1276  0.2565 -0.3748
23823SOL    HW172910   6.495   7.923   7.452  0.2098  0.2909 -0.5084
23823SOL    HW272911   6.539   7.827   7.560 -0.7644 -0.2720 -0.5932
23824SOL     OW72912   7.770   0.006   6.283  0.4226  0.0316  0.5639
23824SOL    HW172913   7.738  -0.019   6.196  0.6625 -0.5630  0.6415
23824SOL    HW272914   7.726   0.088   6.302 -0.3606 -0.3184  0.2857
23825SOL     OW72915   6.971   7.737   8.016 -0.5245 -0.0436 -0.2385
23825SOL    HW172916   7.037   7.805   8.006  0.5308 -0.8600  0.8419
23825SOL    HW272917   6.975   7.687   7.934 -1.3487  1.2076 -1.0581
23826SOL     OW72918   7.398   0.025   8.825 -0.4131  0.3781  0.3286
23826SOL    HW172919   7.358  -0.062   8.829 -0.8365  0.5247 -0.5637
23826SOL    HW272920   7.333   0.083   8.865  0.0409  0.2396  1.3007
23827SOL     OW72921   6.287   6.951   9.998  0.5400  0.1362 -0.3200
23827SOL    HW172922   6.343   6.872   9.997 -0.2587 -0.4310 -1.3230
23827SOL    HW272923   6.303   6.990  10.084  1.8673 -0.4567 -0.2735
23828SOL     OW72924   6.704   7.945   6.386 -0.0345 -0.1477 -0.2815
23828SOL    HW172925   6.787   7.901   6.406 -0.7007 -2.1604 -1.6128
23828SOL    HW272926   6.653   7.938   6.467  1.2302  1.6072  0.7329
23829SOL     OW72927   5.550   7.841   8.175  0.5082  0.2003 -0.5638
23829SOL    HW172928   5.556   7.869   8.266  1.0458  0.8230 -0.7890
23829SOL    HW272929   5.555   7.921   8.124  1.1826 -0.2160 -1.1823
23830SOL     OW72930   0.311   7.834   8.031  0.6673  0.2574  0.4755
23830SOL    HW172931   0.248   7.779   7.983  1.7887  0.2203 -1.0373
23830SOL    HW272932   0.260   7.910   8.058 -0.2991 -0.3065  0.3074
23831SOL     OW72933   5.593   0.778   9.134  0.3042  0.3746  0.1957
23831SOL    HW172934   5.562   0.869   9.129 -2.3388 -0.4905 -3.1794
23831SOL    HW272935   5.527   0.733   9.187 -0.0496 -0.0671 -0.5982
23832SOL     OW72936   6.666   7.996   6.690  0.0049 -0.4121  0.3515
23832SOL    HW172937   6.663   7.987   6.785 -1.1946  0.4624  0.4177
23832SOL    HW272938   6.712   8.078   6.675  0.0658 -0.4775  0.1793
23833SOL     OW72939   7.241   7.532   8.023  0.0036  0.0090 -0.3776
23833SOL    HW172940   7.189   7.571   7.953  0.2600  0.8254 -0.1256
23833SOL    HW272941   7.285   7.457   7.982  0.5175  0.7532 -1.2201
23834SOL     OW72942   6.409   7.864   6.447 -0.1283  0.3007  0.7089
23834SOL    HW172943   6.456   7.800   6.500  0.0130  0.8171  1.2254
23834SOL    HW272944   6.366   7.812   6.379 -0.0969 -0.3517  1.1726
23835SOL     OW72945   0.310   7.202   7.877 -0.3478 -0.5493 -0.1528
23835SOL    HW172946   0.285   7.285   7.837  1.1863  2.0368  3.7292
23835SOL    HW272947   0.255   7.194   7.955  2.6211 -0.6245  2.1426
23836SOL     OW72948   7.897   0.087   6.672  0.6321  0.3401  0.3232
23836SOL    HW172949   7.843   0.164   6.654 -0.1220 -0.0173  1.0013
23836SOL    HW272950   7.834   0.017   6.688  1.3110 -0.4260 -0.2646
23837SOL     OW72951   6.952   7.786   6.672 -0.3523 -0.2363  0.5469
23837SOL    HW172952   6.912   7.872   6.687 -0.2009  0.3656 -2.0366
23837SOL    HW272953   6.877   7.726   6.671 -0.4103 -0.3126  2.9566
23838SOL     OW72954   6.914   0.472   7.528  0.4103 -0.2259  0.2941
23838SOL    HW172955   6.930   0.471   7.622 -0.2560  0.2104  0.4133
23838SOL    HW272956   6.858   0.548   7.513 -0.3979 -0.9123 -0.3028
23839SOL     OW72957   7.865   7.938   7.623 -0.2613  0.6493 -0.1685
23839SOL    HW172958   7.931   7.913   7.558 -2.1036 -4.0663 -0.5937
23839SOL    HW272959   7.814   8.006   7.580  1.8080  1.5171 -1.4072
23840SOL     OW72960   7.924   6.362  10.446  0.2612  0.4459  0.2863
23840SOL    HW172961   7.869   6.307  10.390  0.4348  1.2893 -0.7499
23840SOL    HW272962   7.862   6.420  10.490  0.0690 -0.5807  1.4432
23841SOL     OW72963   3.431   7.979   8.016  0.1563  0.1161 -0.5285
23841SOL    HW172964   3.425   8.073   8.035  1.6962  0.3239 -0.9726
23841SOL    HW272965   3.383   7.937   8.087 -0.4422  1.2319 -0.2563
23842SOL     OW72966   5.995   7.217   8.056 -0.1406  0.1399 -0.0766
23842SOL    HW172967   5.979   7.213   8.150 -1.7055  1.3067 -0.2385
23842SOL    HW272968   5.998   7.311   8.036 -2.6956  0.0207 -1.5383
23843SOL     OW72969   7.459   1.591   7.189  0.4613  0.2998 -0.5423
23843SOL    HW172970   7.474   1.617   7.099 -1.1508 -0.4586 -1.0580
23843SOL    HW272971   7.408   1.511   7.183  0.6100  0.0528  1.0467
23844SOL     OW72972   5.853   0.140   7.464  0.5988 -0.1314  0.4474
23844SOL    HW172973   5.896   0.114   7.383  0.7825  0.4991  0.3428
23844SOL    HW272974   5.842   0.234   7.457 -3.2916 -0.5119 -0.7762
23845SOL     OW72975   6.714   7.565   6.815 -0.9704  0.1864  0.3523
23845SOL    HW172976   6.709   7.477   6.777 -2.4304  0.2909  0.2666
23845SOL    HW272977   6.802   7.569   6.853 -1.5154 -2.0184  2.0528
23846SOL     OW72978   0.171   0.256   7.403 -0.2681  0.2324 -0.2217
23846SOL    HW172979   0.127   0.262   7.318 -0.8454 -3.2340 -0.3204
23846SOL    HW272980   0.246   0.198   7.387  0.2813  0.4284  1.4222
23847SOL     OW72981   7.978   6.995   7.138  0.2831 -0.1885  0.5928
23847SOL    HW172982   7.935   6.912   7.116 -0.1464  0.0613  0.4666
23847SOL    HW272983   7.990   7.039   7.054 -0.2001  0.2137  0.7280
23848SOL     OW72984   6.166   5.939   6.950  0.5667 -0.6260 -0.0281
23848SOL    HW172985   6.095   5.936   6.886  0.4200  1.3606 -0.0226
23848SOL    HW272986   6.121   5.945   7.035  0.7637 -2.6103  0.2610
23849SOL     OW72987   6.762   6.967   5.851  0.4010  0.1963  0.2768
23849SOL    HW172988   6.672   6.934   5.860 -0.4475  2.0183 -0.8979
23849SOL    HW272989   6.778   6.968   5.757  1.2398  0.8938  0.4178
23850SOL     OW72990   5.977   0.076   8.475 -0.1712 -0.2152  0.0528
23850SOL    HW172991   6.068   0.104   8.479 -0.4146  0.6513 -0.2725
23850SOL    HW272992   5.971   0.005   8.539  0.5850  0.1343  0.5267
23851SOL     OW72993   5.968   7.710  10.392 -0.5548  0.6109 -0.3391
23851SOL    HW172994   5.901   7.776  10.414  0.3485  0.7664  2.2573
23851SOL    HW272995   5.997   7.676  10.476  1.2245 -0.9216 -1.4946
23852SOL     OW72996   7.199   0.431   6.230  1.0952 -0.0267  0.0149
23852SOL    HW172997   7.262   0.460   6.164 -0.2025  1.3440 -0.6782
23852SOL    HW272998   7.133   0.383   6.181  0.3359  0.6318  0.3849
23853SOL     OW72999   6.116   0.438   7.229  0.4403  0.7056 -0.6173
23853SOL    HW173000   6.116   0.431   7.133 -4.1523 -4.2425 -0.7527
23853SOL    HW273001   6.054   0.509   7.247 -0.8411 -0.1185 -1.5353
23854SOL     OW73002   6.015   7.785   8.551 -0.4282 -0.2806 -0.3966
23854SOL    HW173003   6.090   7.758   8.498 -0.2610  1.7599 -1.3166
23854SOL    HW273004   5.939   7.766   8.497 -0.4408 -0.5506 -0.2854
23855SOL     OW73005   6.554   7.420   7.391 -0.2509 -0.5227  0.2226
23855SOL    HW173006   6.550   7.462   7.477 -1.2286 -1.5778  0.7294
23855SOL    HW273007   6.530   7.489   7.329 -1.4176 -0.2178  0.9849
23856SOL     OW73008   5.907   7.565   6.062  0.3318  0.1213 -0.3542
23856SOL    HW173009   5.943   7.607   5.984  0.7554 -0.2786 -0.3735
23856SOL    HW273010   5.853   7.494   6.028  1.5301 -0.8675 -0.2644
23857SOL     OW73011   7.436   0.307   7.965  0.5524  0.7128 -0.0512
23857SOL    HW173012   7.395   0.261   8.038  1.5415 -1.0250 -0.5433
23857SOL    HW273013   7.527   0.317   7.991  0.8832  0.2159 -0.9757
23858SOL     OW73014   7.660   7.597   6.662  0.6926 -0.1677  0.6089
23858SOL    HW173015   7.646   7.591   6.567 -0.1954 -0.9922  0.7790
23858SOL    HW273016   7.731   7.535   6.679  1.1572  0.3053  0.4334
23859SOL     OW73017   5.733   6.812   8.602 -0.2159 -0.6920 -0.7158
23859SOL    HW173018   5.664   6.860   8.558  0.2115  1.0985  0.4503
23859SOL    HW273019   5.693   6.780   8.683  0.6901  2.0497  0.9586
23860SOL     OW73020   7.451   7.832   6.133  0.0819 -0.2438 -0.4130
23860SOL    HW173021   7.416   7.879   6.208 -0.6723  1.2785 -1.6719
23860SOL    HW273022   7.377   7.783   6.097  0.2268 -0.2791 -0.6740
23861SOL     OW73023   6.676   6.579   6.511 -0.0682  0.1840  0.1915
23861SOL    HW173024   6.727   6.521   6.567  0.5346 -0.8183 -1.3082
23861SOL    HW273025   6.707   6.667   6.533  1.6820 -0.3340 -0.0303
23862SOL     OW73026   6.574   6.681   6.098 -0.3520  0.7764  0.1801
23862SOL    HW173027   6.569   6.616   6.028  0.6395  1.3522 -0.4445
23862SOL    HW273028   6.562   6.631   6.179  0.8708 -0.2623 -0.2618
23863SOL     OW73029   3.211   7.696   7.911 -0.4644  0.1115 -0.1687
23863SOL    HW173030   3.195   7.693   7.816 -1.4207  1.1669 -0.0653
23863SOL    HW273031   3.305   7.717   7.918 -0.6419  1.2895 -0.9138
23864SOL     OW73032   0.241   5.924   8.806  0.0214  0.3758  0.4064
23864SOL    HW173033   0.204   5.910   8.893  2.1848  1.1551  1.5321
23864SOL    HW273034   0.222   5.844   8.758 -0.7952 -0.2738  1.7658
23865SOL     OW73035   6.767   7.297   9.489  0.0784  0.5480  0.4267
23865SOL    HW173036   6.704   7.266   9.423  2.2952 -1.5809 -0.8923
23865SOL    HW273037   6.810   7.217   9.519  1.2619  1.8023  2.2282
23866SOL     OW73038   6.275   1.716   9.796  1.0610  0.0502  0.2311
23866SOL    HW173039   6.238   1.695   9.710 -0.6390 -0.0316  0.9473
23866SOL    HW273040   6.364   1.681   9.793  0.6649 -0.9205 -1.1140
23867SOL     OW73041   7.517   7.013   7.394 -0.3499  0.2110  0.1334
23867SOL    HW173042   7.605   6.983   7.415 -0.6188 -0.5993  0.1307
23867SOL    HW273043   7.525   7.050   7.306 -0.3708 -1.5977 -0.6815
23868SOL     OW73044   6.008   7.390   9.601  0.5455 -0.6437 -0.3645
23868SOL    HW173045   5.935   7.364   9.545 -0.6495 -2.1530  1.7103
23868SOL    HW273046   5.979   7.473   9.641  0.9270 -0.1271 -1.1474
23869SOL     OW73047   6.776   6.789   7.649 -0.0002  0.3098  0.5393
23869SOL    HW173048   6.777   6.816   7.557  2.2022 -0.3733  0.3043
23869SOL    HW273049   6.726   6.707   7.650 -0.8649  0.8218  0.1305
23870SOL     OW73050   6.090   7.433  10.231 -0.1779  0.2673  0.1476
23870SOL    HW173051   6.081   7.479  10.147 -0.2095 -0.6955 -0.3897
23870SOL    HW273052   6.030   7.478  10.290 -1.6429 -0.2739 -0.8800
23871SOL     OW73053   4.712   0.165   8.704 -0.3738 -0.2648  0.2478
23871SOL    HW173054   4.747   0.237   8.756 -1.5707  0.2670  0.3471
23871SOL    HW273055   4.618   0.179   8.703 -0.4475 -0.5851 -1.5951
23872SOL     OW73056   7.548   0.044   9.044  0.4671 -0.1618 -0.3809
23872SOL    HW173057   7.624   0.103   9.038  1.2411 -1.1110 -0.2341
23872SOL    HW273058   7.524   0.028   8.954  0.9998 -0.5448 -0.4599
23873SOL     OW73059   6.493   7.698  10.685 -0.2606  0.5353  0.5315
23873SOL    HW173060   6.406   7.738  10.681 -0.3545  0.3294  0.4708
23873SOL    HW273061   6.494   7.636  10.613  0.5018  1.6347 -0.4397
23874SOL     OW73062   7.524   0.528  10.015  0.3925 -0.5751 -0.4431
23874SOL    HW173063   7.572   0.539   9.933  0.7809 -1.0628 -0.2863
23874SOL    HW273064   7.565   0.452  10.057  1.5141  0.8310  1.1432
23875SOL     OW73065   7.021   6.369  10.571  0.3086 -0.3639  0.1985
23875SOL    HW173066   7.074   6.425  10.515  1.1508 -0.9642  0.3758
23875SOL    HW273067   6.949   6.340  10.515 -0.2428  1.0127  0.1530
23876SOL     OW73068   6.165   0.212  10.889  0.2767  0.5571 -0.3761
23876SOL    HW173069   6.140   0.200  10.980  0.6519 -0.0385 -0.3441
23876SOL    HW273070   6.085   0.197  10.839  0.4305 -0.8493 -0.2477
23877SOL     OW73071   5.645   7.735  10.309 -0.2622  0.0677 -0.2327
23877SOL    HW173072   5.700   7.735  10.231 -1.3213  1.3548 -1.0123
23877SOL    HW273073   5.571   7.791  10.286  0.1068  1.6988  2.1713
23878SOL     OW73074   7.316   0.677   6.574 -1.0451 -0.3192  0.7497
23878SOL    HW173075   7.324   0.696   6.668  1.1570 -0.8502  0.7329
23878SOL    HW273076   7.285   0.759   6.536  0.6427  0.8043  1.6543
23879SOL     OW73077   6.834   0.220  11.583  0.3778  0.7180  0.1102
23879SOL    HW173078   6.894   0.178  11.521  0.4681  1.5369 -0.3772
23879SOL    HW273079   6.873   0.205  11.669  0.7734  0.4151 -0.1184
23880SOL     OW73080   4.733   5.418  10.659  0.0262 -0.8923 -0.1380
23880SOL    HW173081   4.712   5.445  10.569 -0.0723  0.5603  0.2890
23880SOL    HW273082   4.804   5.354  10.649 -0.6875 -1.5568 -1.2921
23881SOL     OW73083   4.656   7.303   9.601 -0.3814 -0.2987  0.0865
23881SOL    HW173084   4.694   7.253   9.673  1.0610  0.1764 -0.3079
23881SOL    HW273085   4.586   7.247   9.567 -0.2829 -1.0482  1.0755
23882SOL     OW73086   5.734   0.555  10.114  0.1032  0.4149 -0.3728
23882SOL    HW173087   5.790   0.620  10.072  0.0298  0.8111  0.1403
23882SOL    HW273088   5.664   0.539  10.050 -0.5005  1.6805 -0.0497
23883SOL     OW73089   6.029   6.683  10.776  0.2404 -0.0813  0.0886
23883SOL    HW173090   6.036   6.775  10.751  1.6143 -0.0640  0.4527
23883SOL    HW273091   5.940   6.658  10.750 -0.4009  1.5220  0.6024
23884SOL     OW73092   5.727   6.106   8.474  0.1830  0.3292 -0.3698
23884SOL    HW173093   5.812   6.109   8.518 -0.1681  0.1911  0.3293
23884SOL    HW273094   5.729   6.026   8.422  0.3845  0.1979 -0.1574
23885SOL     OW73095   3.535   7.696   9.849 -0.1556  0.2129 -0.1375
23885SOL    HW173096   3.450   7.717   9.811 -0.7241 -0.6941  0.5870
23885SOL    HW273097   3.599   7.727   9.784 -1.0747 -1.5860 -2.0358
23886SOL     OW73098   6.720   7.399  10.468  0.0968  0.4750 -0.5181
23886SOL    HW173099   6.731   7.478  10.415  1.2749 -0.2878 -1.4843
23886SOL    HW273100   6.649   7.420  10.528 -1.1681  1.4781 -2.2507
23887SOL     OW73101   5.037   6.968   9.381  0.1438 -0.1000  0.6248
23887SOL    HW173102   4.982   6.895   9.410 -0.6924 -0.1737 -0.9844
23887SOL    HW273103   4.974   7.032   9.347  0.9455  0.8181  0.8414
23888SOL     OW73104   4.451   0.198   9.403 -0.2768  0.2008  0.1278
23888SOL    HW173105   4.392   0.226   9.473 -0.3084  3.1530 -0.9612
23888SOL    HW273106   4.420   0.244   9.325  2.1777  0.1903 -0.9485
23889SOL     OW73107   5.628   7.569  10.745  0.0869  0.1724  0.2305
23889SOL    HW173108   5.562   7.601  10.806 -2.6130 -0.7921 -1.9696
23889SOL    HW273109   5.638   7.476  10.767 -1.0581 -0.2312 -0.8673
23890SOL     OW73110   4.965   1.015  12.219  0.1980  0.2034  0.3770
23890SOL    HW173111   5.034   1.003  12.284 -1.6297 -0.6761  2.2618
23890SOL    HW273112   5.002   0.977  12.139  2.4001  1.0564  0.9164
23891SOL     OW73113   5.264   7.956   9.527  0.4792  0.5161 -0.8852
23891SOL    HW173114   5.285   7.963   9.434  1.1299 -3.2734 -1.1868
23891SOL    HW273115   5.192   7.893   9.531  0.1250  0.9776  1.1796
23892SOL     OW73116   7.068   7.375   9.266 -0.2353  0.0769  0.1018
23892SOL    HW173117   6.986   7.336   9.236 -0.3797 -0.0320  0.6341
23892SOL    HW273118   7.076   7.347   9.357 -0.2056  1.0724  0.4154
23893SOL     OW73119   6.405   7.389   9.371 -0.2265  0.3048 -0.4336
23893SOL    HW173120   6.491   7.427   9.354 -0.0836 -0.2593 -0.9840
23893SOL    HW273121   6.387   7.411   9.463 -0.2122  1.7991 -0.7601
23894SOL     OW73122   4.964   0.865   7.677  0.8579 -0.2278 -0.0051
23894SOL    HW173123   5.026   0.890   7.608  0.8002  0.6733  0.2544
23894SOL    HW273124   4.881   0.903   7.648  0.4932 -1.1310 -0.1771
23895SOL     OW73125   6.117   2.625  10.925  0.2441  1.2119 -0.3875
23895SOL    HW173126   6.100   2.615  11.018  2.3374  0.9784  0.0283
23895SOL    HW273127   6.156   2.712  10.917 -0.2147  1.3613 -1.0947
23896SOL     OW73128   0.519   7.464  10.725 -0.0330  0.0921  0.7341
23896SOL    HW173129   0.483   7.497  10.807 -2.6330  2.7144 -1.2252
23896SOL    HW273130   0.465   7.388  10.704  0.0271 -0.0272  1.0089
23897SOL     OW73131   6.548   1.736  10.953 -0.1772  0.3462  0.4074
23897SOL    HW173132   6.610   1.713  11.021 -0.9909 -1.0331  0.7188
23897SOL    HW273133   6.583   1.696  10.873  0.3607  1.2820  0.1621
23898SOL     OW73134   6.815   6.805  10.749 -0.1106 -0.1356 -0.2148
23898SOL    HW173135   6.875   6.827  10.678  0.5886 -0.5961  0.2269
23898SOL    HW273136   6.855   6.730  10.793 -1.2782 -0.7977 -0.2372
23899SOL     OW73137   6.138   6.335  11.627  0.1821 -0.1861  0.2552
23899SOL    HW173138   6.110   6.264  11.684  1.5468  1.2707  2.9509
23899SOL    HW273139   6.187   6.394  11.684  1.8109  1.3640 -2.4836
23900SOL     OW73140   5.452   0.230  10.369 -0.4253  0.6279  0.0720
23900SOL    HW173141   5.469   0.230  10.275 -2.4217  2.9519 -0.3937
23900SOL    HW273142   5.358   0.216  10.377 -0.3368  0.7817  1.7149
23901SOL     OW73143   7.273   0.304   8.728  0.6668 -0.7468  0.2799
23901SOL    HW173144   7.276   0.286   8.822  1.8587 -1.7891  0.0784
23901SOL    HW273145   7.229   0.229   8.690 -0.4665  0.0113  0.0535
23902SOL     OW73146   5.687   7.497   8.615  0.2140 -0.1676 -0.5808
23902SOL    HW173147   5.685   7.424   8.678  0.7206 -0.9613 -1.4537
23902SOL    HW273148   5.596   7.506   8.586  0.2732 -0.9803 -1.0426
23903SOL     OW73149   5.836   7.633   8.420  0.7353 -0.2743  0.6095
23903SOL    HW173150   5.791   7.554   8.453  0.3331 -0.8987 -1.3195
23903SOL    HW273151   5.802   7.645   8.332  1.2459  1.7511  0.6417
23904SOL     OW73152   5.507   0.097   8.087 -0.1242 -0.1607  0.2167
23904SOL    HW173153   5.430   0.100   8.030  2.0950 -1.9548 -3.3097
23904SOL    HW273154   5.528   0.189   8.104 -1.1893  0.4733 -1.5892
23905SOL     OW73155   7.284   1.904  10.500  0.0247  0.1668  0.4540
23905SOL    HW173156   7.282   1.835  10.567  2.5931  2.1393  2.7927
23905SOL    HW273157   7.376   1.912  10.476 -0.2987  2.3054 -0.2786
23906SOL     OW73158   5.614   0.320  11.324  0.2432  0.2980  0.2710
23906SOL    HW173159   5.660   0.324  11.408  0.5433  1.5862  0.0707
23906SOL    HW273160   5.684   0.322  11.259 -0.0173  0.0077 -0.0228
23907SOL     OW73161   0.917   1.206  11.682 -0.4932 -0.2001  0.3061
23907SOL    HW173162   0.987   1.212  11.618 -0.7014 -2.1573 -0.1818
23907SOL    HW273163   0.841   1.176  11.632 -1.9137  2.3946  0.7148
23908SOL     OW73164   6.676   7.937   9.834  0.1505 -0.3194  0.1323
23908SOL    HW173165   6.721   8.022   9.832 -0.0286 -0.2046  0.8010
23908SOL    HW273166   6.706   7.893   9.755 -1.4992  1.2606 -1.4821
23909SOL     OW73167   7.646   7.590   9.508  0.2962  0.2639 -0.1002
23909SOL    HW173168   7.650   7.584   9.413  0.0646  1.9432 -0.2377
23909SOL    HW273169   7.723   7.642   9.533 -0.6601  1.4786  0.4334
23910SOL     OW73170   4.644   1.217  11.819 -0.4998  0.2749  0.6365
23910SOL    HW173171   4.659   1.122  11.824  1.1143  0.3626 -1.0043
23910SOL    HW273172   4.596   1.239  11.898 -2.5778 -2.1946  0.1966
23911SOL     OW73173   6.198   6.377   9.502 -0.2541 -0.1387  0.4685
23911SOL    HW173174   6.179   6.290   9.537 -2.1253  0.1098  0.1827
23911SOL    HW273175   6.123   6.430   9.528  1.1489  1.6038  1.2449
23912SOL     OW73176   5.579   0.476   9.927 -1.0104  0.1683 -0.1121
23912SOL    HW173177   5.537   0.534   9.863 -1.6503 -0.3880 -0.2048
23912SOL    HW273178   5.579   0.390   9.885 -1.6462 -0.2559  0.7242
23913SOL     OW73179   6.824   6.707   9.337  0.0445 -0.3803 -0.4659
23913SOL    HW173180   6.735   6.725   9.366 -0.3447 -1.1190 -1.1461
23913SOL    HW273181   6.846   6.623   9.377  0.3165 -0.3531 -0.5524
23914SOL     OW73182   6.746   0.041   9.408 -0.1312  0.0165  0.0972
23914SOL    HW173183   6.734   0.049   9.313  1.6856 -1.8033 -0.3616
23914SOL    HW273184   6.687   0.106   9.445 -2.5849 -0.7179 -2.1750
23915SOL     OW73185   0.751   7.303   9.786 -0.4495 -0.0477 -0.0575
23915SOL    HW173186   0.799   7.221   9.786 -0.9317 -0.3330  0.1401
23915SOL    HW273187   0.730   7.319   9.878 -2.0311 -0.7016 -0.2726
23916SOL     OW73188   5.015   0.736  11.361 -0.0289 -0.6016  0.0589
23916SOL    HW173189   5.037   0.727  11.269 -1.0352  0.1037 -0.2696
23916SOL    HW273190   5.026   0.829  11.380  0.5279 -0.8004  0.7555
23917SOL     OW73191   0.095   7.839   7.435  0.3213  0.5011 -0.0107
23917SOL    HW173192   0.044   7.767   7.400 -1.4352  1.6473  0.0479
23917SOL    HW273193   0.122   7.890   7.358  2.9763 -1.0084 -0.2011
23918SOL     OW73194   6.167   7.315  10.593  0.2226 -0.2684 -0.1788
23918SOL    HW173195   6.094   7.254  10.599 -0.4605  0.5246 -0.3356
23918SOL    HW273196   6.239   7.262  10.558 -0.6815 -0.7044 -1.4445
23919SOL     OW73197   5.290   0.546  10.982 -0.1006  0.2709  0.2291
23919SOL    HW173198   5.363   0.521  11.038 -2.1319 -2.4267  1.9778
23919SOL    HW273199   5.324   0.540  10.893  1.5061 -2.3149  0.9087
23920SOL     OW73200   3.847   1.194  11.683 -0.2149 -0.0156 -0.0500
23920SOL    HW173201   3.833   1.262  11.749  0.4823  1.0593 -0.9748
23920SOL    HW273202   3.864   1.242  11.602 -0.4285 -1.3039 -0.8875
23921SOL     OW73203   5.792   7.539   9.712  0.6430 -0.5722  0.2899
23921SOL    HW173204   5.778   7.497   9.627 -0.6285  2.5865 -1.2285
23921SOL    HW273205   5.711   7.523   9.760  0.0545  0.3037 -0.3859
23922SOL     OW73206   5.823   7.751  10.655 -0.5661 -0.3245 -0.1555
23922SOL    HW173207   5.873   7.671  10.669 -0.0779  0.2168  1.3579
23922SOL    HW273208   5.741   7.737  10.702 -0.2276  0.2841  0.6428
23923SOL     OW73209   6.989   0.652   8.330  0.0559 -0.0185  0.7227
23923SOL    HW173210   7.014   0.730   8.281  2.5910 -1.2139  0.0000
23923SOL    HW273211   7.071   0.618   8.365 -1.0552 -2.0725  1.4863
23924SOL     OW73212   6.383   7.547   8.852 -0.0766  0.1558  0.1041
23924SOL    HW173213   6.435   7.535   8.932  0.0731 -1.7293 -0.2321
23924SOL    HW273214   6.378   7.642   8.841 -0.7244  0.5377  2.7507
23925SOL     OW73215   0.038   7.846  12.039 -0.2348 -0.7605  0.0207
23925SOL    HW173216  -0.026   7.916  12.024 -0.2104 -0.8099 -0.3176
23925SOL    HW273217   0.058   7.813  11.952 -0.8904 -1.7706  0.2318
23926SOL     OW73218   7.054   6.882  11.331  0.3321 -0.5166  0.1897
23926SOL    HW173219   6.986   6.875  11.263 -0.0454  1.1375  0.3401
23926SOL    HW273220   7.005   6.901  11.411  0.6785 -3.5726  1.2352
23927SOL     OW73221   6.830   0.864  10.762  0.3420  0.5270  0.4670
23927SOL    HW173222   6.896   0.933  10.766  0.7618  0.2951 -1.4867
23927SOL    HW273223   6.834   0.822  10.848  1.1745  1.9097  1.1399
23928SOL     OW73224   5.028   5.919  10.302 -0.1475  0.5405 -0.1469
23928SOL    HW173225   5.102   5.979  10.293 -0.5795  0.9733 -0.8535
23928SOL    HW273226   4.966   5.946  10.234  0.3482 -1.7104 -1.5912
23929SOL     OW73227   7.398   0.247   6.825  0.5747 -0.2365 -0.7270
23929SOL    HW173228   7.344   0.258   6.747  0.4112  1.1323 -0.4357
23929SOL    HW273229   7.367   0.165   6.864  1.3484 -1.5000 -2.6218
23930SOL     OW73230   6.552   6.286   9.275  0.0730 -0.5205 -0.4046
23930SOL    HW173231   6.623   6.348   9.254  1.2487 -1.4783  0.5832
23930SOL    HW273232   6.476   6.320   9.228  0.4276  2.1712  0.7600
23931SOL     OW73233   7.043   1.507   9.247  0.0175 -0.1761 -0.7673
23931SOL    HW173234   7.030   1.468   9.333 -0.6807 -0.3139 -0.9291
23931SOL    HW273235   7.107   1.449   9.204  0.8134  0.2231 -0.1390
23932SOL     OW73236   1.633   7.337   9.143  0.2192 -0.1301  0.5376
23932SOL    HW173237   1.567   7.375   9.085  0.7335  0.8688  0.5798
23932SOL    HW273238   1.716   7.375   9.114  0.4557  0.6336  2.0948
23933SOL     OW73239   0.211   0.173  11.987 -0.3355  0.4485  0.2532
23933SOL    HW173240   0.216   0.262  12.021 -0.5614  0.5699 -0.0249
23933SOL    HW273241   0.264   0.174  11.908  0.7690 -0.0168  0.9671
23934SOL     OW73242   5.881   7.328  11.635  0.2790 -0.1650 -0.2383
23934SOL    HW173243   5.871   7.298  11.544  0.7834 -0.9069 -0.0498
23934SOL    HW273244   5.956   7.388  11.632 -0.6022  0.9786 -0.5724
23935SOL     OW73245   6.860   7.933  12.369 -0.6677 -0.0928  0.7237
23935SOL    HW173246   6.827   7.856  12.323 -1.4924  0.7201 -0.0823
23935SOL    HW273247   6.812   8.006  12.331  2.3124  1.2230 -0.8234
23936SOL     OW73248   0.641   7.161  10.557  0.2675 -0.4869  0.2644
23936SOL    HW173249   0.548   7.139  10.558  0.1656 -0.0864 -0.3279
23936SOL    HW273250   0.679   7.107  10.627 -0.1510 -1.7617 -0.4692
23937SOL     OW73251   6.187   0.723   0.737  0.2350 -0.3091  0.2228
23937SOL    HW173252   6.115   0.682   0.785 -1.5588  2.6229  0.2806
23937SOL    HW273253   6.157   0.727   0.647  1.3347 -1.0357 -0.1997
23938SOL     OW73254   5.549   7.531   9.515 -0.1243 -0.4786  0.1160
23938SOL    HW173255   5.517   7.589   9.445 -0.7034 -0.5045  0.3527
23938SOL    HW273256   5.470   7.500   9.559  0.2163 -0.8079  0.5123
23939SOL     OW73257   0.235   0.922  12.500  0.1177  0.1692 -0.5421
23939SOL    HW173258   0.232   0.851  12.565  1.0292  1.2954  0.7735
23939SOL    HW273259   0.247   0.877  12.416 -0.0165 -1.2636  0.1785
23940SOL     OW73260   7.898   6.463  11.980 -0.2819 -0.3810  0.0395
23940SOL    HW173261   7.924   6.408  11.906  0.3279 -3.2950  2.2187
23940SOL    HW273262   7.979   6.509  12.005 -0.5703  0.8889 -1.2057
23941SOL     OW73263   4.662   6.647  12.271  0.0156 -0.4693  0.4933
23941SOL    HW173264   4.576   6.606  12.281  0.5837 -1.9614 -0.3979
23941SOL    HW273265   4.668   6.708  12.345 -2.8690  1.6975 -0.8423
23942SOL     OW73266   6.678   0.511  10.441 -0.1257 -0.4096  0.0235
23942SOL    HW173267   6.708   0.534  10.529 -0.5323  1.6852 -0.3479
23942SOL    HW273268   6.726   0.431  10.420  0.2936 -0.7205  1.9695
23943SOL     OW73269   7.563   0.083   8.610 -0.3758 -0.1604  0.2458
23943SOL    HW173270   7.519   0.072   8.695 -1.3915 -0.2970 -0.2783
23943SOL    HW273271   7.504   0.042   8.547 -0.5962  1.6472 -0.7869
23944SOL     OW73272   4.674   5.937  11.485  0.3259 -0.7791  0.1856
23944SOL    HW173273   4.755   5.900  11.452 -1.6346 -2.1536 -3.8038
23944SOL    HW273274   4.605   5.886  11.442 -2.6560  1.6661  1.6405
23945SOL     OW73275   6.070   2.597  11.206  0.1881 -0.0793 -0.2889
23945SOL    HW173276   6.095   2.689  11.215  0.1722 -0.0857 -0.1840
23945SOL    HW273277   6.037   2.572  11.292  0.0186 -0.1313 -0.3675
23946SOL     OW73278   5.778   5.241  12.102  0.5572  0.6255  0.1137
23946SOL    HW173279   5.685   5.262  12.106  0.6201  0.7292  3.4012
23946SOL    HW273280   5.790   5.173  12.168  2.0540 -3.1420 -3.6016
23947SOL     OW73281   6.784   0.616  10.677  0.3426  0.2291  0.2302
23947SOL    HW173282   6.796   0.706  10.706  0.6288  0.1908  0.2321
23947SOL    HW273283   6.872   0.587  10.653 -0.0023  0.6103 -1.6980
23948SOL     OW73284   6.810   2.255   0.995 -0.7957  0.0007  0.4732
23948SOL    HW173285   6.894   2.248   1.040 -1.2056  0.4424  1.3342
23948SOL    HW273286   6.745   2.235   1.063 -1.4029  0.2052 -0.0440
23949SOL     OW73287   6.870   0.370  11.867 -0.3407 -0.7630 -0.1180
23949SOL    HW173288   6.921   0.290  11.881  0.2260 -0.2766  0.7112
23949SOL    HW273289   6.932   0.432  11.829 -0.4772 -0.3727  0.2819
23950SOL     OW73290   0.302   6.974   0.321  0.6099  0.2629  0.2366
23950SOL    HW173291   0.304   6.879   0.305 -2.0367 -0.0550  1.3250
23950SOL    HW273292   0.255   6.983   0.404 -1.4422  2.6302 -1.0551
23951SOL     OW73293   7.649   7.877   0.109 -0.1964 -0.1819  0.6047
23951SOL    HW173294   7.667   7.846   0.020  0.1189 -0.4253  0.7498
23951SOL    HW273295   7.690   7.963   0.114  0.6186 -0.5642  0.8067
23952SOL     OW73296   7.986   7.376  10.613  0.7225 -0.6307 -0.1861
23952SOL    HW173297   7.975   7.362  10.519 -1.7164 -1.8092  0.1918
23952SOL    HW273298   8.062   7.434  10.620  0.4177  0.2502 -2.9277
23953SOL     OW73299   2.663   0.526  11.557 -0.0340 -0.3377 -0.8527
23953SOL    HW173300   2.752   0.559  11.547 -0.2220  0.1239 -1.0259
23953SOL    HW273301   2.610   0.579  11.498 -0.7858  0.9133  0.8363
23954SOL     OW73302   6.040   7.568  10.604  0.4812  0.2702 -0.0333
23954SOL    HW173303   6.086   7.484  10.602  0.4445  0.2577 -0.7810
23954SOL    HW273304   6.093   7.623  10.661 -0.3166 -0.7164  1.7454
23955SOL     OW73305   6.331   0.416  10.055  0.1911  0.5815  0.0139
23955SOL    HW173306   6.282   0.356  10.112  1.0231  0.6312  0.8039
23955SOL    HW273307   6.398   0.453  10.112  2.2061 -0.6772 -1.4126
23956SOL     OW73308   6.345   7.134  10.936  1.0220  0.0710 -0.6426
23956SOL    HW173309   6.401   7.156  11.010 -0.4467  1.4487  0.1268
23956SOL    HW273310   6.295   7.214  10.918 -0.5082 -0.9914 -1.4453
23957SOL     OW73311   5.210   5.896  10.744 -0.0409 -0.5291 -0.1705
23957SOL    HW173312   5.122   5.915  10.711 -0.2780 -2.7833 -1.0057
23957SOL    HW273313   5.208   5.924  10.835 -1.7377 -0.7945 -0.0949
23958SOL     OW73314   0.675   7.514  12.135 -0.5303  0.4257  0.1357
23958SOL    HW173315   0.703   7.512  12.226  0.3146 -0.3807 -0.1252
23958SOL    HW273316   0.659   7.607  12.117  2.2289  1.0178  0.2557
23959SOL     OW73317   6.738   0.225  10.408 -0.3955 -0.2385 -0.1878
23959SOL    HW173318   6.729   0.194  10.498 -0.6122 -0.1891 -0.1925
23959SOL    HW273319   6.688   0.162  10.356  1.2682 -1.3676 -0.5019
23960SOL     OW73320   5.142   7.715  11.173  0.6999 -0.2555  0.3053
23960SOL    HW173321   5.064   7.735  11.225  0.1774  0.9447 -0.8676
23960SOL    HW273322   5.195   7.795  11.178  0.4054  0.0890 -1.3404
23961SOL     OW73323   0.018   7.947  10.730 -0.0703  0.0458 -0.1599
23961SOL    HW173324  -0.024   7.905  10.804  1.0096 -1.2952 -0.2676
23961SOL    HW273325   0.103   7.903  10.722  0.4240  1.1337 -1.3105
23962SOL     OW73326   5.895   0.019   0.895  0.1495  0.2412  0.5621
23962SOL    HW173327   5.901   0.059   0.809  0.6006  0.1253  0.5341
23962SOL    HW273328   5.944  -0.063   0.886 -0.1841  0.0138  0.8041
23963SOL     OW73329   6.512   7.220  11.128  0.1084  0.0816 -0.1102
23963SOL    HW173330   6.587   7.251  11.078  0.1203  0.0965 -0.0832
23963SOL    HW273331   6.532   7.245  11.219  1.7171 -2.8517  0.4865
23964SOL     OW73332   1.047   0.431  11.797  0.1165 -0.0850  0.1546
23964SOL    HW173333   1.049   0.460  11.706 -0.3187  0.2709  0.2572
23964SOL    HW273334   0.968   0.377  11.803 -1.5037  2.2363  1.0092
23965SOL     OW73335   7.003   0.705  11.468 -0.2705  0.3804  0.0309
23965SOL    HW173336   6.974   0.745  11.550  2.1953  1.5496  0.4277
23965SOL    HW273337   7.055   0.630  11.495  0.6111  0.8081 -0.4395
23966SOL     OW73338   7.370   7.621  11.514 -0.0872  0.3520  0.1906
23966SOL    HW173339   7.290   7.659  11.479 -0.2311  0.4566  0.6224
23966SOL    HW273340   7.345   7.533  11.542 -0.4686  0.9436  1.8209
23967SOL     OW73341   7.589   0.037  10.817  0.4553  0.3150  0.0514
23967SOL    HW173342   7.646   0.102  10.857  0.4857 -0.6059  1.5714
23967SOL    HW273343   7.641   0.002  10.744  0.8784  1.1502 -0.0670
23968SOL     OW73344   4.866   1.165  10.104  0.0545  0.2797  0.1788
23968SOL    HW173345   4.937   1.212  10.146  0.9475 -0.3532 -0.5888
23968SOL    HW273346   4.842   1.219  10.029 -1.5608  1.4256  1.4440
23969SOL     OW73347   6.866   7.244  12.299 -0.0104 -0.0986  0.1208
23969SOL    HW173348   6.805   7.172  12.281  0.1425  0.0249 -0.9867
23969SOL    HW273349   6.950   7.201  12.315 -0.2275 -0.2323  0.9611
23970SOL     OW73350   6.608   0.463  11.862  0.2999 -0.2791  0.2883
23970SOL    HW173351   6.697   0.427  11.862  1.1900  1.7713  0.1543
23970SOL    HW273352   6.591   0.486  11.771  0.0692  0.2883  0.4681
23971SOL     OW73353   5.810   0.906  10.406  0.2251 -0.7250  0.4971
23971SOL    HW173354   5.874   0.974  10.425  0.7475 -1.4134  1.3126
23971SOL    HW273355   5.787   0.870  10.492 -1.6034 -0.2116  0.2714
23972SOL     OW73356   5.496   6.965   9.355  0.2235 -0.2783  0.4915
23972SOL    HW173357   5.435   6.963   9.281 -0.2634  0.6150  0.8505
23972SOL    HW273358   5.560   6.896   9.336  0.2727  0.1260 -0.8996
23973SOL     OW73359   7.346   7.152  11.226 -0.6498  0.6929 -0.3872
23973SOL    HW173360   7.378   7.117  11.308 -2.1685  0.2406  0.0482
23973SOL    HW273361   7.423   7.157  11.170  0.2618  0.2558  0.7935
23974SOL     OW73362   5.207   6.981  11.090  0.4683  0.1956  0.3371
23974SOL    HW173363   5.120   7.017  11.071  0.6264  0.7991  0.7293
23974SOL    HW273364   5.198   6.942  11.177  0.1933 -1.0884 -0.2422
23975SOL     OW73365   0.147   7.439   0.949  0.0898 -0.5992  0.0781
23975SOL    HW173366   0.074   7.434   0.888 -0.1845  1.7329  0.1191
23975SOL    HW273367   0.212   7.493   0.904  0.6919 -0.4861  1.0624
23976SOL     OW73368   7.344   7.450   9.658  0.2711 -0.0552 -0.0829
23976SOL    HW173369   7.398   7.384   9.701  0.0948  0.6027  1.2033
23976SOL    HW273370   7.399   7.484   9.588  1.6974  0.8198  1.3942
23977SOL     OW73371   6.625   1.215  11.635  0.0560  0.2538 -0.2845
23977SOL    HW173372   6.670   1.231  11.552 -0.8026 -0.4389 -0.8999
23977SOL    HW273373   6.536   1.247  11.620  0.2797  1.5564  0.8986
23978SOL     OW73374   6.291   7.834   0.037 -0.0053 -0.3829  0.4671
23978SOL    HW173375   6.367   7.797  -0.008 -0.5170  0.2001 -0.9288
23978SOL    HW273376   6.325   7.912   0.081 -0.1386  1.1242 -1.9173
23979SOL     OW73377   2.667   1.375  11.398  0.6490 -0.1575 -0.1228
23979SOL    HW173378   2.623   1.372  11.313 -0.1058 -2.0048  0.2846
23979SOL    HW273379   2.752   1.334  11.382  0.6434 -0.1908 -0.0685
23980SOL     OW73380   6.413   7.071  10.313 -0.1381 -0.2973  0.5061
23980SOL    HW173381   6.412   7.167  10.313 -2.2507 -0.2652  1.3904
23980SOL    HW273382   6.495   7.048  10.271  0.5153  1.9049  0.4593
23981SOL     OW73383   6.880   7.068  11.947 -0.2996 -0.1943 -0.3098
23981SOL    HW173384   6.833   7.006  12.003  0.9511 -2.5415 -1.6810
23981SOL    HW273385   6.961   7.021  11.922 -0.1292  1.2683 -2.8607
23982SOL     OW73386   1.759   0.201  12.367  0.0130  0.7421  0.4829
23982SOL    HW173387   1.703   0.178  12.293 -1.6559  0.3133  1.8205
23982SOL    HW273388   1.698   0.220  12.438  1.5682  1.0566  1.7892
23983SOL     OW73389   7.734   7.063  11.748  0.4724  0.0805  0.2212
23983SOL    HW173390   7.807   7.001  11.757  0.1257 -0.4844 -0.6595
23983SOL    HW273391   7.720   7.097  11.836  2.2526  0.7325  0.2962
23984SOL     OW73392   0.884   7.956  12.411  0.0642  0.5888 -0.2589
23984SOL    HW173393   0.910   7.864  12.417  0.8742  0.8743  0.9101
23984SOL    HW273394   0.966   8.003  12.403 -0.1490  1.3875  1.7198
23985SOL     OW73395   0.904   0.882   1.587 -0.4647  0.3614  0.3484
23985SOL    HW173396   0.906   0.976   1.608  0.4354  0.3837  0.1729
23985SOL    HW273397   0.992   0.851   1.608 -1.5111 -1.0404  3.0726
23986SOL     OW73398   1.959   7.845   2.198 -0.3747 -0.0531  0.7585
23986SOL    HW173399   2.051   7.870   2.203  0.8636 -3.5214 -1.3121
23986SOL    HW273400   1.948   7.781   2.269 -1.0759 -0.0573  0.6556
23987SOL     OW73401   0.427   2.135   2.513  0.3030 -0.5390  0.2855
23987SOL    HW173402   0.490   2.185   2.564  0.0286  0.9595 -0.7947
23987SOL    HW273403   0.449   2.152   2.422 -1.8529  0.3698 -0.1447
23988SOL     OW73404   7.671   1.920  11.803  0.5851 -0.4916  0.4599
23988SOL    HW173405   7.606   1.875  11.858  0.7491 -1.7922 -0.3793
23988SOL    HW273406   7.634   1.917  11.715  1.3615 -0.4304  0.1232
23989SOL     OW73407   0.692   6.370  11.660  0.1732 -0.0148 -0.4632
23989SOL    HW173408   0.625   6.393  11.595 -0.3001 -1.4620 -0.5139
23989SOL    HW273409   0.774   6.398  11.619 -0.2870  0.7146 -0.9089
23990SOL     OW73410   7.827   1.318  10.923 -0.3586  0.1664  0.4050
23990SOL    HW173411   7.913   1.304  10.963  0.1992  1.7797 -0.1466
23990SOL    HW273412   7.772   1.250  10.961  0.9747 -0.4423  1.3421
23991SOL     OW73413   2.247   1.717  12.341  0.2356 -0.0203 -0.0442
23991SOL    HW173414   2.228   1.766  12.261 -2.3328 -2.3495 -1.0736
23991SOL    HW273415   2.342   1.719  12.349  0.4742  1.5911 -2.2807
23992SOL     OW73416   0.328   0.691   0.441 -0.2010 -0.2959  0.5793
23992SOL    HW173417   0.335   0.775   0.487 -2.4412  0.9273 -1.1572
23992SOL    HW273418   0.301   0.714   0.353  1.4128 -2.7598 -0.6538
23993SOL     OW73419   7.632   1.105   0.698 -0.1231  0.3950  0.0311
23993SOL    HW173420   7.622   1.026   0.752 -2.1022  0.6180  0.0642
23993SOL    HW273421   7.583   1.173   0.745  0.0085  1.1701 -0.9154
23994SOL     OW73422   0.858   0.877   1.277  0.0514  0.2008 -0.3378
23994SOL    HW173423   0.825   0.876   1.367  0.2879  0.1512 -0.2498
23994SOL    HW273424   0.948   0.843   1.284  0.5607  1.4780 -0.3924
23995SOL     OW73425   0.141   0.728   0.196  0.1983 -0.2318  0.0257
23995SOL    HW173426   0.069   0.709   0.255 -0.4524 -0.7249 -0.8916
23995SOL    HW273427   0.169   0.642   0.163 -1.0920  0.1233 -2.2327
23996SOL     OW73428   7.302   1.266   1.360 -0.3837  0.1057 -0.0893
23996SOL    HW173429   7.262   1.352   1.348 -0.6862 -0.0759 -0.3672
23996SOL    HW273430   7.304   1.254   1.455 -2.1745 -0.4375 -0.0926
23997SOL     OW73431   7.190   0.460  11.446  0.2964 -0.4834  0.2618
23997SOL    HW173432   7.179   0.509  11.365  0.9036  0.1609  0.5629
23997SOL    HW273433   7.262   0.399  11.429  0.5448 -0.2223  0.3719
23998SOL     OW73434   7.057   0.480   0.260 -0.2209  0.2488  0.0033
23998SOL    HW173435   7.059   0.563   0.309  0.8931 -0.2241  0.7846
23998SOL    HW273436   7.013   0.419   0.319  0.7774 -0.2242  0.2696
23999SOL     OW73437   0.299   0.188   1.045  0.3071  0.6982  1.0613
23999SOL    HW173438   0.207   0.163   1.037 -0.5351  3.2000  1.8796
23999SOL    HW273439   0.321   0.168   1.136  0.2178  1.1612  1.1847
24000SOL     OW73440   0.291   2.324   4.646 -0.6373  0.2710 -0.0059
24000SOL    HW173441   0.302   2.256   4.580 -0.4353  0.3833 -0.0898
24000SOL    HW273442   0.375   2.370   4.647 -0.4676 -0.0468  0.6885
24001SOL     OW73443   6.479   7.873   1.314 -0.0230 -0.7662 -0.4111
24001SOL    HW173444   6.481   7.969   1.314  0.6435 -0.7538 -1.4802
24001SOL    HW273445   6.390   7.851   1.285 -0.3606 -0.4821  0.3990
24002SOL     OW73446   7.918   1.044   2.155  0.3326 -0.1433  0.1613
24002SOL    HW173447   7.977   1.024   2.228  0.0250  0.4387  0.5831
24002SOL    HW273448   7.831   1.022   2.188 -0.0261  1.7895  0.6577
24003SOL     OW73449   1.188   1.301  11.670 -0.0004  0.2393  0.4070
24003SOL    HW173450   1.206   1.228  11.730  1.2202  0.1312 -0.0563
24003SOL    HW273451   1.203   1.264  11.583 -0.7738  0.6640  0.0907
24004SOL     OW73452   7.143   7.075   0.112 -0.1890 -0.0597 -0.8125
24004SOL    HW173453   7.180   7.163   0.112 -0.2023 -0.0156  0.6410
24004SOL    HW273454   7.104   7.064   0.026 -0.9721  1.7040 -0.7243
24005SOL     OW73455   6.066   6.594   2.260  0.0955 -0.6627  0.3307
24005SOL    HW173456   6.032   6.652   2.328  0.6562 -0.3094  0.3093
24005SOL    HW273457   6.157   6.620   2.248 -0.2594 -0.0136 -1.2907
24006SOL     OW73458   0.839   1.303   2.180  0.1620 -0.5548 -0.2208
24006SOL    HW173459   0.784   1.229   2.155  0.3702 -0.6544 -0.3816
24006SOL    HW273460   0.925   1.266   2.195  0.4980 -0.2080 -1.2315
24007SOL     OW73461   7.517   1.146   1.291  0.1460  0.2848  0.2827
24007SOL    HW173462   7.580   1.218   1.279  0.5066  0.0203  0.5709
24007SOL    HW273463   7.432   1.190   1.297 -0.0996  0.4828 -2.9698
24008SOL     OW73464   0.400   0.501  11.871 -0.7494  0.1900  0.0154
24008SOL    HW173465   0.360   0.470  11.952  0.4416 -0.1435  0.4894
24008SOL    HW273466   0.494   0.497  11.887 -0.5020  0.4617 -1.2549
24009SOL     OW73467   0.514   7.798  12.411  0.1807 -0.2726 -0.2753
24009SOL    HW173468   0.441   7.743  12.441  0.5117 -0.8082 -0.4378
24009SOL    HW273469   0.578   7.793  12.482  0.7532 -1.1430 -0.8340
24010SOL     OW73470   6.197   7.913   1.880 -0.7011 -0.1204 -0.3698
24010SOL    HW173471   6.157   7.928   1.967 -0.3789  1.6686 -0.4848
24010SOL    HW273472   6.288   7.893   1.899 -0.9670 -1.2963 -0.2469
24011SOL     OW73473   1.110   0.050   2.159  0.0118  0.4660  0.2918
24011SOL    HW173474   1.176   0.120   2.158  0.1152  0.3973  1.1064
24011SOL    HW273475   1.099   0.029   2.252  0.1736 -0.7816  0.0522
24012SOL     OW73476   7.788   0.544   1.852  0.0207  0.5990 -0.1534
24012SOL    HW173477   7.699   0.561   1.880  0.4834  1.2282  0.9961
24012SOL    HW273478   7.787   0.453   1.822 -0.5282 -0.1373  1.9362
24013SOL     OW73479   7.411   7.995   1.369  0.2519 -0.2399 -0.1407
24013SOL    HW173480   7.417   7.921   1.429  0.9499 -0.3536 -0.3309
24013SOL    HW273481   7.492   8.044   1.385  0.4228 -0.2481 -0.9488
24014SOL     OW73482   0.300   0.786  11.196  0.4454  0.2355 -0.5973
24014SOL    HW173483   0.276   0.830  11.277  1.7427  0.8418 -0.5159
24014SOL    HW273484   0.225   0.800  11.138  0.1951  1.2524 -0.0596
24015SOL     OW73485   7.934   1.377   0.448 -0.2881 -0.3329 -0.4091
24015SOL    HW173486   8.023   1.409   0.463  0.4738 -2.5608  0.1798
24015SOL    HW273487   7.892   1.446   0.397  1.2208  1.5385  0.7743
24016SOL     OW73488   0.146   7.001  11.465 -0.3776 -0.4467 -0.6321
24016SOL    HW173489   0.174   7.092  11.454 -2.5034  0.6140  1.7175
24016SOL    HW273490   0.056   6.999  11.433  0.3982 -2.4328 -2.9995
24017SOL     OW73491   6.606   0.591   1.271  0.3018 -0.1508 -0.1432
24017SOL    HW173492   6.651   0.585   1.356  0.3881 -1.8587 -0.2794
24017SOL    HW273493   6.659   0.537   1.212 -0.7886 -0.4961 -0.8236
24018SOL     OW73494   7.182   1.114   1.129  0.6512  0.0700  0.3155
24018SOL    HW173495   7.188   1.139   1.221  2.1064  0.0424  0.2499
24018SOL    HW273496   7.191   1.018   1.129  2.0704  0.1796  0.0681
24019SOL     OW73497   7.366   1.833   1.136 -0.0804  0.5418 -0.2561
24019SOL    HW173498   7.345   1.786   1.217  1.7449 -0.9528 -0.5931
24019SOL    HW273499   7.360   1.766   1.068  0.6775  1.2434 -1.0315
24020SOL     OW73500   7.171   7.771   0.478 -0.0972  0.0048 -0.1080
24020SOL    HW173501   7.124   7.688   0.480  1.3009 -0.8320 -0.0947
24020SOL    HW273502   7.219   7.774   0.561 -0.2900  0.9259 -0.0158
24021SOL     OW73503   7.624   2.567   1.472  0.5669  0.1038 -0.1628
24021SOL    HW173504   7.684   2.554   1.544  1.0256 -0.5913 -0.6641
24021SOL    HW273505   7.554   2.503   1.486 -0.0654  0.8823  0.3978
24022SOL     OW73506   0.183   7.527   0.254  0.9342  0.1620  0.5256
24022SOL    HW173507   0.166   7.439   0.221  0.0774 -0.0397  1.4457
24022SOL    HW273508   0.272   7.547   0.225  1.2697 -1.1444  0.5787
24023SOL     OW73509   7.910   1.862   0.978 -0.3883 -0.1252 -0.0036
24023SOL    HW173510   7.832   1.807   0.967  0.1279 -1.0654  0.8126
24023SOL    HW273511   7.958   1.854   0.896  0.1989 -1.7815  0.4608
24024SOL     OW73512   7.122   1.067   9.438  0.3384 -0.1020 -0.4942
24024SOL    HW173513   7.038   1.057   9.484 -0.1923 -0.7389 -1.5632
24024SOL    HW273514   7.164   0.981   9.448 -0.9913 -1.2301 -3.4543
24025SOL     OW73515   1.681   2.286   0.516  0.0903  0.2072 -0.0307
24025SOL    HW173516   1.652   2.217   0.455  0.6129 -0.6446  0.6578
24025SOL    HW273517   1.622   2.359   0.499  0.2127 -0.0073 -1.5506
24026SOL     OW73518   6.701   1.470   1.023 -0.6759 -0.1080  0.9891
24026SOL    HW173519   6.634   1.528   0.986  0.3046  0.3838 -0.0982
24026SOL    HW273520   6.660   1.384   1.025 -1.6874  0.3630  1.3360
24027SOL     OW73521   1.122   2.628   0.673  0.1167  0.4590 -0.0561
24027SOL    HW173522   1.042   2.593   0.635  0.8574 -0.8592 -0.4397
24027SOL    HW273523   1.093   2.670   0.755 -0.7492 -1.5552  0.7209
24028SOL     OW73524   0.163   0.907   0.828 -0.1589  0.3792 -0.4985
24028SOL    HW173525   0.257   0.891   0.823 -0.4302 -1.1200 -1.3548
24028SOL    HW273526   0.123   0.820   0.828 -1.5566  0.9848 -0.3624
24029SOL     OW73527   6.928   2.691   1.796 -0.2683 -0.0163  0.0183
24029SOL    HW173528   6.878   2.746   1.735  1.4149  1.3742 -0.1936
24029SOL    HW273529   7.012   2.677   1.752 -0.1162 -1.5812  0.7309
24030SOL     OW73530   0.348   6.607  12.102  0.1769  0.5078  0.3663
24030SOL    HW173531   0.395   6.537  12.058  0.4139  0.6054  0.4683
24030SOL    HW273532   0.408   6.682  12.100 -0.4134  0.9943 -0.5801
24031SOL     OW73533   0.768   1.171  11.257 -0.0313 -0.5384 -0.3404
24031SOL    HW173534   0.809   1.243  11.210 -0.1686  0.3622  0.8804
24031SOL    HW273535   0.803   1.092  11.216  1.3811  0.2148 -0.6250
24032SOL     OW73536   7.530   0.758   1.456  0.1843  0.4401  0.0609
24032SOL    HW173537   7.484   0.674   1.450 -1.4392  1.2854  0.0529
24032SOL    HW273538   7.591   0.756   1.382  0.5090 -0.8963  0.3241
24033SOL     OW73539   7.524   0.592   1.194 -0.0579  0.4357  0.0954
24033SOL    HW173540   7.432   0.572   1.211  0.0334 -0.9533 -0.9120
24033SOL    HW273541   7.544   0.547   1.111  1.7899 -0.1127  0.7858
24034SOL     OW73542   1.584   1.672   2.932 -0.5045 -0.1575 -0.3899
24034SOL    HW173543   1.498   1.713   2.932 -0.2752  0.4775 -2.8724
24034SOL    HW273544   1.645   1.742   2.952 -0.2681  0.4294 -2.8538
24035SOL     OW73545   7.713   2.282   1.478 -0.8061  0.2258 -0.2068
24035SOL    HW173546   7.784   2.269   1.416 -0.2273  0.9341  0.3029
24035SOL    HW273547   7.634   2.254   1.430 -0.2466 -0.1710 -0.9090
24036SOL     OW73548   0.718   7.720  11.808  0.2019 -0.1190 -0.2511
24036SOL    HW173549   0.628   7.706  11.779  0.6716 -0.2882 -1.6906
24036SOL    HW273550   0.740   7.639  11.854 -1.0344  0.7188  1.9960
24037SOL     OW73551   7.918   1.173   1.480 -0.7544  0.0219  0.2421
24037SOL    HW173552   7.881   1.115   1.414  1.5213 -0.0626 -1.0631
24037SOL    HW273553   7.988   1.122   1.521  0.3263  1.3122  0.0927
24038SOL     OW73554   0.349   0.382   1.424 -0.0703 -0.0010 -0.6988
24038SOL    HW173555   0.389   0.376   1.511 -0.6836 -1.2890 -0.4820
24038SOL    HW273556   0.355   0.474   1.401 -1.2498  0.6552  1.3745
24039SOL     OW73557   7.927   0.423  10.890  0.1112  0.1767  0.0389
24039SOL    HW173558   7.965   0.351  10.839 -0.6779  0.2391 -0.6520
24039SOL    HW273559   7.951   0.502  10.842 -0.2938  0.2651 -0.0209
24040SOL     OW73560   0.080   1.020   2.386  0.2033  0.5309 -0.5550
24040SOL    HW173561   0.150   0.993   2.326 -0.8298 -1.4441 -0.9554
24040SOL    HW273562   0.110   0.990   2.472  0.1221  0.2168 -0.6347
24041SOL     OW73563   0.960   0.553   2.516  0.1659  0.2547 -0.4116
24041SOL    HW173564   0.946   0.480   2.576 -1.3487  1.0360  0.2389
24041SOL    HW273565   1.055   0.555   2.502  0.3843 -0.9045  0.7202
24042SOL     OW73566   7.633   7.279   0.852  0.3198 -0.0435  0.3496
24042SOL    HW173567   7.638   7.371   0.828 -0.1113 -0.1434 -0.1276
24042SOL    HW273568   7.653   7.232   0.771  1.2530 -0.3689  0.7525
24043SOL     OW73569   0.761   2.737   4.372  0.4354  0.2970 -0.1665
24043SOL    HW173570   0.718   2.658   4.339  0.1257  1.3038 -2.3251
24043SOL    HW273571   0.701   2.808   4.350  0.5324  1.1481  2.0674
24044SOL     OW73572   0.199   0.345   2.634 -0.2001  0.4533  0.1066
24044SOL    HW173573   0.193   0.278   2.565 -3.0306 -0.2899  0.9101
24044SOL    HW273574   0.148   0.419   2.600 -1.9887 -0.0788  1.4424
24045SOL     OW73575   7.286   2.085   1.267  0.0426  0.2869  0.4535
24045SOL    HW173576   7.252   2.079   1.356 -1.0280  1.0597  0.1134
24045SOL    HW273577   7.294   1.994   1.238  0.0414  0.0418  1.2021
24046SOL     OW73578   6.635   2.943   0.807  0.3057  0.1181 -0.3000
24046SOL    HW173579   6.720   2.927   0.849  0.4400  0.3738 -0.4648
24046SOL    HW273580   6.615   3.034   0.827 -0.1407 -0.0667  0.0981
24047SOL     OW73581   0.021   2.576   2.790 -0.3819 -0.5138  0.3319
24047SOL    HW173582   0.041   2.522   2.866 -2.6084 -1.0350  0.6164
24047SOL    HW273583  -0.009   2.659   2.827  0.7939  0.0984 -0.0522
24048SOL     OW73584   7.667   1.520   2.566 -0.3572  0.2953 -0.2252
24048SOL    HW173585   7.753   1.525   2.607 -0.3374 -0.0001 -0.2242
24048SOL    HW273586   7.609   1.488   2.635 -0.1559 -1.0421 -0.6448
24049SOL     OW73587   7.040   0.414   1.747  0.2314 -0.3912  0.6075
24049SOL    HW173588   7.092   0.334   1.749  1.0765  0.1380  0.3738
24049SOL    HW273589   7.068   0.463   1.825  0.5349  0.1692  0.1529
24050SOL     OW73590   0.208   2.834   3.388  0.3417  0.2953  0.1179
24050SOL    HW173591   0.134   2.791   3.347 -0.1148  0.2668  0.9525
24050SOL    HW273592   0.218   2.916   3.340 -0.9551  0.8286  0.7412
24051SOL     OW73593   2.042   0.122   1.496  0.4425 -0.0800  0.1333
24051SOL    HW173594   2.039   0.055   1.564 -0.7338  1.3864  1.6253
24051SOL    HW273595   1.980   0.189   1.526 -0.7942  0.2627 -2.8194
24052SOL     OW73596   6.478   0.838   3.412 -0.1942 -0.2732 -0.3064
24052SOL    HW173597   6.395   0.840   3.366 -0.5331 -0.3085  0.3007
24052SOL    HW273598   6.466   0.896   3.487  0.7441  0.7470 -0.9020
24053SOL     OW73599   0.670   0.533   1.247 -0.3948 -0.2311 -0.1854
24053SOL    HW173600   0.730   0.462   1.265  1.3043  1.1488 -0.1898
24053SOL    HW273601   0.616   0.541   1.326  0.6577 -0.3177  0.5475
24054SOL     OW73602   6.842   1.780   2.564 -0.3967  0.1990  0.1047
24054SOL    HW173603   6.873   1.715   2.628 -0.9981 -0.9446 -0.7373
24054SOL    HW273604   6.921   1.827   2.538  0.5041 -1.8528 -1.0952
24055SOL     OW73605   1.352   2.313   3.271  0.1510 -0.1854 -0.5544
24055SOL    HW173606   1.302   2.377   3.321  1.3716 -1.1161  1.9977
24055SOL    HW273607   1.443   2.342   3.278  0.4231 -0.6529 -1.8019
24056SOL     OW73608   0.296   0.340   4.386 -0.1277 -0.0369  0.4802
24056SOL    HW173609   0.312   0.362   4.295 -0.3774 -1.1761  0.1393
24056SOL    HW273610   0.365   0.385   4.435 -0.8760  1.8126 -0.0895
24057SOL     OW73611   7.779   2.128   1.695 -0.0661  0.7307 -0.3647
24057SOL    HW173612   7.775   2.216   1.657 -1.4101  0.6193 -0.5268
24057SOL    HW273613   7.832   2.078   1.633  0.8857  1.4538 -0.1725
24058SOL     OW73614   6.712   3.359   2.153 -0.4050 -0.3046  0.3510
24058SOL    HW173615   6.648   3.417   2.113 -0.2097 -0.4792 -0.2223
24058SOL    HW273616   6.794   3.407   2.148 -0.0148 -1.0667 -1.1656
24059SOL     OW73617   0.989   3.001   3.488 -0.3613 -0.2407 -0.6665
24059SOL    HW173618   1.019   3.083   3.527  1.2902 -1.0283 -0.1658
24059SOL    HW273619   1.002   3.014   3.394 -0.0278  0.0534 -0.5847
24060SOL     OW73620   7.042   0.060   2.250 -0.5089  0.0044  0.0452
24060SOL    HW173621   7.132   0.029   2.247 -0.7819 -0.8622  0.5657
24060SOL    HW273622   7.012   0.039   2.338 -0.5668  2.1997  0.5922
24061SOL     OW73623   5.067   2.594   1.589  0.2023 -0.1823  0.6734
24061SOL    HW173624   4.977   2.599   1.559  0.7539 -1.1030 -1.3295
24061SOL    HW273625   5.083   2.501   1.602  1.6414 -0.3926 -1.8466
24062SOL     OW73626   7.463   0.674   2.675  0.6447  0.4795 -0.5378
24062SOL    HW173627   7.537   0.624   2.712  0.9710  1.1402 -0.2802
24062SOL    HW273628   7.443   0.739   2.742  0.2732  0.7457 -0.9057
24063SOL     OW73629   7.478   6.891   0.725  0.1721 -0.2994 -0.1395
24063SOL    HW173630   7.468   6.910   0.631 -0.6996  2.0208  0.3578
24063SOL    HW273631   7.389   6.895   0.759  0.6593  0.5589  1.0683
24064SOL     OW73632   7.770   0.026   0.455 -0.2216 -0.5076  0.4606
24064SOL    HW173633   7.827  -0.049   0.438 -1.7974 -1.4994 -0.8594
24064SOL    HW273634   7.802   0.063   0.537  2.2397 -1.0249 -0.1755
24065SOL     OW73635   5.362   1.789   2.427 -0.6335  0.0274 -0.4288
24065SOL    HW173636   5.395   1.794   2.517 -0.2844  1.8603 -0.6266
24065SOL    HW273637   5.364   1.695   2.406  1.2984 -0.2401  0.7235
24066SOL     OW73638   6.644   2.236   2.753 -0.3739 -0.0500  0.1341
24066SOL    HW173639   6.681   2.321   2.733  0.7156  0.2080  2.8800
24066SOL    HW273640   6.717   2.175   2.744 -0.8018 -0.4992 -0.4036
24067SOL     OW73641   7.552   2.420   5.368 -0.4008 -0.6600  0.1258
24067SOL    HW173642   7.588   2.424   5.280  0.5675 -2.2056  0.4184
24067SOL    HW273643   7.515   2.507   5.383  0.4319 -0.0228 -1.3707
24068SOL     OW73644   5.983   2.654   2.324 -0.8084 -0.8010  0.0048
24068SOL    HW173645   5.940   2.631   2.241  0.8879  0.0920 -1.1680
24068SOL    HW273646   5.969   2.749   2.332 -0.6455 -0.8234  0.5738
24069SOL     OW73647   7.088   0.314   2.111 -0.1612  0.8528  0.2866
24069SOL    HW173648   7.168   0.301   2.060  0.1921  1.2488  0.7363
24069SOL    HW273649   7.060   0.225   2.133 -0.9723  0.6018 -1.5669
24070SOL     OW73650   7.224   0.589   3.189 -0.1775  0.1085  0.7941
24070SOL    HW173651   7.271   0.510   3.162 -0.6568 -0.0957  0.5383
24070SOL    HW273652   7.133   0.560   3.200 -0.8296  1.0485 -1.4329
24071SOL     OW73653   6.556   1.697   2.690  0.1633  0.5547  0.3786
24071SOL    HW173654   6.633   1.712   2.635  1.2034  1.2073  1.9527
24071SOL    HW273655   6.504   1.777   2.679  0.6479  0.9300  0.7766
24072SOL     OW73656   6.965   0.410   2.895 -0.3462  0.2855  0.1700
24072SOL    HW173657   6.873   0.395   2.874 -1.4895  2.5583  2.8719
24072SOL    HW273658   6.990   0.484   2.839 -0.8958  1.0676  0.9156
24073SOL     OW73659   0.234   2.178   3.936  0.2390 -0.6832  0.2435
24073SOL    HW173660   0.222   2.174   3.841  0.2739  2.1365  0.0347
24073SOL    HW273661   0.314   2.127   3.952  1.2593  0.2580 -1.5047
24074SOL     OW73662   7.326   1.898   2.976  0.5953 -0.3886  0.0877
24074SOL    HW173663   7.397   1.838   2.953 -0.0597 -0.5139 -1.7067
24074SOL    HW273664   7.347   1.979   2.928 -0.2975 -0.3132 -0.1832
24075SOL     OW73665   1.594   6.989   4.235 -0.1233  0.4521  0.3107
24075SOL    HW173666   1.656   6.916   4.230 -0.4279  0.1368  0.9983
24075SOL    HW273667   1.510   6.947   4.259 -0.8588  0.7324 -1.6212
24076SOL     OW73668   5.985   2.161   3.216 -0.0022 -0.1663 -0.7219
24076SOL    HW173669   5.911   2.220   3.201 -1.8297 -2.1174  0.1410
24076SOL    HW273670   5.975   2.093   3.150 -0.2501 -1.5814  0.7172
24077SOL     OW73671   6.884   7.767   3.091 -0.2139  0.8182  0.1668
24077SOL    HW173672   6.857   7.854   3.122 -1.7930 -0.3931  2.5802
24077SOL    HW273673   6.829   7.706   3.141  4.0994 -1.8089  2.3108
24078SOL     OW73674   0.854   2.236   5.645  0.0171  0.1781 -0.1240
24078SOL    HW173675   0.883   2.252   5.556  1.8054 -0.5832  0.2869
24078SOL    HW273676   0.886   2.148   5.666 -1.0817  0.0104  0.9988
24079SOL     OW73677   1.143   1.741   1.763  0.2758  0.5035  0.2321
24079SOL    HW173678   1.159   1.788   1.845 -0.4661  1.2701 -0.0530
24079SOL    HW273679   1.214   1.769   1.706 -0.3160  1.5166 -0.0266
24080SOL     OW73680   0.455   0.672   1.905  0.0809 -0.3309  0.6051
24080SOL    HW173681   0.395   0.656   1.832 -0.7823 -1.6386  1.5635
24080SOL    HW273682   0.531   0.617   1.886 -0.1265 -0.6410  0.6738
24081SOL     OW73683   7.390   0.241   1.014 -0.2555 -0.1442  0.5777
24081SOL    HW173684   7.485   0.237   1.025 -0.3081 -1.5008  0.8002
24081SOL    HW273685   7.356   0.253   1.103 -0.2763  1.1668  0.4046
24082SOL     OW73686   7.573   2.881   2.432 -0.4067 -0.6493 -0.4879
24082SOL    HW173687   7.651   2.902   2.381 -0.4012  0.0350 -0.2091
24082SOL    HW273688   7.604   2.817   2.497  0.7430  1.9241  1.7224
24083SOL     OW73689   7.116   1.377   4.584  0.6503  0.1125 -0.1701
24083SOL    HW173690   7.039   1.433   4.579  0.0181 -0.8177 -2.7404
24083SOL    HW273691   7.189   1.437   4.596 -0.2224  1.2860 -0.5268
24084SOL     OW73692   7.226   2.398   3.662  0.0412  0.4410  0.2917
24084SOL    HW173693   7.168   2.457   3.711 -1.2924 -0.7006  0.1638
24084SOL    HW273694   7.307   2.397   3.713 -0.0022  2.1323  0.4500
24085SOL     OW73695   2.162   2.156   1.744  0.1652 -0.0740  0.3284
24085SOL    HW173696   2.098   2.219   1.710 -0.2265 -0.8138 -0.3259
24085SOL    HW273697   2.223   2.210   1.794 -0.5303  0.7482  0.3270
24086SOL     OW73698   6.586   0.594   3.433 -0.4085  0.5165 -0.4531
24086SOL    HW173699   6.670   0.589   3.478 -0.0817  0.1574 -1.0910
24086SOL    HW273700   6.559   0.686   3.442  0.0925  0.6540 -0.3163
24087SOL     OW73701   7.188   0.841  12.473 -0.2205 -0.2586 -0.5267
24087SOL    HW173702   7.180   0.868  12.565 -0.3288 -1.0748 -0.2856
24087SOL    HW273703   7.282   0.831  12.458 -0.1585  0.5040 -0.7036
24088SOL     OW73704   0.703   1.068   2.045 -0.0691  0.4318  0.3795
24088SOL    HW173705   0.733   0.980   2.066 -0.7307  0.0704 -0.1806
24088SOL    HW273706   0.636   1.056   1.978 -2.3491  1.1079  2.3975
24089SOL     OW73707   5.908   2.383   4.992  0.3614  0.5395  0.4735
24089SOL    HW173708   5.871   2.441   5.059 -2.5494 -0.3496 -0.2219
24089SOL    HW273709   5.836   2.370   4.930  1.5979 -2.0725 -0.5273
24090SOL     OW73710   6.273   2.403   3.526  0.6740  0.2598 -0.0613
24090SOL    HW173711   6.340   2.339   3.500  1.8569  1.4432 -0.0587
24090SOL    HW273712   6.276   2.401   3.622 -1.6125 -1.9786  0.0716
24091SOL     OW73713   6.977   1.277   3.217 -0.5966 -0.1328  0.0955
24091SOL    HW173714   7.053   1.311   3.169 -0.2526 -0.4244  0.4259
24091SOL    HW273715   6.912   1.348   3.212  0.1745  0.6615  0.9180
24092SOL     OW73716   6.743   2.780   4.289 -0.4456  0.5557 -0.8988
24092SOL    HW173717   6.692   2.742   4.360  0.7024 -0.4151 -0.5513
24092SOL    HW273718   6.681   2.832   4.239 -1.4518  0.5625  0.3234
24093SOL     OW73719   7.935   1.924   2.963  0.3949 -0.0756 -0.0156
24093SOL    HW173720   7.998   1.874   2.913 -0.4169 -0.1346 -1.0077
24093SOL    HW273721   7.859   1.933   2.905  0.2828  1.7782  0.3578
24094SOL     OW73722   6.504   1.665   1.762  0.1896 -0.7476 -0.0365
24094SOL    HW173723   6.481   1.580   1.726 -0.2868 -0.8031  0.3902
24094SOL    HW273724   6.542   1.646   1.848 -2.9187 -0.3998  1.5594
24095SOL     OW73725   1.023   3.395   4.308  0.6483 -1.1784 -0.3474
24095SOL    HW173726   0.948   3.337   4.314 -1.4029  1.2798 -0.2794
24095SOL    HW273727   1.013   3.439   4.223  0.7608  0.6619  0.5272
24096SOL     OW73728   7.746   0.069  11.460 -0.0038  0.0140  0.4512
24096SOL    HW173729   7.712   0.103  11.543 -1.9488 -2.2493  0.7059
24096SOL    HW273730   7.794  -0.010  11.485 -2.2298 -1.8022 -0.5934
24097SOL     OW73731   0.195   1.355   2.584  0.3030  0.0878 -0.2627
24097SOL    HW173732   0.132   1.336   2.515  1.0197  0.2404 -0.9748
24097SOL    HW273733   0.279   1.328   2.548  0.7037  0.2301  0.5330
24098SOL     OW73734   1.632   0.974   1.760 -0.1935 -0.2354 -0.6541
24098SOL    HW173735   1.675   1.050   1.720  0.8823 -0.6524 -0.3197
24098SOL    HW273736   1.637   0.906   1.694  1.9033 -1.0351  0.2354
24099SOL     OW73737   1.683   1.885   5.048 -0.1534 -0.4885  0.1435
24099SOL    HW173738   1.730   1.947   5.105 -1.4201  0.4499  0.2041
24099SOL    HW273739   1.595   1.921   5.041 -0.1993 -0.8741 -1.9650
24100SOL     OW73740   7.314   2.920   2.511  0.2983 -0.0199  0.4577
24100SOL    HW173741   7.402   2.902   2.478  0.3794  3.4879 -1.6343
24100SOL    HW273742   7.257   2.865   2.457  1.0040 -0.6405  0.3183
24101SOL     OW73743   2.064   3.450   2.946  0.8282  0.0778  0.0445
24101SOL    HW173744   2.097   3.513   2.883  0.0255 -0.7441 -1.2352
24101SOL    HW273745   2.109   3.472   3.028  0.7489  2.1194 -0.4236
24102SOL     OW73746   1.315   0.325   1.707  0.0372  0.4157  0.4372
24102SOL    HW173747   1.340   0.309   1.616  0.9019  1.0256  0.5527
24102SOL    HW273748   1.226   0.291   1.714  0.7882 -1.8999 -0.0155
24103SOL     OW73749   7.714   1.549   1.871 -0.2877  0.2137 -0.3497
24103SOL    HW173750   7.704   1.529   1.964 -1.8230  0.5713 -0.4100
24103SOL    HW273751   7.797   1.509   1.846  1.1059  1.6995  1.6018
24104SOL     OW73752   0.303   0.555   3.485 -0.1410  0.4753  0.1580
24104SOL    HW173753   0.323   0.581   3.394 -0.0688  1.0186  0.3252
24104SOL    HW273754   0.317   0.460   3.486  1.7414  0.7141  0.0748
24105SOL     OW73755   7.958   0.481   5.129  0.3353 -0.5654 -0.3085
24105SOL    HW173756   7.951   0.564   5.175 -1.9944 -0.8378 -0.0378
24105SOL    HW273757   7.872   0.440   5.140 -0.0504 -1.1225 -4.0098
24106SOL     OW73758   6.967   1.291   4.221 -0.5526  0.6153 -0.6216
24106SOL    HW173759   7.052   1.314   4.258 -1.5669 -0.4212  2.7002
24106SOL    HW273760   6.911   1.367   4.240 -1.0172  0.1874 -0.2435
24107SOL     OW73761   7.758   3.570   5.078  0.4117  0.0824 -0.1396
24107SOL    HW173762   7.813   3.635   5.121 -1.2110  0.7956  0.9623
24107SOL    HW273763   7.710   3.619   5.011  0.3164 -0.2956 -0.3556
24108SOL     OW73764   1.746   1.629   7.027 -0.1624  0.7168  0.2001
24108SOL    HW173765   1.678   1.656   6.966  1.4522  0.4032 -1.8490
24108SOL    HW273766   1.794   1.710   7.047  1.7097  0.2706 -2.1306
24109SOL     OW73767   1.256   2.411   4.904  0.2002  0.3613  0.5213
24109SOL    HW173768   1.204   2.392   4.982 -0.5982  0.3444 -0.0108
24109SOL    HW273769   1.210   2.481   4.860 -0.1101 -0.5379 -0.6436
24110SOL     OW73770   7.864   2.398   4.766  0.1033  1.0317  0.1248
24110SOL    HW173771   7.883   2.353   4.849 -1.2941  0.2752  0.0703
24110SOL    HW273772   7.837   2.486   4.792  1.6169  1.4775  0.3152
24111SOL     OW73773   6.064   2.033   4.903 -0.0835  0.3351  0.1931
24111SOL    HW173774   5.990   2.055   4.846 -2.1791  0.3744  2.7276
24111SOL    HW273775   6.098   2.118   4.931  1.3891  0.3305 -1.3953
24112SOL     OW73776   7.112   3.181   3.077 -0.9856  0.1177  0.0827
24112SOL    HW173777   7.084   3.116   3.013  0.9961  0.1933 -0.9451
24112SOL    HW273778   7.099   3.265   3.034 -1.6548  0.3127  0.6390
24113SOL     OW73779   6.829   2.413   4.975 -0.8707  0.2496 -0.0192
24113SOL    HW173780   6.897   2.467   4.936  1.0447 -1.7837  0.2848
24113SOL    HW273781   6.812   2.453   5.060 -0.9917  1.4910 -0.6104
24114SOL     OW73782   1.408   7.009   4.978 -0.0157 -0.0348 -0.0060
24114SOL    HW173783   1.482   6.959   4.944 -1.0031 -0.7353 -1.1851
24114SOL    HW273784   1.447   7.088   5.015  1.5931 -1.6358  1.9439
24115SOL     OW73785   1.135   0.814   3.825 -0.3731  0.1961  0.1259
24115SOL    HW173786   1.127   0.723   3.854  1.1958  0.3739  1.3066
24115SOL    HW273787   1.050   0.836   3.788 -0.9968 -1.5375  0.4602
24116SOL     OW73788   1.642   6.027   5.919  0.5131  0.2057 -0.0129
24116SOL    HW173789   1.629   6.102   5.862 -1.2155  0.5633  0.7804
24116SOL    HW273790   1.601   6.052   6.002  0.5096 -1.3441  0.4924
24117SOL     OW73791   1.288   0.309   4.324 -0.1100 -0.4618 -0.4007
24117SOL    HW173792   1.294   0.224   4.368  1.2790 -1.3548 -2.1715
24117SOL    HW273793   1.364   0.358   4.355  0.1524 -0.6005 -0.8210
24118SOL     OW73794   7.063   2.246   5.590  0.4110  0.5638  0.2819
24118SOL    HW173795   7.120   2.309   5.546  2.1103 -0.7637  0.4752
24118SOL    HW273796   6.992   2.230   5.528  1.3216  0.7692 -0.8566
24119SOL     OW73797   7.477   1.690   5.320  0.3152  0.7311  0.1175
24119SOL    HW173798   7.480   1.784   5.337 -0.9470  0.5015  1.8382
24119SOL    HW273799   7.542   1.653   5.379 -0.5521  0.3712  0.8727
24120SOL     OW73800   6.585   1.268   4.167  0.2201  0.0480 -0.5426
24120SOL    HW173801   6.522   1.222   4.223 -0.1033 -0.2914 -1.1764
24120SOL    HW273802   6.646   1.310   4.228  1.5463 -2.5720  0.1038
24121SOL     OW73803   0.663   1.049   4.981 -0.1941  0.3683 -0.6563
24121SOL    HW173804   0.654   1.042   5.076 -0.5554 -2.0376 -0.8070
24121SOL    HW273805   0.572   1.051   4.948 -0.0736  1.4646 -0.9483
24122SOL     OW73806   0.890   2.145   3.401  0.6347  0.8614  0.3219
24122SOL    HW173807   0.901   2.212   3.468 -0.3898  0.9498  0.4279
24122SOL    HW273808   0.815   2.093   3.432  1.7214 -0.6750  0.5204
24123SOL     OW73809   0.661   0.450   5.509 -0.1604 -0.0994  0.0891
24123SOL    HW173810   0.658   0.446   5.414  0.1596  1.8817 -0.0358
24123SOL    HW273811   0.570   0.467   5.535  0.0956  1.6736 -0.0469
24124SOL     OW73812   7.516   1.101   5.872  0.4992 -0.2543  0.1227
24124SOL    HW173813   7.527   1.191   5.901  2.9958 -0.9369  1.5882
24124SOL    HW273814   7.541   1.103   5.779 -1.5552  0.8754 -0.4552
24125SOL     OW73815   7.785   2.956   6.898  0.5933 -0.5345  0.5794
24125SOL    HW173816   7.699   2.998   6.892 -0.2908 -2.3791 -0.7121
24125SOL    HW273817   7.839   3.003   6.834  0.7826  1.0229  1.8166
24126SOL     OW73818   6.837   0.097   3.374 -0.1035  0.4406  0.1169
24126SOL    HW173819   6.821   0.062   3.286  0.2022  2.1275 -0.6568
24126SOL    HW273820   6.762   0.154   3.391 -1.2824 -1.4804  1.9092
24127SOL     OW73821   1.650   0.080   3.690 -0.0383 -0.0684 -0.4247
24127SOL    HW173822   1.572   0.101   3.741 -0.2851  0.6348 -1.0718
24127SOL    HW273823   1.615   0.047   3.607  0.3454  0.4246 -0.7850
24128SOL     OW73824   0.350   7.641   2.591  0.4568 -0.1028 -0.3894
24128SOL    HW173825   0.329   7.652   2.684  2.0341 -0.3095  0.0271
24128SOL    HW273826   0.386   7.726   2.565 -0.3362  0.0784 -0.9356
24129SOL     OW73827   6.528   0.625   4.333  0.3672 -0.1825 -0.0753
24129SOL    HW173828   6.570   0.678   4.401  0.3567 -0.6395  0.2877
24129SOL    HW273829   6.440   0.662   4.325  0.2476 -0.3576  0.4141
24130SOL     OW73830   1.710   1.413   6.676 -0.1451  0.1921 -0.3731
24130SOL    HW173831   1.644   1.413   6.607 -2.0129  0.1651  1.3197
24130SOL    HW273832   1.749   1.326   6.672 -0.0801  0.2547 -1.4862
24131SOL     OW73833   0.450   7.865   4.073 -0.9251 -0.7935 -0.1119
24131SOL    HW173834   0.510   7.829   4.138 -1.2205 -1.5638 -0.2658
24131SOL    HW273835   0.367   7.873   4.119 -1.0659 -1.0779 -0.3208
24132SOL     OW73836   1.113   1.558   4.313 -0.3607  0.3998 -0.3174
24132SOL    HW173837   1.086   1.599   4.395  0.6445  0.8186 -0.1844
24132SOL    HW273838   1.206   1.540   4.324 -0.3244  0.0003 -1.1763
24133SOL     OW73839   6.653   1.630   6.512  0.0004 -0.2516 -0.0324
24133SOL    HW173840   6.680   1.721   6.508  0.6290 -0.2334  2.7247
24133SOL    HW273841   6.564   1.633   6.547  0.4533 -0.6968  1.2164
24134SOL     OW73842   6.816   7.581   3.837  0.2315  0.1112  0.1434
24134SOL    HW173843   6.744   7.518   3.847  0.6868 -0.5026 -0.3706
24134SOL    HW273844   6.854   7.588   3.925 -0.0740 -0.0335  0.2890
24135SOL     OW73845   6.116   2.643   5.540  0.1566 -0.0942 -0.2441
24135SOL    HW173846   6.157   2.670   5.458  0.2054  0.3790 -0.0664
24135SOL    HW273847   6.022   2.658   5.525  0.1908  0.2563 -0.1174
24136SOL     OW73848   1.570   7.627   5.894  0.0751  0.0780 -0.1028
24136SOL    HW173849   1.598   7.695   5.955 -0.3614  0.1399  0.0347
24136SOL    HW273850   1.588   7.545   5.939  0.1079  0.1154 -0.0482
24137SOL     OW73851   1.048   0.310   4.519 -0.3890  0.2259 -0.4451
24137SOL    HW173852   1.003   0.250   4.579  0.2586 -0.1665 -0.3457
24137SOL    HW273853   1.139   0.308   4.547 -0.7233  3.3291  1.3201
24138SOL     OW73854   6.607   0.788   3.813  0.2137  0.0440 -0.5102
24138SOL    HW173855   6.667   0.840   3.760  0.5617 -0.0517 -0.2130
24138SOL    HW273856   6.533   0.770   3.755  0.9894 -0.8174 -1.2473
24139SOL     OW73857   6.628   1.900   6.435  0.6650 -0.3493 -0.4953
24139SOL    HW173858   6.587   1.986   6.430  0.6074 -0.3321  0.1400
24139SOL    HW273859   6.682   1.894   6.356  0.9855  0.4320 -0.3452
24140SOL     OW73860   7.604   2.547   3.858  0.4193  0.0409  0.2737
24140SOL    HW173861   7.629   2.630   3.900 -0.6332  0.5638 -0.1041
24140SOL    HW273862   7.545   2.505   3.920 -0.4995  0.4378 -0.3205
24141SOL     OW73863   0.173   0.827   3.168  0.3757 -0.1820 -0.3100
24141SOL    HW173864   0.101   0.801   3.225 -1.4292  0.8139 -2.0039
24141SOL    HW273865   0.142   0.806   3.080  1.3017  2.0837 -1.2373
24142SOL     OW73866   1.790   7.490   6.412  0.1771 -0.0597 -0.3074
24142SOL    HW173867   1.846   7.430   6.362  1.8136  1.4922 -0.4026
24142SOL    HW273868   1.798   7.460   6.503 -0.5190 -1.1034 -0.5674
24143SOL     OW73869   0.829   0.473   5.823  1.3208  0.0703  0.0143
24143SOL    HW173870   0.850   0.533   5.752 -0.0524 -0.4077 -0.8381
24143SOL    HW273871   0.877   0.393   5.802 -0.2695 -0.6097 -1.2795
24144SOL     OW73872   1.343   7.284   4.428 -0.8200 -0.5228 -0.1931
24144SOL    HW173873   1.375   7.356   4.373 -0.0526  0.5605  1.5770
24144SOL    HW273874   1.280   7.238   4.373  0.1182  0.3144 -2.0619
24145SOL     OW73875   0.021   2.476   5.188  0.3493  0.1817  0.0603
24145SOL    HW173876   0.048   2.506   5.275 -0.7608  0.5396  0.3056
24145SOL    HW273877   0.090   2.417   5.160  0.6317 -0.1028  1.2818
24146SOL     OW73878   1.523   3.629   4.045  0.2023  0.2969 -0.8124
24146SOL    HW173879   1.549   3.620   3.953  0.1297  0.7309 -0.8760
24146SOL    HW273880   1.579   3.697   4.080  0.3712 -0.0134 -0.4758
24147SOL     OW73881   7.875   3.727   4.331 -0.1013 -0.2487  0.0501
24147SOL    HW173882   7.782   3.751   4.337  0.2259  2.1155 -2.3699
24147SOL    HW273883   7.895   3.731   4.237  2.9071  1.3512  0.6392
24148SOL     OW73884   7.860   1.092   5.968  0.0424 -0.3640  0.2511
24148SOL    HW173885   7.822   1.157   6.027  0.6449 -0.2741  0.5471
24148SOL    HW273886   7.830   1.008   6.002  0.4763 -0.3190  0.7604
24149SOL     OW73887   7.211   1.080   4.383 -0.3432 -0.0629  0.1599
24149SOL    HW173888   7.148   1.132   4.433  0.9868  1.4177  0.3474
24149SOL    HW273889   7.244   1.016   4.446 -1.2844 -0.5473  0.1829
24150SOL     OW73890   0.479   1.406   7.682 -0.0290  0.2843 -0.5313
24150SOL    HW173891   0.442   1.492   7.661 -1.5434 -0.4978 -1.1814
24150SOL    HW273892   0.540   1.388   7.611 -0.1707  0.5415 -0.7185
24151SOL     OW73893   0.828   2.362   3.565  0.2878 -0.5888  0.6602
24151SOL    HW173894   0.737   2.375   3.589  0.3147  1.1120  0.0005
24151SOL    HW273895   0.853   2.443   3.520  2.7006 -0.1639  2.5667
24152SOL     OW73896   7.298   0.350   3.958 -0.4017  0.2349 -0.0999
24152SOL    HW173897   7.218   0.308   3.925 -0.9146  0.8012  0.3835
24152SOL    HW273898   7.300   0.327   4.051 -0.9761  1.6624  0.3016
24153SOL     OW73899   6.902   1.108   4.474 -0.0365 -0.1035 -0.1518
24153SOL    HW173900   6.858   1.147   4.398 -0.3354 -1.6264 -0.7995
24153SOL    HW273901   6.902   1.014   4.455 -1.3608 -0.6925  2.3776
24154SOL     OW73902   7.149   3.514   6.923  0.3149 -0.3225  0.1900
24154SOL    HW173903   7.200   3.526   7.003  2.9650 -0.1719 -1.3838
24154SOL    HW273904   7.058   3.520   6.951  1.1402  1.4587  2.9124
24155SOL     OW73905   0.117   1.293   3.474 -0.0392  0.1885 -0.2663
24155SOL    HW173906   0.097   1.373   3.426  0.0304 -0.4338 -1.3838
24155SOL    HW273907   0.055   1.292   3.547 -1.2852  0.3620 -1.2790
24156SOL     OW73908   7.104   0.494   3.787  0.3615  0.1339  0.5397
24156SOL    HW173909   7.189   0.538   3.792  1.9510 -2.6499  0.2366
24156SOL    HW273910   7.096   0.470   3.694 -1.0902  0.8790  0.4468
24157SOL     OW73911   0.128   0.683   2.896 -0.0347 -0.1128  0.2335
24157SOL    HW173912   0.156   0.592   2.890  0.4947 -0.1121  2.1858
24157SOL    HW273913   0.040   0.679   2.934  0.3961  0.1953  1.3179
24158SOL     OW73914   1.322   2.166   3.040 -0.0058  0.3176 -0.1690
24158SOL    HW173915   1.313   2.201   3.129 -0.1463 -2.3911  0.9885
24158SOL    HW273916   1.255   2.097   3.035  0.4767 -0.0531 -2.1204
24159SOL     OW73917   7.524   1.239   5.345  0.0472  0.1141  0.0389
24159SOL    HW173918   7.552   1.300   5.277  0.0002  1.0277  0.8172
24159SOL    HW273919   7.596   1.176   5.353 -0.1901 -0.3575 -1.2415
24160SOL     OW73920   7.121   2.441   4.678 -0.2575 -0.0206 -0.0700
24160SOL    HW173921   7.104   2.428   4.584 -0.0519  0.1473 -0.1319
24160SOL    HW273922   7.095   2.359   4.719 -0.9332  0.1254 -0.2010
24161SOL     OW73923   6.733   1.588   4.735 -0.0613  1.0517 -0.3235
24161SOL    HW173924   6.649   1.625   4.761  0.4346  1.7671  0.3120
24161SOL    HW273925   6.752   1.522   4.802 -0.7451 -0.0886 -1.2231
24162SOL     OW73926   6.542   2.918   5.089  0.5818  0.9370  0.2394
24162SOL    HW173927   6.570   2.937   5.179  1.2901 -0.8503  0.4316
24162SOL    HW273928   6.588   2.838   5.066 -2.0870 -0.4728 -0.5462
24163SOL     OW73929   7.101   0.575   7.192  0.1410 -0.4355 -1.0359
24163SOL    HW173930   7.161   0.642   7.160 -1.6978  2.1348  0.4840
24163SOL    HW273931   7.014   0.610   7.173 -0.9269 -2.0788  0.4623
24164SOL     OW73932   0.138   3.217   4.402 -0.0217  0.0683  0.1307
24164SOL    HW173933   0.155   3.311   4.400  0.9039 -0.0190  2.0554
24164SOL    HW273934   0.080   3.202   4.327  0.2501  2.0654 -0.5401
24165SOL     OW73935   0.279   2.462   4.037 -0.2157 -0.1443  0.1301
24165SOL    HW173936   0.279   2.479   4.131 -1.8795  0.9702 -0.0311
24165SOL    HW273937   0.268   2.367   4.030 -1.9041 -0.0503  1.0775
24166SOL     OW73938   6.862   1.652   4.214 -0.4752  0.5141 -0.7650
24166SOL    HW173939   6.918   1.712   4.263  0.2543  1.1035 -2.2522
24166SOL    HW273940   6.786   1.638   4.271 -0.0123  1.7316  0.2009
24167SOL     OW73941   0.240   2.245   3.649  0.1905 -0.2293  0.6500
24167SOL    HW173942   0.146   2.259   3.661 -0.2520 -1.6876 -0.8432
24167SOL    HW273943   0.273   2.331   3.624 -1.1969 -0.1824 -1.2240
24168SOL     OW73944   6.692   7.827   4.102 -0.5096  0.0571  0.0354
24168SOL    HW173945   6.686   7.873   4.186  0.5977 -0.2408  0.2985
24168SOL    HW273946   6.625   7.868   4.047 -2.3021 -0.7490  1.5185
24169SOL     OW73947   0.728   6.495   5.915  0.6154  0.1145  0.3350
24169SOL    HW173948   0.659   6.470   5.976 -1.5891  2.0233 -1.2106
24169SOL    HW273949   0.752   6.414   5.870 -0.8178 -0.5497  0.7318
24170SOL     OW73950   6.325   6.739   6.738 -0.8062 -0.2052 -0.4448
24170SOL    HW173951   6.409   6.783   6.752 -0.5488 -1.4057  2.3993
24170SOL    HW273952   6.267   6.775   6.804 -1.9666 -0.8091 -1.0977
24171SOL     OW73953   0.182   1.719   6.312 -0.5755 -0.2367 -0.8961
24171SOL    HW173954   0.251   1.775   6.347 -0.1969 -1.6435  0.7036
24171SOL    HW273955   0.147   1.768   6.237 -0.1265  2.0248  0.2944
24172SOL     OW73956   0.407   7.607   6.068 -0.8569  0.7657  0.5603
24172SOL    HW173957   0.322   7.598   6.110 -0.0878  0.0673  2.0624
24172SOL    HW273958   0.453   7.526   6.091  0.2665  1.1866 -0.1209
24173SOL     OW73959   7.072   0.333   7.062 -0.5436 -0.1800  0.1938
24173SOL    HW173960   7.004   0.340   7.130 -0.5001 -0.3563  0.2560
24173SOL    HW273961   7.106   0.422   7.054 -0.1010 -0.2785  0.8675
24174SOL     OW73962   1.020   1.149   7.571 -0.1301 -0.0502  0.0942
24174SOL    HW173963   1.058   1.081   7.627 -0.1057 -0.9572 -0.9893
24174SOL    HW273964   1.054   1.231   7.606  2.6486 -0.7971 -0.6451
24175SOL     OW73965   0.651   2.782   6.532  0.5197  0.3414  0.2012
24175SOL    HW173966   0.557   2.780   6.513  0.2011  0.5962  1.6628
24175SOL    HW273967   0.669   2.697   6.572  0.4392  1.1170  1.9478
24176SOL     OW73968   1.372   7.753   6.096 -0.2625 -0.1133  0.4414
24176SOL    HW173969   1.330   7.776   6.013 -0.4241 -1.0238  0.2604
24176SOL    HW273970   1.449   7.810   6.101  0.1690 -0.5800 -0.7022
24177SOL     OW73971   0.035   0.940   6.395  0.1354  0.4537  0.0640
24177SOL    HW173972  -0.044   0.994   6.403  0.8105  2.0242 -2.5778
24177SOL    HW273973   0.016   0.862   6.448 -2.7201  1.2605  0.4094
24178SOL     OW73974   7.654   0.989   7.856 -0.2409  0.1826 -0.4446
24178SOL    HW173975   7.674   0.983   7.763  2.9549  1.0511  0.0773
24178SOL    HW273976   7.721   1.046   7.892 -2.2833  1.1366  2.1987
24179SOL     OW73977   0.187   1.218   7.167 -0.9575 -0.5200 -0.2529
24179SOL    HW173978   0.205   1.147   7.229 -1.0541  0.2833  0.7238
24179SOL    HW273979   0.265   1.274   7.171 -0.0908 -1.4463 -2.3420
24180SOL     OW73980   2.582   0.824   7.298  0.6166 -0.3343 -0.2362
24180SOL    HW173981   2.603   0.881   7.372 -0.3462 -0.9800  0.5574
24180SOL    HW273982   2.555   0.741   7.337 -2.2158  0.0317 -1.1323
24181SOL     OW73983   1.096   7.237   5.882 -0.1170 -0.1771  0.0812
24181SOL    HW173984   1.122   7.152   5.916  0.8328  0.1107  0.0841
24181SOL    HW273985   1.176   7.275   5.846 -0.6497  0.4744 -0.4428
24182SOL     OW73986   0.983   0.339   6.416  0.6803  0.1426  0.1455
24182SOL    HW173987   0.941   0.384   6.489  0.0626 -0.6935  0.3239
24182SOL    HW273988   1.044   0.277   6.458  0.4575 -0.2094 -0.0433
24183SOL     OW73989   6.221   2.346   7.212  0.5142  0.8854  0.1280
24183SOL    HW173990   6.153   2.375   7.272  2.2223  2.5001  1.3925
24183SOL    HW273991   6.295   2.403   7.230  2.1874 -0.7093 -1.2780
24184SOL     OW73992   1.063   2.355   7.638  0.2960 -0.2509 -0.1514
24184SOL    HW173993   0.976   2.391   7.621 -0.0898  0.5790  2.8886
24184SOL    HW273994   1.056   2.314   7.724  2.9832  0.1530  0.3598
24185SOL     OW73995   0.950   7.111   7.024  0.0213 -1.1322  0.1673
24185SOL    HW173996   0.973   7.195   7.064  0.4727 -0.8952 -0.5658
24185SOL    HW273997   0.894   7.135   6.950  0.5449 -1.4434 -0.3312
24186SOL     OW73998   7.877   1.311   5.286  0.7045 -0.1082  0.3538
24186SOL    HW173999   7.956   1.356   5.256  0.1258  0.3819 -0.4509
24186SOL    HW274000   7.899   1.218   5.281  2.0881  0.0293  2.4972
24187SOL     OW74001   7.678   1.620   9.548 -0.4420  0.0689 -0.0704
24187SOL    HW174002   7.662   1.698   9.494  2.3967  0.3064 -0.6996
24187SOL    HW274003   7.720   1.558   9.488 -1.0203 -1.3089  0.8861
24188SOL     OW74004   7.536   0.639   6.383 -0.5935 -0.3449 -0.3374
24188SOL    HW174005   7.534   0.695   6.305  0.2763  0.9104  0.5093
24188SOL    HW274006   7.444   0.622   6.402 -0.8360 -1.9812 -2.5048
24189SOL     OW74007   1.744   1.684   9.236  0.0381 -0.3425 -0.0026
24189SOL    HW174008   1.765   1.652   9.324 -0.1884 -1.6366 -0.3932
24189SOL    HW274009   1.767   1.776   9.238  2.7695 -0.9363  0.5620
24190SOL     OW74010   0.210   0.656   5.008 -0.3092 -0.3110  0.1702
24190SOL    HW174011   0.293   0.678   4.965 -0.8111 -1.4726 -1.4844
24190SOL    HW274012   0.201   0.722   5.077 -0.0429  2.3868 -2.1994
24191SOL     OW74013   7.413   7.018   4.657 -0.5604  0.1725  0.1829
24191SOL    HW174014   7.409   6.986   4.747 -0.8423  0.7626  0.3812
24191SOL    HW274015   7.350   6.964   4.609 -0.3064 -0.2383  0.3058
24192SOL     OW74016   6.808   7.797   5.026  0.8571 -0.4477  0.3440
24192SOL    HW174017   6.797   7.802   4.931 -0.4296 -0.0328  0.4949
24192SOL    HW274018   6.725   7.761   5.058  0.5836  1.0636  1.4462
24193SOL     OW74019   2.592   6.648   6.707  0.1242  0.2542 -0.4643
24193SOL    HW174020   2.607   6.702   6.785  1.2874  0.3439 -0.7296
24193SOL    HW274021   2.576   6.560   6.742 -2.5464  0.8455  0.0156
24194SOL     OW74022   6.751   1.439   7.010 -0.5665 -0.1142  0.0590
24194SOL    HW174023   6.717   1.449   6.921 -0.7366  0.8250  0.2209
24194SOL    HW274024   6.840   1.475   7.005 -0.5329 -0.1741  0.2411
24195SOL     OW74025   7.104   1.835   7.233 -0.3255 -0.1992  0.1684
24195SOL    HW174026   7.152   1.811   7.154  2.4078  2.0389  0.9867
24195SOL    HW274027   7.155   1.799   7.305 -0.3411  1.4180  1.0496
24196SOL     OW74028   6.830   2.841   4.694  0.4005 -0.0999 -0.5045
24196SOL    HW174029   6.746   2.882   4.715  0.8067  1.3194 -1.5821
24196SOL    HW274030   6.820   2.751   4.727 -0.8355  0.5542  1.0769
24197SOL     OW74031   0.701   0.735   5.877  0.1293  0.2986 -0.3800
24197SOL    HW174032   0.757   0.797   5.831  1.4640 -0.9405 -0.5141
24197SOL    HW274033   0.763   0.673   5.918 -1.1312 -0.9484 -0.2873
24198SOL     OW74034   0.454   0.435   5.715 -0.5328  0.9671 -0.1082
24198SOL    HW174035   0.399   0.439   5.793 -0.4231  1.2950 -0.0474
24198SOL    HW274036   0.512   0.360   5.730  1.0372  2.3722  1.1475
24199SOL     OW74037   0.325   1.800   6.994  0.3350  0.3054 -0.3293
24199SOL    HW174038   0.383   1.869   6.962 -0.0946  0.7292 -0.1969
24199SOL    HW274039   0.245   1.808   6.943  0.0193  0.3550  0.1600
24200SOL     OW74040   0.403   6.114   6.955 -0.0372  0.1798 -0.8894
24200SOL    HW174041   0.395   6.171   6.879 -4.0214  0.5629 -0.3608
24200SOL    HW274042   0.360   6.032   6.929  1.8564 -1.1173 -0.2004
24201SOL     OW74043   0.906   7.613   5.120 -0.3315 -0.3417  0.2749
24201SOL    HW174044   0.880   7.523   5.140 -0.6888 -0.2918  0.0534
24201SOL    HW274045   0.974   7.633   5.184  1.3123 -1.5101 -1.0194
24202SOL     OW74046   0.332   2.568   5.729 -0.0192 -0.4371 -0.3275
24202SOL    HW174047   0.240   2.574   5.756  0.0493  1.0847 -0.3546
24202SOL    HW274048   0.328   2.528   5.642 -0.6622 -0.3413 -0.3505
24203SOL     OW74049   1.709   7.742   5.663  0.1248  0.3307 -0.4461
24203SOL    HW174050   1.680   7.659   5.699  1.1881 -0.0422 -0.4134
24203SOL    HW274051   1.628   7.789   5.641 -0.6232  0.6560  2.5484
24204SOL     OW74052   0.076   0.041   6.895 -0.0729 -0.8246  0.4424
24204SOL    HW174053   0.012   0.109   6.873  0.1498 -1.0561 -1.0640
24204SOL    HW274054   0.137   0.041   6.821  0.6283 -1.8263  0.9974
24205SOL     OW74055   0.030   0.633   5.379 -0.0867 -0.2059  0.0641
24205SOL    HW174056   0.081   0.687   5.319  0.2508 -2.7510 -2.1052
24205SOL    HW274057   0.094   0.599   5.441  0.6231 -1.8275 -1.4731
24206SOL     OW74058   7.878   0.479  10.346  0.4881 -0.2270 -0.0886
24206SOL    HW174059   7.927   0.397  10.338  1.1864  0.2382 -0.6231
24206SOL    HW274060   7.812   0.460  10.413 -0.4036 -1.7405 -1.2981
24207SOL     OW74061   7.181   2.022   6.827  0.2974  0.0484 -0.1293
24207SOL    HW174062   7.119   2.085   6.863 -0.2016 -1.2793  1.4391
24207SOL    HW274063   7.158   2.017   6.734 -1.9687 -0.3765  0.3855
24208SOL     OW74064   0.581   1.832   8.033 -0.6202 -0.1281 -0.0726
24208SOL    HW174065   0.612   1.923   8.030 -1.4319  0.1324 -1.4836
24208SOL    HW274066   0.628   1.789   7.962 -2.7160  0.0578 -1.6593
24209SOL     OW74067   5.581   1.785   6.545  0.7812  0.0794  0.3962
24209SOL    HW174068   5.621   1.864   6.582  3.6883 -1.0392 -0.0958
24209SOL    HW274069   5.579   1.801   6.451 -0.2463  0.1898  0.4158
24210SOL     OW74070   7.804   3.048   7.528  0.6801  0.3415 -0.2982
24210SOL    HW174071   7.861   3.043   7.606  1.0913 -0.8322 -0.6554
24210SOL    HW274072   7.841   2.984   7.467 -0.1652  0.6178 -1.1213
24211SOL     OW74073   6.571   0.702   6.790  0.4671  0.0312  0.2257
24211SOL    HW174074   6.568   0.753   6.709  1.3025 -0.5595 -0.1837
24211SOL    HW274075   6.483   0.666   6.798  0.2287  0.5071 -0.1440
24212SOL     OW74076   0.276   1.755   7.354 -0.3022  0.4145  0.0312
24212SOL    HW174077   0.349   1.695   7.374  0.2430  0.6570 -1.1504
24212SOL    HW274078   0.318   1.838   7.333 -0.8997  0.5175 -0.8233
24213SOL     OW74079   1.847   7.713   5.246 -0.6175 -0.2488 -0.1509
24213SOL    HW174080   1.910   7.761   5.192 -0.3777 -1.4232 -0.9573
24213SOL    HW274081   1.762   7.738   5.212 -0.5777  0.8065  0.4810
24214SOL     OW74082   6.883   0.877   7.511  0.0501  0.2835  0.3067
24214SOL    HW174083   6.844   0.955   7.471  0.6335  1.1279  1.3251
24214SOL    HW274084   6.812   0.813   7.513 -0.9949  1.4318  1.1665
24215SOL     OW74085   1.587   1.742   6.828 -0.3549 -0.1818  0.2604
24215SOL    HW174086   1.512   1.781   6.783 -0.0569  0.2654  0.1393
24215SOL    HW274087   1.652   1.726   6.759  0.4786  1.3878  0.6058
24216SOL     OW74088   0.223   0.690   7.977 -0.6040  0.9985  0.4742
24216SOL    HW174089   0.215   0.668   7.884  0.6992 -0.6669  0.7178
24216SOL    HW274090   0.213   0.607   8.022 -2.7078  1.9838  1.9727
24217SOL     OW74091   0.207   0.515   7.494  0.4651 -0.2240  0.4882
24217SOL    HW174092   0.166   0.436   7.459  0.0193 -0.9156  2.4706
24217SOL    HW274093   0.290   0.485   7.530  0.5610  0.3282  0.7397
24218SOL     OW74094   0.002   2.055   8.495 -0.2871 -0.0586  0.1404
24218SOL    HW174095  -0.066   1.988   8.496  0.2986 -0.7341 -1.4424
24218SOL    HW274096  -0.045   2.138   8.503 -1.0883 -0.6003  1.2330
24219SOL     OW74097   7.863   1.144   7.191 -0.0593 -0.0108 -0.1239
24219SOL    HW174098   7.945   1.184   7.221 -0.7536  2.7023 -1.4973
24219SOL    HW274099   7.890   1.065   7.145  1.4634 -0.9443  2.1676
24220SOL     OW74100   7.113   1.309   6.915  0.0943 -0.5269 -0.1134
24220SOL    HW174101   7.160   1.287   6.834 -0.5543  2.7443 -1.5201
24220SOL    HW274102   7.032   1.258   6.909  0.4865 -1.0779 -1.0398
24221SOL     OW74103   6.514   2.815   6.619 -0.5009  0.6990 -0.9198
24221SOL    HW174104   6.463   2.790   6.696 -1.0669  1.1447 -1.1423
24221SOL    HW274105   6.605   2.795   6.642 -0.7656 -0.0703 -0.5020
24222SOL     OW74106   1.245   1.088   6.998 -0.7789 -0.0184 -0.0908
24222SOL    HW174107   1.217   1.140   7.073 -1.7982 -0.6394 -0.0156
24222SOL    HW274108   1.194   1.007   7.005  0.3119 -0.7636 -0.5529
24223SOL     OW74109   0.463   1.195   8.358 -0.5600 -0.2678 -0.3894
24223SOL    HW174110   0.459   1.106   8.391  0.4495 -0.5210 -0.8918
24223SOL    HW274111   0.426   1.249   8.427 -1.3145 -1.0909 -0.1418
24224SOL     OW74112   1.261   0.929   6.149 -0.1944  0.6119 -0.4021
24224SOL    HW174113   1.210   1.006   6.123 -1.3981 -0.0104  0.0348
24224SOL    HW274114   1.195   0.866   6.179  0.7792 -0.5522 -0.6586
24225SOL     OW74115   0.014   1.033   4.883  0.4888 -0.1520  0.0256
24225SOL    HW174116  -0.063   1.064   4.835  1.4598  0.7496 -1.0016
24225SOL    HW274117   0.036   0.950   4.841  0.7259  0.1316 -0.4189
24226SOL     OW74118   0.393   2.119   8.985  0.3690 -0.4148  0.2872
24226SOL    HW174119   0.388   2.107   8.890 -2.0794  0.3714  0.2345
24226SOL    HW274120   0.487   2.122   9.004  1.0417  2.1666 -2.5056
24227SOL     OW74121   7.246   1.247   6.669  0.0586 -0.0512 -0.0664
24227SOL    HW174122   7.173   1.297   6.632  1.6090  3.1558  0.8278
24227SOL    HW274123   7.320   1.270   6.613  1.3016  0.6001  1.7640
24228SOL     OW74124   7.191   0.045   6.234 -1.1140 -0.0200 -0.4855
24228SOL    HW174125   7.201   0.014   6.144  0.9011 -0.4770 -0.1563
24228SOL    HW274126   7.141   0.127   6.226  0.7872  1.0754 -2.2743
24229SOL     OW74127   0.218   1.381   8.165 -0.2822 -0.0878  0.1007
24229SOL    HW174128   0.162   1.332   8.225 -1.2612 -0.4649 -1.0843
24229SOL    HW274129   0.289   1.320   8.144 -1.1209 -0.7599 -0.8231
24230SOL     OW74130   1.558   7.977   6.348  0.3855 -0.5627  0.3754
24230SOL    HW174131   1.471   7.942   6.367 -0.4089  1.5828  1.0489
24230SOL    HW274132   1.616   7.901   6.353 -1.6051 -2.3767 -1.7252
24231SOL     OW74133   0.399   1.191   8.088  0.3153 -0.2141 -0.2529
24231SOL    HW174134   0.373   1.101   8.068 -1.1299  0.3031 -0.8096
24231SOL    HW274135   0.445   1.184   8.172 -2.7823 -1.0852  1.5424
24232SOL     OW74136   0.637   7.856   9.322  0.1744  0.3576  0.0376
24232SOL    HW174137   0.556   7.805   9.312  0.4532 -0.0170 -0.3638
24232SOL    HW274138   0.683   7.844   9.239  1.1680 -0.3483  0.6717
24233SOL     OW74139   6.031   7.606   6.837  0.0159  0.1379 -0.2133
24233SOL    HW174140   6.008   7.689   6.878  0.2651 -0.1477  0.5250
24233SOL    HW274141   6.092   7.564   6.899 -0.7737 -0.9780 -0.1554
24234SOL     OW74142   6.661   2.792   9.417 -0.1543  0.4351 -0.2436
24234SOL    HW174143   6.580   2.785   9.468 -0.5007  0.5010 -0.7695
24234SOL    HW274144   6.651   2.727   9.348 -0.1167  0.9927 -0.7869
24235SOL     OW74145   7.252   6.923   7.656  0.0314 -0.5266  0.0615
24235SOL    HW174146   7.184   6.975   7.612  1.6872  0.2235 -1.8117
24235SOL    HW274147   7.270   6.851   7.595 -0.0863 -1.5690  1.2248
24236SOL     OW74148   6.369   1.226   7.174 -0.3932 -0.5169 -0.2631
24236SOL    HW174149   6.298   1.231   7.239 -0.6959  0.1684 -0.6318
24236SOL    HW274150   6.324   1.204   7.093 -0.3647  1.1100 -0.7565
24237SOL     OW74151   7.928   1.221   7.683 -0.4984 -0.0201 -0.1975
24237SOL    HW174152   7.994   1.203   7.750 -0.7637  0.4382  0.1949
24237SOL    HW274153   7.910   1.314   7.692  1.3699  0.6944 -2.6441
24238SOL     OW74154   0.570   0.388   8.566 -0.3529  0.3550 -0.4137
24238SOL    HW174155   0.604   0.473   8.592 -0.3958  0.1497  0.3166
24238SOL    HW274156   0.571   0.335   8.645 -2.1494  0.2644 -0.3928
24239SOL     OW74157   0.080   0.082   8.796  0.2034 -0.3336  0.1935
24239SOL    HW174158   0.091   0.164   8.844  3.3200 -1.1096  1.0602
24239SOL    HW274159  -0.004   0.048   8.825  0.1178  1.2126  1.9568
24240SOL     OW74160   5.909   2.802   7.116 -0.4144  0.3300  0.0590
24240SOL    HW174161   5.974   2.766   7.176 -0.9688  0.7079  0.9030
24240SOL    HW274162   5.826   2.790   7.161 -0.8464  0.6342 -0.6351
24241SOL     OW74163   0.762   0.327   9.903  0.9667 -0.0459  0.3586
24241SOL    HW174164   0.690   0.297   9.848  1.5705 -0.2403 -0.3421
24241SOL    HW274165   0.808   0.392   9.849 -0.4128  2.3759  1.8863
24242SOL     OW74166   0.725   0.329  11.016  0.7517 -0.0536 -0.2460
24242SOL    HW174167   0.684   0.415  11.018  0.2113 -0.3114  0.0907
24242SOL    HW274168   0.718   0.300  10.926 -0.1656 -0.2616 -0.1104
24243SOL     OW74169   6.254   7.044   9.271  0.0357  0.0150  0.3607
24243SOL    HW174170   6.162   7.065   9.285  0.1350  0.3362  0.5467
24243SOL    HW274171   6.258   7.013   9.180 -0.5125 -1.4932  0.8242
24244SOL     OW74172   6.906   1.909   7.910 -0.1121 -0.1551 -0.0401
24244SOL    HW174173   6.884   1.952   7.827  0.4847 -0.7592 -0.5188
24244SOL    HW274174   6.973   1.846   7.887  0.0788 -0.3101  0.9189
24245SOL     OW74175   6.665   7.789   7.191  0.0392 -0.4676 -0.5162
24245SOL    HW174176   6.635   7.817   7.278 -3.2941 -1.3525 -1.2192
24245SOL    HW274177   6.759   7.805   7.192 -0.0837  0.9705  2.7007
24246SOL     OW74178   6.626   1.762   9.074 -0.3257  0.2091  0.0001
24246SOL    HW174179   6.594   1.790   9.160  1.0911  2.3052 -0.0827
24246SOL    HW274180   6.605   1.835   9.016  3.2294  1.1451 -0.3277
24247SOL     OW74181   1.214   0.782   8.237 -0.1137  0.0096 -0.0113
24247SOL    HW174182   1.156   0.707   8.253 -2.1081  1.5379  0.3202
24247SOL    HW274183   1.245   0.770   8.147 -0.9278 -0.8630 -0.1943
24248SOL     OW74184   0.406   1.540   9.825 -0.6184 -0.1052  0.4010
24248SOL    HW174185   0.461   1.463   9.839  0.3983  0.5589  0.2016
24248SOL    HW274186   0.393   1.577   9.913 -0.7200 -0.2519  0.4469
24249SOL     OW74187   7.278   0.696   8.128 -0.0477 -0.0536  0.0875
24249SOL    HW174188   7.200   0.649   8.098 -0.1524  0.0457  0.2072
24249SOL    HW274189   7.254   0.789   8.122 -0.1805 -0.0361  0.7833
24250SOL     OW74190   0.107   0.117   9.794  0.2858  0.0199 -0.2066
24250SOL    HW174191   0.201   0.101   9.808 -0.2035 -0.8990  2.7832
24250SOL    HW274192   0.082   0.177   9.865 -1.7578 -1.4119  0.3799
24251SOL     OW74193   0.917   1.049   9.851 -0.8067  0.5341 -0.3879
24251SOL    HW174194   0.942   1.137   9.822  2.1770 -0.1491 -0.2017
24251SOL    HW274195   0.877   1.063   9.937 -0.8435  1.7330 -0.5782
24252SOL     OW74196   0.783   1.298   8.192  0.1580 -0.2341 -0.0829
24252SOL    HW174197   0.804   1.210   8.224  0.5973 -0.4091 -0.8115
24252SOL    HW274198   0.763   1.348   8.271  0.4518 -0.8433  0.3937
24253SOL     OW74199   1.465   0.875   7.856  0.2996  0.0408  0.2968
24253SOL    HW174200   1.473   0.826   7.774 -2.2872 -0.2378  0.1432
24253SOL    HW274201   1.453   0.966   7.829  2.7988  0.5128  0.5288
24254SOL     OW74202   6.772   6.556   7.960  0.5469 -0.3109 -0.0309
24254SOL    HW174203   6.824   6.581   8.036  0.0402 -0.1774  0.2805
24254SOL    HW274204   6.824   6.490   7.915  1.1397  0.0788  0.0787
24255SOL     OW74205   6.945   7.599   6.962 -0.1680 -0.5391  0.2723
24255SOL    HW174206   6.961   7.675   7.018 -1.1349  1.1087 -1.5474
24255SOL    HW274207   7.032   7.570   6.936  0.2313 -0.4164  1.4224
24256SOL     OW74208   0.445   1.053   9.549 -0.2273  0.3238  0.3894
24256SOL    HW174209   0.450   1.145   9.522 -0.6127  0.6859  1.5103
24256SOL    HW274210   0.353   1.039   9.567 -0.1347 -0.2297  0.4332
24257SOL     OW74211   0.075   0.726   8.767 -0.1714  0.4171 -0.0390
24257SOL    HW174212  -0.018   0.735   8.749 -0.3623  0.7060  1.0048
24257SOL    HW274213   0.113   0.697   8.684 -1.1806  0.3129 -0.4807
24258SOL     OW74214   1.289   7.733   9.265  0.5877  0.6442  0.2141
24258SOL    HW174215   1.283   7.679   9.343  0.8654  0.7190  0.2885
24258SOL    HW274216   1.380   7.764   9.264  0.8801 -0.1622 -0.6636
24259SOL     OW74217   6.973   0.350   9.576 -0.6820  0.1438  0.0904
24259SOL    HW174218   7.021   0.396   9.506 -2.0904 -0.2348 -1.1822
24259SOL    HW274219   6.928   0.420   9.624 -1.1940  0.2849 -0.5721
24260SOL     OW74220   0.557   0.237   6.900  0.3817  0.1739 -0.0970
24260SOL    HW174221   0.627   0.174   6.915  0.3049  0.4448  1.6162
24260SOL    HW274222   0.593   0.299   6.837  0.9705 -0.7674 -0.7025
24261SOL     OW74223   7.805   1.355   8.127  0.0514  0.0450  0.0106
24261SOL    HW174224   7.753   1.396   8.196 -1.9033  0.5428 -1.6733
24261SOL    HW274225   7.857   1.427   8.091  1.3128 -0.2770  1.1044
24262SOL     OW74226   5.951   0.106  10.306 -0.1267 -0.3720  0.1830
24262SOL    HW174227   5.913   0.074  10.388 -2.8699  0.7651 -0.5009
24262SOL    HW274228   5.902   0.060  10.238  0.5630  0.3137 -0.8069
24263SOL     OW74229   1.570   7.854   8.857 -0.2974 -0.0197 -0.2112
24263SOL    HW174230   1.524   7.891   8.932 -0.3346 -1.0122  0.2727
24263SOL    HW274231   1.538   7.765   8.850 -0.7330  0.2219 -1.7938
24264SOL     OW74232   1.003   0.593   8.208  0.3578 -0.1513 -0.1183
24264SOL    HW174233   0.921   0.564   8.247 -0.3089 -1.2960 -2.2193
24264SOL    HW274234   1.028   0.522   8.149  1.5215  1.2763 -1.4275
24265SOL     OW74235   7.544   0.168   6.447  0.6121  0.2386  0.1978
24265SOL    HW174236   7.458   0.210   6.454 -0.2773 -0.8811 -2.5363
24265SOL    HW274237   7.542   0.099   6.513  0.2954  1.5477  1.6154
24266SOL     OW74238   7.690   6.639   9.031  0.5813  0.2219  0.5461
24266SOL    HW174239   7.692   6.733   9.015 -1.3627  0.2498  0.2685
24266SOL    HW274240   7.709   6.599   8.946 -1.1031  0.3827  0.0693
24267SOL     OW74241   0.786   0.559   8.372 -0.0722 -0.0377  0.5972
24267SOL    HW174242   0.756   0.648   8.393  0.9125  0.1624  1.2538
24267SOL    HW274243   0.859   0.544   8.433  0.9694 -0.5983 -0.7505
24268SOL     OW74244   0.656   0.163  10.092 -0.2863  0.0785 -0.0798
24268SOL    HW174245   0.714   0.088  10.082  0.0807  0.4194 -0.5002
24268SOL    HW274246   0.691   0.230  10.034 -0.7178  0.5180  0.1522
24269SOL     OW74247   6.562   7.855  10.422 -0.0756 -0.1762 -0.4263
24269SOL    HW174248   6.532   7.886  10.507  0.8484  0.2705 -0.2486
24269SOL    HW274249   6.657   7.847  10.432 -0.2573 -3.4675 -0.3286
24270SOL     OW74250   0.161   0.416  11.209  0.2985  0.5081  0.1059
24270SOL    HW174251   0.067   0.416  11.190  0.1085 -1.4957  0.8924
24270SOL    HW274252   0.171   0.483  11.278 -0.4638  1.0264 -0.2701
24271SOL     OW74253   7.701   0.440   7.935  0.0326  0.2463  0.1401
24271SOL    HW174254   7.718   0.455   8.029 -2.0248  1.6308  0.3508
24271SOL    HW274255   7.711   0.527   7.896  1.3243 -0.4038 -1.0463
24272SOL     OW74256   7.579   0.724   7.116  0.6889 -0.3634  0.5583
24272SOL    HW174257   7.596   0.659   7.047  0.1621  1.0792 -0.9946
24272SOL    HW274258   7.555   0.672   7.192 -1.8514 -2.0401 -1.1975
24273SOL     OW74259   6.437   1.914   7.734  0.1193  0.0068 -0.7961
24273SOL    HW174260   6.491   1.988   7.706  0.3963  0.5010  0.9072
24273SOL    HW274261   6.348   1.949   7.733 -0.1739 -0.6537 -3.1060
24274SOL     OW74262   6.386   7.481   9.613 -0.3003  0.0443  0.2302
24274SOL    HW174263   6.481   7.488   9.626 -0.5634  1.9352  1.6746
24274SOL    HW274264   6.354   7.442   9.694 -0.7932 -0.1890 -0.0764
24275SOL     OW74265   7.948   7.076  10.457  0.2240 -0.3852  0.1239
24275SOL    HW174266   7.944   7.084  10.552  0.7932 -0.4904  0.1568
24275SOL    HW274267   7.999   7.152  10.428  0.1810 -0.4342 -0.0860
24276SOL     OW74268   0.901   0.536   7.047 -0.1699  0.0809 -0.0003
24276SOL    HW174269   0.920   0.453   7.091 -0.0894  0.0017 -0.1840
24276SOL    HW274270   0.952   0.601   7.095 -0.3686  0.0497  0.2522
24277SOL     OW74271   7.153   7.672   9.380  0.4854  0.1066 -0.1779
24277SOL    HW174272   7.142   7.579   9.399 -1.0964  0.6247  1.7101
24277SOL    HW274273   7.176   7.674   9.287 -0.6220 -2.0985 -0.5766
24278SOL     OW74274   0.345   6.838   6.977 -0.0563 -0.3037 -0.4411
24278SOL    HW174275   0.404   6.775   6.936  2.1822  1.0742  0.5151
24278SOL    HW274276   0.365   6.833   7.070 -0.7414  0.9119 -0.2075
24279SOL     OW74277   7.538   1.031  10.471 -0.5316 -0.5804 -0.3920
24279SOL    HW174278   7.569   0.947  10.439  1.9937 -0.7923  2.1731
24279SOL    HW274279   7.611   1.091  10.454 -1.3084  0.5067 -0.0000
24280SOL     OW74280   6.952   1.384   9.500 -0.1944 -0.9851 -0.0013
24280SOL    HW174281   7.009   1.340   9.564 -0.1698  0.5235  1.0620
24280SOL    HW274282   6.896   1.441   9.553  0.5497  1.1363 -1.3621
24281SOL     OW74283   7.414   7.046   9.442 -0.2080 -0.5189 -0.4791
24281SOL    HW174284   7.435   7.006   9.358 -0.5018  1.4694 -1.5633
24281SOL    HW274285   7.410   7.140   9.423 -2.9192 -0.2075  1.1684
24282SOL     OW74286   6.263   1.543   6.772  0.8113  0.8493 -0.0652
24282SOL    HW174287   6.213   1.622   6.748  1.4098  0.9318 -1.1246
24282SOL    HW274288   6.333   1.539   6.707  0.6886 -0.6596 -0.1365
24283SOL     OW74289   0.948   0.727   9.191 -0.5519  0.3459  0.1966
24283SOL    HW174290   0.978   0.647   9.148  0.8940  0.9891 -0.0554
24283SOL    HW274291   0.914   0.697   9.276  0.4543 -0.4940  0.3285
24284SOL     OW74292   0.632   2.563   9.233  0.0605  0.0600 -0.2076
24284SOL    HW174293   0.727   2.557   9.222  0.2983  2.1943  0.2254
24284SOL    HW274294   0.599   2.579   9.145  0.1627 -0.2247 -0.2974
24285SOL     OW74295   7.543   1.479   7.757  0.2985 -0.5506 -0.2401
24285SOL    HW174296   7.516   1.425   7.831 -0.9370  0.6189  0.1978
24285SOL    HW274297   7.505   1.565   7.774  0.6858 -0.0205 -1.8231
24286SOL     OW74298   1.324   0.530   9.004 -0.2551  0.4917 -0.1706
24286SOL    HW174299   1.338   0.616   9.043  0.0415  0.4065 -0.0868
24286SOL    HW274300   1.353   0.540   8.913  1.1256  0.1066  0.2027
24287SOL     OW74301   6.435   0.135   6.397 -0.1015 -0.6414  0.3327
24287SOL    HW174302   6.447   0.044   6.424 -0.2912 -1.0769 -0.9539
24287SOL    HW274303   6.495   0.185   6.452  1.9185 -1.8504 -0.6371
24288SOL     OW74304   7.126   7.507   6.504 -0.1510  0.4427  0.1673
24288SOL    HW174305   7.208   7.466   6.531 -0.7691  0.6816  2.6756
24288SOL    HW274306   7.066   7.435   6.488 -0.1778  0.2928  0.9123
24289SOL     OW74307   6.709   2.164   8.968 -0.2974 -0.5729  0.2125
24289SOL    HW174308   6.656   2.084   8.960 -1.9315  0.5540 -0.8409
24289SOL    HW274309   6.645   2.232   8.993  0.7453  0.7523 -0.6255
24290SOL     OW74310   7.115   7.824  10.054 -0.4826  0.3687  0.2707
24290SOL    HW174311   7.020   7.832  10.061 -0.3417  1.0713  1.8306
24290SOL    HW274312   7.134   7.734  10.082 -0.7011  0.1584 -0.2572
24291SOL     OW74313   7.729   7.338   7.131  0.2310 -0.2696 -0.2385
24291SOL    HW174314   7.819   7.368   7.142  0.9278 -1.7415 -1.5031
24291SOL    HW274315   7.711   7.348   7.038 -1.1578  0.5570  0.0856
24292SOL     OW74316   1.168   0.454  11.297 -0.3962 -0.1484 -0.5007
24292SOL    HW174317   1.189   0.540  11.260 -0.0051  0.0410  0.1433
24292SOL    HW274318   1.087   0.428  11.253 -1.1020  1.0224  0.0537
24293SOL     OW74319   6.764   0.636   7.168 -0.0527  0.0118  0.0975
24293SOL    HW174320   6.717   0.667   7.245 -0.7349 -0.7017 -0.0128
24293SOL    HW274321   6.822   0.708   7.143 -0.4585  0.5706  0.7592
24294SOL     OW74322   1.461   0.488   8.337  0.1753 -0.1771  0.4191
24294SOL    HW174323   1.456   0.439   8.254 -0.3811  0.4398  0.0779
24294SOL    HW274324   1.492   0.424   8.400 -1.2554 -1.1926  0.1450
24295SOL     OW74325   6.091   7.548   9.979 -0.3447  0.3439  0.1367
24295SOL    HW174326   6.167   7.496   9.953 -0.7313 -0.4639  0.6002
24295SOL    HW274327   6.091   7.622   9.918  0.7234  0.2735  0.0392
24296SOL     OW74328   7.017   0.271   9.220  0.2853 -0.0697 -0.2405
24296SOL    HW174329   6.938   0.251   9.171  0.6114  1.2358 -1.3552
24296SOL    HW274330   7.029   0.195   9.278 -1.6324 -0.3912 -0.1964
24297SOL     OW74331   0.997   2.030  10.822  0.3929 -0.6640  0.3949
24297SOL    HW174332   1.092   2.033  10.831  0.5340 -0.9604 -0.7815
24297SOL    HW274333   0.982   2.034  10.727 -0.7310 -1.4801  0.5202
24298SOL     OW74334   0.662   7.632   9.995 -0.4113  0.4182  0.3170
24298SOL    HW174335   0.747   7.662  10.026  0.3373 -0.6098 -0.6733
24298SOL    HW274336   0.670   7.536   9.993 -1.3249  0.3472 -0.5590
24299SOL     OW74337   7.604   0.749  10.650  0.2293 -0.3138  0.0575
24299SOL    HW174338   7.555   0.667  10.658 -0.3098  0.0244  0.2434
24299SOL    HW274339   7.615   0.761  10.556 -3.3363  1.4980 -0.3176
24300SOL     OW74340   7.583   2.983   9.492  0.1665  0.1837  0.2808
24300SOL    HW174341   7.494   2.987   9.457  0.7198  1.0224 -1.1144
24300SOL    HW274342   7.605   2.889   9.491 -0.5134  0.0186  0.1680
24301SOL     OW74343   7.681   0.866   8.765  0.1622  0.4861  0.0280
24301SOL    HW174344   7.697   0.772   8.762 -0.6238  0.2870  1.5353
24301SOL    HW274345   7.656   0.889   8.675  1.3074 -0.5386 -0.5866
24302SOL     OW74346   7.462   1.037   9.233  0.0549 -0.4498  0.2422
24302SOL    HW174347   7.445   0.944   9.250  0.3114 -0.8406 -1.3810
24302SOL    HW274348   7.521   1.036   9.157 -2.1717  1.0423 -1.6426
24303SOL     OW74349   7.323   1.200  11.673  0.1734  0.6632  0.7628
24303SOL    HW174350   7.290   1.136  11.736 -0.9796  1.7613  1.3290
24303SOL    HW274351   7.412   1.219  11.703 -0.6629  1.8629  2.6911
24304SOL     OW74352   6.346   7.669   8.027 -0.1811 -0.5176 -0.2907
24304SOL    HW174353   6.382   7.597   7.975  1.9718  0.4120 -0.2044
24304SOL    HW274354   6.422   7.710   8.067 -1.4765  0.9614  0.7952
24305SOL     OW74355   7.470   6.842   9.251 -0.4491  0.4620  0.6724
24305SOL    HW174356   7.528   6.856   9.176  0.0886  2.7979  1.4497
24305SOL    HW274357   7.475   6.748   9.268 -1.2515 -0.3180 -2.7082
24306SOL     OW74358   7.100   0.285  10.512 -0.0737 -0.7204 -0.2492
24306SOL    HW174359   7.027   0.224  10.522  1.4095 -2.3670  1.5790
24306SOL    HW274360   7.130   0.273  10.422 -0.1839 -2.3295 -0.1018
24307SOL     OW74361   7.443   0.748   9.352  0.4761 -0.5484 -0.3211
24307SOL    HW174362   7.537   0.757   9.335  0.2252  0.3567 -1.4210
24307SOL    HW274363   7.419   0.665   9.311  0.9142 -1.1535  0.6141
24308SOL     OW74364   1.108   0.693  10.346 -0.1996 -0.2193 -0.3395
24308SOL    HW174365   1.047   0.754  10.305 -1.1668 -1.6272 -1.0809
24308SOL    HW274366   1.054   0.645  10.410  0.5967 -0.1515  0.4077
24309SOL     OW74367   0.957   0.821  10.164 -0.1422  0.0873 -0.2557
24309SOL    HW174368   0.975   0.779  10.080 -1.1437  0.0143 -0.4421
24309SOL    HW274369   0.936   0.912  10.142  1.6237  0.6237  0.1111
24310SOL     OW74370   7.658   4.127  11.921  0.1043 -0.2268  0.1148
24310SOL    HW174371   7.687   4.145  12.011 -0.5249  0.3110  0.2222
24310SOL    HW274372   7.718   4.178  11.866 -0.2728  0.4345  0.3042
24311SOL     OW74373   6.684   7.590   9.946  0.4762 -0.5908 -0.2387
24311SOL    HW174374   6.665   7.573   9.854 -0.4548 -0.7586 -0.0215
24311SOL    HW274375   6.661   7.508   9.991 -1.4574  0.3013  0.4593
24312SOL     OW74376   5.616   1.698   9.398 -0.0304 -0.0951  0.1129
24312SOL    HW174377   5.684   1.632   9.384  1.0309  0.9896 -0.1023
24312SOL    HW274378   5.534   1.650   9.398  0.7153 -1.3976 -0.0583
24313SOL     OW74379   7.587   0.160   8.236 -0.0489  0.1551 -0.0241
24313SOL    HW174380   7.606   0.080   8.188 -1.1953 -0.2620  0.1776
24313SOL    HW274381   7.554   0.129   8.321 -1.8113  0.7825 -0.4417
24314SOL     OW74382   7.940   7.912   9.820 -0.0115 -0.2223  0.0518
24314SOL    HW174383   7.998   7.987   9.805 -0.7963  0.3702 -0.0995
24314SOL    HW274384   7.855   7.952   9.839 -0.7127 -1.0856 -1.1460
24315SOL     OW74385   5.865   5.792  10.514 -0.2504  0.4015 -0.1993
24315SOL    HW174386   5.923   5.814  10.441  0.0748 -0.1289 -0.1096
24315SOL    HW274387   5.811   5.870  10.527 -0.7281  0.2844 -1.4024
24316SOL     OW74388   7.297   2.161  11.595 -0.2605  0.1874 -0.6742
24316SOL    HW174389   7.271   2.070  11.610  0.5908 -0.3698 -2.3188
24316SOL    HW274390   7.282   2.204  11.679  0.4586 -1.7482  0.5351
24317SOL     OW74391   7.152   0.073   8.650 -0.5883 -0.0439 -0.4457
24317SOL    HW174392   7.112  -0.001   8.696 -3.1699  1.9962  0.8517
24317SOL    HW274393   7.148   0.049   8.557 -1.1898 -1.5947 -0.0413
24318SOL     OW74394   7.884   0.167  11.144  0.3820  0.0462 -0.6054
24318SOL    HW174395   7.810   0.137  11.092  0.9814 -0.0792 -1.3984
24318SOL    HW274396   7.858   0.150  11.235 -2.3458  3.8501 -0.4526
24319SOL     OW74397   0.522   0.835   8.743 -0.1254  0.1197  0.3695
24319SOL    HW174398   0.475   0.912   8.711 -0.4700  0.3194  1.3344
24319SOL    HW274399   0.565   0.800   8.665  0.9272  1.9024  0.0817
24320SOL     OW74400   7.428   0.970  11.258 -0.3022 -0.0565 -0.1177
24320SOL    HW174401   7.421   1.019  11.176 -0.0984 -1.5391 -1.0720
24320SOL    HW274402   7.355   0.909  11.255  1.3560 -2.1490 -0.6608
24321SOL     OW74403   0.053   7.516   9.874 -0.3513  0.8702 -0.1838
24321SOL    HW174404   0.079   7.608   9.866  1.2260  0.8335  3.0046
24321SOL    HW274405   0.100   7.472   9.803  0.3402  2.2482 -0.6209
24322SOL     OW74406   0.314   7.696   9.857  0.6989  0.3001  0.2885
24322SOL    HW174407   0.369   7.632   9.812  0.4406  0.0925  0.2702
24322SOL    HW274408   0.349   7.698   9.946 -0.6635 -1.4831  0.9077
24323SOL     OW74409   6.089   2.033  10.863 -0.2504 -0.4172 -0.3385
24323SOL    HW174410   6.045   1.955  10.896 -2.1089 -0.4854 -2.6675
24323SOL    HW274411   6.137   2.003  10.786 -0.9649  0.6714 -1.2533
24324SOL     OW74412   1.319   0.384   9.512 -0.3969 -0.4397  0.5254
24324SOL    HW174413   1.393   0.344   9.559 -0.0722  0.0308  0.4174
24324SOL    HW274414   1.354   0.403   9.424 -0.9150 -1.0494  0.1789
24325SOL     OW74415   5.111   7.334  10.129 -0.2704  0.2563 -0.5360
24325SOL    HW174416   5.158   7.389  10.192  1.8700 -1.1187 -0.8331
24325SOL    HW274417   5.033   7.384  10.107 -0.2575  1.5312  1.9395
24326SOL     OW74418   6.397   0.675  10.436 -0.1564  0.3250 -0.1209
24326SOL    HW174419   6.485   0.705  10.412 -0.2909  0.0123 -1.0443
24326SOL    HW274420   6.395   0.583  10.408 -0.7921  0.3430 -0.1454
24327SOL     OW74421   6.350   1.125   9.145  0.6057 -0.0794 -0.0938
24327SOL    HW174422   6.380   1.148   9.058 -0.6622 -0.3782 -0.6424
24327SOL    HW274423   6.361   1.030   9.150 -0.2902 -0.2102 -0.3461
24328SOL     OW74424   0.332   0.546  10.129 -0.5039 -0.0377 -0.5656
24328SOL    HW174425   0.335   0.501  10.044  0.2224  0.9256 -1.0728
24328SOL    HW274426   0.417   0.588  10.137 -0.7627  0.3282  0.4075
24329SOL     OW74427   6.176   6.960  10.655 -0.8638  0.5937 -0.0079
24329SOL    HW174428   6.151   7.003  10.737 -1.0894  0.9221 -0.2473
24329SOL    HW274429   6.241   7.018  10.616  0.7114 -0.5111  0.8666
24330SOL     OW74430   0.772   1.074  10.341 -0.5951  0.0148 -0.2831
24330SOL    HW174431   0.746   0.996  10.390  2.1738 -1.0876 -0.4133
24330SOL    HW274432   0.766   1.145  10.405  0.1172 -0.9044  0.8467
24331SOL     OW74433   7.355   0.315  10.608  0.3992  0.3216  0.0152
24331SOL    HW174434   7.273   0.303  10.561  0.5657 -0.2039 -0.1526
24331SOL    HW274435   7.417   0.256  10.564  1.4175  2.1772 -1.1588
24332SOL     OW74436   0.475   1.707  11.857 -0.3729 -0.1397 -0.5648
24332SOL    HW174437   0.482   1.802  11.858 -1.2569 -0.0568  0.5971
24332SOL    HW274438   0.392   1.689  11.812  0.5146 -0.4557 -2.1422
24333SOL     OW74439   4.928   7.419   9.899 -0.8424  0.9544  0.1527
24333SOL    HW174440   4.913   7.487   9.834 -0.7509  0.1241 -0.7647
24333SOL    HW274441   4.992   7.361   9.858 -2.8136 -1.1191 -0.1941
24334SOL     OW74442   6.366   7.805   9.763  0.4428 -0.7639  0.3306
24334SOL    HW174443   6.276   7.799   9.796  0.5895 -0.7004  0.7500
24334SOL    HW274444   6.420   7.802   9.842  0.7849 -0.1780  0.1210
24335SOL     OW74445   7.222   0.253   8.174  0.5195 -0.1064  0.1815
24335SOL    HW174446   7.263   0.283   8.255  1.0746  0.6645 -0.3781
24335SOL    HW274447   7.229   0.157   8.178 -2.2819 -0.3482  2.5197
24336SOL     OW74448   6.043   1.280  10.263  0.2038 -0.3765 -0.2227
24336SOL    HW174449   6.064   1.292  10.355  0.5677 -0.1080 -0.3391
24336SOL    HW274450   6.117   1.231  10.227  0.4013  0.1376 -0.5267
24337SOL     OW74451   1.570   0.525  10.493 -0.1235  0.4688 -0.2758
24337SOL    HW174452   1.573   0.563  10.581  0.3659  0.3938 -0.2531
24337SOL    HW274453   1.651   0.474  10.487 -0.8549 -0.7429 -0.2330
24338SOL     OW74454   7.212   0.236  10.239  0.2235  0.2173 -0.1890
24338SOL    HW174455   7.178   0.162  10.189  1.4475 -0.4381 -0.0923
24338SOL    HW274456   7.241   0.299  10.172  0.8176 -0.1719 -0.3064
24339SOL     OW74457   7.232   2.327   9.600 -0.2255 -0.0968 -0.0637
24339SOL    HW174458   7.189   2.382   9.535  1.1104  1.2793  0.1559
24339SOL    HW274459   7.189   2.349   9.683  0.5162  0.9012  0.0757
24340SOL     OW74460   7.627   1.686   9.894 -0.2657 -0.0510 -0.2364
24340SOL    HW174461   7.593   1.683   9.805 -0.5874  0.6055 -0.1412
24340SOL    HW274462   7.581   1.616   9.940 -1.6358  0.9273 -0.0667
24341SOL     OW74463   0.054   1.438  10.062  0.0112  0.2298 -0.4652
24341SOL    HW174464   0.044   1.441  10.157 -1.2520 -1.2271 -0.5006
24341SOL    HW274465   0.003   1.512  10.030 -0.7535 -0.1034 -0.0512
24342SOL     OW74466   6.404   2.127   9.702 -0.0981 -0.2478 -0.1817
24342SOL    HW174467   6.424   2.111   9.794 -1.1986  0.5180  0.2113
24342SOL    HW274468   6.362   2.213   9.701  0.6598  0.1357 -1.5121
24343SOL     OW74469   7.236   1.375  10.876 -0.6605  0.4113  0.7135
24343SOL    HW174470   7.324   1.352  10.846 -0.4057 -0.4605  2.0590
24343SOL    HW274471   7.186   1.386  10.795  0.3215 -0.5217 -0.0645
24344SOL     OW74472   7.689   2.616   9.794 -0.0502 -0.0993  0.0274
24344SOL    HW174473   7.653   2.570   9.870  0.1769  0.4408  0.4727
24344SOL    HW274474   7.782   2.625   9.813 -0.0502  0.3314 -0.1577
24345SOL     OW74475   1.715   7.943  10.963  0.6249  0.3374  0.0802
24345SOL    HW174476   1.678   7.958  10.876 -0.3172 -1.1747  0.1852
24345SOL    HW274477   1.795   7.894  10.947  0.0410 -0.6532  0.0637
24346SOL     OW74478   7.462   7.737  10.433  0.1037  0.1511 -0.0616
24346SOL    HW174479   7.469   7.642  10.438  1.3563  0.2365  0.1260
24346SOL    HW274480   7.550   7.766  10.409 -0.2217  1.2773  0.0564
24347SOL     OW74481   0.226   7.505  10.583  1.3321 -0.1294 -0.1345
24347SOL    HW174482   0.280   7.500  10.505 -0.2417 -2.3511 -1.1902
24347SOL    HW274483   0.212   7.599  10.597  3.2495  0.3887 -1.3076
24348SOL     OW74484   1.488   1.880   9.966  0.2118  0.0659 -0.1560
24348SOL    HW174485   1.473   1.831  10.047  0.5130  0.2225 -0.0044
24348SOL    HW274486   1.429   1.839   9.902 -0.4774  0.3280  0.2941
24349SOL     OW74487   7.108   0.788   9.792 -0.9090  0.0335  0.0622
24349SOL    HW174488   7.045   0.733   9.839 -0.2613 -0.5238  0.2785
24349SOL    HW274489   7.165   0.824   9.860 -1.2612  0.9100 -0.0821
24350SOL     OW74490   6.835   7.245  10.677  0.0105 -0.6425  0.2838
24350SOL    HW174491   6.898   7.288  10.734 -0.8952 -0.9559  1.5602
24350SOL    HW274492   6.808   7.313  10.615  1.8820 -0.6148 -0.5900
24351SOL     OW74493   1.002   6.915  10.277  0.1127 -0.5864  0.4193
24351SOL    HW174494   0.924   6.937  10.227  1.0074  0.5751 -0.5172
24351SOL    HW274495   1.043   6.843  10.228  1.4148  1.0787 -1.0511
24352SOL     OW74496   1.740   3.254  10.672  0.0413  0.0347 -0.3233
24352SOL    HW174497   1.665   3.219  10.623 -1.2616  0.7993  1.0201
24352SOL    HW274498   1.813   3.251  10.611 -1.0057 -1.0687 -1.5742
24353SOL     OW74499   7.339   1.246  10.597  0.3841  1.2547  0.1250
24353SOL    HW174500   7.419   1.193  10.604  0.6394  1.0978 -2.6763
24353SOL    HW274501   7.367   1.327  10.556 -0.7578  1.5561 -0.1041
24354SOL     OW74502   7.808   1.659  11.427  0.1398 -0.4692  0.1752
24354SOL    HW174503   7.852   1.730  11.474 -0.6345  1.1409 -1.4268
24354SOL    HW274504   7.720   1.657  11.465 -1.0008  1.8677 -2.0663
24355SOL     OW74505   1.649   0.092  11.672  0.5907  0.0439  0.1529
24355SOL    HW174506   1.673   0.022  11.732  0.9162  0.6171  0.6950
24355SOL    HW274507   1.562   0.119  11.700  0.6843  0.2140  0.2849
24356SOL     OW74508   5.788   7.212  11.393  0.0548 -0.7178  0.0912
24356SOL    HW174509   5.730   7.160  11.337 -1.0557  0.4117  0.1463
24356SOL    HW274510   5.851   7.252  11.333 -0.4869 -0.3424 -0.2365
24357SOL     OW74511   5.302   6.234   9.685  0.7292 -0.1107  0.4014
24357SOL    HW174512   5.272   6.143   9.683  0.5436 -0.0878  1.4379
24357SOL    HW274513   5.321   6.255   9.594  0.8259 -1.2063  0.1524
24358SOL     OW74514   1.286   1.108  11.858 -0.4670  0.0326  0.0689
24358SOL    HW174515   1.327   1.081  11.940 -0.3900 -0.6708 -0.1985
24358SOL    HW274516   1.299   1.034  11.799 -3.1630 -0.7553  0.3216
24359SOL     OW74517   2.213   7.443  10.002 -0.7194  0.2375  0.1600
24359SOL    HW174518   2.230   7.533   9.975  0.3651 -0.0505 -0.1489
24359SOL    HW274519   2.193   7.397   9.921  1.6333 -0.4247 -0.1249
24360SOL     OW74520   7.252   0.885  10.657  0.3357 -0.3677 -0.1497
24360SOL    HW174521   7.249   0.791  10.635 -0.9389 -0.3000 -0.3055
24360SOL    HW274522   7.215   0.929  10.580  2.2626  0.4068 -0.6992
24361SOL     OW74523   0.295   0.223  12.467  0.2380  0.3760  0.0160
24361SOL    HW174524   0.201   0.239  12.459  0.2816  0.4350 -0.4105
24361SOL    HW274525   0.309   0.208  12.560 -0.2000  0.3356  0.0774
24362SOL     OW74526   0.475   2.290  11.323  0.2860 -0.0875  0.0998
24362SOL    HW174527   0.382   2.281  11.301  0.2289  0.8125 -0.0456
24362SOL    HW274528   0.501   2.202  11.351 -1.5015  0.3035  3.5456
24363SOL     OW74529   1.364   0.256   0.207 -0.1180 -0.1097 -0.0974
24363SOL    HW174530   1.338   0.344   0.233 -0.0428 -0.5320  1.5072
24363SOL    HW274531   1.286   0.203   0.220  0.3801 -0.6345  0.8734
24364SOL     OW74532   7.935   2.380  10.726  0.2826 -0.7940  0.5680
24364SOL    HW174533   8.003   2.414  10.668  0.2336 -2.0358 -0.2512
24364SOL    HW274534   7.936   2.440  10.801  0.6441  0.5838 -0.5004
24365SOL     OW74535   0.518   1.159  11.119  0.0623 -0.1109  0.2641
24365SOL    HW174536   0.550   1.080  11.076 -1.7185 -1.7598  1.7916
24365SOL    HW274537   0.591   1.189  11.172  0.2785 -1.6765  0.8966
24366SOL     OW74538   7.374   0.012  12.280  0.2815  0.6897  0.5115
24366SOL    HW174539   7.403   0.090  12.328  1.7558  0.0080  0.7716
24366SOL    HW274540   7.390  -0.060  12.340  0.4176  0.0183 -0.3177
24367SOL     OW74541   0.258   1.540   0.884 -0.1733  0.3345 -0.5135
24367SOL    HW174542   0.258   1.455   0.927 -1.3774  0.7570  0.3587
24367SOL    HW274543   0.348   1.572   0.894 -0.0765 -0.2020  0.4235
24368SOL     OW74544   7.385   1.102  10.996  0.0014 -0.3872  0.1276
24368SOL    HW174545   7.290   1.105  10.998 -0.0866 -2.1139  1.9334
24368SOL    HW274546   7.405   1.041  10.925 -0.1492  0.8106 -0.9850
24369SOL     OW74547   0.233   6.856   9.939  0.2956 -0.1315  0.1069
24369SOL    HW174548   0.275   6.827  10.020  1.7089  0.1352 -0.5043
24369SOL    HW274549   0.140   6.864   9.962  0.7384  0.4997  1.8600
24370SOL     OW74550   7.910   1.798  11.806  0.0570 -0.5658  0.1219
24370SOL    HW174551   7.823   1.834  11.793 -0.0899 -1.2518 -0.8647
24370SOL    HW274552   7.924   1.802  11.901 -0.6003  0.5460  0.1830
24371SOL     OW74553   2.041   7.793  10.588  0.2641  0.3847 -0.1661
24371SOL    HW174554   2.070   7.707  10.556 -0.6039  0.3203 -0.8165
24371SOL    HW274555   2.015   7.841  10.509  0.4002  1.1188  0.2256
24372SOL     OW74556   1.841   2.040  10.821  0.0770  0.2189  0.9645
24372SOL    HW174557   1.764   2.098  10.814 -1.5548 -2.0026 -1.7050
24372SOL    HW274558   1.804   1.954  10.840  2.2229 -0.4389  2.4249
24373SOL     OW74559   7.885   0.436  11.166 -0.4428 -0.1508 -0.3003
24373SOL    HW174560   7.888   0.341  11.171  0.3202 -0.0787  1.3739
24373SOL    HW274561   7.880   0.455  11.073  1.2177 -1.8014 -0.7841
24374SOL     OW74562   7.414   1.172   0.076 -0.1597  0.3056 -0.5736
24374SOL    HW174563   7.364   1.157   0.156 -0.3056 -0.1516 -0.7487
24374SOL    HW274564   7.411   1.267   0.063 -1.3876  0.2493 -0.8430
24375SOL     OW74565   7.533   0.340   8.677  0.7291 -0.3926 -0.0756
24375SOL    HW174566   7.559   0.250   8.657 -0.1871 -0.7256  0.1693
24375SOL    HW274567   7.438   0.336   8.686  0.7173  0.5234  0.3534
24376SOL     OW74568   1.144   7.504  11.281 -0.4414  0.2058 -0.3258
24376SOL    HW174569   1.207   7.492  11.210 -0.6486 -0.8813 -0.3504
24376SOL    HW274570   1.195   7.543  11.352  0.0673  0.1283 -0.6394
24377SOL     OW74571   0.764   7.497  11.277  0.2437  0.1217 -0.0680
24377SOL    HW174572   0.788   7.557  11.347  1.7991 -0.6254  0.0836
24377SOL    HW274573   0.781   7.410  11.313  1.4195 -0.2700 -1.4688
24378SOL     OW74574   6.783   3.550  12.207 -0.1327 -0.4302 -0.0348
24378SOL    HW174575   6.806   3.464  12.244  0.5598 -0.4402 -0.4706
24378SOL    HW274576   6.692   3.540  12.179 -0.5215 -0.5791  1.2015
24379SOL     OW74577   0.665   1.438  11.586  0.2854 -0.4115 -0.0920
24379SOL    HW174578   0.748   1.391  11.592  0.4337  0.0318  2.8473
24379SOL    HW274579   0.644   1.440  11.493  2.8997 -1.6810 -0.7690
24380SOL     OW74580   2.248   7.936   9.563 -0.0978 -0.5657  0.3238
24380SOL    HW174581   2.248   7.857   9.508 -0.7261  0.1665 -0.7576
24380SOL    HW274582   2.170   7.984   9.536  0.5309  0.6659  0.6266
24381SOL     OW74583   1.760   3.018   0.101 -0.1709 -0.0664 -0.1743
24381SOL    HW174584   1.727   2.929   0.102  0.1682 -0.2070  1.0793
24381SOL    HW274585   1.688   3.071   0.137 -0.1469  0.0785 -0.3353
24382SOL     OW74586   0.716   1.293  11.907 -1.0421  0.0660 -0.3381
24382SOL    HW174587   0.778   1.289  11.835 -1.5103 -1.5297 -0.6677
24382SOL    HW274588   0.635   1.256  11.873 -1.3693 -0.4240  0.8994
24383SOL     OW74589   0.581   0.143   0.402 -0.2879  0.1466  0.3964
24383SOL    HW174590   0.558   0.053   0.380  0.7789 -0.0554  0.0660
24383SOL    HW274591   0.672   0.139   0.431 -0.0937  1.1634 -0.0001
24384SOL     OW74592   0.299   6.956  11.849 -0.1726  0.6636  0.2995
24384SOL    HW174593   0.338   6.899  11.783 -0.7064  0.0346  0.5080
24384SOL    HW274594   0.230   7.003  11.803 -1.0531 -0.3339  0.5532
24385SOL     OW74595   1.449   2.085  12.428  0.0381  0.1160  0.7516
24385SOL    HW174596   1.431   2.105  12.520 -0.5685  0.8502  0.4852
24385SOL    HW274597   1.393   2.010  12.409 -0.7619  0.7185  0.6630
24386SOL     OW74598   0.396   2.871  11.609  0.2629  0.1224  0.2567
24386SOL    HW174599   0.373   2.846  11.698 -0.3223  1.9458  0.6476
24386SOL    HW274600   0.345   2.812  11.553  2.0636 -2.3645  1.0204
24387SOL     OW74601   6.739   0.890   9.707 -0.5681  0.3659 -0.2596
24387SOL    HW174602   6.710   0.893   9.798 -2.0588  0.3207 -0.7123
24387SOL    HW274603   6.708   0.972   9.669 -1.2293 -0.2466 -1.0860
24388SOL     OW74604   2.097   7.346  11.208  0.2542 -0.6456 -0.2958
24388SOL    HW174605   2.082   7.369  11.299  1.4512  1.3933 -0.5274
24388SOL    HW274606   2.188   7.371  11.192 -0.1494 -0.2104 -2.2237
24389SOL     OW74607   2.041   0.960  11.213  0.0131 -0.0064 -0.1456
24389SOL    HW174608   2.109   0.894  11.202 -0.8108 -0.9716  0.3451
24389SOL    HW274609   2.086   1.043  11.203  0.8069 -0.6356 -2.3596
24390SOL     OW74610   7.564   3.009   0.158 -0.1610 -0.3632 -0.0737
24390SOL    HW174611   7.515   2.937   0.197 -0.5012 -0.4502 -0.6529
24390SOL    HW274612   7.614   2.969   0.087  1.2222 -0.3828  0.8792
24391SOL     OW74613   0.915   2.721  12.328  0.1204 -0.6001 -0.0538
24391SOL    HW174614   0.946   2.641  12.286  1.8231  0.0325 -0.0818
24391SOL    HW274615   0.921   2.704  12.421 -0.3514 -0.7934 -0.0544
24392SOL     OW74616   1.450   0.965  11.443 -0.3917 -0.9551  0.3441
24392SOL    HW174617   1.462   0.938  11.352  0.3774 -1.7090  0.6580
24392SOL    HW274618   1.496   1.049  11.449 -0.7370 -0.7353 -0.0441
24393SOL     OW74619   1.413   7.905  10.561  0.2922 -0.1011 -0.5746
24393SOL    HW174620   1.377   7.816  10.556 -0.5588  0.1837  0.2967
24393SOL    HW274621   1.342   7.962  10.534  0.9006  0.3128 -1.3236
24394SOL     OW74622   0.928   7.651  10.045  0.2073 -0.1242  0.6147
24394SOL    HW174623   0.971   7.566  10.047  1.5042  0.4791 -0.2056
24394SOL    HW274624   0.982   7.706  10.103 -0.0965  0.3623  0.4455
24395SOL     OW74625   7.289   7.432   0.287  1.1547  0.7050 -0.0265
24395SOL    HW174626   7.285   7.379   0.207  1.5055  0.8425 -0.1404
24395SOL    HW274627   7.268   7.521   0.257 -1.4324  0.3414  0.4902
24396SOL     OW74628   7.655   7.609  10.635  0.4637 -0.6078 -0.2217
24396SOL    HW174629   7.690   7.676  10.576  0.4780  1.0134  1.5551
24396SOL    HW274630   7.698   7.528  10.607  2.1785  0.5156 -0.9821
24397SOL     OW74631   7.387   1.613   9.351 -0.0412 -0.4267  0.1470
24397SOL    HW174632   7.442   1.573   9.285 -0.6323 -0.5633 -0.2723
24397SOL    HW274633   7.330   1.673   9.303 -2.3999 -2.5416  0.0910
24398SOL     OW74634   0.448   2.621   1.238 -0.1755  0.3805  0.3022
24398SOL    HW174635   0.415   2.678   1.169  2.7298  0.3981 -1.2364
24398SOL    HW274636   0.461   2.680   1.313 -0.5494  0.9925 -0.1048
24399SOL     OW74637   6.779   0.080  11.359  0.3508  0.2669 -0.5881
24399SOL    HW174638   6.844   0.123  11.304 -1.3777  0.6058 -2.4941
24399SOL    HW274639   6.726   0.151  11.395 -2.3009 -0.0257 -3.4748
24400SOL     OW74640   7.972   7.803  10.078  0.2966 -0.2984 -0.2963
24400SOL    HW174641   8.007   7.834   9.994 -2.0935 -1.6225 -1.9053
24400SOL    HW274642   7.990   7.875  10.139  0.7639  1.4002 -2.3076
24401SOL     OW74643   7.533   1.661  10.357 -0.3579  0.1184 -0.3433
24401SOL    HW174644   7.585   1.723  10.409  0.5688  0.0056 -1.1121
24401SOL    HW274645   7.459   1.713  10.326 -2.0849 -0.2632  2.6637
24402SOL     OW74646   7.391   0.143  11.819 -0.0021 -0.0917  0.3335
24402SOL    HW174647   7.365   0.091  11.743 -0.3047  1.2402 -0.5137
24402SOL    HW274648   7.410   0.079  11.887 -0.7804 -1.2809 -0.5350
24403SOL     OW74649   6.980   7.341  11.702  0.1033  0.0463 -0.0492
24403SOL    HW174650   6.920   7.384  11.641 -0.2024  0.9391  0.8442
24403SOL    HW274651   6.934   7.342  11.786  1.0900  0.1438  0.5084
24404SOL     OW74652   7.736   7.451  12.192 -0.1836 -0.3344 -0.2113
24404SOL    HW174653   7.812   7.506  12.212 -0.9623  0.4820  0.5437
24404SOL    HW274654   7.670   7.511  12.158 -0.2561 -1.1451 -1.5886
24405SOL     OW74655   1.206   0.864   1.058  0.0600 -0.3879 -0.0199
24405SOL    HW174656   1.292   0.826   1.077  0.4781  0.5614  0.0231
24405SOL    HW274657   1.148   0.830   1.126  0.7152  0.0711  0.7749
24406SOL     OW74658   7.209   2.220   0.383  0.1652  0.2281  0.1150
24406SOL    HW174659   7.194   2.180   0.297  0.8896  0.1045  0.0381
24406SOL    HW274660   7.266   2.158   0.428  1.3057  1.1665 -0.0047
24407SOL     OW74661   7.236   2.688   1.669 -0.5646 -0.1422 -0.5504
24407SOL    HW174662   7.229   2.671   1.575  0.8081 -0.4918 -0.6043
24407SOL    HW274663   7.295   2.619   1.701 -1.7100 -0.5619  0.7267
24408SOL     OW74664   0.857   1.442   1.685 -0.8677 -0.2890 -0.1565
24408SOL    HW174665   0.946   1.410   1.669 -1.2478 -1.3869 -0.1730
24408SOL    HW274666   0.857   1.466   1.777 -0.8857 -1.4676  0.1672
24409SOL     OW74667   7.828   5.873   1.710 -0.6207 -0.1731 -1.0943
24409SOL    HW174668   7.850   5.962   1.681  2.1667  0.8413  3.1863
24409SOL    HW274669   7.745   5.883   1.757  0.0890  0.4872  0.0940
24410SOL     OW74670   0.320   3.885   0.932 -1.0647 -0.0077 -0.2540
24410SOL    HW174671   0.244   3.903   0.987 -0.9374  1.3867 -0.4947
24410SOL    HW274672   0.388   3.944   0.965 -0.0381 -1.2817  0.0102
24411SOL     OW74673   7.596   2.678  12.215  0.5247  0.5718  0.0361
24411SOL    HW174674   7.621   2.599  12.263  0.0172  0.0355 -0.5501
24411SOL    HW274675   7.657   2.745  12.246  1.1993 -0.1323  0.2901
24412SOL     OW74676   0.642   3.956   1.002 -0.1607 -0.3459 -0.1013
24412SOL    HW174677   0.704   4.019   0.967 -0.4584  0.1395  0.2274
24412SOL    HW274678   0.608   3.910   0.925  0.9080 -0.9156 -0.2495
24413SOL     OW74679   0.487   4.737   1.566 -0.0869  0.5273  0.1168
24413SOL    HW174680   0.439   4.747   1.484  0.2102  0.4971 -0.0603
24413SOL    HW274681   0.487   4.642   1.583 -0.7911  0.5974  0.5371
24414SOL     OW74682   7.512   2.698   1.069  0.0132  0.0798 -0.1442
24414SOL    HW174683   7.583   2.724   1.128  1.3420 -1.7315 -0.8654
24414SOL    HW274684   7.552   2.637   1.008 -2.1632 -0.9633 -0.6324
24415SOL     OW74685   0.228   2.217   1.560  0.4918  0.3422 -0.1178
24415SOL    HW174686   0.312   2.174   1.543  0.0294  0.2194 -2.4456
24415SOL    HW274687   0.243   2.308   1.537 -0.4531 -0.0275 -2.4740
24416SOL     OW74688   6.945   1.481   1.419 -0.0041 -0.6939  0.1170
24416SOL    HW174689   6.853   1.489   1.393  0.1011 -0.4994 -0.2012
24416SOL    HW274690   6.992   1.466   1.337  0.1369 -1.8170  0.3860
24417SOL     OW74691   6.893   2.930   1.415  0.4537 -0.0505  0.3708
24417SOL    HW174692   6.850   2.878   1.348 -1.7326 -0.4040  1.9330
24417SOL    HW274693   6.870   3.020   1.394  0.2107 -0.1207  0.3253
24418SOL     OW74694   0.021   2.968   2.755 -0.1947  0.1587  0.0117
24418SOL    HW174695   0.049   3.005   2.838  0.3189  1.3478 -0.6642
24418SOL    HW274696  -0.068   2.936   2.770  0.0547 -0.0450  1.1194
24419SOL     OW74697   0.214   1.342   1.288 -0.6954 -0.1836  0.2309
24419SOL    HW174698   0.250   1.256   1.308  1.4982  0.5139 -0.4400
24419SOL    HW274699   0.177   1.373   1.371  0.6708 -0.7922  1.1018
24420SOL     OW74700   7.268   3.060   0.244  0.3975 -0.0623  0.0627
24420SOL    HW174701   7.277   3.104   0.328  1.0358 -0.8469  0.4228
24420SOL    HW274702   7.299   2.971   0.260  1.2426 -0.0184 -1.1753
24421SOL     OW74703   7.787   2.791   0.388 -0.0174  0.2182  0.0784
24421SOL    HW174704   7.709   2.738   0.408  0.6577 -0.8369 -0.0010
24421SOL    HW274705   7.782   2.865   0.448  0.1368 -1.0486  1.7234
24422SOL     OW74706   1.407   4.662  11.360  0.3103 -0.0206  0.0472
24422SOL    HW174707   1.393   4.568  11.350 -1.9243  0.3199 -0.7370
24422SOL    HW274708   1.325   4.694  11.399  0.8431  1.6575 -0.1261
24423SOL     OW74709   0.485   1.545   1.778  0.6422 -0.1364 -0.2065
24423SOL    HW174710   0.508   1.621   1.724 -0.1224  0.0570 -0.2699
24423SOL    HW274711   0.466   1.581   1.864  0.5741 -0.2865 -0.1581
24424SOL     OW74712   7.396   4.005   1.683  0.6116  0.4354 -0.3658
24424SOL    HW174713   7.328   4.046   1.736 -0.5468 -1.6879 -0.1041
24424SOL    HW274714   7.390   3.912   1.704  2.4677 -0.0262 -1.6406
24425SOL     OW74715   0.707   1.086  12.384 -0.6144  0.3112 -0.1938
24425SOL    HW174716   0.779   1.122  12.437 -2.4915  1.9238  1.3901
24425SOL    HW274717   0.692   1.153  12.317  0.0982 -0.5875 -1.2941
24426SOL     OW74718   6.230   0.802   1.426 -0.1642  0.4637  0.5430
24426SOL    HW174719   6.212   0.721   1.473 -0.6208  0.9059  1.1453
24426SOL    HW274720   6.162   0.862   1.456  0.8040  1.4001  0.9146
24427SOL     OW74721   7.806   2.316   0.287 -0.3184 -0.1193 -0.0388
24427SOL    HW174722   7.869   2.345   0.352 -0.9873 -0.7209  0.9037
24427SOL    HW274723   7.853   2.323   0.203  0.5892  0.5513  0.5125
24428SOL     OW74724   7.581   3.811  10.408  0.1500  0.6323 -0.0275
24428SOL    HW174725   7.560   3.808  10.501  1.2695 -1.8011  0.2379
24428SOL    HW274726   7.657   3.869  10.403 -1.4941  2.9388  0.1140
24429SOL     OW74727   0.674   3.640   2.150 -0.2580 -0.3026 -0.0589
24429SOL    HW174728   0.734   3.605   2.084 -0.3252 -0.3647 -0.0869
24429SOL    HW274729   0.724   3.709   2.193  0.3953 -1.3722  0.9763
24430SOL     OW74730   0.490   0.158   0.841  0.4880 -0.1678 -0.3520
24430SOL    HW174731   0.417   0.146   0.902 -0.2140  0.9909 -0.9394
24430SOL    HW274732   0.482   0.248   0.811  1.0287 -0.6015 -1.8808
24431SOL     OW74733   7.423   3.024   1.029  0.2929 -0.2420  0.3092
24431SOL    HW174734   7.512   2.991   1.045  0.1263  0.1870  2.4028
24431SOL    HW274735   7.370   2.980   1.095 -1.8785 -3.3746 -3.0979
24432SOL     OW74736   6.006   1.846  11.645  0.2308 -0.3313  0.3269
24432SOL    HW174737   5.938   1.894  11.694 -0.2323 -1.2655  0.6120
24432SOL    HW274738   6.086   1.894  11.664 -0.2701  0.5384  0.3337
24433SOL     OW74739   7.406   2.702  12.018  0.0245  0.2942  0.0417
24433SOL    HW174740   7.384   2.611  11.997 -0.1402  0.3991 -0.2454
24433SOL    HW274741   7.467   2.696  12.091  1.6310 -0.1479 -1.2699
24434SOL     OW74742   7.007   3.683  10.037 -0.1037  0.2133 -0.3882
24434SOL    HW174743   7.075   3.744  10.006 -1.0859  0.9656 -1.1483
24434SOL    HW274744   7.055   3.611  10.076  1.3282 -1.0869 -4.1389
24435SOL     OW74745   7.914   3.188   1.489 -0.3557  0.3508  0.5206
24435SOL    HW174746   7.905   3.171   1.583 -0.6082 -0.8773  0.2917
24435SOL    HW274747   7.830   3.161   1.452 -0.2517  0.8205 -0.0642
24436SOL     OW74748   1.341   3.409   1.864  0.1168  0.1198 -0.3231
24436SOL    HW174749   1.339   3.378   1.774  3.6318  2.0254 -1.2508
24436SOL    HW274750   1.377   3.336   1.915  0.2036 -0.2282 -0.8819
24437SOL     OW74751   0.609   1.116   1.211  0.1803 -0.4935 -0.3177
24437SOL    HW174752   0.703   1.111   1.227  0.3559 -0.2711 -1.2462
24437SOL    HW274753   0.599   1.185   1.146 -0.7031 -0.0147  0.2994
24438SOL     OW74754   7.483   1.570   1.506  0.1439 -0.0588 -0.5053
24438SOL    HW174755   7.504   1.487   1.549 -1.0675 -0.0315  0.1940
24438SOL    HW274756   7.387   1.575   1.511  0.2850  2.5991  1.8256
24439SOL     OW74757   1.727   1.586  11.618 -0.2774  0.1482  0.2708
24439SOL    HW174758   1.721   1.607  11.711 -1.1720 -2.0734  0.7836
24439SOL    HW274759   1.636   1.582  11.588 -0.0696 -0.7844 -0.2783
24440SOL     OW74760   5.716   3.454  11.817  0.0685 -0.2690  0.1684
24440SOL    HW174761   5.776   3.397  11.768  0.5773 -0.2347  0.7436
24440SOL    HW274762   5.768   3.532  11.836  0.0900 -0.5525  1.3339
24441SOL     OW74763   7.444   0.049   0.751  0.2707 -0.5549 -0.2392
24441SOL    HW174764   7.448   0.099   0.832  1.2377  0.1243 -0.6833
24441SOL    HW274765   7.409  -0.037   0.777  2.3721 -1.0359  1.2573
24442SOL     OW74766   7.727   1.942   1.194  0.6847 -0.1430 -0.2244
24442SOL    HW174767   7.679   1.941   1.277  1.8486 -0.3023  0.4696
24442SOL    HW274768   7.718   1.853   1.160 -0.3455  0.0993 -0.6079
24443SOL     OW74769   1.365   1.859  11.533 -0.6092  0.3238 -0.4018
24443SOL    HW174770   1.451   1.824  11.512 -1.0599 -0.9018 -0.3084
24443SOL    HW274771   1.381   1.950  11.559  0.4934  0.4798 -1.5334
24444SOL     OW74772   7.786   5.019  10.833  0.5980 -0.2727 -0.2126
24444SOL    HW174773   7.825   5.039  10.918  0.8279 -0.9668 -0.1518
24444SOL    HW274774   7.698   5.056  10.838  0.6746 -0.1448  0.2598
24445SOL     OW74775   7.651   2.743  11.657 -0.2738 -0.3657  0.7258
24445SOL    HW174776   7.728   2.730  11.602 -0.3785 -0.1070  0.5152
24445SOL    HW274777   7.683   2.732  11.746 -0.4392 -2.5321  0.5646
24446SOL     OW74778   6.923   3.201   1.396 -0.6009 -0.2561  0.0552
24446SOL    HW174779   6.834   3.229   1.419 -0.2438  0.1681  0.9611
24446SOL    HW274780   6.975   3.281   1.401  0.1530 -0.8023  1.2169
24447SOL     OW74781   0.484   3.646   1.727 -0.1872 -0.2653 -0.0285
24447SOL    HW174782   0.398   3.683   1.745  0.1476  0.7622 -0.5070
24447SOL    HW274783   0.531   3.715   1.681  1.1396 -0.5519  0.8293
24448SOL     OW74784   7.938   1.887  11.096 -0.4395  0.1951  0.3769
24448SOL    HW174785   8.032   1.900  11.103 -0.6384  0.9194  2.2585
24448SOL    HW274786   7.924   1.795  11.116 -0.0852 -0.1557 -0.8657
24449SOL     OW74787   0.294   2.512  12.204 -0.4966  0.0447  0.0834
24449SOL    HW174788   0.316   2.580  12.140 -0.3846  1.4157  1.4933
24449SOL    HW274789   0.259   2.561  12.279 -2.4760 -1.6259  0.3357
24450SOL     OW74790   6.329   3.507  11.258 -0.7196  0.4100  0.3055
24450SOL    HW174791   6.236   3.484  11.265 -0.5508 -0.3851  0.0147
24450SOL    HW274792   6.358   3.465  11.176 -0.2208  1.0601  0.1415
24451SOL     OW74793   1.344   2.744   1.207 -0.0138  0.0909  0.8648
24451SOL    HW174794   1.363   2.707   1.293 -0.0926 -0.6294  0.5798
24451SOL    HW274795   1.258   2.709   1.184 -0.3103  0.8423  0.7915
24452SOL     OW74796   7.913   1.753  12.111 -0.4209 -0.2285  0.0667
24452SOL    HW174797   7.970   1.685  12.147  0.7129  0.8538  0.4165
24452SOL    HW274798   7.824   1.725  12.132 -0.1673 -2.7612 -1.8545
24453SOL     OW74799   7.980   2.380   0.071 -0.2748 -0.3711 -0.7005
24453SOL    HW174800   8.044   2.332   0.019 -0.1727  2.4809 -3.5426
24453SOL    HW274801   7.908   2.399   0.010 -0.5895  2.3767  0.3449
24454SOL     OW74802   1.161   4.363   1.060  0.2095  0.1144  0.4982
24454SOL    HW174803   1.083   4.320   1.095 -0.6589  1.1716 -0.0690
24454SOL    HW274804   1.229   4.344   1.124 -0.2149 -1.7758  0.4324
24455SOL     OW74805   7.798   2.901  12.211 -0.1662 -0.3011  0.5806
24455SOL    HW174806   7.867   2.968  12.214 -0.1449 -0.3283  3.4604
24455SOL    HW274807   7.720   2.948  12.184  0.4794  0.2016 -0.4897
24456SOL     OW74808   0.039   2.047   0.561  0.2760  0.1977  0.3704
24456SOL    HW174809   0.027   1.976   0.624  3.7099  0.5091  1.5792
24456SOL    HW274810   0.055   2.124   0.614 -0.2507  1.2580 -0.9508
24457SOL     OW74811   0.885   0.644  12.092  0.2346 -0.4093 -0.5701
24457SOL    HW174812   0.815   0.709  12.092  0.0546 -0.5990 -0.8266
24457SOL    HW274813   0.844   0.564  12.058  0.2475 -0.8895  0.4887
24458SOL     OW74814   7.534   3.311   0.191 -0.5713 -0.5198 -0.3789
24458SOL    HW174815   7.529   3.216   0.198 -0.3584 -0.4635  0.5875
24458SOL    HW274816   7.588   3.338   0.265  2.1094  0.0881 -2.3980
24459SOL     OW74817   0.138   3.934   1.152  0.1304 -0.2825 -0.3813
24459SOL    HW174818   0.189   3.933   1.232 -0.5766  0.0572  0.0859
24459SOL    HW274819   0.091   4.017   1.154  2.0079  0.9579 -2.3848
24460SOL     OW74820   0.050   2.129  11.591  0.7787 -0.1453  0.0329
24460SOL    HW174821   0.099   2.170  11.520 -0.7182  0.3253 -0.7691
24460SOL    HW274822   0.000   2.201  11.630 -1.6113 -1.0595 -1.1530
24461SOL     OW74823   0.634   3.113   2.389 -0.1815 -0.6916 -0.5008
24461SOL    HW174824   0.724   3.145   2.381 -0.2977  0.0803  0.8971
24461SOL    HW274825   0.638   3.022   2.360  1.2110 -0.8914  0.2373
24462SOL     OW74826   7.355   3.965   3.153  0.0591 -0.3802  0.2752
24462SOL    HW174827   7.339   4.000   3.065  0.1351  0.5402  0.6196
24462SOL    HW274828   7.321   4.031   3.212  1.8256 -0.0342  0.9744
24463SOL     OW74829   7.381   4.153  11.905 -0.3346 -0.0498 -0.1768
24463SOL    HW174830   7.475   4.135  11.905 -0.1510  0.8415  0.5348
24463SOL    HW274831   7.355   4.146  11.812  0.0545 -2.0387 -0.1964
24464SOL     OW74832   7.674   0.488   2.710  0.3285  0.1260  0.0693
24464SOL    HW174833   7.760   0.526   2.725  0.1223  0.3635  0.6970
24464SOL    HW274834   7.666   0.419   2.777  0.4420 -0.5937 -0.6411
24465SOL     OW74835   0.271   1.249   1.695  0.0163  1.0280 -0.5905
24465SOL    HW174836   0.301   1.302   1.769  0.4438  0.9720 -0.7181
24465SOL    HW274837   0.340   1.183   1.684 -0.0352  1.0478 -1.0469
24466SOL     OW74838   6.494   2.463  12.353  0.1682 -0.3937 -0.8569
24466SOL    HW174839   6.503   2.425  12.440  1.0915 -1.0098 -1.2052
24466SOL    HW274840   6.583   2.491  12.330 -0.4133  1.7954 -0.7090
24467SOL     OW74841   0.025   3.226   3.470  0.0335  0.4954  0.3662
24467SOL    HW174842  -0.051   3.283   3.486  0.3874  1.0772 -0.0136
24467SOL    HW274843   0.099   3.286   3.461  0.1601  0.1040 -1.6879
24468SOL     OW74844   5.632   2.130   2.175 -0.2535 -0.4715 -0.0233
24468SOL    HW174845   5.606   2.038   2.178  1.0585 -1.0714 -3.0785
24468SOL    HW274846   5.720   2.131   2.213 -0.7463 -0.1857  1.1771
24469SOL     OW74847   7.359   4.429   3.533  0.0768 -0.3193  0.0436
24469SOL    HW174848   7.337   4.367   3.603  1.1391 -0.0531  0.6340
24469SOL    HW274849   7.323   4.512   3.562 -1.0306 -0.5653 -0.5782
24470SOL     OW74850   7.090   4.232   2.925  0.6718  0.7174 -0.0061
24470SOL    HW174851   7.000   4.230   2.892  0.5835  0.2539  0.2435
24470SOL    HW274852   7.080   4.220   3.020  1.0968 -1.6591 -0.1926
24471SOL     OW74853   0.570   3.135   4.127 -0.1561  0.4375  0.0431
24471SOL    HW174854   0.648   3.174   4.168  0.0805  0.3902 -0.3494
24471SOL    HW274855   0.528   3.085   4.197  1.6466 -1.7955 -0.3281
24472SOL     OW74856   7.559   4.835   1.343  0.2521 -0.0589  0.4957
24472SOL    HW174857   7.621   4.763   1.332 -0.1814 -0.1477 -2.3469
24472SOL    HW274858   7.491   4.800   1.401 -0.0409 -2.0904 -0.9316
24473SOL     OW74859   7.457   4.307   1.621 -0.2391 -0.2279  0.0042
24473SOL    HW174860   7.533   4.250   1.618 -0.9416 -1.1525 -1.0024
24473SOL    HW274861   7.395   4.261   1.678  0.2570  0.9453  1.5483
24474SOL     OW74862   0.001   1.669   3.553  0.0155  0.0887 -0.0849
24474SOL    HW174863   0.078   1.626   3.589 -0.5748  0.3085  1.5215
24474SOL    HW274864  -0.069   1.604   3.562 -0.3022  0.4255 -0.1159
24475SOL     OW74865   7.260   3.497   1.609  0.3372 -0.5565  1.0824
24475SOL    HW174866   7.275   3.446   1.530 -1.9602  2.1293 -1.2943
24475SOL    HW274867   7.232   3.433   1.674  0.9310 -2.6940 -0.6630
24476SOL     OW74868   5.145   1.298   5.694 -0.0126 -0.0773  0.0837
24476SOL    HW174869   5.077   1.269   5.632  0.0253 -1.4717  0.6535
24476SOL    HW274870   5.117   1.263   5.778  0.6263  0.6693  0.6217
24477SOL     OW74871   5.915   1.283   3.085  0.8710  0.3838  0.2644
24477SOL    HW174872   5.918   1.321   3.172  1.4088  0.6016  0.1553
24477SOL    HW274873   5.904   1.189   3.099 -1.9254  0.6518  0.5302
24478SOL     OW74874   6.420   3.980   1.851  0.2882 -0.0817  0.8887
24478SOL    HW174875   6.376   4.027   1.922 -0.3074 -0.5407  0.8247
24478SOL    HW274876   6.494   3.937   1.893 -0.2085 -0.5596  1.2830
24479SOL     OW74877   5.837   4.515   5.283 -0.0798 -0.0937  0.0911
24479SOL    HW174878   5.813   4.604   5.256  0.1222  0.2082  0.8814
24479SOL    HW274879   5.794   4.503   5.368  0.1695 -0.6314  0.1488
24480SOL     OW74880   1.194   1.933   1.977 -0.1357  0.1033 -0.2210
24480SOL    HW174881   1.105   1.964   1.999  0.5577  1.6916  0.5673
24480SOL    HW274882   1.228   1.999   1.917 -0.0653 -1.4034 -1.8937
24481SOL     OW74883   1.694   2.254   3.001  0.0405  0.4532 -0.3491
24481SOL    HW174884   1.697   2.346   3.025  0.9078  0.0242  1.3470
24481SOL    HW274885   1.718   2.207   3.081 -2.0347 -1.3351 -0.6702
24482SOL     OW74886   7.796   2.917   1.569  0.0046  0.3742 -0.5437
24482SOL    HW174887   7.724   2.960   1.615  1.2535  0.8876  0.9767
24482SOL    HW274888   7.792   2.825   1.598 -0.5850  0.1891 -1.1823
24483SOL     OW74889   3.087   3.414   1.837 -0.1944 -0.1390 -0.0702
24483SOL    HW174890   3.072   3.336   1.890 -0.5842 -0.2960 -0.4089
24483SOL    HW274891   3.045   3.485   1.885 -1.5411 -0.4716 -0.7184
24484SOL     OW74892   7.507   2.688   3.331 -0.1441 -0.1354 -0.3348
24484SOL    HW174893   7.418   2.720   3.345  0.1854  1.0966 -0.9382
24484SOL    HW274894   7.496   2.597   3.301 -1.2086  0.1202 -0.7388
24485SOL     OW74895   6.055   3.937   5.553 -0.4103  0.0678  0.1355
24485SOL    HW174896   6.044   3.853   5.599 -3.3814  1.1842  1.7296
24485SOL    HW274897   6.118   3.985   5.607 -0.3889 -0.3132  0.4572
24486SOL     OW74898   7.403   1.073   1.959 -0.0201  0.1428 -0.6535
24486SOL    HW174899   7.476   1.136   1.958  0.3175 -0.1851  0.5912
24486SOL    HW274900   7.417   1.019   1.882  0.9481  0.2243 -0.5537
24487SOL     OW74901   2.174   3.817   1.880 -0.8283 -0.4666 -0.0318
24487SOL    HW174902   2.188   3.814   1.974 -2.3671  0.9501  0.2886
24487SOL    HW274903   2.092   3.866   1.869  0.2085  0.9551 -2.1693
24488SOL     OW74904   7.842   2.357   2.980  1.0092  0.0814 -0.8230
24488SOL    HW174905   7.916   2.302   3.005 -0.2616 -0.2601  2.7233
24488SOL    HW274906   7.783   2.298   2.933  1.9200 -0.1979 -1.6655
24489SOL     OW74907   7.782   2.902   2.821 -0.1988  0.0034  0.7484
24489SOL    HW174908   7.697   2.945   2.831 -0.8080 -1.2625  1.3021
24489SOL    HW274909   7.770   2.816   2.861  0.2874 -1.5577 -2.1481
24490SOL     OW74910   7.690   1.232   2.874 -0.3661 -0.0858 -0.1580
24490SOL    HW174911   7.707   1.139   2.856  0.2432 -0.2464  1.1909
24490SOL    HW274912   7.707   1.242   2.967  0.9693  1.6923 -0.5526
24491SOL     OW74913   7.544   3.053   2.877  0.1725 -0.1910  0.1097
24491SOL    HW174914   7.469   3.004   2.845  0.0502  0.1244 -0.0996
24491SOL    HW274915   7.535   3.140   2.836  0.0138  0.2209  1.0029
24492SOL     OW74916   6.868   2.142   1.872 -0.4482 -0.3582 -0.2634
24492SOL    HW174917   6.835   2.055   1.893 -0.8688 -0.3256 -0.7596
24492SOL    HW274918   6.956   2.127   1.838  0.2597 -0.4086  1.4782
24493SOL     OW74919   0.251   3.663   2.287 -0.4835 -0.2264 -0.1369
24493SOL    HW174920   0.160   3.677   2.261 -0.2472  1.7551 -0.0862
24493SOL    HW274921   0.254   3.690   2.379 -0.1066 -1.5833  0.2697
24494SOL     OW74922   6.970   4.764   4.691 -0.4796 -0.1361  0.1690
24494SOL    HW174923   7.013   4.694   4.642 -0.9556 -0.3388  0.0382
24494SOL    HW274924   6.960   4.728   4.780 -2.0864 -0.8351 -0.2611
24495SOL     OW74925   6.784   1.558   2.210  0.2105 -0.5497  0.1982
24495SOL    HW174926   6.725   1.559   2.135 -0.4609  1.6179  0.6758
24495SOL    HW274927   6.844   1.485   2.193 -1.9196 -2.1849 -0.8143
24496SOL     OW74928   7.740   3.789   3.098 -0.2806 -0.4304  0.7475
24496SOL    HW174929   7.803   3.855   3.067 -2.2384  0.7120 -1.0470
24496SOL    HW274930   7.699   3.830   3.174 -1.9117  0.8151 -0.7052
24497SOL     OW74931   7.967   3.765   2.672  0.4020 -0.0781  0.3434
24497SOL    HW174932   7.913   3.831   2.628  0.7825  0.2475  0.3607
24497SOL    HW274933   7.912   3.687   2.675 -0.4867  0.5504  1.3106
24498SOL     OW74934   0.984   4.354   3.557  0.6226  1.0085  0.7023
24498SOL    HW174935   0.953   4.336   3.646 -0.1587  1.2159  0.4712
24498SOL    HW274936   1.071   4.392   3.570  0.0506  2.1112  1.4464
24499SOL     OW74937   6.532   0.288   1.882  0.1545  0.2614 -0.4690
24499SOL    HW174938   6.486   0.268   1.964  0.4101 -0.9647 -0.6086
24499SOL    HW274939   6.526   0.208   1.831  1.1955  0.5631 -1.0859
24500SOL     OW74940   0.271   3.196   2.540 -0.5438  0.6815 -0.6154
24500SOL    HW174941   0.280   3.269   2.601  1.8946  0.2413 -0.3426
24500SOL    HW274942   0.179   3.170   2.547 -0.5311  1.0519  2.4303
24501SOL     OW74943   7.910   3.697   4.057  0.1264 -0.1306 -0.0823
24501SOL    HW174944   7.978   3.671   3.995 -0.2058 -1.2553  0.0015
24501SOL    HW274945   7.888   3.787   4.032  0.2722 -0.4301 -1.3521
24502SOL     OW74946   7.255   3.190   2.523  0.7310  0.2166 -0.4050
24502SOL    HW174947   7.350   3.192   2.540  0.6448  2.2725  0.1718
24502SOL    HW274948   7.232   3.097   2.526  2.3595 -0.2138  1.6705
24503SOL     OW74949   7.474   4.796  12.220  0.3299 -0.2674 -0.0971
24503SOL    HW174950   7.380   4.784  12.234 -0.1509 -0.2777 -2.8655
24503SOL    HW274951   7.506   4.709  12.197  0.7184  0.0039 -0.6097
24504SOL     OW74952   7.616   1.600   2.128  0.7250 -0.4888 -0.0605
24504SOL    HW174953   7.616   1.695   2.121  1.9725 -0.2883  1.8441
24504SOL    HW274954   7.676   1.581   2.201 -1.9891 -2.5265  1.8824
24505SOL     OW74955   7.698   2.545   0.941 -0.5748  0.5484 -0.4648
24505SOL    HW174956   7.702   2.471   0.880  0.7004  0.2015  0.0105
24505SOL    HW274957   7.734   2.618   0.891 -1.6587  0.8188 -0.8712
24506SOL     OW74958   0.486   1.769   1.990  0.3958  0.1084  0.0574
24506SOL    HW174959   0.569   1.810   1.965  1.1051 -1.5224 -0.3841
24506SOL    HW274960   0.419   1.830   1.960  1.3645  0.2211 -2.0659
24507SOL     OW74961   7.389   4.712   1.803 -0.5882 -0.0727  0.0746
24507SOL    HW174962   7.462   4.754   1.848  0.0534 -1.7534  0.6896
24507SOL    HW274963   7.312   4.761   1.833 -0.1750 -0.9513  2.9342
24508SOL     OW74964   0.776   5.060   3.018 -0.5498 -0.1527  0.1868
24508SOL    HW174965   0.822   5.105   2.947  1.8697 -1.7422  0.6268
24508SOL    HW274966   0.750   4.977   2.980 -1.5847  0.0387  0.4544
24509SOL     OW74967   7.374   0.249   2.342 -0.3820 -0.2535  0.2486
24509SOL    HW174968   7.287   0.265   2.381  0.0111 -1.3168  1.6498
24509SOL    HW274969   7.423   0.205   2.411  0.2838 -2.5684 -1.5739
24510SOL     OW74970   5.881   3.337   4.974  0.2307 -0.0587  0.6324
24510SOL    HW174971   5.953   3.373   4.921  0.7913 -0.8352  0.8445
24510SOL    HW274972   5.802   3.375   4.936  0.7447  0.8061  0.3827
24511SOL     OW74973   7.822   1.736   0.688  0.7831 -0.5814  0.4396
24511SOL    HW174974   7.912   1.715   0.662  0.6438 -2.1201  1.0840
24511SOL    HW274975   7.815   1.830   0.675  2.0935 -0.6208 -0.7970
24512SOL     OW74976   6.878   3.116   2.737 -0.0593  0.0891 -0.0790
24512SOL    HW174977   6.890   3.207   2.767  0.4876  0.5273 -1.5509
24512SOL    HW274978   6.786   3.097   2.756 -0.1849  0.9545  0.2629
24513SOL     OW74979   1.529   2.076   1.497  0.0615 -0.4113 -0.2034
24513SOL    HW174980   1.585   2.018   1.549 -0.4150 -0.7096 -0.0227
24513SOL    HW274981   1.445   2.032   1.493 -0.2169  0.1197 -0.3329
24514SOL     OW74982   7.502   3.520   3.435  0.4740 -0.0147  0.1362
24514SOL    HW174983   7.427   3.560   3.390  0.7876  0.4081 -0.0128
24514SOL    HW274984   7.472   3.509   3.526  0.1152 -0.1603  0.0047
24515SOL     OW74985   7.622   3.648   2.360  0.1618 -0.1315  0.0168
24515SOL    HW174986   7.554   3.585   2.338  0.4619 -0.3853 -0.1976
24515SOL    HW274987   7.689   3.597   2.406  0.8383 -0.1673 -0.9749
24516SOL     OW74988   6.025   4.235   4.801 -0.2129  0.2280 -0.3290
24516SOL    HW174989   6.114   4.248   4.768 -0.6229  2.1277 -0.7865
24516SOL    HW274990   5.970   4.240   4.723 -0.6236 -3.3724 -0.4363
24517SOL     OW74991   7.357   1.708   1.831  0.4771  0.5522 -0.4052
24517SOL    HW174992   7.421   1.710   1.759  0.8462  0.5763 -0.0815
24517SOL    HW274993   7.370   1.622   1.871  0.4991  0.6693 -0.1625
24518SOL     OW74994   7.294   2.607   2.942 -0.0436 -0.2694  0.1390
24518SOL    HW174995   7.316   2.691   2.902 -1.3183  0.5034  0.9925
24518SOL    HW274996   7.235   2.565   2.880  0.2516 -0.3500 -0.0899
24519SOL     OW74997   0.537   2.333   3.138  0.2835 -0.3973  0.4433
24519SOL    HW174998   0.621   2.375   3.120  0.0964  0.4471  1.4357
24519SOL    HW274999   0.497   2.319   3.052  0.6544  0.8273  0.0623
24520SOL     OW75000   0.757   3.768   1.760  0.3365  0.2291  0.2825
24520SOL    HW175001   0.847   3.766   1.726  1.7600  1.7592  3.5062
24520SOL    HW275002   0.753   3.693   1.820 -0.2784  0.5640  0.6644
24521SOL     OW75003   7.484   4.585   4.185 -0.1929 -0.3436  0.3116
24521SOL    HW175004   7.551   4.542   4.238  0.1517 -0.0322  0.1304
24521SOL    HW275005   7.406   4.530   4.196  0.2217 -0.9719  0.1361
24522SOL     OW75006   7.225   7.310   1.935 -0.4584 -0.0206 -0.2916
24522SOL    HW175007   7.256   7.275   2.019  0.6403 -1.5606 -1.2757
24522SOL    HW275008   7.186   7.234   1.891 -1.1992  0.8127 -1.1114
24523SOL     OW75009   6.325   2.553   0.268  0.4383  0.0921  0.2445
24523SOL    HW175010   6.408   2.593   0.293  0.3949  1.2516 -1.3013
24523SOL    HW275011   6.268   2.627   0.247  0.2303 -0.6984 -2.3592
24524SOL     OW75012   6.205   4.495   4.962 -0.3679 -0.0071 -0.5962
24524SOL    HW175013   6.154   4.570   4.933  2.2147  2.0483 -0.1924
24524SOL    HW275014   6.152   4.419   4.937 -3.3347  1.8962 -0.5764
24525SOL     OW75015   7.423   4.392   4.692 -0.4498  0.6768  0.3913
24525SOL    HW175016   7.363   4.445   4.745 -2.6656 -1.3550  0.0535
24525SOL    HW275017   7.416   4.304   4.729  1.3576  0.1056 -0.5235
24526SOL     OW75018   0.545   5.425   2.649 -0.2643  0.0173  0.0770
24526SOL    HW175019   0.507   5.409   2.735 -2.6084 -0.1898 -0.9296
24526SOL    HW275020   0.493   5.372   2.589  0.2933  1.3396 -1.6719
24527SOL     OW75021   2.106   4.288   4.523 -0.3594 -0.0941  0.1606
24527SOL    HW175022   2.117   4.379   4.493  0.5978 -0.2922 -0.1231
24527SOL    HW275023   2.172   4.239   4.475 -0.7124 -0.9108  0.4932
24528SOL     OW75024   7.835   1.247   2.009 -0.0724 -0.5341 -0.0181
24528SOL    HW175025   7.864   1.335   2.034 -2.5180 -0.3075  2.4426
24528SOL    HW275026   7.883   1.188   2.068  0.4777 -0.7792 -0.6854
24529SOL     OW75027   6.945   3.304   1.724 -0.0096 -0.2641 -0.4316
24529SOL    HW175028   6.933   3.279   1.633 -1.4416  0.2998 -0.4147
24529SOL    HW275029   6.901   3.236   1.774 -0.0693 -0.0571 -0.2001
24530SOL     OW75030   6.698   2.742   3.945 -0.1979  1.1275  0.5025
24530SOL    HW175031   6.658   2.668   3.989  1.1847  0.3404  0.4789
24530SOL    HW275032   6.656   2.819   3.984  0.2235  0.4314  2.4586
24531SOL     OW75033   7.417   3.257   7.813  0.1139 -0.3729  0.1621
24531SOL    HW175034   7.441   3.349   7.818 -3.1606  0.6102 -0.2292
24531SOL    HW275035   7.472   3.222   7.743  0.7626  1.4890 -0.3083
24532SOL     OW75036   0.342   2.410   2.811  0.4845 -0.2705 -0.0041
24532SOL    HW175037   0.399   2.334   2.801  1.7023  0.7304 -1.0408
24532SOL    HW275038   0.402   2.485   2.813 -0.7442  0.7531 -0.1003
24533SOL     OW75039   6.562   2.035   5.114 -0.2721 -0.3326 -0.2735
24533SOL    HW175040   6.495   1.970   5.135 -0.5057 -0.1945 -0.5838
24533SOL    HW275041   6.513   2.109   5.077  0.1643 -0.7699 -1.7848
24534SOL     OW75042   0.974   2.881   6.669  0.3475 -0.2807 -0.1788
24534SOL    HW175043   0.894   2.863   6.619  0.9961 -0.7192 -1.0891
24534SOL    HW275044   1.036   2.914   6.604  0.8105  0.3836  0.5806
24535SOL     OW75045   1.319   3.059   4.552 -0.0836 -0.1108  0.0282
24535SOL    HW175046   1.259   3.029   4.621  0.9195  0.6213  1.2641
24535SOL    HW275047   1.345   2.979   4.507 -0.8127 -0.6002  0.4531
24536SOL     OW75048   7.859   2.843   3.643  0.1650  0.3491  0.4046
24536SOL    HW175049   7.818   2.869   3.726  0.1707  2.0209 -0.0982
24536SOL    HW275050   7.798   2.778   3.607 -0.4749  0.5336  1.1185
24537SOL     OW75051   0.938   4.256   1.158  0.4770 -0.7096 -0.5073
24537SOL    HW175052   0.894   4.249   1.243  0.1495  0.0546 -0.6073
24537SOL    HW275053   0.870   4.240   1.093 -0.2588  2.6605 -0.7425
24538SOL     OW75054   5.941   2.535   4.378 -0.7091  0.6993 -0.0148
24538SOL    HW175055   5.901   2.589   4.446 -1.4259  0.0460  0.1088
24538SOL    HW275056   6.028   2.514   4.411 -0.3164  2.0053 -0.2019
24539SOL     OW75057   7.400   5.628   3.960  0.0636 -0.6265  0.1549
24539SOL    HW175058   7.392   5.660   4.049 -4.2619 -0.4079 -0.1017
24539SOL    HW275059   7.392   5.706   3.905  2.0842 -0.8259 -0.5104
24540SOL     OW75060   6.784   1.139   7.504  0.1668 -0.0759  0.0911
24540SOL    HW175061   6.832   1.205   7.552  2.4500 -0.8238 -1.0402
24540SOL    HW275062   6.699   1.179   7.486  0.5105  1.4864  1.7131
24541SOL     OW75063   5.972   3.738   5.747 -0.0088 -0.1824 -0.0030
24541SOL    HW175064   5.940   3.660   5.794  1.7884  0.5449  2.6764
24541SOL    HW275065   5.892   3.782   5.717 -1.2122 -1.5118  1.0792
24542SOL     OW75066   7.349   1.967   4.562 -0.4047  0.1101  0.4068
24542SOL    HW175067   7.298   1.945   4.483 -0.6836  1.7068  0.1060
24542SOL    HW275068   7.439   1.974   4.531 -0.3217 -0.5496  0.4956
24543SOL     OW75069   6.724   3.210   4.345  0.4140  0.4518 -0.1011
24543SOL    HW175070   6.662   3.191   4.274 -0.2517  1.3579  0.2135
24543SOL    HW275071   6.668   3.232   4.420  1.0927  2.6146 -0.1836
24544SOL     OW75072   7.805   1.477   3.569  0.1345 -0.1734  0.1427
24544SOL    HW175073   7.724   1.526   3.581  1.4470  2.3178 -0.4375
24544SOL    HW275074   7.786   1.417   3.496 -0.8519  1.2555 -0.8363
24545SOL     OW75075   2.078   2.226   7.024  0.1482 -0.5809  0.3123
24545SOL    HW175076   2.105   2.155   7.082  3.3686  0.5539  0.3653
24545SOL    HW275077   2.054   2.297   7.083  0.2035 -0.5089  0.2473
24546SOL     OW75078   6.010   2.387   3.837 -0.2469  0.3449 -0.4328
24546SOL    HW175079   5.998   2.364   3.929 -1.1523 -0.6409 -0.7732
24546SOL    HW275080   6.105   2.386   3.824 -0.1363 -3.2897 -0.3742
24547SOL     OW75081   7.042   5.332   3.687  0.1101 -0.4376  0.2563
24547SOL    HW175082   7.092   5.370   3.760 -0.9080  0.2780  0.6048
24547SOL    HW275083   7.037   5.403   3.623 -0.2523 -0.5790  0.1269
24548SOL     OW75084   1.323   4.399   3.810  0.0541  0.4441  0.1429
24548SOL    HW175085   1.407   4.443   3.823  0.1735 -0.1848  1.8069
24548SOL    HW275086   1.269   4.429   3.884 -0.3298 -1.0458  0.5028
24549SOL     OW75087   7.123   2.176   6.200  0.1039 -0.2007 -0.3387
24549SOL    HW175088   7.184   2.211   6.265 -0.8478  1.0219 -0.0549
24549SOL    HW275089   7.120   2.082   6.217  0.0749  0.0619  1.2174
24550SOL     OW75090   7.175   3.127   6.414 -0.0545  0.4434  0.3610
24550SOL    HW175091   7.084   3.099   6.404 -0.0611 -0.1422  1.7660
24550SOL    HW275092   7.226   3.053   6.381 -0.0980  0.1990  0.8211
24551SOL     OW75093   7.863   3.749   5.250 -0.2756  0.0830  0.0293
24551SOL    HW175094   7.951   3.775   5.276 -0.5275 -1.0857  2.2863
24551SOL    HW275095   7.829   3.824   5.200  2.0314  0.4485 -1.1224
24552SOL     OW75096   6.986   1.971   4.935  0.6415  0.3760  0.1563
24552SOL    HW175097   6.978   1.882   4.969  0.0776  0.3990  0.0910
24552SOL    HW275098   6.949   2.026   5.004 -0.4876  0.4256 -0.4683
24553SOL     OW75099   6.593   2.397   4.855 -0.0168  0.6683 -0.2024
24553SOL    HW175100   6.596   2.342   4.777  0.3179  3.2780 -2.1869
24553SOL    HW275101   6.685   2.415   4.875 -0.0331  3.4237 -1.9727
24554SOL     OW75102   0.108   2.030   5.291 -0.1879 -0.0068 -0.3794
24554SOL    HW175103   0.101   2.114   5.337 -2.0926 -0.5114  0.3736
24554SOL    HW275104   0.124   1.966   5.360  1.4731 -0.2816 -0.9740
24555SOL     OW75105   6.257   3.773   4.346  0.1969 -0.0297  0.4074
24555SOL    HW175106   6.270   3.700   4.406 -0.5733  0.1601  0.8073
24555SOL    HW275107   6.162   3.777   4.332  0.4527 -2.3108 -3.5550
24556SOL     OW75108   1.123   3.088   5.480 -0.1762  0.0695  0.5310
24556SOL    HW175109   1.086   3.125   5.560  0.2646 -0.7527  1.1287
24556SOL    HW275110   1.047   3.053   5.432 -0.3951  0.1670  0.8039
24557SOL     OW75111   7.787   3.866   4.713  0.4558 -0.1584  0.1086
24557SOL    HW175112   7.731   3.853   4.789  1.2856  1.2647  1.0070
24557SOL    HW275113   7.735   3.919   4.653  0.1099 -0.5598  0.0535
24558SOL     OW75114   6.944   3.284   3.786  0.0805 -0.1845  0.5957
24558SOL    HW175115   6.857   3.256   3.757  1.3021 -2.2701 -1.3037
24558SOL    HW275116   6.971   3.216   3.849  0.3942  0.4155  1.1207
24559SOL     OW75117   0.027   2.529   5.810  0.5415  0.1546  0.5819
24559SOL    HW175118  -0.026   2.591   5.861  0.4242  0.0799  0.5496
24559SOL    HW275119   0.029   2.450   5.864  0.0306 -0.0819  0.2546
24560SOL     OW75120   5.352   2.520   4.577  0.8716  0.1895  0.7182
24560SOL    HW175121   5.336   2.564   4.660  0.3781 -0.9994  1.2756
24560SOL    HW275122   5.271   2.473   4.558  1.2703 -0.2356 -0.0033
24561SOL     OW75123   0.579   3.394   4.370  0.2362 -0.4132  0.2756
24561SOL    HW175124   0.485   3.399   4.353 -0.2661 -0.1788  2.7253
24561SOL    HW275125   0.599   3.476   4.416  1.6937 -0.3759 -0.3837
24562SOL     OW75126   7.052   2.212   4.333 -0.2883 -0.1346  0.0649
24562SOL    HW175127   7.134   2.234   4.290  0.3792  0.4259  1.5377
24562SOL    HW275128   7.076   2.202   4.425 -1.3750 -2.6985  0.1489
24563SOL     OW75129   5.966   2.983   4.626  0.2212  0.1958  0.0329
24563SOL    HW175130   5.975   2.966   4.719  0.9729 -0.2297 -0.1152
24563SOL    HW275131   5.940   3.075   4.621  2.4937  0.9181  0.5813
24564SOL     OW75132   5.861   1.858   6.719 -0.2426  0.4521  0.1431
24564SOL    HW175133   5.856   1.868   6.815 -3.1121 -0.9074  0.2249
24564SOL    HW275134   5.781   1.899   6.687 -0.2747 -0.8543 -1.5275
24565SOL     OW75135   7.054   2.297   5.848 -0.0666  0.4779  0.7837
24565SOL    HW175136   7.130   2.355   5.853 -0.4448  1.0776 -0.2063
24565SOL    HW275137   7.050   2.270   5.757 -0.7727  0.0792  0.9254
24566SOL     OW75138   7.668   2.172   5.699  0.0811 -0.1412 -0.1548
24566SOL    HW175139   7.707   2.226   5.630  1.1247  0.3978  0.8414
24566SOL    HW275140   7.579   2.155   5.667 -0.1097  1.7343 -0.7328
24567SOL     OW75141   7.735   3.288   5.824  0.4427 -0.4732  0.1044
24567SOL    HW175142   7.823   3.257   5.846  0.1058 -1.3045  0.3567
24567SOL    HW275143   7.700   3.321   5.907  0.6366  0.1719 -0.0682
24568SOL     OW75144   0.614   0.610   2.771  0.3481 -0.0019 -0.0818
24568SOL    HW175145   0.541   0.548   2.769 -1.6279  2.1364  0.8179
24568SOL    HW275146   0.646   0.608   2.861 -1.7066  2.2745  0.8178
24569SOL     OW75147   6.092   1.538   6.093 -0.7132 -0.1820 -0.1517
24569SOL    HW175148   6.175   1.490   6.102 -0.4438 -1.1168 -4.9280
24569SOL    HW275149   6.033   1.494   6.154  1.6508 -1.0235  1.7072
24570SOL     OW75150   6.164   2.308   5.304 -0.3389 -0.0175  0.6547
24570SOL    HW175151   6.083   2.352   5.327  0.3713  1.2464  0.8431
24570SOL    HW275152   6.179   2.329   5.212  0.5345  1.0446  1.0179
24571SOL     OW75153   7.350   2.616   4.700 -0.8013  0.4553  0.5746
24571SOL    HW175154   7.316   2.680   4.638  1.3834  0.6693 -0.5111
24571SOL    HW275155   7.278   2.554   4.714 -1.7109  1.0399 -1.3015
24572SOL     OW75156   1.464   2.244   5.623  0.5335 -0.2265  0.6746
24572SOL    HW175157   1.535   2.293   5.665  1.3689 -0.8293 -0.0018
24572SOL    HW275158   1.420   2.309   5.567  0.4810  0.1760  1.1772
24573SOL     OW75159   6.592   6.266   4.580 -0.3888  0.2957  0.1663
24573SOL    HW175160   6.516   6.306   4.539 -0.7801  0.6345  1.1811
24573SOL    HW275161   6.576   6.274   4.674  1.1609  0.8967  0.4118
24574SOL     OW75162   0.170   1.519   5.227  0.3356 -0.4524 -0.3893
24574SOL    HW175163   0.220   1.439   5.211  1.8298 -0.1374  2.2183
24574SOL    HW275164   0.121   1.533   5.145  0.7591 -3.4471 -1.2752
24575SOL     OW75165   5.663   2.962   5.993  1.0242 -0.1454 -0.0098
24575SOL    HW175166   5.725   3.029   6.021  1.2465 -0.5340  0.4308
24575SOL    HW275167   5.601   3.009   5.936  1.5145  0.3124 -0.1698
24576SOL     OW75168   7.332   2.165   2.870  0.1179 -0.1818 -0.6578
24576SOL    HW175169   7.243   2.200   2.879  0.5527  0.9130 -0.4238
24576SOL    HW275170   7.389   2.240   2.890  1.1197 -1.5877  2.4493
24577SOL     OW75171   7.172   3.135   6.116 -0.1490  0.5430  0.4853
24577SOL    HW175172   7.125   3.146   6.199 -0.3365 -0.8236  0.5765
24577SOL    HW275173   7.104   3.136   6.049 -0.5563 -2.5707  0.6962
24578SOL     OW75174   7.567   3.854   2.869 -0.1723 -0.3667  0.3426
24578SOL    HW175175   7.484   3.816   2.898 -0.3897  0.5471  0.9781
24578SOL    HW275176   7.630   3.826   2.935 -0.4598  0.8394  1.1855
24579SOL     OW75177   7.785   3.307   3.870 -0.0896  0.3377 -0.3268
24579SOL    HW175178   7.808   3.400   3.871 -0.8422  0.5304 -0.3044
24579SOL    HW275179   7.869   3.261   3.865  0.4841  0.9618  2.0418
24580SOL     OW75180   0.591   2.438   5.932 -0.2757 -0.0147 -0.5943
24580SOL    HW175181   0.685   2.431   5.946  0.4124  2.0925 -3.3661
24580SOL    HW275182   0.573   2.382   5.856 -1.0050  0.5528 -0.8564
24581SOL     OW75183   1.029   3.986   7.680  0.1208 -0.2138 -0.5816
24581SOL    HW175184   1.044   3.894   7.704 -0.9994 -0.0325  1.0005
24581SOL    HW275185   1.117   4.023   7.670  0.6150 -1.1241  0.1791
24582SOL     OW75186   5.908   1.919   5.372 -0.2342 -0.1042 -0.3315
24582SOL    HW175187   5.878   1.832   5.397 -0.7447  0.1010 -0.2211
24582SOL    HW275188   5.945   1.907   5.284  0.6886 -0.6387  0.1111
24583SOL     OW75189   7.005   4.628   7.209 -0.3749 -0.2249 -0.3285
24583SOL    HW175190   7.051   4.695   7.260  0.8873 -0.7008 -0.8031
24583SOL    HW275191   7.075   4.581   7.163 -1.2970 -1.4072 -0.5577
24584SOL     OW75192   6.681   4.620   4.290 -0.3953 -0.0184  0.1755
24584SOL    HW175193   6.678   4.666   4.373  0.9922 -0.6069  0.5636
24584SOL    HW275194   6.745   4.667   4.238  0.0532 -0.7097  0.0909
24585SOL     OW75195   5.971   3.739   6.477  0.7233 -0.1006  0.3177
24585SOL    HW175196   6.059   3.763   6.449  1.3479 -0.6960  1.6898
24585SOL    HW275197   5.933   3.695   6.402  2.3339 -1.6731  0.3672
24586SOL     OW75198   0.029   3.703   6.579  0.2905 -0.2968  0.6692
24586SOL    HW175199   0.071   3.766   6.637 -0.4728 -2.4497  3.8319
24586SOL    HW275200  -0.063   3.731   6.576  0.2282 -0.4643  0.9522
24587SOL     OW75201   4.959   0.824   2.089  0.3910  0.1469 -0.0711
24587SOL    HW175202   4.905   0.750   2.118  2.0175 -0.6707  1.0190
24587SOL    HW275203   5.022   0.836   2.160  0.4196  2.3594 -0.4037
24588SOL     OW75204   6.577   3.506   4.001  0.4827  0.3266  0.4651
24588SOL    HW175205   6.638   3.434   3.986  1.3289  0.8805  1.1468
24588SOL    HW275206   6.495   3.477   3.960  0.8232 -0.9790  0.6502
24589SOL     OW75207   1.977   1.830   6.597 -0.4493  0.1764 -0.2594
24589SOL    HW175208   1.945   1.886   6.668  0.7082  1.0764 -0.4292
24589SOL    HW275209   1.899   1.813   6.544 -1.5765 -1.3734  1.7322
24590SOL     OW75210   0.233   3.614   3.958 -0.2588  0.5546 -0.0011
24590SOL    HW175211   0.193   3.692   3.920 -0.1667 -0.0062 -1.3114
24590SOL    HW275212   0.180   3.541   3.925 -0.2191  0.0342  1.0315
24591SOL     OW75213   6.352   2.145   3.414  0.3086  0.1233 -0.0929
24591SOL    HW175214   6.319   2.056   3.423  2.4363 -1.0654 -2.6094
24591SOL    HW275215   6.301   2.183   3.343 -0.8851  1.1404  1.2538
24592SOL     OW75216   7.920   2.596   4.043 -0.3403  0.3505 -0.3524
24592SOL    HW175217   7.892   2.687   4.051  1.0943  0.8046 -0.2047
24592SOL    HW275218   7.912   2.561   4.132 -0.1899  0.5583 -0.2547
24593SOL     OW75219   1.500   2.612   3.910  0.2788 -0.0481 -0.1980
24593SOL    HW175220   1.565   2.635   3.976 -0.0754 -2.4614  1.0941
24593SOL    HW275221   1.550   2.566   3.842  0.3744  0.9038 -0.7878
24594SOL     OW75222   6.748   4.280   1.530 -0.0024 -0.6840 -0.3109
24594SOL    HW175223   6.839   4.262   1.553  0.1080  3.0207  3.1684
24594SOL    HW275224   6.752   4.360   1.478 -1.2714  0.9366  1.9338
24595SOL     OW75225   7.537   1.945   6.314  0.0598  0.1169 -0.1232
24595SOL    HW175226   7.609   1.945   6.377 -1.4011 -0.8698  1.6535
24595SOL    HW275227   7.563   2.009   6.248  1.7495  1.1064  1.3961
24596SOL     OW75228   7.786   1.641   6.226 -0.8313  0.4034  0.2626
24596SOL    HW175229   7.754   1.689   6.149 -0.2199 -0.4953 -0.5818
24596SOL    HW275230   7.870   1.682   6.246 -0.2196 -0.3910 -0.5741
24597SOL     OW75231   5.916   7.181   5.648  0.1343 -0.2266  0.4995
24597SOL    HW175232   5.910   7.115   5.580 -1.2523  0.5454 -0.1745
24597SOL    HW275233   5.843   7.240   5.631  1.4265  1.5973  0.9547
24598SOL     OW75234   6.942   3.896   6.190  0.1472 -0.4312  0.0672
24598SOL    HW175235   7.008   3.873   6.125 -2.3768  0.9792 -3.3303
24598SOL    HW275236   6.966   3.983   6.220  0.0733 -0.0597 -0.9122
24599SOL     OW75237   7.643   2.123   6.117  0.3572  0.1532  0.1980
24599SOL    HW175238   7.715   2.181   6.090 -0.9937  2.4946  1.2887
24599SOL    HW275239   7.566   2.157   6.072 -0.6777 -0.1406  1.6748
24600SOL     OW75240   6.915   4.523   6.626  0.1885 -0.1612 -0.8383
24600SOL    HW175241   6.953   4.606   6.656  0.0591  0.2301 -1.7146
24600SOL    HW275242   6.920   4.465   6.702 -0.9050  1.0464  0.2113
24601SOL     OW75243   6.591   2.463   6.061 -0.0729  0.2596 -0.0558
24601SOL    HW175244   6.513   2.519   6.058 -0.2269  0.0235 -1.1259
24601SOL    HW275245   6.617   2.461   6.153 -0.6038  1.3450  0.1275
24602SOL     OW75246   1.690   3.350   8.084  0.0449  0.4497 -0.0257
24602SOL    HW175247   1.786   3.349   8.079  0.0389 -0.5364 -0.2268
24602SOL    HW275248   1.671   3.320   8.173 -0.0829  0.0906 -0.1740
24603SOL     OW75249   7.220   3.352   6.547 -0.3928  0.6977  0.2678
24603SOL    HW175250   7.196   3.296   6.473  0.7873  1.5684 -0.8173
24603SOL    HW275251   7.179   3.310   6.623 -0.7356 -0.8289 -0.7097
24604SOL     OW75252   7.253   3.646   6.188  0.2721  0.2260  0.0568
24604SOL    HW175253   7.241   3.569   6.132  2.3152  0.0709 -0.2443
24604SOL    HW275254   7.254   3.610   6.277 -1.3065  0.2623  0.1163
24605SOL     OW75255   7.528   4.439   8.041 -0.1587 -0.4788  0.6083
24605SOL    HW175256   7.493   4.390   8.115 -0.2202 -0.5375  0.5410
24605SOL    HW275257   7.544   4.372   7.973 -0.8661 -0.3133  0.2749
24606SOL     OW75258   1.410   3.490   9.052  0.2752 -0.0313 -0.1986
24606SOL    HW175259   1.336   3.450   9.096  0.0870 -0.7698 -1.1688
24606SOL    HW275260   1.399   3.584   9.067 -2.2559  0.1318 -2.3971
24607SOL     OW75261   7.524   1.104   6.935 -0.0712 -0.8253 -0.0113
24607SOL    HW175262   7.592   1.162   6.971 -2.5350  1.1183  1.8895
24607SOL    HW275263   7.468   1.084   7.009 -3.2286  0.1178 -1.9491
24608SOL     OW75264   0.077   1.769   7.591 -0.7595 -0.2792 -0.3556
24608SOL    HW175265   0.101   1.722   7.511  0.0557 -1.0229  0.3056
24608SOL    HW275266  -0.018   1.760   7.596 -0.6968 -1.2116 -0.6412
24609SOL     OW75267   6.933   3.039   6.293 -0.2152  0.9333  0.2119
24609SOL    HW175268   6.849   3.039   6.339 -0.8737  1.9145 -0.9210
24609SOL    HW275269   6.937   2.955   6.248 -0.2734  0.6071  0.8149
24610SOL     OW75270   7.194   2.468   8.141  0.5631 -0.0856  0.2182
24610SOL    HW175271   7.206   2.558   8.170  1.6087 -0.1649  0.0869
24610SOL    HW275272   7.125   2.472   8.076  1.3191  0.7955 -0.5547
24611SOL     OW75273   7.846   1.966   8.163 -0.0753  0.2311  0.6600
24611SOL    HW175274   7.933   1.940   8.192  0.2227 -1.5901 -1.6045
24611SOL    HW275275   7.855   2.058   8.138  1.4625 -0.1904 -0.4499
24612SOL     OW75276   0.608   5.138   4.685 -0.2763 -0.1185 -0.7991
24612SOL    HW175277   0.562   5.142   4.602  2.0921  0.6795 -2.1925
24612SOL    HW275278   0.671   5.067   4.674 -1.5087 -1.6578  1.2910
24613SOL     OW75279   7.409   1.082   6.335 -0.3723 -0.3017  0.9998
24613SOL    HW175280   7.335   1.022   6.322 -0.1832 -0.2282 -0.5046
24613SOL    HW275281   7.487   1.029   6.322 -0.1985  0.1982 -0.0664
24614SOL     OW75282   0.174   3.074   8.046  0.4249 -0.1879  0.0428
24614SOL    HW175283   0.079   3.079   8.060  0.2727 -0.4841 -0.7983
24614SOL    HW275284   0.210   3.146   8.097 -0.3490  0.5412 -0.4124
24615SOL     OW75285   6.749   1.887   6.213 -0.0177  0.1685 -0.0406
24615SOL    HW175286   6.843   1.887   6.229 -0.1487 -3.5057  1.8205
24615SOL    HW275287   6.738   1.837   6.131 -0.3631  0.1965 -0.0140
24616SOL     OW75288   6.306   6.129   6.831 -0.4983 -0.6737  0.0649
24616SOL    HW175289   6.271   6.081   6.906 -0.6868 -0.1711  0.3033
24616SOL    HW275290   6.247   6.203   6.821  1.6253  1.4345  1.8312
24617SOL     OW75291   6.713   2.997   7.540  0.0505  0.4147 -0.1629
24617SOL    HW175292   6.775   3.031   7.605 -0.0900 -1.3183  0.9393
24617SOL    HW275293   6.632   3.045   7.558 -0.1384 -0.3990  1.3427
24618SOL     OW75294   7.040   1.420   6.565  0.0317 -0.2609 -0.2926
24618SOL    HW175295   7.032   1.394   6.473  0.0428  0.3180 -0.4589
24618SOL    HW275296   7.099   1.496   6.563  1.5852 -1.3935  0.3822
24619SOL     OW75297   0.392   0.511   6.834  0.4733 -0.4802  0.4311
24619SOL    HW175298   0.361   0.502   6.924 -1.0764 -2.8146 -0.2438
24619SOL    HW275299   0.332   0.574   6.795 -0.5012 -1.4272  0.3730
24620SOL     OW75300   7.594   1.053   5.612  0.1561 -0.0429 -0.6054
24620SOL    HW175301   7.621   1.011   5.530 -0.6347  0.7709 -1.2977
24620SOL    HW275302   7.676   1.075   5.656  0.6010  0.3403 -1.6119
24621SOL     OW75303   7.601   3.643   7.156 -0.9623  0.4012  0.0857
24621SOL    HW175304   7.674   3.599   7.199 -1.3048 -0.4386 -0.1759
24621SOL    HW275305   7.641   3.693   7.085 -0.4476  1.4070  1.0607
24622SOL     OW75306   7.581   4.443   5.784  0.4867  0.4747  0.0298
24622SOL    HW175307   7.571   4.400   5.869  4.1326  0.6108  0.7040
24622SOL    HW275308   7.535   4.526   5.793  0.5841  0.3779  1.8126
24623SOL     OW75309   0.456   1.572   8.725 -0.6538  0.4141  0.9100
24623SOL    HW175310   0.470   1.597   8.816  0.2461 -0.6196  1.0784
24623SOL    HW275311   0.377   1.517   8.728 -1.9817  2.2049  0.6948
24624SOL     OW75312   6.726   3.396   9.429  0.4594 -0.2854 -0.1119
24624SOL    HW175313   6.658   3.384   9.363  0.7111 -0.8862 -0.2720
24624SOL    HW275314   6.784   3.321   9.418 -0.5206 -1.4549  2.0560
24625SOL     OW75315   6.426   3.093   7.088 -0.4714 -0.1108  0.1941
24625SOL    HW175316   6.352   3.067   7.142  0.6853  1.4296  2.6988
24625SOL    HW275317   6.460   3.172   7.129  1.3096  0.4471 -2.0911
24626SOL     OW75318   6.779   3.626   5.510  0.5271 -0.1311 -0.3532
24626SOL    HW175319   6.788   3.588   5.597 -0.1095 -0.1100 -0.2671
24626SOL    HW275320   6.868   3.646   5.482  0.6453  1.1548  0.8705
24627SOL     OW75321   0.424   2.530   8.036  0.0820 -0.4429  0.1817
24627SOL    HW175322   0.330   2.520   8.053 -0.0549 -0.0186 -0.2959
24627SOL    HW275323   0.437   2.624   8.028  0.2046 -0.5783 -1.6004
24628SOL     OW75324   7.619   3.043   6.057 -0.6534  0.2138  0.2554
24628SOL    HW175325   7.689   3.034   5.992 -0.1161 -1.6226  1.0217
24628SOL    HW275326   7.583   2.954   6.066 -1.1992  0.5759  1.9289
24629SOL     OW75327   6.574   2.166   7.595 -0.0280  0.6544 -0.3606
24629SOL    HW175328   6.660   2.135   7.623  0.0036  0.5947 -0.5262
24629SOL    HW275329   6.556   2.119   7.514 -0.9288 -0.5485  0.4987
24630SOL     OW75330   7.777   1.944   7.825 -0.6710 -0.3980  0.2378
24630SOL    HW175331   7.749   2.034   7.807 -2.6579 -1.4095 -2.3580
24630SOL    HW275332   7.786   1.941   7.920 -0.3692  2.5682  0.4003
24631SOL     OW75333   1.379   2.996   6.569 -0.2406  0.0539  0.3261
24631SOL    HW175334   1.385   2.910   6.612 -1.6519  0.2116  0.8793
24631SOL    HW275335   1.413   2.980   6.480 -0.1854 -1.0010  0.5163
24632SOL     OW75336   7.930   1.815   6.420  0.1342  0.1323 -0.4518
24632SOL    HW175337   7.960   1.887   6.474 -0.5574  0.1067 -0.0145
24632SOL    HW275338   7.968   1.737   6.460 -0.3345  0.1185 -0.0124
24633SOL     OW75339   5.895   4.999   7.603  0.4363  0.0980  0.3941
24633SOL    HW175340   5.877   4.918   7.554  0.6176 -0.0433  0.5604
24633SOL    HW275341   5.811   5.021   7.643  1.0376 -1.7733  2.9990
24634SOL     OW75342   6.813   0.894   6.822 -0.2173 -0.9412  0.1077
24634SOL    HW175343   6.725   0.890   6.784 -0.6158 -1.3733  1.0390
24634SOL    HW275344   6.848   0.978   6.794 -0.4447 -1.3005 -1.3108
24635SOL     OW75345   0.567   3.341   6.739  0.2722  0.0211  0.3420
24635SOL    HW175346   0.502   3.400   6.776  0.6128  0.4852  0.2113
24635SOL    HW275347   0.579   3.274   6.807  0.9027  0.8737  1.1190
24636SOL     OW75348   7.594   2.615   8.193 -0.2935 -0.0443  0.3003
24636SOL    HW175349   7.665   2.665   8.153  0.7014 -0.2746  1.7380
24636SOL    HW275350   7.530   2.682   8.220 -0.5821  0.1701 -0.8383
24637SOL     OW75351   6.462   2.786   7.073  0.0819  0.5700  0.1825
24637SOL    HW175352   6.489   2.716   7.013  0.0531  0.6086  0.1251
24637SOL    HW275353   6.506   2.865   7.039  1.1010  0.3520  0.9512
24638SOL     OW75354   6.823   3.134   5.308 -0.0772 -0.0130  0.3377
24638SOL    HW175355   6.908   3.134   5.264 -0.0913 -1.3236  0.2890
24638SOL    HW275356   6.787   3.221   5.290  0.7382  0.1363 -0.6408
24639SOL     OW75357   4.848   2.919   5.681 -0.7074  0.0494 -0.0434
24639SOL    HW175358   4.859   2.994   5.623 -2.0454 -0.4666 -1.0260
24639SOL    HW275359   4.838   2.844   5.621  1.4835 -1.0949  0.8981
24640SOL     OW75360   7.049   1.821   8.706 -0.3026 -0.4700  0.3270
24640SOL    HW175361   7.025   1.897   8.653 -0.3680 -0.7314 -0.0194
24640SOL    HW275362   7.133   1.792   8.671  1.4218  1.4426  2.6001
24641SOL     OW75363   0.636   2.425   7.160  0.4950  0.5880  0.2410
24641SOL    HW175364   0.562   2.479   7.186  0.8913  1.1094  0.3043
24641SOL    HW275365   0.629   2.418   7.064 -1.4081 -1.9782  0.4818
24642SOL     OW75366   0.498   0.413   6.597  0.2181 -0.6510  0.2016
24642SOL    HW175367   0.490   0.435   6.690 -0.6388 -1.5411  0.3629
24642SOL    HW275368   0.513   0.497   6.553  1.0833 -0.2742  1.1807
24643SOL     OW75369   7.576   1.673   7.447 -0.0871  0.6401 -0.2286
24643SOL    HW175370   7.581   1.581   7.474 -1.3285  1.0389  1.5102
24643SOL    HW275371   7.516   1.673   7.373 -0.3085  0.0947 -0.0532
24644SOL     OW75372   7.755   2.332   5.899 -0.0392  0.0677 -0.2711
24644SOL    HW175373   7.727   2.274   5.828 -2.1348 -0.3316  0.8015
24644SOL    HW275374   7.681   2.392   5.912  0.9042  1.0996  0.6101
24645SOL     OW75375   6.986   2.853   7.590  0.4202 -0.2971 -0.2601
24645SOL    HW175376   6.963   2.760   7.599  1.0373 -0.3363  1.1660
24645SOL    HW275377   6.905   2.894   7.557 -0.5812 -1.0008  1.2039
24646SOL     OW75378   6.986   2.618   7.313  0.2721  0.0804 -0.1688
24646SOL    HW175379   6.952   2.531   7.289  0.4087 -0.0357  0.0515
24646SOL    HW275380   6.916   2.678   7.289 -0.9757 -0.3357  2.0904
24647SOL     OW75381   7.789   3.426   6.643  0.1309  0.2108 -0.1883
24647SOL    HW175382   7.770   3.512   6.679 -0.4822  0.5189 -1.2134
24647SOL    HW275383   7.705   3.381   6.643  0.3159 -0.1397 -0.3129
24648SOL     OW75384   5.795   1.833   6.974 -0.6524  0.3566  0.0883
24648SOL    HW175385   5.746   1.752   6.985  0.9168 -0.5387  0.8618
24648SOL    HW275386   5.778   1.882   7.055 -0.7623  0.3458  0.0727
24649SOL     OW75387   1.342   3.408   5.271  0.3265  0.5281  0.5471
24649SOL    HW175388   1.373   3.490   5.233  0.2877  0.7495  0.9915
24649SOL    HW275389   1.250   3.425   5.293  0.6044  0.7107  1.6066
24650SOL     OW75390   0.553   4.678   8.430  0.1699  0.1354 -0.1476
24650SOL    HW175391   0.511   4.686   8.345 -1.6062 -0.5895  0.6094
24650SOL    HW275392   0.628   4.621   8.415  0.8185  1.3006 -1.5062
24651SOL     OW75393   1.509   2.664   7.153  0.1229 -0.2693  0.5467
24651SOL    HW175394   1.525   2.701   7.240 -1.4432  0.3970  0.5947
24651SOL    HW275395   1.569   2.710   7.095 -0.4043  0.9437  0.9393
24652SOL     OW75396   0.316   1.428   9.573  0.1268 -0.5460  0.1635
24652SOL    HW175397   0.363   1.440   9.656 -1.3329 -0.8415  1.0586
24652SOL    HW275398   0.341   1.505   9.521  2.1270 -1.0194  0.3174
24653SOL     OW75399   7.251   1.550   5.388  0.2764 -0.3269  0.0728
24653SOL    HW175400   7.292   1.524   5.470  1.1343 -1.9634 -0.8349
24653SOL    HW275401   7.311   1.615   5.351  0.4313 -0.3784  0.2324
24654SOL     OW75402   1.323   1.616   7.035  0.9652  0.2087  0.5346
24654SOL    HW175403   1.334   1.681   6.965 -0.6590 -0.9525 -0.8845
24654SOL    HW275404   1.277   1.664   7.104  2.5359  1.3550  0.8500
24655SOL     OW75405   7.118   3.883   7.262 -0.1488  0.0193 -0.4854
24655SOL    HW175406   7.150   3.793   7.259 -2.5916 -1.0714  2.1600
24655SOL    HW275407   7.028   3.878   7.229 -0.6027  1.2896  0.4714
24656SOL     OW75408   7.451   3.737   7.715  0.4346 -0.1198  0.0004
24656SOL    HW175409   7.523   3.679   7.742 -0.1100 -0.1935  1.3554
24656SOL    HW275410   7.405   3.687   7.647  0.3804 -0.9911  0.6612
24657SOL     OW75411   7.889   4.476   7.734  0.2464 -0.1662  0.4853
24657SOL    HW175412   7.811   4.529   7.717  0.3697 -0.2806 -0.5109
24657SOL    HW275413   7.894   4.471   7.829 -2.1253 -1.7958  0.6230
24658SOL     OW75414   1.329   3.813   6.300  0.4832  0.1907 -0.1223
24658SOL    HW175415   1.340   3.769   6.215 -1.1357  0.4629 -0.5090
24658SOL    HW275416   1.296   3.744   6.358 -0.9732  0.5721 -0.4398
24659SOL     OW75417   1.588   2.565   6.755  0.3727 -0.0186  0.1565
24659SOL    HW175418   1.501   2.542   6.787  0.2486  0.7382  0.3739
24659SOL    HW275419   1.601   2.508   6.679  0.3325 -1.2258  1.0289
24660SOL     OW75420   6.968   2.725   5.703  0.1690 -0.3758  0.1446
24660SOL    HW175421   6.902   2.656   5.703  1.3761 -1.6039 -0.3187
24660SOL    HW275422   6.947   2.780   5.778 -0.9904 -1.0856  0.3605
24661SOL     OW75423   7.056   3.379   8.323  0.4181  0.2630 -0.0645
24661SOL    HW175424   7.089   3.432   8.396  2.7523 -0.3583 -0.5958
24661SOL    HW275425   7.005   3.309   8.365  2.0981 -0.3500  1.0423
24662SOL     OW75426   5.709   1.942   8.815 -0.1991 -0.0293  0.1679
24662SOL    HW175427   5.623   1.938   8.773 -1.0863 -0.2851  1.9159
24662SOL    HW275428   5.748   1.856   8.800  0.4729  0.5812 -1.9683
24663SOL     OW75429   7.152   2.807   8.126  0.4008 -0.2463 -0.3010
24663SOL    HW175430   7.126   2.764   8.044 -2.5519 -0.1914  0.4954
24663SOL    HW275431   7.093   2.882   8.134  1.7324  0.7231  1.1084
24664SOL     OW75432   7.976   4.464   9.610  0.0184 -0.1114  0.2765
24664SOL    HW175433   8.044   4.396   9.606  0.1024 -0.1055  1.3591
24664SOL    HW275434   8.022   4.545   9.588  0.2545 -0.1841  0.4956
24665SOL     OW75435   1.052   1.124   8.350  0.5095 -0.2272 -0.0073
24665SOL    HW175436   1.080   1.210   8.317 -0.5452  0.6565  1.3291
24665SOL    HW275437   0.958   1.123   8.336  0.4430 -0.9631  0.4791
24666SOL     OW75438   5.920   2.835   9.791 -0.4281  0.0538  0.4104
24666SOL    HW175439   5.835   2.861   9.754 -0.8685 -0.9552  0.6761
24666SOL    HW275440   5.977   2.910   9.773 -1.4229  0.8480  0.4227
24667SOL     OW75441   0.040   3.289   8.818 -0.1571  0.2620 -0.3565
24667SOL    HW175442   0.074   3.317   8.903 -1.8701 -1.2479  0.9038
24667SOL    HW275443   0.115   3.250   8.774  0.3486 -0.7203  1.2887
24668SOL     OW75444   1.531   4.193   9.769  0.2382 -0.3471  0.3650
24668SOL    HW175445   1.535   4.259   9.700 -1.2445  1.2201  1.6977
24668SOL    HW275446   1.595   4.127   9.742 -0.6531 -0.1112 -2.7647
24669SOL     OW75447   7.457   3.313   8.185  0.0572  0.8855 -0.4859
24669SOL    HW175448   7.456   3.403   8.152  0.7817  1.1236  0.1163
24669SOL    HW275449   7.477   3.322   8.278 -1.0461  0.1679 -0.1631
24670SOL     OW75450   7.189   2.022   6.521 -0.0009  0.2137  0.4034
24670SOL    HW175451   7.214   1.974   6.442 -0.1514  0.0588  0.4486
24670SOL    HW275452   7.232   2.107   6.513  2.3702 -0.7870  1.5025
24671SOL     OW75453   6.447   2.027   8.572  0.3307 -0.3037 -0.5333
24671SOL    HW175454   6.522   2.055   8.519  0.4593  1.6901  0.6015
24671SOL    HW275455   6.400   1.965   8.516  1.4976  0.2708 -2.2238
24672SOL     OW75456   0.610   2.110   7.944 -0.0176  0.1422 -0.0140
24672SOL    HW175457   0.546   2.181   7.935 -0.4166  0.2052  2.5502
24672SOL    HW275458   0.682   2.136   7.887 -1.8145  0.5705 -2.2133
24673SOL     OW75459   7.280   1.797   8.527 -0.3301 -0.4019  0.2958
24673SOL    HW175460   7.267   1.734   8.456 -0.5375 -1.2170  1.0430
24673SOL    HW275461   7.354   1.850   8.498 -0.1477 -0.9911 -0.3503
24674SOL     OW75462   1.300   3.572   5.786  0.4274  0.5355 -0.0341
24674SOL    HW175463   1.363   3.534   5.724 -1.0924 -0.4201 -1.0546
24674SOL    HW275464   1.236   3.616   5.730 -0.5094  0.4165  0.9207
24675SOL     OW75465   5.988   1.055   9.008 -0.1032  0.5821 -0.2334
24675SOL    HW175466   6.034   1.036   8.926  2.6444  2.7579  0.6139
24675SOL    HW275467   5.930   0.981   9.022  2.4846 -1.9643 -2.0010
24676SOL     OW75468   0.237   2.498  11.547  0.3250  0.2327  0.0175
24676SOL    HW175469   0.210   2.560  11.614  3.6548  0.7546  1.0554
24676SOL    HW275470   0.233   2.548  11.465 -1.4228  0.3322  0.1296
24677SOL     OW75471   1.389   1.413   8.125  0.2830  0.0991 -0.2508
24677SOL    HW175472   1.351   1.492   8.085 -0.1946  0.6848  1.2848
24677SOL    HW275473   1.348   1.340   8.079 -0.2701  0.7431 -0.7993
24678SOL     OW75474   6.164   4.081   8.000 -0.2933 -0.1761 -0.3531
24678SOL    HW175475   6.107   4.097   8.075 -0.2468  0.5349 -0.4544
24678SOL    HW275476   6.246   4.125   8.023 -0.4912  0.5957 -1.0782
24679SOL     OW75477   0.838   2.218   7.244  0.1342 -0.1208 -1.0380
24679SOL    HW175478   0.764   2.277   7.237  0.0157 -0.1083  0.1957
24679SOL    HW275479   0.892   2.239   7.167  0.3222  1.9014 -0.4158
24680SOL     OW75480   0.569   2.244   9.528  0.2851 -0.4376 -0.0427
24680SOL    HW175481   0.565   2.287   9.443  1.6430  0.5796  0.3588
24680SOL    HW275482   0.481   2.209   9.542  0.2231 -1.3036 -2.1710
24681SOL     OW75483   1.059   1.829   8.404  0.5320 -0.5980 -0.6591
24681SOL    HW175484   1.096   1.767   8.468  0.8751 -0.5977 -0.8552
24681SOL    HW275485   1.058   1.913   8.450  0.2376 -0.7097 -0.4563
24682SOL     OW75486   0.044   4.567   8.875 -0.1023 -0.3150 -0.1955
24682SOL    HW175487   0.035   4.652   8.919  0.6522  0.4430 -1.4734
24682SOL    HW275488   0.092   4.586   8.795  0.5658 -2.0541 -0.2382
24683SOL     OW75489   0.221   0.035   9.173  0.2671  0.2065 -0.1092
24683SOL    HW175490   0.305  -0.003   9.146  1.4725  1.3173  1.8147
24683SOL    HW275491   0.237   0.130   9.174 -0.9111  0.4209  0.6199
24684SOL     OW75492   6.905   0.857   7.089  0.0363  0.1659 -0.5398
24684SOL    HW175493   7.001   0.856   7.089  0.0423  0.0240 -1.2670
24684SOL    HW275494   6.881   0.878   6.999 -0.6186  0.0296 -0.4055
24685SOL     OW75495   0.315   1.555   8.364 -0.3027 -0.2750  0.0791
24685SOL    HW175496   0.385   1.586   8.308 -1.1782  0.4800 -0.6276
24685SOL    HW275497   0.270   1.487   8.313  0.4602 -1.4355  0.8919
24686SOL     OW75498   7.562   3.858   7.997 -0.1163 -0.3301  0.3114
24686SOL    HW175499   7.489   3.909   7.961  0.2483 -0.1186 -0.1411
24686SOL    HW275500   7.556   3.773   7.952  0.5826  0.0730 -0.5759
24687SOL     OW75501   0.533   1.969   8.392  0.1943  0.3139 -0.3955
24687SOL    HW175502   0.592   1.980   8.318  0.2521  0.7884 -0.2814
24687SOL    HW275503   0.566   1.893   8.439  0.3688  0.2292 -0.6560
24688SOL     OW75504   7.618   1.756   8.823 -0.3249  0.4525  0.4111
24688SOL    HW175505   7.667   1.821   8.872 -1.2664  0.2687  1.6587
24688SOL    HW275506   7.569   1.707   8.889  0.9335 -2.0739 -0.3677
24689SOL     OW75507   6.645   1.545   8.156 -0.5812 -0.8506  0.3103
24689SOL    HW175508   6.710   1.509   8.096 -1.0087 -2.3411  0.6908
24689SOL    HW275509   6.562   1.505   8.129 -0.8420 -1.2587  1.6209
24690SOL     OW75510   5.800   1.755   8.004  0.2747  0.5141 -0.2008
24690SOL    HW175511   5.767   1.845   8.004 -1.2392  0.0161  1.1727
24690SOL    HW275512   5.741   1.708   8.064  0.7983 -1.4697 -1.1487
24691SOL     OW75513   7.664   3.368  10.463 -0.6098 -1.0661 -0.7812
24691SOL    HW175514   7.607   3.375  10.539 -0.6358 -0.2824 -0.8634
24691SOL    HW275515   7.675   3.274  10.450  0.1551 -1.2083  0.7484
24692SOL     OW75516   0.780   2.220   7.763 -0.4070 -0.1728 -0.4629
24692SOL    HW175517   0.821   2.179   7.687  2.0014  1.6823 -0.3083
24692SOL    HW275518   0.753   2.306   7.732 -1.5868 -0.2793  0.2174
24693SOL     OW75519   7.111   2.422   8.869 -0.2102  0.2387 -0.2719
24693SOL    HW175520   7.122   2.328   8.884 -0.0182  0.2235 -0.5031
24693SOL    HW275521   7.026   2.429   8.825 -0.3247  0.1949 -0.0603
24694SOL     OW75522   0.471   2.732   8.470 -0.3475 -0.5686 -0.1465
24694SOL    HW175523   0.429   2.654   8.506 -1.2232  0.2962  0.7729
24694SOL    HW275524   0.518   2.770   8.544  3.5862 -2.3449 -1.4390
24695SOL     OW75525   6.406   1.527   9.545 -0.4829 -0.1985 -0.0318
24695SOL    HW175526   6.311   1.537   9.548 -0.4741 -0.0416 -0.2733
24695SOL    HW275527   6.426   1.509   9.453 -0.3497 -0.9901  0.1459
24696SOL     OW75528   6.518   1.608   8.840 -0.1785  0.2632  0.1366
24696SOL    HW175529   6.580   1.630   8.909 -1.0151  0.4667  0.8462
24696SOL    HW275530   6.560   1.638   8.760  0.7670  0.1105  0.5632
24697SOL     OW75531   0.307   4.355  10.937  0.0087  0.2861  0.7105
24697SOL    HW175532   0.324   4.390  10.849 -1.9082 -0.8775 -0.1943
24697SOL    HW275533   0.367   4.281  10.946 -0.2658 -0.0245  0.0671
24698SOL     OW75534   6.754   4.282   8.527 -0.2108  0.3412 -0.0214
24698SOL    HW175535   6.748   4.347   8.597  0.4853 -0.3543  0.6992
24698SOL    HW275536   6.803   4.326   8.458 -0.5532  0.8913  0.0781
24699SOL     OW75537   6.518   1.943   8.885 -0.0961  0.2737  0.7713
24699SOL    HW175538   6.434   1.965   8.924  0.6643  0.5950  2.3140
24699SOL    HW275539   6.497   1.919   8.795 -1.5984  2.4720  0.4459
24700SOL     OW75540   0.256   1.091   9.243  0.1577 -1.4516 -0.4639
24700SOL    HW175541   0.250   1.110   9.149  2.2372 -2.1906 -0.8094
24700SOL    HW275542   0.344   1.120   9.267  0.1065 -2.4070  0.9724
24701SOL     OW75543   7.828   4.197  10.263 -0.0254 -0.1647 -0.0997
24701SOL    HW175544   7.797   4.118  10.306 -0.8058  0.9277  1.4308
24701SOL    HW275545   7.921   4.182  10.250 -0.3252 -1.7009 -0.7210
24702SOL     OW75546   7.830   2.790   8.471  0.4338  0.1636 -0.1352
24702SOL    HW175547   7.741   2.823   8.482  0.2607  0.1001 -1.3232
24702SOL    HW275548   7.834   2.759   8.381  0.9531 -1.9926  0.5558
24703SOL     OW75549   0.169   3.094   8.701  0.6050 -0.0741 -0.1984
24703SOL    HW175550   0.243   3.051   8.659  0.3815 -2.0264  1.2611
24703SOL    HW275551   0.104   3.024   8.713  0.3016  0.5385  2.4888
24704SOL     OW75552   6.780   4.694   8.917 -0.3561 -0.1680 -0.0186
24704SOL    HW175553   6.823   4.685   8.832 -1.0895 -0.1092 -0.4091
24704SOL    HW275554   6.691   4.720   8.896 -0.5594 -0.1807  0.7744
24705SOL     OW75555   7.436   4.247   8.691  0.1581 -0.2899 -0.0635
24705SOL    HW175556   7.452   4.297   8.772 -0.5246 -0.0188 -0.0926
24705SOL    HW275557   7.390   4.308   8.634 -1.2626 -1.1300  0.1321
24706SOL     OW75558   6.265   2.664   7.723 -0.7745 -0.0052  0.5194
24706SOL    HW175559   6.171   2.677   7.712 -0.5450  1.3835 -0.0375
24706SOL    HW275560   6.274   2.573   7.751 -2.3315  0.0539  1.2956
24707SOL     OW75561   6.752   2.805   7.231 -0.2550  0.2229 -0.0173
24707SOL    HW175562   6.660   2.782   7.244  0.1833 -1.7091 -0.0620
24707SOL    HW275563   6.762   2.815   7.136 -0.5446  1.1584  0.0350
24708SOL     OW75564   7.250   3.628   8.941 -0.0146  0.1325 -0.0290
24708SOL    HW175565   7.294   3.584   9.014 -1.5933 -2.1712 -0.3570
24708SOL    HW275566   7.160   3.642   8.971  0.3546  3.1648 -0.0055
24709SOL     OW75567   1.041   3.536  10.696  0.0324 -0.3981  0.5594
24709SOL    HW175568   1.120   3.589  10.707  1.3556 -2.5289  2.2208
24709SOL    HW275569   1.017   3.511  10.785 -0.0012 -3.1871 -0.1309
24710SOL     OW75570   6.076   0.528   7.844 -0.4696  0.7469  0.9300
24710SOL    HW175571   5.984   0.527   7.818 -0.4465  0.5281  0.8529
24710SOL    HW275572   6.090   0.444   7.886  0.6675 -1.0394 -2.5939
24711SOL     OW75573   1.671   3.076  10.396 -0.0513  0.1791  0.2866
24711SOL    HW175574   1.642   3.068  10.305  0.7391  0.8328 -0.0415
24711SOL    HW275575   1.691   2.987  10.423  3.0258  0.2145 -1.3500
24712SOL     OW75576   6.992   2.408   7.955  0.7036 -0.6201 -0.5731
24712SOL    HW175577   6.958   2.321   7.977  0.7797 -0.1223  1.8173
24712SOL    HW275578   6.932   2.469   7.998  1.7233  0.4217 -0.5713
24713SOL     OW75579   6.463   4.092   7.908 -0.1641  0.0969 -1.1210
24713SOL    HW175580   6.515   4.023   7.949  1.0175  1.4372 -0.2863
24713SOL    HW275581   6.448   4.156   7.977 -2.1539  0.2343 -1.5937
24714SOL     OW75582   6.591   1.141   7.744  0.0126  0.2255 -0.3061
24714SOL    HW175583   6.601   1.071   7.680  1.3237 -0.7843  0.9613
24714SOL    HW275584   6.513   1.189   7.714 -1.4736 -2.2641 -0.7206
24715SOL     OW75585   0.987   3.014  11.157 -0.3643  0.3410 -0.1777
24715SOL    HW175586   0.919   3.076  11.181 -0.7146 -0.1990  0.2618
24715SOL    HW275587   0.948   2.928  11.174 -0.3460 -0.0576 -1.9484
24716SOL     OW75588   7.630   1.432   8.651  0.8414 -0.1187  0.0127
24716SOL    HW175589   7.637   1.522   8.619  0.7447  0.1834  0.8207
24716SOL    HW275590   7.649   1.378   8.574 -1.1627  0.5348 -1.0172
24717SOL     OW75591   5.416   2.931   9.343  0.3568  0.2268 -0.5164
24717SOL    HW175592   5.440   2.948   9.252  0.2519  1.1651 -0.3822
24717SOL    HW275593   5.323   2.908   9.339  0.2730  0.5817 -0.6146
24718SOL     OW75594   7.844   2.576   8.650  0.0724 -0.1750 -0.1428
24718SOL    HW175595   7.854   2.634   8.574  1.9211  0.9827  0.8990
24718SOL    HW275596   7.757   2.597   8.685  0.6733  1.9822  0.1757
24719SOL     OW75597   6.570   3.543   6.544  0.2980 -0.7884 -0.2342
24719SOL    HW175598   6.487   3.562   6.587  0.8740  1.2236  0.0984
24719SOL    HW275599   6.567   3.591   6.461  1.5674  0.3183  0.3190
24720SOL     OW75600   7.288   2.874   7.148 -0.0693 -0.6946 -0.4591
24720SOL    HW175601   7.209   2.922   7.123  1.3310  2.9637  1.5034
24720SOL    HW275602   7.263   2.824   7.225 -0.9528 -1.3172 -1.1274
24721SOL     OW75603   7.873   4.432   9.346 -0.7515 -0.1393 -0.7105
24721SOL    HW175604   7.878   4.479   9.429 -2.1095  1.0793 -1.2666
24721SOL    HW275605   7.805   4.478   9.296 -3.0859 -3.3502 -0.8761
24722SOL     OW75606   7.576   0.875   8.484  0.0141  0.6864 -0.5968
24722SOL    HW175607   7.661   0.857   8.442 -0.4580 -0.3736 -1.1327
24722SOL    HW275608   7.569   0.970   8.483  1.1311  0.7793 -0.6937
24723SOL     OW75609   6.684   3.884   6.891  0.6219 -0.3726  0.3405
24723SOL    HW175610   6.633   3.923   6.820  0.1801 -2.5913 -0.6609
24723SOL    HW275611   6.641   3.914   6.971  1.5623  2.7833 -0.1889
24724SOL     OW75612   0.199   2.791   9.610 -0.4212  0.1544  0.0624
24724SOL    HW175613   0.177   2.782   9.517 -1.0228 -1.5325  0.3230
24724SOL    HW275614   0.120   2.828   9.650 -1.4314 -2.0905  0.3456
24725SOL     OW75615   7.723   3.058   9.701 -0.0651  0.3284 -0.2923
24725SOL    HW175616   7.723   3.154   9.690 -3.1279  0.4856  0.0027
24725SOL    HW275617   7.658   3.028   9.637  0.5796 -1.5448 -0.1134
24726SOL     OW75618   0.220   3.369   8.414  0.3111  0.0801 -0.3031
24726SOL    HW175619   0.280   3.339   8.482 -2.1378 -0.2066  1.8663
24726SOL    HW275620   0.159   3.427   8.459 -2.8154 -1.8817 -1.6458
24727SOL     OW75621   0.915   1.677  10.045  0.3263  0.3769  0.0456
24727SOL    HW175622   0.937   1.584  10.051 -0.0351  0.2572 -0.3860
24727SOL    HW275623   0.999   1.722  10.043  0.5001  0.1400  1.3091
24728SOL     OW75624   6.367   1.910   9.544 -0.4128  0.1088 -0.0147
24728SOL    HW175625   6.393   1.985   9.598 -0.5381 -0.3787  0.7453
24728SOL    HW275626   6.435   1.844   9.560 -1.5592 -0.8311  1.2536
24729SOL     OW75627   0.735   2.204  12.273  0.6413 -0.2016 -0.3809
24729SOL    HW175628   0.670   2.274  12.271  0.9100  0.1866  2.1670
24729SOL    HW275629   0.693   2.134  12.323  0.8495 -1.4455 -1.8504
24730SOL     OW75630   6.777   1.594   9.254 -0.1841  0.0432  0.0037
24730SOL    HW175631   6.867   1.570   9.229 -0.2057 -0.1450  0.1071
24730SOL    HW275632   6.748   1.652   9.184  0.0608  0.2006  0.0309
24731SOL     OW75633   7.902   1.156   9.726  0.0797 -0.1159  0.0776
24731SOL    HW175634   7.904   1.070   9.769 -1.9643 -0.4163 -0.2986
24731SOL    HW275635   7.808   1.178   9.722  0.2631  0.4888 -3.0224
24732SOL     OW75636   5.922   2.455  10.116 -0.2306 -0.1943 -0.5928
24732SOL    HW175637   5.918   2.500  10.200  0.9504 -2.1014  0.5405
24732SOL    HW275638   5.843   2.402  10.113 -0.3520 -0.0079 -0.7881
24733SOL     OW75639   0.248   2.112   9.857  0.1519  0.3812  0.4124
24733SOL    HW175640   0.334   2.072   9.846  0.8002  1.3424  1.6068
24733SOL    HW275641   0.188   2.056   9.809  1.4431 -0.3386 -0.4034
24734SOL     OW75642   7.264   2.509  10.539 -0.4661  0.9105 -0.1319
24734SOL    HW175643   7.304   2.445  10.598 -0.4777  1.1231  0.1078
24734SOL    HW275644   7.183   2.467  10.510 -0.6361  0.9504  0.2824
24735SOL     OW75645   0.142   3.833   8.832  0.1434  0.2927 -0.4662
24735SOL    HW175646   0.058   3.823   8.877 -0.1031 -0.7605 -1.1310
24735SOL    HW275647   0.145   3.926   8.809 -0.3843  0.5476  0.4162
24736SOL     OW75648   6.863   2.999  10.469  0.0942  0.4307 -0.9055
24736SOL    HW175649   6.878   3.067  10.404  1.1981 -0.1973 -1.3258
24736SOL    HW275650   6.892   2.918  10.427  0.4908 -0.0412  0.2340
24737SOL     OW75651   1.023   1.379   9.653 -0.2352  0.3314 -0.0238
24737SOL    HW175652   0.973   1.322   9.595  0.4254  0.5273 -0.8024
24737SOL    HW275653   0.957   1.434   9.695 -0.6747  0.6268 -1.0772
24738SOL     OW75654   1.602   2.241  11.330 -0.1036 -0.5826  0.3834
24738SOL    HW175655   1.546   2.315  11.352 -2.3635 -2.0974  0.0029
24738SOL    HW275656   1.636   2.210  11.413  0.0941  0.2505  0.6279
24739SOL     OW75657   0.952   2.370   9.926  0.3210 -0.2957 -0.2241
24739SOL    HW175658   1.024   2.393   9.868  0.2091  0.3754 -0.1027
24739SOL    HW275659   0.886   2.331   9.869  0.6009 -0.5232 -0.3976
24740SOL     OW75660   0.394   1.402   9.220 -0.0316 -0.2789 -0.0434
24740SOL    HW175661   0.476   1.358   9.244  0.9318  0.5541 -1.6331
24740SOL    HW275662   0.398   1.486   9.265  0.3335  0.0432 -0.6642
24741SOL     OW75663   0.454   2.578  11.784  0.1183 -0.3231  0.3895
24741SOL    HW175664   0.375   2.631  11.779  0.3067  0.0773  1.4484
24741SOL    HW275665   0.421   2.489  11.802 -0.0807 -0.1023  1.1431
24742SOL     OW75666   7.773   4.550  11.427 -0.1773 -0.3529 -0.4827
24742SOL    HW175667   7.693   4.498  11.430  0.4677 -1.3279  1.5197
24742SOL    HW275668   7.841   4.488  11.404  0.2573  0.1038 -0.4424
24743SOL     OW75669   0.005   1.411  10.333 -0.2059 -0.3777 -0.0538
24743SOL    HW175670   0.004   1.326  10.379 -0.3516  0.2555  1.1516
24743SOL    HW275671  -0.063   1.462  10.376  0.2761  0.5589 -0.3854
24744SOL     OW75672   7.492   4.172  10.527 -0.1433 -0.1105 -0.3331
24744SOL    HW175673   7.431   4.203  10.594 -0.7739 -1.0567 -0.4418
24744SOL    HW275674   7.436   4.126  10.464  0.6066 -0.4044 -0.7903
24745SOL     OW75675   7.823   6.067   9.737  0.1415  0.0465  0.0132
24745SOL    HW175676   7.763   6.109   9.676  1.2126  1.4484 -0.1423
24745SOL    HW275677   7.842   5.982   9.698 -0.0765  0.4577 -1.0273
24746SOL     OW75678   0.717   2.253   1.497 -0.0197 -0.7420 -0.2496
24746SOL    HW175679   0.752   2.266   1.408 -0.9712 -0.7054 -0.6337
24746SOL    HW275680   0.793   2.263   1.554  0.4643  0.0513 -0.9999
24747SOL     OW75681   0.299   3.121  11.567 -0.6750  0.2715 -0.4447
24747SOL    HW175682   0.351   3.044  11.587  0.0775  0.8546 -0.1155
24747SOL    HW275683   0.297   3.171  11.649  0.7940  1.7288 -1.2507
24748SOL     OW75684   7.391   3.128  10.196  0.1133 -0.5556  0.1419
24748SOL    HW175685   7.438   3.046  10.209  0.8542 -0.3758 -1.1776
24748SOL    HW275686   7.377   3.132  10.101 -2.1815 -0.3697  0.4346
24749SOL     OW75687   6.613   3.249   9.863 -0.2098 -0.6293 -0.0671
24749SOL    HW175688   6.688   3.206   9.822 -0.5293  0.7817 -2.2724
24749SOL    HW275689   6.651   3.298   9.936  0.8414 -0.8585 -0.4426
24750SOL     OW75690   0.404   0.841  10.472 -0.1289 -0.3592 -0.3670
24750SOL    HW175691   0.496   0.859  10.493 -0.4203  0.1228  0.5176
24750SOL    HW275692   0.379   0.911  10.411 -0.2437  0.2025  0.3169
24751SOL     OW75693   7.569   1.893   9.396  0.0034 -0.0204 -0.1311
24751SOL    HW175694   7.589   1.818   9.341 -0.8040  0.2780 -0.8476
24751SOL    HW275695   7.485   1.925   9.364 -0.0286  0.7300  0.6615
24752SOL     OW75696   7.481   2.208   9.272 -0.3403 -0.1795  0.1845
24752SOL    HW175697   7.457   2.129   9.224 -0.7661 -0.2466  0.5051
24752SOL    HW275698   7.402   2.261   9.272 -0.0074  0.3305 -0.1833
24753SOL     OW75699   0.297   2.800  10.917  0.6518  0.1922  0.2916
24753SOL    HW175700   0.307   2.750  10.998  1.5713  0.3073  0.2592
24753SOL    HW275701   0.386   2.812  10.885  0.2357 -0.7756 -1.3220
24754SOL     OW75702   7.523   2.043  12.123 -0.1876 -0.0903 -0.3829
24754SOL    HW175703   7.598   2.073  12.175 -0.6286  1.7775 -0.7553
24754SOL    HW275704   7.541   1.951  12.107  1.0926 -0.1580  1.1350
24755SOL     OW75705   0.216   2.209  10.550 -0.1995  0.3274 -0.0351
24755SOL    HW175706   0.291   2.268  10.557 -0.4282  0.4264  2.3044
24755SOL    HW275707   0.141   2.268  10.541 -0.2190  0.2919 -0.1128
24756SOL     OW75708   0.931   4.794  11.976 -0.3420 -0.1893  0.0508
24756SOL    HW175709   0.979   4.877  11.975 -1.7397  0.6373 -0.5910
24756SOL    HW275710   0.997   4.729  12.001  0.7025  1.1497  0.9233
24757SOL     OW75711   7.886   2.848   9.966 -0.3045 -0.1020  0.3451
24757SOL    HW175712   7.905   2.784   9.897  1.1726  1.5189 -0.8628
24757SOL    HW275713   7.959   2.839  10.028  0.7091  1.2895 -0.5713
24758SOL     OW75714   1.188   2.761  11.074  0.7531 -0.0013  0.6089
24758SOL    HW175715   1.243   2.839  11.064  0.3718  0.0805 -1.1454
24758SOL    HW275716   1.142   2.775  11.157  0.5033  1.7695  0.2112
24759SOL     OW75717   6.798   1.351  10.999  0.4824  0.3023 -0.0549
24759SOL    HW175718   6.835   1.266  11.022  0.3904  0.5319  0.9982
24759SOL    HW275719   6.865   1.415  11.025  1.1659  0.5295 -2.1073
24760SOL     OW75720   0.382   3.298   9.418 -0.3761  0.7769 -0.3732
24760SOL    HW175721   0.476   3.287   9.405 -0.2994  0.7309  0.1851
24760SOL    HW275722   0.363   3.385   9.381 -0.1218  0.7747 -0.5122
24761SOL     OW75723   0.181   2.313  11.339  0.3483  0.2214 -0.0396
24761SOL    HW175724   0.141   2.373  11.275  1.4853 -0.3429 -1.3333
24761SOL    HW275725   0.193   2.366  11.417 -1.5309  0.8091 -0.0939
24762SOL     OW75726   2.041   2.840  11.434 -0.3342  0.3939 -0.3225
24762SOL    HW175727   1.974   2.847  11.366 -1.6326 -3.0713  0.4087
24762SOL    HW275728   1.991   2.835  11.516  0.5225 -3.5575  0.1448
24763SOL     OW75729   2.357   3.198  11.443 -0.3929  0.2864 -0.2884
24763SOL    HW175730   2.344   3.267  11.377 -0.8894 -0.2524 -0.7667
24763SOL    HW275731   2.271   3.158  11.452 -0.2314  0.0934  0.4048
24764SOL     OW75732   7.154   3.436  10.078  0.0017  0.1651  0.3583
24764SOL    HW175733   7.170   3.448   9.984 -2.1469 -2.8291 -0.5243
24764SOL    HW275734   7.065   3.402  10.083  1.0825 -2.7149  3.2202
24765SOL     OW75735   7.437   3.200  11.990 -0.3142 -0.2447 -0.6668
24765SOL    HW175736   7.364   3.196  12.052  0.7079 -0.5268  0.5667
24765SOL    HW275737   7.403   3.251  11.917 -2.5123 -2.2969 -1.2237
24766SOL     OW75738   7.743   1.520   9.039  0.2341  0.2270  0.3649
24766SOL    HW175739   7.769   1.585   8.974 -0.7299 -0.0950 -0.3623
24766SOL    HW275740   7.689   1.457   8.991 -0.3550 -0.1175  1.4401
24767SOL     OW75741   7.626   3.550  11.537 -0.1227 -0.9346 -0.3602
24767SOL    HW175742   7.624   3.471  11.483  1.2139 -0.3275 -1.3587
24767SOL    HW275743   7.550   3.601  11.508  0.6574 -0.5409 -1.8486
24768SOL     OW75744   6.359   3.739  10.297 -0.0646  0.7015 -0.0287
24768SOL    HW175745   6.382   3.777  10.212  0.8309 -0.5479 -0.3703
24768SOL    HW275746   6.323   3.653  10.276 -1.1930  0.9523  0.7899
24769SOL     OW75747   0.012   2.375  10.164 -0.0620  0.6242 -0.2451
24769SOL    HW175748   0.021   2.467  10.187 -2.3322  0.1946  3.0320
24769SOL    HW275749  -0.082   2.362  10.152  0.1600 -1.3487 -0.2043
24770SOL     OW75750   6.419   3.183   8.441  0.1116  0.0677 -0.3275
24770SOL    HW175751   6.352   3.243   8.474 -0.2772 -1.2183  1.3574
24770SOL    HW275752   6.377   3.097   8.442  1.3004 -0.5473 -0.7167
24771SOL     OW75753   7.827   3.945  10.331 -0.5650  0.5173 -0.0129
24771SOL    HW175754   7.854   3.901  10.250 -1.1940  0.8170 -0.3879
24771SOL    HW275755   7.884   3.907  10.398 -1.0296 -0.8146 -0.3318
24772SOL     OW75756   0.689   1.598  11.027 -0.5120  0.2592  0.5012
24772SOL    HW175757   0.683   1.638  10.940 -1.1631  0.5521  0.6753
24772SOL    HW275758   0.755   1.650  11.073 -1.2130  1.0328  0.6588
24773SOL     OW75759   7.753   3.093  11.393  0.5566 -0.1597 -0.4845
24773SOL    HW175760   7.814   3.075  11.464  1.4441 -1.6133 -1.5645
24773SOL    HW275761   7.672   3.048  11.418  0.3482  0.6376  0.3138
24774SOL     OW75762   0.171   4.251   9.383  0.2440  0.8389  0.6618
24774SOL    HW175763   0.105   4.187   9.356  0.2418  0.1567  2.1637
24774SOL    HW275764   0.164   4.253   9.478  1.7324  1.4805  0.7796
24775SOL     OW75765   7.492   1.779  11.955 -0.0128  0.5581  0.6561
24775SOL    HW175766   7.483   1.715  11.884  1.0133 -0.4250  1.3774
24775SOL    HW275767   7.417   1.761  12.012  1.1205 -1.1258  1.6863
24776SOL     OW75768   7.515   0.124  10.513  0.6891  0.0831 -0.0612
24776SOL    HW175769   7.533   0.141  10.421  1.5343  0.0402  0.0884
24776SOL    HW275770   7.601   0.130  10.556  0.6734 -2.0300  0.3789
24777SOL     OW75771   7.481   2.811  10.972 -0.4756 -0.1504 -0.3237
24777SOL    HW175772   7.493   2.829  10.879 -2.3229 -1.1312 -0.8206
24777SOL    HW275773   7.557   2.850  11.015  0.5564  0.0880 -2.2626
24778SOL     OW75774   6.542   2.855  11.596  0.0769  0.1693 -0.3036
24778SOL    HW175775   6.585   2.773  11.620  1.3045  0.7382 -0.4722
24778SOL    HW275776   6.544   2.907  11.676 -1.2583 -0.1738 -0.0237
24779SOL     OW75777   6.570   2.104  12.161 -0.1107  0.0970  0.4309
24779SOL    HW175778   6.623   2.066  12.091  0.5136 -0.3120  1.1171
24779SOL    HW275779   6.629   2.112  12.235 -0.7188  0.7009  0.8635
24780SOL     OW75780   0.402   0.198  10.124 -0.2316 -0.0663  0.7591
24780SOL    HW175781   0.495   0.179  10.115 -0.2084  0.3688 -0.0606
24780SOL    HW275782   0.369   0.195  10.034 -0.6431  1.5820  0.8356
24781SOL     OW75783   6.602   3.435   9.179  0.6770 -0.5901  0.0887
24781SOL    HW175784   6.632   3.510   9.127  0.3692 -1.0330 -0.7597
24781SOL    HW275785   6.510   3.453   9.196  1.0212  0.0382  1.3748
24782SOL     OW75786   0.059   1.380  11.801 -0.3136  0.1332 -0.1899
24782SOL    HW175787   0.148   1.393  11.767 -0.1374  1.4321  0.7155
24782SOL    HW275788   0.004   1.376  11.722  0.3292  1.1592 -0.7115
24783SOL     OW75789   7.683   2.670  11.317 -0.4724 -0.9652  0.6911
24783SOL    HW175790   7.775   2.687  11.338  0.1739 -1.4559 -1.5489
24783SOL    HW275791   7.649   2.755  11.288 -0.1297 -1.2036 -0.4557
24784SOL     OW75792   1.325   3.754  12.294  0.0756 -0.5562 -0.0539
24784SOL    HW175793   1.337   3.702  12.373 -1.5098  2.6986  2.5872
24784SOL    HW275794   1.230   3.754  12.280 -0.0966  2.1527  0.6003
24785SOL     OW75795   0.664   1.200   7.817  0.2235 -0.5162 -0.2880
24785SOL    HW175796   0.747   1.241   7.841 -0.1744  0.0095  0.2248
24785SOL    HW275797   0.671   1.185   7.723  0.3254  0.8952 -0.5362
24786SOL     OW75798   6.323   2.887  10.470 -0.2156  0.5248  0.6143
24786SOL    HW175799   6.258   2.943  10.427 -0.6755 -1.7142 -1.9244
24786SOL    HW275800   6.273   2.811  10.500  1.1021 -1.3478 -1.5828
24787SOL     OW75801   7.935   4.723   9.301  0.0751 -0.2830 -0.2422
24787SOL    HW175802   7.852   4.685   9.274  0.4965 -0.6476 -1.0490
24787SOL    HW275803   7.924   4.817   9.286 -0.1313 -0.3475 -0.4980
24788SOL     OW75804   0.552   0.849  11.559  0.1351 -0.2859 -0.6279
24788SOL    HW175805   0.638   0.866  11.519  0.0459 -0.9332 -1.0927
24788SOL    HW275806   0.555   0.757  11.584 -0.2753 -0.2031 -0.2695
24789SOL     OW75807   7.143   1.975   7.571  0.3740 -0.0454 -0.6030
24789SOL    HW175808   7.231   1.955   7.540  0.2548 -0.4051 -0.7242
24789SOL    HW275809   7.086   1.919   7.518 -0.1062  1.5384 -1.8203
24790SOL     OW75810   7.835   2.112  11.201  0.3369  0.2118 -0.2038
24790SOL    HW175811   7.887   2.036  11.176  0.0798  0.5293 -1.8796
24790SOL    HW275812   7.744   2.082  11.193  0.2335  0.6896 -0.9607
24791SOL     OW75813   7.476   3.765  11.443 -0.0579  0.0579  0.4297
24791SOL    HW175814   7.534   3.841  11.443 -0.8626  0.7506 -1.6995
24791SOL    HW275815   7.392   3.798  11.411 -1.0497 -1.3266  1.4800
24792SOL     OW75816   7.344   2.813  10.351  0.4325  0.0570  0.2365
24792SOL    HW175817   7.351   2.798  10.256 -1.3980 -1.0140  0.2284
24792SOL    HW275818   7.263   2.863  10.362 -1.3724 -2.8929  1.4463
24793SOL     OW75819   7.236   1.082   9.915 -0.1019  0.3106 -0.7599
24793SOL    HW175820   7.271   1.004   9.958  1.8933  1.6052  0.1266
24793SOL    HW275821   7.311   1.118   9.866 -0.5068  2.4457  0.0692
24794SOL     OW75822   0.862   0.046   1.136  0.1931  0.2104 -0.2390
24794SOL    HW175823   0.921  -0.009   1.086 -0.7797 -0.2315 -0.9216
24794SOL    HW275824   0.779  -0.001   1.135 -0.6322  1.6306 -0.7493
24795SOL     OW75825   0.704   1.788  12.014 -0.1577  0.2887  0.3341
24795SOL    HW175826   0.767   1.734  12.061  0.5280  0.3568 -0.4806
24795SOL    HW275827   0.649   1.725  11.967 -0.0673  0.2632  0.2625
24796SOL     OW75828   0.129   2.267   0.726  0.4557 -0.3225  0.0474
24796SOL    HW175829   0.071   2.342   0.733  0.9124  0.1154 -0.7941
24796SOL    HW275830   0.217   2.303   0.728  0.6763 -0.7612 -1.0165
24797SOL     OW75831   1.230   3.340  10.560  0.1159  0.3568 -0.3479
24797SOL    HW175832   1.307   3.309  10.609 -1.4781 -1.9700  0.8922
24797SOL    HW275833   1.183   3.395  10.623 -1.1004 -1.3122  0.2793
24798SOL     OW75834   7.665   2.964  11.841 -0.8388 -0.4863  0.1241
24798SOL    HW175835   7.751   2.923  11.835 -0.0516  0.8590  1.4096
24798SOL    HW275836   7.641   2.955  11.934 -1.3188  0.6031  0.1232
24799SOL     OW75837   7.861   1.916  12.485  0.2510 -0.1797 -0.1199
24799SOL    HW175838   7.835   1.981  12.419 -1.7783 -0.0333  0.7518
24799SOL    HW275839   7.800   1.930  12.557  1.0709 -1.7513  0.9236
24800SOL     OW75840   7.403   1.436   0.009  0.6384 -0.4569 -0.2138
24800SOL    HW175841   7.377   1.493   0.081  2.0613  0.4641 -0.3821
24800SOL    HW275842   7.322   1.422  -0.041 -0.1485 -0.2609  0.9546
24801SOL     OW75843   7.209   1.361   0.464  0.2054 -0.2370 -0.6122
24801SOL    HW175844   7.229   1.287   0.407 -0.6823 -0.2549 -0.9210
24801SOL    HW275845   7.280   1.363   0.528  0.7183 -0.7907 -1.1576
24802SOL     OW75846   7.206   1.072  12.270  0.0067 -0.5967 -0.0376
24802SOL    HW175847   7.212   0.988  12.223  1.2248 -0.0954 -0.8269
24802SOL    HW275848   7.260   1.059  12.348  2.9306  0.3862 -1.7148
24803SOL     OW75849   6.688   4.832   0.639  0.3347  0.4101 -0.4124
24803SOL    HW175850   6.757   4.888   0.675  0.8911 -1.5731  1.8477
24803SOL    HW275851   6.697   4.750   0.687 -1.5782 -1.0164 -2.3542
24804SOL     OW75852   0.016   3.973  10.812 -0.6106 -0.1018 -0.0745
24804SOL    HW175853   0.045   3.940  10.897 -1.3713  1.9049  1.0234
24804SOL    HW275854  -0.076   3.999  10.826  0.0064  2.7507 -0.6851
24805SOL     OW75855   0.452   2.740  12.102  0.1338 -0.1740 -0.3916
24805SOL    HW175856   0.533   2.695  12.077  0.5821  0.5194 -0.2113
24805SOL    HW275857   0.476   2.790  12.181 -0.3994  0.2513 -0.4943
24806SOL     OW75858   7.910   1.211  12.224 -0.3185 -0.4062 -0.3823
24806SOL    HW175859   7.975   1.164  12.275  0.4742 -0.2392 -1.2083
24806SOL    HW275860   7.873   1.275  12.285 -0.7534 -1.4638  0.4897
24807SOL     OW75861   0.391   4.430  11.604  0.1712 -0.3505  0.3186
24807SOL    HW175862   0.484   4.425  11.627  0.7160  1.1851 -1.3316
24807SOL    HW275863   0.378   4.520  11.575 -1.6673 -0.7510 -0.2414
24808SOL     OW75864   0.247   3.063  11.056 -0.1867 -0.0067 -0.0413
24808SOL    HW175865   0.195   3.025  11.127 -1.2074 -0.0320 -0.7633
24808SOL    HW275866   0.229   3.006  10.981  0.8238  0.0525 -0.3443
24809SOL     OW75867   0.555   6.049  12.455  0.2735 -0.1998 -0.0488
24809SOL    HW175868   0.550   5.960  12.490  2.7782 -0.5743 -0.4111
24809SOL    HW275869   0.636   6.084  12.492  0.1307  1.3685 -1.1259
24810SOL     OW75870   2.404   2.974  10.957 -0.0572  0.1629 -0.2517
24810SOL    HW175871   2.392   2.931  10.872 -1.4925  1.0775 -0.5481
24810SOL    HW275872   2.331   3.036  10.963 -0.4776 -0.4507  2.0036
24811SOL     OW75873   0.677   1.537  10.250 -0.3866  0.9714  0.9284
24811SOL    HW175874   0.652   1.597  10.180 -0.5452  1.7973  1.6706
24811SOL    HW275875   0.634   1.573  10.328 -0.2847  0.0219  1.4349
24812SOL     OW75876   0.128   2.907   0.051  0.5973  0.6101 -0.2640
24812SOL    HW175877   0.108   2.844   0.120  1.8462 -0.4752 -0.8450
24812SOL    HW275878   0.198   2.961   0.088 -0.4614  1.7002  0.2287
24813SOL     OW75879   0.676   1.268  12.190  0.1527 -0.0124  0.5332
24813SOL    HW175880   0.584   1.284  12.209  0.3209  0.7531  0.7568
24813SOL    HW275881   0.679   1.248  12.097 -0.3081 -0.6787  0.6540
24814SOL     OW75882   1.299   3.139  12.399  0.5974 -0.0562 -0.4277
24814SOL    HW175883   1.273   3.125  12.490  0.1032 -1.3180 -0.7422
24814SOL    HW275884   1.226   3.185  12.359  0.8032  0.4747 -0.2020
24815SOL     OW75885   7.807   1.411  12.403  0.0880  0.1634  0.0535
24815SOL    HW175886   7.855   1.494  12.401 -0.2183  0.3296 -0.6183
24815SOL    HW275887   7.829   1.374  12.488  0.4606  0.7965  0.2481
24816SOL     OW75888   1.265   2.133   0.144 -0.2922  0.2761 -0.9623
24816SOL    HW175889   1.249   2.038   0.147 -1.4472  0.4647 -0.5260
24816SOL    HW275890   1.182   2.170   0.114 -0.7329  1.3287  1.3074
24817SOL     OW75891   0.975   2.807  10.885  0.3368  0.0405 -0.0952
24817SOL    HW175892   1.047   2.790  10.946  0.2211  0.3398  0.1324
24817SOL    HW275893   0.926   2.878  10.927 -0.3717 -0.4990 -0.0095
24818SOL     OW75894   7.103   1.987   0.011 -0.1514 -0.4312 -0.6103
24818SOL    HW175895   7.036   2.055   0.005  1.7473  1.4312 -3.2033
24818SOL    HW275896   7.175   2.028   0.059  0.6381 -0.9415 -1.3307
24819SOL     OW75897   6.875   4.055  12.051 -0.2511 -0.0143  0.0964
24819SOL    HW175898   6.825   4.065  12.131 -2.5866 -0.1827 -1.2482
24819SOL    HW275899   6.924   4.136  12.043 -2.5007  1.4363  0.0980
24820SOL     OW75900   1.236   2.520   0.135 -0.0547  0.0456 -0.0778
24820SOL    HW175901   1.149   2.495   0.103  0.9837 -1.3898 -1.9311
24820SOL    HW275902   1.232   2.502   0.229 -1.5277 -0.6727 -0.2428
24821SOL     OW75903   7.472   3.363  10.672 -0.0714 -0.3751 -0.8929
24821SOL    HW175904   7.422   3.311  10.735  0.8023  1.9968  2.0098
24821SOL    HW275905   7.411   3.432  10.645  0.7845  1.1538  0.8533
24822SOL     OW75906   7.807   2.164  12.225  0.3640  0.1406  0.8352
24822SOL    HW175907   7.759   2.232  12.272  0.8842  1.0290  0.1121
24822SOL    HW275908   7.850   2.210  12.152 -0.2862 -1.1543 -0.4296
24823SOL     OW75909   1.466   3.019  12.215 -0.4241  0.1923 -0.0954
24823SOL    HW175910   1.508   2.942  12.254 -1.0500  0.5483  1.3229
24823SOL    HW275911   1.418   3.060  12.287 -1.2883  1.1065 -1.1519
24824SOL     OW75912   0.810   1.634   0.711 -0.0344  0.0569  0.4488
24824SOL    HW175913   0.870   1.669   0.776 -1.6732 -0.1832  2.1849
24824SOL    HW275914   0.761   1.710   0.679 -0.5764 -0.0701  0.9649
24825SOL     OW75915   1.034   2.750  11.829 -0.2150  0.3494  0.0693
24825SOL    HW175916   1.014   2.665  11.869 -2.0982  1.5554  1.9356
24825SOL    HW275917   1.017   2.814  11.898 -0.1881  2.3561 -1.6585
24826SOL     OW75918   1.120   2.380  11.802 -0.7110 -0.1633  0.1468
24826SOL    HW175919   1.213   2.403  11.799 -1.2428  2.2722  0.3292
24826SOL    HW275920   1.099   2.353  11.713  0.0397 -0.1759 -0.0325
24827SOL     OW75921   0.796   3.925  11.735 -0.5930 -0.3754 -0.3337
24827SOL    HW175922   0.777   3.958  11.647  3.2279 -0.1639 -1.2616
24827SOL    HW275923   0.839   3.841  11.721  2.6174  0.8904  0.9998
24828SOL     OW75924   1.824   4.145   1.561  0.6874 -0.6065  0.0743
24828SOL    HW175925   1.818   4.058   1.523 -1.1339  0.1303 -1.5358
24828SOL    HW275926   1.751   4.148   1.624  0.4860 -0.1364 -0.1752
24829SOL     OW75927   7.543   1.838   0.602 -0.1474  0.1634 -0.3252
24829SOL    HW175928   7.609   1.908   0.608  3.0208 -2.5772 -0.1110
24829SOL    HW275929   7.594   1.757   0.601 -3.4832 -2.1638 -2.4609
24830SOL     OW75930   1.986   2.313  11.354 -0.0499  0.2009 -0.3147
24830SOL    HW175931   2.053   2.358  11.406  1.9256 -1.8724 -0.8885
24830SOL    HW275932   1.973   2.370  11.278  2.2982 -0.0440 -0.9865
24831SOL     OW75933   1.040   1.191  12.465 -0.3946 -0.1157 -0.0299
24831SOL    HW175934   1.069   1.113  12.513 -0.2939 -1.1253 -1.6645
24831SOL    HW275935   1.117   1.219  12.416 -0.4739  0.9547  0.4239
24832SOL     OW75936   1.170   3.079   0.151 -0.1452  0.2262  0.0867
24832SOL    HW175937   1.199   2.988   0.162  1.2571  0.7188  0.6586
24832SOL    HW275938   1.074   3.074   0.151 -0.1405 -0.9851  2.4478
24833SOL     OW75939   7.249   1.477   9.882  0.2886 -0.0302 -0.0375
24833SOL    HW175940   7.329   1.458   9.930  0.7633 -0.3314 -0.9228
24833SOL    HW275941   7.258   1.568   9.855 -0.4656  0.4727  1.3396
24834SOL     OW75942   0.669   2.709  11.491 -0.1129 -0.2363 -0.4965
24834SOL    HW175943   0.665   2.805  11.495  0.9741 -0.1497 -1.0343
24834SOL    HW275944   0.620   2.680  11.568 -0.9179  0.7306 -0.6215
24835SOL     OW75945   2.121   3.969   0.008 -0.1927 -0.2140  0.1490
24835SOL    HW175946   2.161   4.000  -0.073 -1.3836 -0.8584 -0.7137
24835SOL    HW275947   2.187   3.913   0.048  0.9225  1.1868  0.3337
24836SOL     OW75948   0.824   1.841  10.612 -0.1396 -0.1197 -0.1985
24836SOL    HW175949   0.911   1.842  10.572  0.2866  0.5271  0.7123
24836SOL    HW275950   0.808   1.748  10.632  0.7880 -0.1298  0.5579
24837SOL     OW75951   0.992   2.113  10.561 -0.1135 -0.5228 -0.6499
24837SOL    HW175952   1.035   2.043  10.513 -1.0873  0.2041 -2.7069
24837SOL    HW275953   0.948   2.165  10.493 -0.2658  1.4839  0.8988
24838SOL     OW75954   6.622   3.003   0.341 -0.2196  0.6636  0.1347
24838SOL    HW175955   6.536   3.017   0.382  0.0668  0.7004  0.7327
24838SOL    HW275956   6.656   3.090   0.324 -1.6108  0.7449 -3.0004
24839SOL     OW75957   0.029   3.288  11.152  0.5598  0.8906  0.3992
24839SOL    HW175958  -0.028   3.354  11.189 -2.1492 -0.3666 -1.2054
24839SOL    HW275959   0.023   3.214  11.212 -2.3955 -0.4868 -1.3955
24840SOL     OW75960   1.405   2.082  11.705  0.2431 -0.1459 -0.2636
24840SOL    HW175961   1.366   2.144  11.644  0.8226  1.0816  0.5645
24840SOL    HW275962   1.336   2.064  11.768  0.6907  1.3784  0.7245
24841SOL     OW75963   7.442   4.688   0.598 -0.1624 -0.1014  0.0967
24841SOL    HW175964   7.418   4.720   0.684 -1.6333 -1.8326  0.3972
24841SOL    HW275965   7.493   4.609   0.616 -2.0376 -1.5442 -0.5346
24842SOL     OW75966   7.752   5.028   1.262  0.0009  0.0972  0.2771
24842SOL    HW175967   7.672   4.982   1.288  0.3364 -0.5809  0.1495
24842SOL    HW275968   7.734   5.120   1.280 -0.9333 -0.0085 -0.0895
24843SOL     OW75969   0.025   2.126  10.814 -0.4154 -0.3952 -0.0800
24843SOL    HW175970  -0.028   2.199  10.780  0.3775 -0.1427 -0.8000
24843SOL    HW275971  -0.039   2.059  10.837 -0.9871 -1.3422 -3.8060
24844SOL     OW75972   7.365   4.572  11.935 -0.0157  0.1918 -0.3028
24844SOL    HW175973   7.374   4.486  11.978 -0.0584 -0.0212 -0.7162
24844SOL    HW275974   7.284   4.608  11.973 -0.6822 -0.4885 -1.0319
24845SOL     OW75975   7.502   5.152   1.033 -0.2711  0.3514 -0.3631
24845SOL    HW175976   7.532   5.074   0.986 -2.3593 -0.0315 -1.1800
24845SOL    HW275977   7.472   5.118   1.117 -0.6240  0.3545 -0.4863
24846SOL     OW75978   7.220   6.130   0.094  0.0062 -0.1330  0.1567
24846SOL    HW175979   7.295   6.189   0.103  1.5789 -1.8740 -0.8264
24846SOL    HW275980   7.255   6.044   0.117 -1.9553 -0.8583  0.5764
24847SOL     OW75981   0.191   6.449   1.380 -0.8226 -0.3422 -0.2262
24847SOL    HW175982   0.279   6.470   1.349 -0.2317 -1.9862  0.2297
24847SOL    HW275983   0.195   6.463   1.475 -1.8485  2.0878 -0.4679
24848SOL     OW75984   5.929   4.256  12.457  0.0310  0.3072  0.4384
24848SOL    HW175985   5.929   4.177  12.510  0.7737  0.0222  0.0171
24848SOL    HW275986   5.976   4.320  12.510 -2.4060  1.1650  1.7524
24849SOL     OW75987   0.142   3.188   0.745 -0.0281 -0.6298  0.3072
24849SOL    HW175988   0.170   3.276   0.771 -0.5907 -0.3078 -0.1431
24849SOL    HW275989   0.186   3.130   0.806  0.7307 -0.0682  0.3099
24850SOL     OW75990   0.571   6.452   0.017  0.8354  0.0581 -0.1744
24850SOL    HW175991   0.580   6.499   0.100  0.5828 -0.4872  0.1621
24850SOL    HW275992   0.510   6.381   0.036 -0.0423  0.5390 -1.0881
24851SOL     OW75993   1.422   3.961   1.480 -0.1979 -0.8090 -0.3067
24851SOL    HW175994   1.388   3.874   1.461 -1.7677 -0.9149  2.4438
24851SOL    HW275995   1.406   4.012   1.400  3.0833 -3.5021 -3.0121
24852SOL     OW75996   6.571   4.739   1.202 -0.4187 -0.8113 -0.3899
24852SOL    HW175997   6.576   4.647   1.176  0.1832 -0.3773 -1.9755
24852SOL    HW275998   6.542   4.784   1.123 -1.7321  0.2603  0.6649
24853SOL     OW75999   6.534   3.136   2.509 -0.1222  0.2516  0.6638
24853SOL    HW176000   6.626   3.111   2.501 -0.5788 -1.0958 -0.9406
24853SOL    HW276001   6.537   3.227   2.538  1.7303  0.3992  0.1519
24854SOL     OW76002   6.203   5.343  11.872 -0.1248  0.0389 -0.0927
24854SOL    HW176003   6.138   5.343  11.941  0.9005  0.9145  0.9077
24854SOL    HW276004   6.162   5.390  11.800 -1.7762 -2.1524 -0.7147
24855SOL     OW76005   5.673   5.203   1.332 -0.5831  0.2664  0.5009
24855SOL    HW176006   5.624   5.285   1.324  0.6570  1.0672  0.6830
24855SOL    HW276007   5.765   5.231   1.330 -0.1357 -1.1923 -0.0685
24856SOL     OW76008   0.228   3.458   0.817 -1.0812 -0.4293 -0.0018
24856SOL    HW176009   0.277   3.520   0.872 -0.9561  0.8774 -1.5427
24856SOL    HW276010   0.137   3.472   0.840 -1.2776  2.0261 -1.9189
24857SOL     OW76011   6.677   3.842  11.519 -0.3542 -0.1252 -0.1901
24857SOL    HW176012   6.739   3.913  11.537 -0.3828  0.2830 -1.5931
24857SOL    HW276013   6.592   3.884  11.514 -0.8409 -0.7261  2.0022
24858SOL     OW76014   1.449   4.672  12.467 -0.4816  0.6767 -0.2992
24858SOL    HW176015   1.356   4.697  12.465 -0.0543  2.3567 -0.9917
24858SOL    HW276016   1.494   4.753  12.493  0.8867  0.2220 -1.1946
24859SOL     OW76017   6.938   4.552   0.182  0.1726 -0.3970  0.5879
24859SOL    HW176018   7.027   4.572   0.152  0.0153 -0.2391  0.2077
24859SOL    HW276019   6.918   4.623   0.243 -0.4347  0.7483 -0.8679
24860SOL     OW76020   7.294   3.576   1.041 -0.3484  0.0253 -0.3360
24860SOL    HW176021   7.274   3.565   0.948 -0.4200  0.7977 -0.4141
24860SOL    HW276022   7.376   3.625   1.043 -0.8256  0.8297  0.0044
24861SOL     OW76023   6.595   6.677   1.633  0.2421 -0.2318 -0.4989
24861SOL    HW176024   6.602   6.772   1.644  1.3116 -0.4919  1.5822
24861SOL    HW276025   6.510   6.664   1.591 -0.1666  1.6216 -0.3460
24862SOL     OW76026   2.563   5.315   1.122  0.1568 -0.1397 -0.2546
24862SOL    HW176027   2.505   5.373   1.171  0.6956 -0.7055  1.0911
24862SOL    HW276028   2.505   5.250   1.083 -0.1457 -0.5611  0.8771
24863SOL     OW76029   7.867   2.928   0.142 -0.3777 -0.2790 -0.2853
24863SOL    HW176030   7.846   2.857   0.203  2.9671  0.9684  2.7369
24863SOL    HW276031   7.936   2.892   0.086  1.7860  0.5124  1.6681
24864SOL     OW76032   0.306   2.730  11.413 -0.1493 -0.5222 -0.6063
24864SOL    HW176033   0.260   2.787  11.351 -0.5447  0.5806  0.6321
24864SOL    HW276034   0.382   2.698  11.365  0.1650  1.1840 -1.3405
24865SOL     OW76035   0.325   4.180  12.153  0.2973  0.0656  0.0061
24865SOL    HW176036   0.316   4.212  12.243  0.8866  1.3483 -0.3752
24865SOL    HW276037   0.248   4.125  12.139 -0.1987  0.4827  1.0258
24866SOL     OW76038   7.020   4.538   3.693 -0.0516 -0.3607  0.0463
24866SOL    HW176039   7.043   4.513   3.783  0.0946  0.0082  0.1136
24866SOL    HW276040   7.094   4.592   3.664  0.9224 -2.1985 -1.0385
24867SOL     OW76041   0.980   4.814   0.816  0.0529  0.5014 -0.0776
24867SOL    HW176042   0.957   4.721   0.807 -1.8931  1.0050 -0.6784
24867SOL    HW276043   1.061   4.822   0.765 -0.6266 -0.5771 -1.4298
24868SOL     OW76044   0.102   1.855   0.748 -0.3206  0.4871  0.6092
24868SOL    HW176045   0.198   1.854   0.758 -0.1463  0.2447 -0.8259
24868SOL    HW276046   0.084   1.791   0.680 -1.5639  0.2409  1.1428
24869SOL     OW76047   6.183   5.892   0.896 -0.1597  0.9807 -0.3433
24869SOL    HW176048   6.192   5.939   0.979  1.9215 -0.3197  0.2637
24869SOL    HW276049   6.184   5.800   0.921 -1.6355  0.5645 -1.6840
24870SOL     OW76050   0.456   4.379   0.872 -0.4903  0.5364  0.0844
24870SOL    HW176051   0.451   4.297   0.823  0.6686  0.6076 -0.1727
24870SOL    HW276052   0.431   4.447   0.809 -0.7587  0.4557  0.1019
24871SOL     OW76053   7.576   5.190   0.070  0.5543  0.1292  0.2105
24871SOL    HW176054   7.620   5.271   0.044  0.0299  0.7133  1.0730
24871SOL    HW276055   7.527   5.214   0.149  2.1691 -1.5716  1.8007
24872SOL     OW76056   7.143   5.946   1.960  0.5167  0.5118  0.7399
24872SOL    HW176057   7.140   6.006   2.034  0.5652  0.0608  1.1142
24872SOL    HW276058   7.219   5.890   1.978 -0.8668 -1.1932  1.6151
24873SOL     OW76059   6.906   3.960   0.916  0.4338 -0.0388  0.1171
24873SOL    HW176060   6.928   3.899   0.844  2.9487 -0.9206  1.4855
24873SOL    HW276061   6.883   3.903   0.989  0.4549  0.7271  0.7344
24874SOL     OW76062   7.696   4.166   1.186 -0.2340 -0.5023 -0.2171
24874SOL    HW176063   7.692   4.193   1.278 -0.1300 -3.3524  0.7328
24874SOL    HW276064   7.604   4.160   1.159 -0.2593  1.0293 -0.5994
24875SOL     OW76065   0.180   4.634   1.848 -0.3867  0.1823  0.0526
24875SOL    HW176066   0.122   4.591   1.786 -0.4889  0.4743 -0.0523
24875SOL    HW276067   0.233   4.562   1.884  0.0469  0.0804 -0.7612
24876SOL     OW76068   0.227   4.301   1.623  0.2877 -0.0096 -0.0882
24876SOL    HW176069   0.216   4.254   1.706  1.3019 -0.3419 -0.1324
24876SOL    HW276070   0.164   4.373   1.628  1.1092  0.6534  1.4574
24877SOL     OW76071   7.800   3.464   0.283  0.1596 -0.2158 -0.2297
24877SOL    HW176072   7.834   3.411   0.211 -0.1115 -0.6802 -0.0204
24877SOL    HW276073   7.777   3.547   0.243  0.1927 -0.4033 -0.6430
24878SOL     OW76074   6.733   4.081  12.281 -0.6808  0.3254 -0.4842
24878SOL    HW176075   6.713   4.174  12.293 -1.7514  0.0547 -0.0035
24878SOL    HW276076   6.665   4.035  12.332 -0.6625 -0.7284 -1.3614
24879SOL     OW76077   7.613   4.856   2.577 -0.8261  0.0802 -0.1335
24879SOL    HW176078   7.657   4.784   2.623  1.1015  0.0753 -1.8234
24879SOL    HW276079   7.682   4.895   2.523 -2.1184  2.4460 -0.1825
24880SOL     OW76080   0.853   5.281   0.746 -0.0769  0.5202  0.2739
24880SOL    HW176081   0.760   5.268   0.766  0.0842 -1.3789 -0.0443
24880SOL    HW276082   0.873   5.368   0.780 -2.2867  1.5405 -0.8245
24881SOL     OW76083   0.070   3.349  12.441  0.1603 -0.2471  0.0227
24881SOL    HW176084   0.065   3.270  12.388  0.1777 -1.5722  1.9068
24881SOL    HW276085  -0.000   3.340  12.505  1.9323 -0.1537  2.0729
24882SOL     OW76086   6.823   5.405   1.415  0.1256  0.4953  0.0937
24882SOL    HW176087   6.893   5.368   1.469 -0.7160  0.7460  1.4158
24882SOL    HW276088   6.833   5.499   1.425  0.9142  0.6016 -1.4842
24883SOL     OW76089   7.489   4.006   1.419 -0.0010 -0.7104  0.8857
24883SOL    HW176090   7.466   3.991   1.511 -1.0718  1.6238  1.0703
24883SOL    HW276091   7.564   4.064   1.423  0.0215 -0.6959  0.2740
24884SOL     OW76092   7.888   5.004   1.515 -0.4369  0.6231  0.3157
24884SOL    HW176093   7.873   4.912   1.536 -0.9443  0.8149  0.8191
24884SOL    HW276094   7.861   5.012   1.424 -1.9682  0.6099  0.7376
24885SOL     OW76095   7.813   6.534   2.128  0.4033  0.7953  0.1461
24885SOL    HW176096   7.886   6.584   2.164  0.1666  1.6252 -0.5114
24885SOL    HW276097   7.792   6.470   2.196 -0.3693  2.6509  1.7343
24886SOL     OW76098   1.044   3.204  11.401 -0.0360  0.5258 -0.1098
24886SOL    HW176099   0.981   3.149  11.355  1.0900  0.4496 -1.6362
24886SOL    HW276100   0.998   3.231  11.481 -1.1902 -1.3342 -0.0612
24887SOL     OW76101   0.149   2.965   0.587  0.5570 -0.2814  0.0205
24887SOL    HW176102   0.122   3.044   0.635  0.6748 -0.3328  0.1738
24887SOL    HW276103   0.123   2.893   0.645  1.8231 -0.3112  0.5913
24888SOL     OW76104   0.240   4.399   2.485  0.1097 -0.2764 -0.1621
24888SOL    HW176105   0.213   4.481   2.527 -0.7964 -2.0261  2.9533
24888SOL    HW276106   0.330   4.414   2.458  0.0971  1.5971  0.7029
24889SOL     OW76107   7.124   6.483   3.971 -0.0286 -0.4280  0.3472
24889SOL    HW176108   7.170   6.401   3.953 -0.0238 -0.0771 -1.4609
24889SOL    HW276109   7.192   6.542   4.002  0.3889 -0.5167 -0.3624
24890SOL     OW76110   1.180   3.014   0.758  0.5991 -0.3966  0.5170
24890SOL    HW176111   1.181   3.055   0.845 -0.6283 -0.6766  0.6907
24890SOL    HW276112   1.088   3.019   0.731  1.1577  0.9168 -1.3739
24891SOL     OW76113   7.992   5.177   2.532  1.0916 -0.1721  0.2890
24891SOL    HW176114   7.998   5.210   2.443  0.2301  0.6308  0.5189
24891SOL    HW276115   7.899   5.184   2.555  1.0432 -1.7998  0.7173
24892SOL     OW76116   7.394   5.192  11.838 -0.0297  0.4104  0.2254
24892SOL    HW176117   7.352   5.170  11.921  1.4885 -0.2909  0.8416
24892SOL    HW276118   7.445   5.271  11.857  1.7814 -0.7609  0.5154
24893SOL     OW76119   7.585   4.841   1.901  0.9474  0.0263 -0.4180
24893SOL    HW176120   7.615   4.896   1.829 -0.1136 -0.0738 -0.9612
24893SOL    HW276121   7.654   4.775   1.911  1.5970  0.6604 -0.6380
24894SOL     OW76122   0.236   6.180   4.413  0.3819  0.0916 -0.5734
24894SOL    HW176123   0.292   6.107   4.385  2.2108  0.3318  1.9977
24894SOL    HW276124   0.296   6.238   4.460 -1.6994  1.4380  0.5511
24895SOL     OW76125   0.735   4.006  11.446  0.5348  0.3659 -0.5435
24895SOL    HW176126   0.760   4.097  11.429  0.2428  0.4692 -0.4206
24895SOL    HW276127   0.801   3.954  11.400  0.7695  0.6399 -0.5176
24896SOL     OW76128   6.553   5.445   1.046  0.2228 -0.5547  0.5736
24896SOL    HW176129   6.592   5.526   1.079  0.9842  0.1252 -1.7804
24896SOL    HW276130   6.580   5.378   1.109  4.0857  0.1342 -0.1168
24897SOL     OW76131   7.618   6.779   1.675  0.2574  0.2118  0.3004
24897SOL    HW176132   7.610   6.742   1.763 -2.0989 -0.5921 -0.1837
24897SOL    HW276133   7.577   6.714   1.618  1.4667  0.8590 -1.3805
24898SOL     OW76134   6.944   5.966   0.065 -0.1057  0.0876  0.4326
24898SOL    HW176135   6.973   6.057   0.075  0.8661 -0.2883  1.1573
24898SOL    HW276136   7.015   5.914   0.102 -0.0229 -1.0373 -1.1903
24899SOL     OW76137   0.473   4.494   3.624  0.0843 -0.2704  0.0496
24899SOL    HW176138   0.534   4.559   3.590 -0.0338 -0.2992 -0.2217
24899SOL    HW276139   0.415   4.474   3.550  0.7182 -1.3974 -0.1693
24900SOL     OW76140   7.085   4.973   2.191 -0.2882  0.4838 -0.0527
24900SOL    HW176141   7.156   4.909   2.184 -0.6621 -0.2036  1.8252
24900SOL    HW276142   7.014   4.936   2.139 -0.4020 -0.5036  0.7794
24901SOL     OW76143   0.048   4.352  12.317 -0.8456  0.7027 -0.0272
24901SOL    HW176144   0.048   4.264  12.281 -4.4011 -0.8178  3.0452
24901SOL    HW276145   0.107   4.347  12.393 -0.4705  1.2494 -0.2720
24902SOL     OW76146   0.412   3.278   2.318  0.0751 -0.2212 -0.1730
24902SOL    HW176147   0.353   3.266   2.392  0.4074  1.0212  0.3167
24902SOL    HW276148   0.493   3.236   2.344 -0.4367 -1.6055 -0.6966
24903SOL     OW76149   7.072   4.356   3.342  0.2091  0.4762 -0.1617
24903SOL    HW176150   7.031   4.343   3.427  0.0443  2.4362  0.1071
24903SOL    HW276151   7.130   4.281   3.331 -0.3300 -0.1896  1.3307
24904SOL     OW76152   7.466   4.435   1.295  0.1682  0.4104 -0.6931
24904SOL    HW176153   7.465   4.458   1.203  2.8893  0.3387 -0.8305
24904SOL    HW276154   7.479   4.340   1.296 -1.2612  0.1892 -0.1798
24905SOL     OW76155   6.798   6.340   1.995  0.9267 -0.4699  0.0806
24905SOL    HW176156   6.752   6.404   1.940  1.4871  1.0815  1.3253
24905SOL    HW276157   6.884   6.330   1.955  1.0698  0.0838  0.2391
24906SOL     OW76158   6.572   4.849   2.674  0.3685  0.4754 -0.2224
24906SOL    HW176159   6.489   4.894   2.659 -0.1645 -0.4853 -0.2143
24906SOL    HW276160   6.638   4.910   2.641 -0.3810  0.9936 -0.8060
24907SOL     OW76161   5.914   5.256   1.999  0.0671  0.2809 -0.1341
24907SOL    HW176162   5.821   5.254   1.976 -0.5458 -0.9298  2.1235
24907SOL    HW276163   5.929   5.345   2.031 -0.7087  0.0762  0.8341
24908SOL     OW76164   0.988   4.655   2.992 -0.0729 -0.0775 -0.0291
24908SOL    HW176165   1.067   4.618   2.951  0.2348  0.6190 -0.0836
24908SOL    HW276166   1.006   4.651   3.086 -0.8276 -1.7846  0.0829
24909SOL     OW76167   7.534   4.064   2.681  0.2381 -0.2065  0.2488
24909SOL    HW176168   7.518   4.017   2.599 -1.0280 -1.1766  0.9990
24909SOL    HW276169   7.558   3.996   2.743  2.1664  0.6320  0.4981
24910SOL     OW76170   7.929   2.880   2.003 -0.2510 -0.4586 -0.3692
24910SOL    HW176171   8.009   2.844   2.039  0.4590  1.4130  0.0377
24910SOL    HW276172   7.957   2.934   1.930 -1.0982  0.4624 -0.0403
24911SOL     OW76173   6.445   7.446   1.687  0.3737  0.3013 -0.2616
24911SOL    HW176174   6.504   7.522   1.691  1.8453 -0.8341  0.6185
24911SOL    HW276175   6.480   7.392   1.616 -1.2032  0.8270 -1.4904
24912SOL     OW76176   5.598   4.311   4.294  0.2464  0.1373 -0.4987
24912SOL    HW176177   5.576   4.392   4.342 -0.7830 -1.3516  1.7281
24912SOL    HW276178   5.546   4.316   4.214 -1.1028  0.9352  0.3893
24913SOL     OW76179   6.281   4.390   2.292  0.1636  0.1328 -0.2579
24913SOL    HW176180   6.284   4.468   2.348  0.9227  0.2968 -0.5096
24913SOL    HW276181   6.189   4.380   2.269 -0.1882 -0.0322  1.1523
24914SOL     OW76182   0.399   3.865   3.824 -0.1142  0.0161 -0.2276
24914SOL    HW176183   0.472   3.913   3.786  0.0730 -0.0795  0.0121
24914SOL    HW276184   0.437   3.785   3.859 -0.2866  0.0850  0.1294
24915SOL     OW76185   7.604   3.844   3.722  0.3611  0.0922  0.2447
24915SOL    HW176186   7.666   3.896   3.672  0.2252  1.3939  1.3546
24915SOL    HW276187   7.649   3.761   3.739  0.7736  0.0161 -1.1443
24916SOL     OW76188   7.599   5.278   3.801  0.0072 -0.0631 -0.0043
24916SOL    HW176189   7.663   5.349   3.799 -0.7945  0.6697 -1.1328
24916SOL    HW276190   7.579   5.265   3.894  0.3179  1.0526  0.2263
24917SOL     OW76191   6.590   7.045   1.306  0.0622  0.3340  0.0874
24917SOL    HW176192   6.620   6.961   1.268  0.9117 -0.2000  1.8300
24917SOL    HW276193   6.615   7.110   1.241 -1.9336 -0.8417 -2.0114
24918SOL     OW76194   0.529   4.500   1.121  0.3308 -0.4456 -0.6266
24918SOL    HW176195   0.453   4.518   1.176  1.1992  2.0793 -0.1306
24918SOL    HW276196   0.498   4.433   1.059 -1.8488 -0.4877  0.4086
24919SOL     OW76197   0.236   7.350   3.372  0.0114  0.8060  0.0223
24919SOL    HW176198   0.165   7.339   3.309  0.9040 -0.1076 -0.8537
24919SOL    HW276199   0.194   7.391   3.448 -1.3091  0.8914 -0.7231
24920SOL     OW76200   7.807   6.331   2.296  0.1388  0.2821  0.2332
24920SOL    HW176201   7.893   6.332   2.339 -0.2256 -1.0189  1.0706
24920SOL    HW276202   7.790   6.238   2.279 -0.0550  0.6879 -2.1471
24921SOL     OW76203   1.660   6.722   3.843  0.3984 -0.1689  0.1362
24921SOL    HW176204   1.694   6.735   3.755  0.8610  3.5536  0.6825
24921SOL    HW276205   1.730   6.752   3.901 -0.7383 -0.2585  1.6490
24922SOL     OW76206   7.865   5.396   4.652 -0.1989  0.4375 -0.0168
24922SOL    HW176207   7.895   5.484   4.628  0.7776  0.4838  1.2698
24922SOL    HW276208   7.779   5.410   4.690 -0.1222  0.8149  0.0283
24923SOL     OW76209   7.377   5.624   3.243 -0.1005 -0.1865  0.1805
24923SOL    HW176210   7.330   5.704   3.219 -0.4082 -0.5208 -0.3357
24923SOL    HW276211   7.465   5.636   3.206 -0.4565 -0.5316 -0.8020
24924SOL     OW76212   7.099   4.722   0.720 -0.5329  0.0318 -0.0690
24924SOL    HW176213   7.027   4.745   0.779 -1.4008 -1.4047 -0.5171
24924SOL    HW276214   7.178   4.738   0.772 -1.2124  0.5372  0.8444
24925SOL     OW76215   2.415   4.132   2.216  0.2435  0.2577 -0.4954
24925SOL    HW176216   2.483   4.184   2.260  1.3318 -1.7743  0.3779
24925SOL    HW276217   2.457   4.101   2.136  0.2779 -0.7485 -0.1052
24926SOL     OW76218   0.684   5.786   4.108  0.0807 -0.5132 -0.1722
24926SOL    HW176219   0.762   5.742   4.140  0.8862  0.8031 -0.2242
24926SOL    HW276220   0.717   5.869   4.073 -1.6162  1.3886  2.3699
24927SOL     OW76221   1.288   4.683   3.497  0.0216 -0.1073 -0.2265
24927SOL    HW176222   1.378   4.656   3.518  0.5455  1.0957 -0.8323
24927SOL    HW276223   1.266   4.746   3.566 -0.5045 -0.6795  0.1340
24928SOL     OW76224   0.877   6.322   2.168  0.0362  0.3137  0.5739
24928SOL    HW176225   0.831   6.390   2.120 -0.9603 -1.0499 -0.4825
24928SOL    HW276226   0.818   6.247   2.166  0.7831 -0.3640  2.3515
24929SOL     OW76227   7.957   4.695   4.052 -0.4524  0.2846  0.1286
24929SOL    HW176228   7.973   4.785   4.026 -0.8059  0.8925  1.8860
24929SOL    HW276229   7.902   4.701   4.130 -0.1849 -1.4422  0.5039
24930SOL     OW76230   6.808   4.332   3.464 -1.0925  0.4528 -0.0785
24930SOL    HW176231   6.792   4.238   3.475 -0.7510  0.3806 -0.1968
24930SOL    HW276232   6.776   4.371   3.545 -1.3462  0.2476 -0.0791
24931SOL     OW76233   1.523   4.844   3.973 -0.4455 -0.2830 -0.2569
24931SOL    HW176234   1.558   4.917   3.922 -0.2124 -1.0253 -1.1838
24931SOL    HW276235   1.569   4.848   4.056  0.4615 -0.1137 -0.7617
24932SOL     OW76236   6.276   5.601   5.445 -0.2472  0.4695 -0.3434
24932SOL    HW176237   6.313   5.666   5.505 -0.6177 -1.1431  1.7786
24932SOL    HW276238   6.187   5.631   5.428 -0.7510  0.0767  1.4151
24933SOL     OW76239   5.861   4.821   1.843 -0.1334  0.0434  0.2844
24933SOL    HW176240   5.831   4.863   1.762 -0.8198  0.4681  0.7485
24933SOL    HW276241   5.795   4.753   1.860 -0.8256  0.9253  1.2689
24934SOL     OW76242   7.678   5.119   2.883  0.5377 -0.5320 -0.0467
24934SOL    HW176243   7.740   5.056   2.920  1.2071  0.0081 -0.2149
24934SOL    HW276244   7.696   5.201   2.930  0.7088 -0.0902 -0.8465
24935SOL     OW76245   6.296   6.563   1.418  0.1847 -0.3433 -0.5111
24935SOL    HW176246   6.305   6.642   1.472  1.4495 -1.5415  1.1525
24935SOL    HW276247   6.338   6.586   1.335  1.0782  0.5714  0.1664
24936SOL     OW76248   0.047   3.904   3.572  0.2843  0.7126  0.2391
24936SOL    HW176249  -0.037   3.943   3.596  1.0628  1.4999  1.8364
24936SOL    HW276250   0.104   3.979   3.555  0.8608  0.2032 -0.1013
24937SOL     OW76251   7.530   5.243   4.090  1.0964  0.0705 -0.2411
24937SOL    HW176252   7.528   5.171   4.153 -0.6428  0.1749 -0.1218
24937SOL    HW276253   7.536   5.322   4.143 -0.9506  0.1915 -0.1158
24938SOL     OW76254   0.543   4.029   5.212  0.3409  0.1658  0.4476
24938SOL    HW176255   0.588   4.010   5.129  0.6469  1.3022  0.3373
24938SOL    HW276256   0.579   3.966   5.274  1.4244  0.4512  0.1329
24939SOL     OW76257   1.351   3.735   3.482 -0.1643  0.3917 -0.2745
24939SOL    HW176258   1.322   3.815   3.439  0.7926  0.0976 -1.5306
24939SOL    HW276259   1.373   3.676   3.410  2.5830  0.2786  0.5657
24940SOL     OW76260   7.760   6.360   3.534  0.5057 -0.4272 -0.1538
24940SOL    HW176261   7.733   6.273   3.562  0.9127 -0.7497 -0.7435
24940SOL    HW276262   7.724   6.419   3.601  0.9723 -1.1176  0.7190
24941SOL     OW76263   7.511   2.262   1.280  0.2537 -0.6979  0.1838
24941SOL    HW176264   7.463   2.190   1.239 -0.7825  0.8859 -1.5024
24941SOL    HW276265   7.445   2.312   1.327  0.4041  0.8253 -1.1565
24942SOL     OW76266   7.018   3.950   3.383 -0.1884 -0.7038  0.2520
24942SOL    HW176267   6.950   4.004   3.422  0.1430 -0.3121  0.2931
24942SOL    HW276268   7.024   3.873   3.440 -0.1860 -0.4613  0.5779
24943SOL     OW76269   6.043   5.053   1.683 -0.3675  0.1961 -0.4585
24943SOL    HW176270   6.116   5.022   1.630 -0.0467 -0.7370  0.5041
24943SOL    HW276271   6.079   5.065   1.771 -1.3091 -0.0267 -0.0236
24944SOL     OW76272   7.559   5.421  12.437  0.2626 -0.0505  0.3654
24944SOL    HW176273   7.599   5.506  12.454  1.3514 -0.6525  0.9295
24944SOL    HW276274   7.516   5.431  12.352  0.6974  0.9476  0.2483
24945SOL     OW76275   0.012   6.375   4.014  0.6527  0.2569  0.4429
24945SOL    HW176276   0.026   6.389   3.921  1.6186  2.5229  0.8708
24945SOL    HW276277  -0.003   6.463   4.050 -0.6938 -0.6482  2.2902
24946SOL     OW76278   1.313   3.090   3.819 -0.0936 -0.7573 -0.0676
24946SOL    HW176279   1.311   3.169   3.872  1.9895 -1.2326  0.8128
24946SOL    HW276280   1.225   3.052   3.829 -0.5933  0.5814  0.8172
24947SOL     OW76281   6.694   5.709   5.164 -0.0923  0.1134 -0.3863
24947SOL    HW176282   6.751   5.638   5.193 -0.9992 -1.4804 -2.2663
24947SOL    HW276283   6.605   5.676   5.178 -0.5602  1.3264 -0.3260
24948SOL     OW76284   0.225   6.428   3.547 -0.2222  0.3784  0.3989
24948SOL    HW176285   0.307   6.438   3.595 -0.8423  1.2074  1.3310
24948SOL    HW276286   0.244   6.462   3.459  1.0495 -1.5615 -0.1528
24949SOL     OW76287   4.284   6.425   3.876 -0.0858  0.1710 -0.4020
24949SOL    HW176288   4.367   6.452   3.915 -0.6547  0.1890  0.8188
24949SOL    HW276289   4.228   6.503   3.880 -0.5934 -0.2060 -0.0072
24950SOL     OW76290   7.165   4.886   1.862 -0.1721  0.0081 -0.3077
24950SOL    HW176291   7.201   4.975   1.855  2.5464 -0.9461  0.0552
24950SOL    HW276292   7.079   4.897   1.901  1.2134  2.3519  2.4722
24951SOL     OW76293   7.889   6.201   3.315 -0.1964  0.0631 -0.2638
24951SOL    HW176294   7.844   6.245   3.388 -1.1797 -1.2340 -0.0513
24951SOL    HW276295   7.846   6.236   3.237 -2.1147 -1.5909 -0.0535
24952SOL     OW76296   7.517   4.898   3.092  0.0023 -0.1899  0.0483
24952SOL    HW176297   7.561   4.855   3.018  0.0852 -0.4593  0.2524
24952SOL    HW276298   7.589   4.937   3.142 -0.0525 -0.0285  0.0024
24953SOL     OW76299   7.108   5.557   5.387  0.1101 -0.3008  0.2825
24953SOL    HW176300   7.101   5.503   5.465  1.3715 -0.6241  0.1889
24953SOL    HW276301   7.196   5.541   5.354  0.3064  1.3435 -0.0892
24954SOL     OW76302   7.311   5.369   2.472  0.0474  0.1371 -0.2120
24954SOL    HW176303   7.228   5.332   2.443  0.1600 -1.5580  1.4364
24954SOL    HW276304   7.326   5.330   2.558  3.7127 -1.5907 -1.4156
24955SOL     OW76305   7.074   6.415   4.603 -0.5044 -0.0367  0.4873
24955SOL    HW176306   7.055   6.337   4.550 -1.8177  0.2636  0.4644
24955SOL    HW276307   7.013   6.408   4.677  0.6824  0.0090  1.4986
24956SOL     OW76308   6.390   5.476   1.971  0.5663 -0.0520  0.4068
24956SOL    HW176309   6.483   5.461   1.988  0.8395  0.9611 -0.1301
24956SOL    HW276310   6.382   5.468   1.876  0.3455  1.0589  0.3195
24957SOL     OW76311   6.980   6.000   2.993 -0.0126 -0.5513 -0.6201
24957SOL    HW176312   7.015   6.021   2.906  0.3488  0.5166 -0.2374
24957SOL    HW276313   7.047   5.944   3.033  0.5898  0.2744 -0.4413
24958SOL     OW76314   0.088   4.596   2.627 -0.2248 -0.4164 -0.3991
24958SOL    HW176315   0.047   4.555   2.704 -0.8922 -0.0265 -0.5316
24958SOL    HW276316   0.014   4.619   2.570  0.2654 -0.7705 -1.1969
24959SOL     OW76317   7.231   5.106   3.207 -0.0644 -0.5577 -0.0328
24959SOL    HW176318   7.233   5.014   3.179  0.3980 -1.1298  1.7871
24959SOL    HW276319   7.138   5.128   3.211 -0.1702 -0.4528 -1.8631
24960SOL     OW76320   0.409   3.635   1.074 -0.0298  0.0612 -0.3885
24960SOL    HW176321   0.364   3.709   1.032 -0.8218  0.0816  0.4768
24960SOL    HW276322   0.341   3.570   1.088 -0.3229  0.8847  2.7994
24961SOL     OW76323   0.791   5.189   3.248  0.2633  0.1639  0.2195
24961SOL    HW176324   0.794   5.277   3.212 -1.0463 -0.1983 -0.8747
24961SOL    HW276325   0.783   5.132   3.171  0.6842 -0.8780  0.9275
24962SOL     OW76326   0.516   6.016   5.390 -0.1030  0.2263  0.5058
24962SOL    HW176327   0.487   6.020   5.299  0.0250 -0.0150  0.4544
24962SOL    HW276328   0.516   6.107   5.419  3.0779  0.7512 -0.7497
24963SOL     OW76329   5.478   5.662   4.160  0.0525  0.1369  0.1185
24963SOL    HW176330   5.500   5.619   4.077  0.6565 -1.2856  0.9847
24963SOL    HW276331   5.389   5.695   4.147  0.2419  0.1872 -1.1860
24964SOL     OW76332   7.315   3.701   2.889 -0.0326 -0.3154 -0.2646
24964SOL    HW176333   7.223   3.728   2.896 -0.1321 -0.8246  0.5138
24964SOL    HW276334   7.317   3.613   2.926  0.9799  0.1390  0.8219
24965SOL     OW76335   6.435   4.571   3.192  0.6748  0.4536 -0.1661
24965SOL    HW176336   6.343   4.579   3.219  0.7690  0.5288  0.1411
24965SOL    HW276337   6.434   4.507   3.121  0.1355  1.8422 -1.4719
24966SOL     OW76338   6.060   4.132   1.817 -0.4197 -0.7055 -0.1743
24966SOL    HW176339   6.099   4.209   1.858 -0.5814 -0.7296  0.0279
24966SOL    HW276340   6.103   4.057   1.859  1.0671 -0.7446 -1.6376
24967SOL     OW76341   7.752   5.549   4.337  0.3623  0.4629  0.6225
24967SOL    HW176342   7.809   5.578   4.410  0.2828 -3.1268  2.3225
24967SOL    HW276343   7.813   5.515   4.272  0.3307 -0.7325  1.1860
24968SOL     OW76344   7.667   4.558   4.762  0.0511  0.1293  0.3471
24968SOL    HW176345   7.603   4.498   4.725  1.1168 -0.5980 -0.3644
24968SOL    HW276346   7.670   4.535   4.855 -0.6507  0.1182  0.3722
24969SOL     OW76347   0.079   3.137   3.728  0.3297  0.5086  1.2155
24969SOL    HW176348   0.174   3.121   3.733  0.3313  0.1666  0.2808
24969SOL    HW276349   0.060   3.139   3.634 -0.5743  0.6965  1.3953
24970SOL     OW76350   6.408   4.963   6.244  0.1880 -0.0767 -0.7478
24970SOL    HW176351   6.470   4.973   6.172  0.0869 -0.3365 -0.8743
24970SOL    HW276352   6.461   4.969   6.323  0.4880 -1.0426 -0.8681
24971SOL     OW76353   1.705   4.436   6.972 -0.6401  0.5061  0.5777
24971SOL    HW176354   1.652   4.500   7.020  3.2343  3.0399  1.9712
24971SOL    HW276355   1.748   4.487   6.903 -0.3011 -1.4867 -0.7486
24972SOL     OW76356   0.268   5.149   2.219  0.1076 -0.6571 -0.3777
24972SOL    HW176357   0.325   5.197   2.158  1.3316 -0.3325  0.9722
24972SOL    HW276358   0.189   5.132   2.168  0.8721  0.0476 -1.9001
24973SOL     OW76359   5.672   5.849   4.261  0.0589 -0.2904  0.1215
24973SOL    HW176360   5.618   5.871   4.337 -1.0122  0.6276 -0.8616
24973SOL    HW276361   5.621   5.781   4.215 -0.6125  1.0260 -1.1443
24974SOL     OW76362   0.826   6.378   4.132  0.1627  1.0047 -0.1394
24974SOL    HW176363   0.778   6.441   4.079  0.7710  1.4542 -0.1581
24974SOL    HW276364   0.917   6.404   4.125  0.4264  0.1179 -0.1518
24975SOL     OW76365   0.236   4.320   2.808  0.1136 -0.2057 -0.0176
24975SOL    HW176366   0.285   4.274   2.876 -0.1486 -0.5677 -0.0738
24975SOL    HW276367   0.204   4.399   2.852 -0.8329 -0.8837  0.5557
24976SOL     OW76368   7.534   5.872   4.619  0.2415  0.5427 -0.4301
24976SOL    HW176369   7.570   5.896   4.534  0.7704 -3.5987 -1.6187
24976SOL    HW276370   7.440   5.883   4.610  0.3277  0.5745 -1.4080
24977SOL     OW76371   7.304   3.908   5.738 -0.2893 -0.0338  0.1817
24977SOL    HW176372   7.361   3.977   5.704 -0.1098 -0.6997 -0.8992
24977SOL    HW276373   7.351   3.872   5.813 -0.9100  1.7786  1.5422
24978SOL     OW76374   7.990   3.663   6.308  0.2181  0.2155 -0.5397
24978SOL    HW176375   7.988   3.660   6.403  1.5529  0.8399 -0.4625
24978SOL    HW276376   8.037   3.583   6.283  1.9570  1.1773 -0.5153
24979SOL     OW76377   7.630   4.590   7.674  0.1316  0.2900 -0.3859
24979SOL    HW176378   7.591   4.642   7.744 -0.7927 -0.7752 -0.0809
24979SOL    HW276379   7.638   4.650   7.600 -1.7440  0.6571 -0.3370
24980SOL     OW76380   6.778   6.693   3.628 -0.2628  0.6851  0.1673
24980SOL    HW176381   6.839   6.659   3.693  0.5016  1.2147 -0.2591
24980SOL    HW276382   6.692   6.677   3.665  0.1285 -0.2942  0.6646
24981SOL     OW76383   0.017   4.569   5.942 -0.2160 -0.3252  0.0220
24981SOL    HW176384  -0.038   4.563   5.864 -0.0031  2.7043 -0.4747
24981SOL    HW276385   0.101   4.603   5.911 -0.7445  2.8820  1.7016
24982SOL     OW76386   5.957   6.446   6.034 -0.2829 -0.1221 -0.6885
24982SOL    HW176387   5.939   6.505   5.961 -0.8731 -1.1358 -1.3937
24982SOL    HW276388   5.870   6.419   6.065 -0.1237  1.8344  1.7352
24983SOL     OW76389   7.354   5.968   7.109 -0.1599 -0.4311  0.0001
24983SOL    HW176390   7.350   5.879   7.145 -0.5924 -0.6017 -0.4576
24983SOL    HW276391   7.435   5.970   7.059  0.3069 -0.2798  0.7561
24984SOL     OW76392   6.696   6.611   4.667  0.6588 -0.2505  0.6531
24984SOL    HW176393   6.737   6.525   4.681  0.0753 -0.4700  1.0917
24984SOL    HW276394   6.768   6.668   4.642  0.7018 -1.4270 -2.2542
24985SOL     OW76395   0.020   5.223   3.743 -0.0109 -0.3569 -0.4374
24985SOL    HW176396   0.020   5.206   3.649  1.4926 -1.9644 -0.1905
24985SOL    HW276397   0.113   5.237   3.764 -0.4461  1.0443  0.6432
24986SOL     OW76398   7.210   6.130   5.601  0.4309 -0.2693  0.0774
24986SOL    HW176399   7.201   6.061   5.666  2.1792 -3.8446 -3.1202
24986SOL    HW276400   7.298   6.166   5.615 -0.0574  0.5964  1.0368
24987SOL     OW76401   7.743   4.142   4.933 -0.2621  0.7429 -0.1571
24987SOL    HW176402   7.798   4.150   5.012  1.3410  2.2884 -1.3695
24987SOL    HW276403   7.792   4.188   4.865 -0.7667 -1.9462 -2.5209
24988SOL     OW76404   2.188   4.897   5.568 -0.0707 -0.5987 -0.2988
24988SOL    HW176405   2.225   4.951   5.498  1.7683 -0.4989  0.6744
24988SOL    HW276406   2.247   4.822   5.573 -1.9770 -2.2251 -0.9139
24989SOL     OW76407   7.162   6.264   4.360  0.3655 -0.0122  0.0495
24989SOL    HW176408   7.167   6.193   4.296 -1.1842  1.3192 -1.6351
24989SOL    HW276409   7.130   6.221   4.440 -2.8356 -0.9194 -1.5668
24990SOL     OW76410   0.280   4.378   3.361 -0.1332  0.4908  0.2194
24990SOL    HW176411   0.334   4.454   3.338 -0.7836  0.5480 -1.2475
24990SOL    HW276412   0.326   4.304   3.322 -1.0285  0.5351 -1.0105
24991SOL     OW76413   7.884   5.658   3.945  0.3814 -0.4206 -0.3692
24991SOL    HW176414   7.950   5.692   3.884 -0.0998  0.4768 -0.4177
24991SOL    HW276415   7.809   5.716   3.932 -0.6674 -1.8459 -0.8111
24992SOL     OW76416   6.914   3.903   5.546 -0.4565  0.2530 -0.0632
24992SOL    HW176417   6.960   3.961   5.607  1.7204 -1.8433  0.4367
24992SOL    HW276418   6.840   3.869   5.597 -0.1857  0.5340  0.5323
24993SOL     OW76419   7.918   4.427   4.280 -0.4303 -0.0694  0.3362
24993SOL    HW176420   7.880   4.513   4.299  0.8303  0.7910 -0.8458
24993SOL    HW276421   8.012   4.438   4.297 -0.2916 -1.2865  0.4067
24994SOL     OW76422   6.482   3.466   4.905  0.0365  0.2987 -0.4659
24994SOL    HW176423   6.549   3.508   4.852  1.3203 -1.2516 -0.1707
24994SOL    HW276424   6.526   3.448   4.989 -1.1972  0.5181  0.2543
24995SOL     OW76425   7.459   4.049   5.260 -0.4610 -0.6829  0.0605
24995SOL    HW176426   7.472   4.075   5.351  0.8542  0.5338 -0.4306
24995SOL    HW276427   7.398   3.975   5.264  0.2932 -1.2571  1.9829
24996SOL     OW76428   6.650   5.956   6.037 -0.5898 -0.0727 -0.3483
24996SOL    HW176429   6.627   5.967   5.945 -2.6871  2.0692  0.3123
24996SOL    HW276430   6.738   5.994   6.045 -0.7205  0.4667 -1.3468
24997SOL     OW76431   0.873   6.103   4.778  0.0691 -0.3255 -0.4194
24997SOL    HW176432   0.865   6.018   4.820 -1.2550  0.5838  1.3391
24997SOL    HW276433   0.940   6.149   4.829 -0.6739  0.3645 -0.0393
24998SOL     OW76434   7.565   4.487   5.497  0.2076  0.2086  0.3193
24998SOL    HW176435   7.532   4.561   5.447  1.9788  0.4960 -0.5119
24998SOL    HW276436   7.581   4.522   5.585  0.4310  0.6625  0.1038
24999SOL     OW76437   0.600   5.003   3.980  0.3646  0.2712  0.3745
24999SOL    HW176438   0.580   5.050   3.899 -0.0360 -2.3220 -1.1602
24999SOL    HW276439   0.641   4.922   3.951  1.1453 -0.3148  2.8704
25000SOL     OW76440   7.309   5.468   6.729  0.6484 -0.1333  0.0659
25000SOL    HW176441   7.346   5.539   6.781 -0.3447 -0.4549  1.2474
25000SOL    HW276442   7.378   5.402   6.726  1.1043  0.3374  0.0510
25001SOL     OW76443   0.404   5.249   5.244  0.1615  0.1180  0.0649
25001SOL    HW176444   0.451   5.321   5.287  2.5411 -0.3348 -1.5846
25001SOL    HW276445   0.356   5.291   5.173 -0.9743  0.4091  0.9636
25002SOL     OW76446   7.108   5.020   6.182  0.3609  0.3774  0.6565
25002SOL    HW176447   7.183   4.966   6.155  0.3264  0.3962  0.5228
25002SOL    HW276448   7.138   5.064   6.261  0.6308  0.6865  0.3836
25003SOL     OW76449   0.546   3.274   4.804 -0.1907  0.2092 -0.2223
25003SOL    HW176450   0.586   3.268   4.717 -2.3071  0.4587 -1.2801
25003SOL    HW276451   0.494   3.194   4.812 -1.1599  0.8596  0.1746
25004SOL     OW76452   0.056   2.818   6.324  0.1075  0.1265  0.3482
25004SOL    HW176453   0.124   2.761   6.359  0.6855  0.2941 -0.4692
25004SOL    HW276454   0.101   2.900   6.304 -0.5062  0.5278  0.5821
25005SOL     OW76455   0.802   5.631   4.995 -0.1835 -0.0318  0.0132
25005SOL    HW176456   0.731   5.577   4.960 -0.0289  0.4291 -1.0345
25005SOL    HW276457   0.783   5.636   5.089 -0.7072 -1.1329 -0.0211
25006SOL     OW76458   7.605   3.320   6.802 -0.2000 -0.1070 -0.7548
25006SOL    HW176459   7.541   3.390   6.804 -1.4181 -1.1779 -1.2635
25006SOL    HW276460   7.557   3.242   6.826  1.1945 -0.7531  0.0962
25007SOL     OW76461   7.618   5.360   5.172  0.3573 -0.1125  0.0658
25007SOL    HW176462   7.547   5.327   5.227  1.9575 -1.3882  1.4738
25007SOL    HW276463   7.623   5.454   5.193  0.6838 -0.4949  1.8823
25008SOL     OW76464   7.798   5.146   3.602  0.2187 -0.4304  0.3784
25008SOL    HW176465   7.809   5.051   3.600 -1.1179 -0.5915 -0.1355
25008SOL    HW276466   7.732   5.161   3.670 -0.4692  0.0102 -0.3648
25009SOL     OW76467   7.937   6.874   6.474 -0.4139 -0.4416  0.3901
25009SOL    HW176468   8.013   6.835   6.518  0.2268 -0.7103 -0.9113
25009SOL    HW276469   7.926   6.959   6.518  0.7159 -0.3535  0.5444
25010SOL     OW76470   7.188   7.434   3.470  0.6061 -0.3355  0.5186
25010SOL    HW176471   7.149   7.425   3.557 -0.9642 -0.0408 -0.1293
25010SOL    HW276472   7.161   7.522   3.441 -1.6077 -1.5705 -1.5268
25011SOL     OW76473   0.051   6.321   5.004 -0.0679 -0.9287 -0.5048
25011SOL    HW176474  -0.037   6.337   4.969 -0.0734  0.6792  0.1428
25011SOL    HW276475   0.040   6.245   5.061 -1.6250  0.6311  1.4407
25012SOL     OW76476   7.407   3.899   6.224 -0.1387  0.2844  0.3616
25012SOL    HW176477   7.343   3.829   6.213  0.4276  0.0741 -2.0059
25012SOL    HW276478   7.355   3.978   6.233 -0.9487  0.5370 -4.2623
25013SOL     OW76479   7.258   4.366   7.304  0.0940 -0.2329 -0.0498
25013SOL    HW176480   7.309   4.446   7.307 -0.0966 -0.1065 -0.1456
25013SOL    HW276481   7.210   4.371   7.221 -2.7891  1.3201  1.5335
25014SOL     OW76482   7.769   4.775   4.562 -0.6226 -0.5391  0.3003
25014SOL    HW176483   7.748   4.692   4.605 -2.6423  0.2921  1.0344
25014SOL    HW276484   7.859   4.794   4.590  0.4286 -3.0874 -0.9728
25015SOL     OW76485   6.874   6.612   4.190  0.1743 -0.0809 -0.3946
25015SOL    HW176486   6.803   6.643   4.245  0.1498  1.2690 -1.1333
25015SOL    HW276487   6.831   6.573   4.114  0.2134  0.6174 -0.7798
25016SOL     OW76488   5.324   4.241   4.805 -0.3930  0.0261 -0.4632
25016SOL    HW176489   5.324   4.297   4.882 -1.1281 -0.7553  0.1299
25016SOL    HW276490   5.287   4.295   4.736 -0.5007  0.4693 -0.0644
25017SOL     OW76491   0.214   7.031   5.075  0.0941 -0.5006  0.2427
25017SOL    HW176492   0.187   6.941   5.055  0.1984  0.0488 -2.7998
25017SOL    HW276493   0.305   7.036   5.046 -0.4985  1.0486 -1.5996
25018SOL     OW76494   7.406   7.103   5.602 -0.3204  0.7918 -0.1070
25018SOL    HW176495   7.442   7.020   5.632 -0.3113  0.2358 -1.6154
25018SOL    HW276496   7.311   7.090   5.602 -0.4183  1.3267  1.1570
25019SOL     OW76497   7.634   6.117   6.049  0.0826 -0.3665 -0.2827
25019SOL    HW176498   7.610   6.077   5.965 -0.1666 -1.9025  0.4816
25019SOL    HW276499   7.554   6.110   6.102  0.7885 -1.1883  0.7118
25020SOL     OW76500   5.707   2.971   3.642 -0.0565  0.2286 -0.5632
25020SOL    HW176501   5.797   2.957   3.613  0.6913  2.6777  0.3377
25020SOL    HW276502   5.681   2.888   3.682  1.4147 -0.8467 -1.7372
25021SOL     OW76503   0.374   4.970   4.113 -0.0142  0.3115  0.1982
25021SOL    HW176504   0.459   4.970   4.069 -0.8904  1.1241 -1.6048
25021SOL    HW276505   0.395   4.971   4.206  1.9296 -0.7076 -0.1873
25022SOL     OW76506   0.265   5.275   3.888 -0.5612 -0.8546  0.2694
25022SOL    HW176507   0.212   5.355   3.879 -1.3291 -1.3910 -0.1128
25022SOL    HW276508   0.350   5.306   3.918 -1.0015  0.0628  0.6073
25023SOL     OW76509   0.491   7.040   5.074 -0.3793  0.0890  0.2425
25023SOL    HW176510   0.544   7.106   5.120  1.2584 -0.4511 -0.7883
25023SOL    HW276511   0.516   6.957   5.114  2.4668 -0.6464 -2.5977
25024SOL     OW76512   0.493   5.036   5.345 -0.1917  0.3917  0.2883
25024SOL    HW176513   0.588   5.041   5.357 -0.2757  0.4706  0.9587
25024SOL    HW276514   0.470   5.118   5.300  0.2255 -0.2269 -1.1179
25025SOL     OW76515   6.216   3.597   3.358 -0.2659 -0.5164  0.6014
25025SOL    HW176516   6.137   3.595   3.304  0.1085 -1.2786  0.0644
25025SOL    HW276517   6.245   3.506   3.363  1.4427 -0.0809 -0.5032
25026SOL     OW76518   7.168   4.435   5.699 -0.4639 -0.5152  0.2117
25026SOL    HW176519   7.196   4.363   5.755 -2.0415 -1.3891 -0.0924
25026SOL    HW276520   7.181   4.403   5.610  0.0954  0.1053  0.0570
25027SOL     OW76521   7.677   6.544   6.963 -0.1741  0.6941  0.8076
25027SOL    HW176522   7.755   6.588   6.998  0.1841  0.5426  0.2084
25027SOL    HW276523   7.605   6.579   7.015  0.3196  0.6702  1.5219
25028SOL     OW76524   0.046   6.772   6.103  0.7939  0.7111  0.5887
25028SOL    HW176525   0.106   6.778   6.029  0.9061  1.2728  0.7254
25028SOL    HW276526   0.064   6.685   6.140  1.9147  1.0814  0.9538
25029SOL     OW76527   6.895   6.294   4.119 -0.2013 -0.8337 -0.2869
25029SOL    HW176528   6.858   6.304   4.206  1.4005  0.6651  0.2689
25029SOL    HW276529   6.968   6.355   4.116  1.1173 -2.3694 -1.9486
25030SOL     OW76530   7.533   4.263   5.998 -0.4605 -0.4185  0.7543
25030SOL    HW176531   7.570   4.179   5.971 -0.9477 -0.1348 -0.9352
25030SOL    HW276532   7.604   4.307   6.045  0.8972 -0.4898 -1.1238
25031SOL     OW76533   7.997   3.581   4.549  0.0712  0.4133 -0.4882
25031SOL    HW176534   8.056   3.655   4.532  0.2945  0.5624  0.8228
25031SOL    HW276535   7.925   3.593   4.487 -0.8450  2.8314  0.8796
25032SOL     OW76536   6.275   4.966   5.375 -0.4539 -0.2730  0.2096
25032SOL    HW176537   6.349   4.907   5.361 -0.9878 -0.8797 -0.0460
25032SOL    HW276538   6.262   5.009   5.291 -0.1414  0.1341  0.3639
25033SOL     OW76539   7.017   5.593   6.672  0.5133  0.1189  0.7047
25033SOL    HW176540   7.095   5.602   6.727  0.4642  1.1507  0.6149
25033SOL    HW276541   7.003   5.498   6.667  1.9834 -0.1110  0.4050
25034SOL     OW76542   1.046   1.455   7.063 -0.2953  0.4264  0.4822
25034SOL    HW176543   1.086   1.493   7.141 -1.6207 -0.0408  1.4464
25034SOL    HW276544   1.100   1.485   6.990  2.5657 -1.1833  1.7633
25035SOL     OW76545   7.011   3.323   5.632  0.6764  0.1621 -0.2632
25035SOL    HW176546   7.007   3.370   5.548  0.4153  0.9664  0.1934
25035SOL    HW276547   6.961   3.377   5.692  0.5891 -0.5787  0.3446
25036SOL     OW76548   0.776   4.883   4.401  0.2849  0.4506  1.0732
25036SOL    HW176549   0.801   4.911   4.490  0.0533  0.9274  0.9928
25036SOL    HW276550   0.784   4.963   4.349 -1.1017  0.5459  0.9817
25037SOL     OW76551   7.122   3.828   6.021  0.2272  0.3202 -0.2272
25037SOL    HW176552   7.163   3.764   6.078  0.9054  1.3027  0.4193
25037SOL    HW276553   7.095   3.778   5.944 -0.5686 -0.9989  0.8628
25038SOL     OW76554   7.439   6.636   7.045  0.0939 -0.2862  0.0407
25038SOL    HW176555   7.379   6.563   7.030 -0.5496  0.1686  0.3909
25038SOL    HW276556   7.397   6.711   7.004  0.1157  0.1731  0.8346
25039SOL     OW76557   7.850   5.582   6.328 -0.1213 -0.4048  0.1327
25039SOL    HW176558   7.804   5.503   6.357  1.0745 -0.7548  1.1735
25039SOL    HW276559   7.940   5.554   6.314  0.1789  0.6386 -0.1407
25040SOL     OW76560   0.993   4.846   6.340  0.0679  0.0462  0.0431
25040SOL    HW176561   0.993   4.874   6.431 -0.7676 -0.1668  0.1163
25040SOL    HW276562   1.044   4.765   6.340 -0.2567 -0.1634  0.3968
25041SOL     OW76563   7.339   4.657   6.842  0.3409 -0.1850  0.0406
25041SOL    HW176564   7.312   4.661   6.934  0.0771 -1.3076  0.0211
25041SOL    HW276565   7.434   4.673   6.845  0.1353  1.1145  0.3591
25042SOL     OW76566   7.074   4.099   5.988 -0.3277  0.3444 -0.0825
25042SOL    HW176567   7.041   4.140   6.068 -0.3694  0.9109 -0.3789
25042SOL    HW276568   7.088   4.007   6.011  1.4345  0.8676  1.0954
25043SOL     OW76569   7.759   2.700   6.684  0.3084 -0.1056  0.4398
25043SOL    HW176570   7.756   2.786   6.727 -0.3743 -1.0648  2.4426
25043SOL    HW276571   7.851   2.677   6.684  0.2753 -0.3197  1.9599
25044SOL     OW76572   7.922   4.660   7.435 -0.0700 -0.1784 -0.1997
25044SOL    HW176573   7.925   4.564   7.439  0.7915 -0.1283  0.9275
25044SOL    HW276574   7.929   4.680   7.342 -0.6894 -1.2197 -0.4875
25045SOL     OW76575   7.949   3.799   7.380  0.4385 -0.9051 -0.0211
25045SOL    HW176576   7.875   3.778   7.437  0.1768 -1.5269 -0.5685
25045SOL    HW276577   8.011   3.846   7.436 -1.2365  1.4693 -0.0272
25046SOL     OW76578   7.383   5.035   5.272  0.3288 -0.0163  0.1547
25046SOL    HW176579   7.287   5.038   5.262  0.3123  0.6899  0.4690
25046SOL    HW276580   7.403   5.110   5.328  0.9343 -0.9552  1.2295
25047SOL     OW76581   7.513   5.338   6.025  0.0889  0.4977 -0.4541
25047SOL    HW176582   7.544   5.306   5.940 -0.2144 -1.8778  0.2580
25047SOL    HW276583   7.589   5.327   6.083  0.3013  2.1214 -0.3899
25048SOL     OW76584   0.738   3.879   7.101  0.2960  0.3099  0.5103
25048SOL    HW176585   0.698   3.963   7.121  0.6443  0.4701  0.5469
25048SOL    HW276586   0.830   3.889   7.127  0.2227 -0.2615  1.0251
25049SOL     OW76587   0.574   3.105   5.627 -0.3334 -0.3094  0.1666
25049SOL    HW176588   0.578   3.109   5.723  0.2841 -1.0295  0.1813
25049SOL    HW276589   0.481   3.114   5.607 -0.5567 -0.9094  0.8802
25050SOL     OW76590   0.913   5.218   5.017  0.0969  0.0361 -0.3990
25050SOL    HW176591   0.827   5.238   4.980  0.0861  0.9807  0.1032
25050SOL    HW276592   0.957   5.166   4.950  0.2280  1.9970 -1.9109
25051SOL     OW76593   0.209   4.037   4.801 -0.4241  0.7533 -0.1997
25051SOL    HW176594   0.147   4.102   4.833 -0.4076  0.3899  0.5827
25051SOL    HW276595   0.206   3.967   4.866  0.7061  0.6737 -0.2214
25052SOL     OW76596   0.189   4.452   7.217 -0.2559 -0.5472 -0.1414
25052SOL    HW176597   0.262   4.508   7.245 -0.5209  0.8590 -2.0636
25052SOL    HW276598   0.114   4.511   7.215 -1.4069 -1.8643  1.3442
25053SOL     OW76599   0.516   6.001   5.956 -0.1641 -0.0529  0.1242
25053SOL    HW176600   0.470   6.043   6.029  0.5304 -0.4161  0.7848
25053SOL    HW276601   0.548   5.919   5.993 -0.8515 -0.8196 -0.9341
25054SOL     OW76602   6.740   5.444   6.258  0.0676 -0.7113 -0.1088
25054SOL    HW176603   6.789   5.454   6.340  0.4982  0.2590 -0.4698
25054SOL    HW276604   6.723   5.533   6.229 -0.8365 -1.0481 -0.6408
25055SOL     OW76605   0.442   4.263   6.472  0.3619  0.2651 -0.0762
25055SOL    HW176606   0.488   4.220   6.544  0.5866  0.6095 -0.0157
25055SOL    HW276607   0.454   4.204   6.398  1.3814  0.6161 -0.2078
25056SOL     OW76608   0.298   4.869   5.427 -0.4667  0.2367 -0.2745
25056SOL    HW176609   0.269   4.953   5.463 -0.4093  1.5395 -3.0489
25056SOL    HW276610   0.371   4.892   5.370 -1.6308 -1.4288 -2.5567
25057SOL     OW76611   0.838   5.295   6.017  0.2438 -0.1401 -0.3325
25057SOL    HW176612   0.817   5.382   5.983  0.0614 -0.1698 -0.2977
25057SOL    HW276613   0.932   5.286   6.005  0.5559  0.7635  1.3080
25058SOL     OW76614   1.560   5.422   5.546  0.8701  0.5308 -0.7321
25058SOL    HW176615   1.592   5.337   5.517 -0.4903  0.2509 -1.4811
25058SOL    HW276616   1.476   5.433   5.502  0.2638  1.5553  0.5989
25059SOL     OW76617   0.501   4.159   6.908 -0.0058  0.5050 -0.0804
25059SOL    HW176618   0.455   4.199   6.983  1.0551  1.2384  0.2029
25059SOL    HW276619   0.509   4.231   6.845  0.3658  0.2613 -0.3071
25060SOL     OW76620   0.817   4.759   6.665  0.5310  0.8779 -0.5512
25060SOL    HW176621   0.893   4.777   6.722  1.2121 -0.8848 -0.8279
25060SOL    HW276622   0.753   4.825   6.689  0.4048 -0.2906  2.9976
25061SOL     OW76623   0.323   4.336   5.984 -0.2273  0.4774  0.2703
25061SOL    HW176624   0.229   4.350   5.990 -0.4710 -1.0857  0.3883
25061SOL    HW276625   0.340   4.257   6.036  0.6098 -1.3180 -2.5233
25062SOL     OW76626   1.141   5.262   6.689  0.1776 -0.1838 -0.1121
25062SOL    HW176627   1.181   5.349   6.683 -1.2302  0.6651  1.6825
25062SOL    HW276628   1.073   5.272   6.756 -0.9791 -2.3237 -0.8810
25063SOL     OW76629   7.979   3.833   8.439 -0.0366  0.3897 -0.1561
25063SOL    HW176630   7.962   3.748   8.480  0.1795 -0.2914 -1.4146
25063SOL    HW276631   7.953   3.897   8.504  1.5047 -0.6261  1.5400
25064SOL     OW76632   6.543   4.327   5.152 -0.6544  0.1407  0.5934
25064SOL    HW176633   6.459   4.345   5.194 -0.7830 -0.7344  0.7274
25064SOL    HW276634   6.527   4.339   5.059 -1.0432 -0.4193  0.5824
25065SOL     OW76635   6.567   3.392   5.886  0.3050 -0.4480 -0.0892
25065SOL    HW176636   6.488   3.439   5.912  1.2498  0.3836  1.4757
25065SOL    HW276637   6.570   3.316   5.944  1.5055  0.4658  1.1330
25066SOL     OW76638   0.421   6.523   7.117 -0.0963  0.4041  0.0145
25066SOL    HW176639   0.497   6.520   7.059  0.1348  1.2085  0.2649
25066SOL    HW276640   0.458   6.537   7.204 -0.4961  0.1867  0.2191
25067SOL     OW76641   0.957   4.506   6.685 -0.0754 -0.4581 -0.1059
25067SOL    HW176642   0.904   4.427   6.685 -0.6640 -0.0800 -1.2668
25067SOL    HW276643   0.895   4.577   6.700  0.2122 -0.0835 -0.6243
25068SOL     OW76644   7.669   2.469   7.624  0.0043  0.1774  0.3510
25068SOL    HW176645   7.688   2.557   7.591 -2.3407  0.7143  0.2420
25068SOL    HW276646   7.594   2.481   7.683 -0.0418 -1.6853  0.7416
25069SOL     OW76647   0.372   4.686   6.152 -0.0263 -0.0504 -0.1514
25069SOL    HW176648   0.370   4.641   6.236  0.7473  1.3131  0.6193
25069SOL    HW276649   0.463   4.678   6.123  0.1924  1.2778  0.1477
25070SOL     OW76650   0.826   4.250   5.709  0.1241  0.0670 -0.1493
25070SOL    HW176651   0.875   4.259   5.792 -0.0420 -0.7473  0.0417
25070SOL    HW276652   0.887   4.283   5.643  0.0651  1.2175  0.3508
25071SOL     OW76653   5.870   4.569   6.675  0.2847  0.4051 -0.0395
25071SOL    HW176654   5.923   4.629   6.623  0.6178 -0.5051 -0.7829
25071SOL    HW276655   5.782   4.578   6.638  0.6589 -0.7860 -1.3183
25072SOL     OW76656   0.895   4.105   6.932  0.3854  0.5140 -0.1485
25072SOL    HW176657   0.982   4.145   6.924  0.3877  0.5773  0.1799
25072SOL    HW276658   0.876   4.071   6.844 -0.3703  2.7373 -0.9188
25073SOL     OW76659   0.451   4.240   7.174  0.7823  0.0398 -0.0907
25073SOL    HW176660   0.389   4.298   7.218  2.0659  0.5201  1.1672
25073SOL    HW276661   0.477   4.177   7.241  1.2207 -0.5037 -0.7577
25074SOL     OW76662   7.992   5.995   6.842 -0.2475  0.0230  0.0347
25074SOL    HW176663   8.045   5.987   6.921 -2.9518 -1.3643  1.8421
25074SOL    HW276664   8.008   5.913   6.794  0.9164  0.6028 -0.6327
25075SOL     OW76665   6.280   3.327   5.142 -0.4113 -0.2371 -0.1556
25075SOL    HW176666   6.219   3.310   5.214 -0.1029  0.5644  0.3167
25075SOL    HW276667   6.367   3.315   5.182 -0.2200  1.0879 -0.1468
25076SOL     OW76668   7.650   4.677   6.881  0.3556 -0.3432 -0.3509
25076SOL    HW176669   7.730   4.624   6.884  0.3968 -0.2823 -0.3526
25076SOL    HW276670   7.676   4.760   6.921  0.4116 -0.1683 -0.7417
25077SOL     OW76671   6.699   6.580   6.898  0.6011 -0.1521 -0.0237
25077SOL    HW176672   6.788   6.547   6.895  0.2125 -1.2204 -2.8328
25077SOL    HW276673   6.708   6.675   6.903  1.9880 -0.1073 -2.1655
25078SOL     OW76674   6.167   4.772   4.460 -0.0251 -0.1973  0.0630
25078SOL    HW176675   6.197   4.722   4.536 -0.1619 -0.2992  0.0509
25078SOL    HW276676   6.158   4.706   4.391  0.0933 -0.1064 -0.0402
25079SOL     OW76677   6.865   4.264   5.752  0.4402 -0.0951  0.1292
25079SOL    HW176678   6.928   4.295   5.687  1.9490  0.8433  1.9505
25079SOL    HW276679   6.890   4.173   5.769  0.6986 -0.0248  0.1322
25080SOL     OW76680   0.166   5.264   5.710 -0.1401 -0.3292  0.2588
25080SOL    HW176681   0.082   5.280   5.667  0.3875  0.0898 -0.6419
25080SOL    HW276682   0.186   5.172   5.691  0.5603  0.1132 -1.2719
25081SOL     OW76683   1.351   5.043   8.001  0.0270 -0.2020 -0.2247
25081SOL    HW176684   1.284   4.983   7.969 -0.5017 -0.8012  1.8226
25081SOL    HW276685   1.372   5.099   7.926 -1.8242 -0.8305 -1.2706
25082SOL     OW76686   7.441   3.236   6.130  0.1993  0.3281 -0.0186
25082SOL    HW176687   7.366   3.194   6.171 -1.5433  1.2979 -2.0148
25082SOL    HW276688   7.498   3.164   6.104 -1.2895 -0.6533 -0.7233
25083SOL     OW76689   7.892   3.980   5.905 -0.4242  0.0101 -0.6672
25083SOL    HW176690   7.937   3.934   5.975  1.5456  1.6481 -0.7645
25083SOL    HW276691   7.932   3.946   5.824 -0.7047  0.1279 -0.8570
25084SOL     OW76692   6.658   5.670   6.132 -0.0775  0.4760  0.7443
25084SOL    HW176693   6.619   5.615   6.064  0.9911  0.9398 -0.2837
25084SOL    HW276694   6.635   5.759   6.106 -0.6720  0.6050  1.6690
25085SOL     OW76695   7.053   4.258   8.080 -0.5146 -0.2474  0.1506
25085SOL    HW176696   7.056   4.181   8.136  0.9163 -0.2060  0.1496
25085SOL    HW276697   7.018   4.226   7.997 -4.1210 -0.0419  1.4015
25086SOL     OW76698   6.050   2.313   6.218 -0.0004  0.0132 -0.2026
25086SOL    HW176699   6.126   2.354   6.258 -1.8896  0.3006  3.6146
25086SOL    HW276700   5.975   2.355   6.262 -2.2077 -2.9157 -0.8587
25087SOL     OW76701   7.268   5.741   5.538 -0.3887 -0.4159 -0.0642
25087SOL    HW176702   7.232   5.671   5.592  0.3826 -2.6064 -2.1735
25087SOL    HW276703   7.313   5.695   5.467  1.1394  2.2473 -0.9600
25088SOL     OW76704   0.363   5.471   5.627  0.2522  0.1934 -0.1982
25088SOL    HW176705   0.384   5.436   5.541 -1.5620  0.4027 -0.7676
25088SOL    HW276706   0.282   5.427   5.652 -0.0579  1.2421  0.7267
25089SOL     OW76707   0.674   4.403   5.937 -0.3674 -0.4267 -0.1796
25089SOL    HW176708   0.647   4.378   6.026 -0.5470 -1.5587 -0.5330
25089SOL    HW276709   0.765   4.373   5.930 -0.7680 -1.5633 -0.8053
25090SOL     OW76710   7.265   4.511   6.527 -0.3208 -0.1696  0.1891
25090SOL    HW176711   7.186   4.548   6.567 -0.4173  0.3800 -0.4939
25090SOL    HW276712   7.337   4.562   6.564 -0.4900  1.0559 -1.1198
25091SOL     OW76713   7.965   1.894   5.511  0.0590  0.3914  0.2401
25091SOL    HW176714   7.982   1.944   5.591  0.3732 -0.9991  1.0726
25091SOL    HW276715   7.880   1.926   5.480  0.0194  1.0716  1.0185
25092SOL     OW76716   7.864   5.113   5.871 -0.2719 -0.5776 -0.6429
25092SOL    HW176717   7.862   5.037   5.929 -0.8981  0.0814  0.2142
25092SOL    HW276718   7.908   5.081   5.792  0.5346 -1.5092  0.1544
25093SOL     OW76719   0.847   3.050   5.375 -0.2979 -0.0538  0.0302
25093SOL    HW176720   0.779   3.030   5.311 -0.3719 -0.0463  0.1062
25093SOL    HW276721   0.838   2.983   5.442  1.1129 -1.3201 -0.9674
25094SOL     OW76722   6.754   5.471   6.917  0.3653  0.8348  0.1182
25094SOL    HW176723   6.739   5.446   6.826 -2.9286  1.5126  0.3412
25094SOL    HW276724   6.709   5.403   6.968  1.6241  0.8028  1.2372
25095SOL     OW76725   7.102   3.975   6.972 -0.2870 -0.1953  0.2475
25095SOL    HW176726   7.126   3.946   7.060  2.6461  0.1118 -0.3532
25095SOL    HW276727   7.140   3.910   6.913  1.6202  1.7925 -0.8874
25096SOL     OW76728   7.966   4.627   7.157  0.3656 -0.5510 -0.0945
25096SOL    HW176729   7.988   4.643   7.065  0.1797 -0.1078 -0.0666
25096SOL    HW276730   7.885   4.577   7.154  0.1015 -0.1256 -0.1701
25097SOL     OW76731   2.106   3.882   6.081 -0.0794  0.2605 -0.0233
25097SOL    HW176732   2.179   3.943   6.096  1.2256 -1.3447  0.5135
25097SOL    HW276733   2.035   3.916   6.135  1.3166  0.1579  1.9741
25098SOL     OW76734   7.418   3.735   5.929  0.0672 -0.5378  0.2878
25098SOL    HW176735   7.401   3.687   6.010 -1.9965 -0.5300 -0.0806
25098SOL    HW276736   7.501   3.699   5.896 -0.3611 -2.3593  1.0922
25099SOL     OW76737   6.950   4.548   6.928  0.1867 -0.0285 -0.4650
25099SOL    HW176738   6.930   4.626   6.876  0.5932  0.4262  0.0452
25099SOL    HW276739   6.865   4.520   6.962  0.1032  0.5372 -0.1805
25100SOL     OW76740   0.292   2.916  10.241 -0.2229  0.1256 -0.1691
25100SOL    HW176741   0.348   2.991  10.263 -1.8440  1.3866 -0.2136
25100SOL    HW276742   0.261   2.884  10.326  0.5024 -0.5586 -0.1466
25101SOL     OW76743   7.588   4.753   8.691  0.2026 -0.0017 -0.1677
25101SOL    HW176744   7.615   4.798   8.771  0.8196 -0.6144 -0.0148
25101SOL    HW276745   7.587   4.660   8.715  1.3980 -0.2944 -1.1162
25102SOL     OW76746   7.816   4.380   8.552  0.7561 -0.2417 -0.9298
25102SOL    HW176747   7.832   4.471   8.527 -0.4955  0.1198 -0.5164
25102SOL    HW276748   7.720   4.373   8.557  0.8471 -0.6829  2.2133
25103SOL     OW76749   6.895   3.193   9.420  0.0899 -0.3148  0.2977
25103SOL    HW176750   6.885   3.097   9.422 -4.5277 -0.0891 -0.5693
25103SOL    HW276751   6.926   3.211   9.331  0.7170 -0.9620  0.3748
25104SOL     OW76752   7.629   5.388   8.076  0.5732 -0.4214 -0.2534
25104SOL    HW176753   7.657   5.304   8.111 -0.3529 -0.2008  1.0664
25104SOL    HW276754   7.673   5.453   8.131 -0.8912 -0.0671  0.5331
25105SOL     OW76755   1.114   5.992   8.351  0.1595 -0.0827 -0.1973
25105SOL    HW176756   1.095   6.018   8.260  0.4325  0.1922 -0.1768
25105SOL    HW276757   1.124   5.897   8.346  0.9353  0.0113 -0.5966
25106SOL     OW76758   7.515   3.161   8.822 -0.1289 -0.8155  0.7193
25106SOL    HW176759   7.452   3.231   8.812 -0.6141 -1.4314 -0.9278
25106SOL    HW276760   7.600   3.205   8.826 -0.0530 -0.0879 -3.6660
25107SOL     OW76761   6.106   3.874   7.833 -0.4935  0.2946 -0.0350
25107SOL    HW176762   6.161   3.930   7.887 -0.6338  1.7501 -1.3389
25107SOL    HW276763   6.060   3.934   7.774 -1.4766 -1.1070 -0.7653
25108SOL     OW76764   5.686   5.103   5.628  0.1650 -0.3327 -0.2065
25108SOL    HW176765   5.654   5.014   5.614  0.0372 -0.3921  0.4600
25108SOL    HW276766   5.646   5.131   5.710  1.8002 -0.4079  0.6548
25109SOL     OW76767   0.431   4.223   9.995  0.2252  0.5791  0.9017
25109SOL    HW176768   0.483   4.249   9.919 -1.2735 -1.3502 -0.8871
25109SOL    HW276769   0.454   4.288  10.063  1.9115  2.1330 -1.0220
25110SOL     OW76770   7.728   4.122   9.148 -0.3340  0.1046 -0.2081
25110SOL    HW176771   7.700   4.213   9.160  1.1839  0.5178  0.3605
25110SOL    HW276772   7.646   4.073   9.140 -1.2025  1.7007 -2.0272
25111SOL     OW76773   7.694   3.469   8.789 -0.1554  0.0785 -0.8785
25111SOL    HW176774   7.645   3.523   8.726  0.0851  1.0100 -0.2877
25111SOL    HW276775   7.745   3.409   8.735 -0.4980  0.3804 -1.5497
25112SOL     OW76776   0.864   4.314   7.967 -0.5472  0.2465 -0.0823
25112SOL    HW176777   0.932   4.299   7.901 -1.9152  0.1127 -1.4955
25112SOL    HW276778   0.783   4.283   7.926 -1.6479  1.3611  1.1730
25113SOL     OW76779   6.687   5.632   9.130 -0.1369  0.0221  0.0160
25113SOL    HW176780   6.719   5.701   9.189  2.6240  0.0198 -1.3301
25113SOL    HW276781   6.736   5.644   9.049  0.1272 -3.2153 -0.4641
25114SOL     OW76782   5.633   6.090   7.333  0.4063 -0.6125  0.7262
25114SOL    HW176783   5.714   6.117   7.289  1.3934 -2.0728  1.5848
25114SOL    HW276784   5.599   6.171   7.372  1.0801  0.1482 -0.2050
25115SOL     OW76785   0.787   4.134   7.710 -0.1339  0.8875 -0.1728
25115SOL    HW176786   0.860   4.073   7.713  0.1018  1.2086  1.0706
25115SOL    HW276787   0.718   4.087   7.663  0.1603 -0.2139  0.4722
25116SOL     OW76788   1.803   6.714   8.179  0.7910 -0.2955 -0.0512
25116SOL    HW176789   1.724   6.680   8.222  0.1895  0.9525 -0.1399
25116SOL    HW276790   1.793   6.688   8.088  0.0578  0.5596 -0.2297
25117SOL     OW76791   6.835   3.183  10.248 -0.0755 -0.4824 -0.1740
25117SOL    HW176792   6.854   3.261  10.196 -0.6646 -0.2606 -0.0596
25117SOL    HW276793   6.740   3.182  10.257 -0.1225 -1.4940 -0.5960
25118SOL     OW76794   0.209   3.231   9.991  0.0819 -0.2446 -0.4150
25118SOL    HW176795   0.126   3.217  10.036  0.0156  0.3294 -0.3509
25118SOL    HW276796   0.265   3.276  10.054 -0.2987  1.3423 -1.1518
25119SOL     OW76797   1.742   4.020   9.741 -0.1393  0.1844  0.2234
25119SOL    HW176798   1.806   3.967   9.788  0.2971  0.9342  0.5027
25119SOL    HW276799   1.795   4.078   9.686 -0.6444 -0.9835 -1.5820
25120SOL     OW76800   7.469   4.554   7.361  0.0942  0.5349 -0.2345
25120SOL    HW176801   7.475   4.484   7.426 -1.8544  0.5043 -0.0170
25120SOL    HW276802   7.517   4.627   7.400  2.3690 -0.6821 -0.5735
25121SOL     OW76803   0.643   5.220   8.101  0.2344 -0.1663 -0.8594
25121SOL    HW176804   0.687   5.263   8.027  1.1274 -0.0154 -0.2582
25121SOL    HW276805   0.582   5.158   8.060 -1.0315  1.5672 -1.7686
25122SOL     OW76806   5.641   5.060   7.424  0.4153 -0.9585 -0.6649
25122SOL    HW176807   5.621   4.967   7.409  1.1042 -1.3075  0.4687
25122SOL    HW276808   5.617   5.075   7.516 -0.8378  0.3224 -1.1592
25123SOL     OW76809   7.449   0.968   7.437 -0.4613  0.0985 -0.0242
25123SOL    HW176810   7.509   1.037   7.464 -0.5225  0.4038 -0.6444
25123SOL    HW276811   7.425   0.923   7.518  1.2503 -0.5691  0.1522
25124SOL     OW76812   6.600   4.732   8.060 -0.1419 -0.6657  0.2392
25124SOL    HW176813   6.670   4.796   8.050 -0.8672  0.2707  0.9360
25124SOL    HW276814   6.520   4.785   8.063 -0.7725 -1.6216  0.7403
25125SOL     OW76815   7.103   5.522   8.340 -0.2195  0.8457  0.4749
25125SOL    HW176816   7.190   5.499   8.309 -0.1810  1.5218  0.0637
25125SOL    HW276817   7.046   5.508   8.264 -0.7302 -0.9817  1.1238
25126SOL     OW76818   7.431   5.593   9.467 -0.2539  1.0246 -0.1754
25126SOL    HW176819   7.409   5.570   9.377  0.3482 -1.4300  0.2462
25126SOL    HW276820   7.409   5.516   9.519  0.4473  1.9562  1.6373
25127SOL     OW76821   1.216   2.493  11.010 -0.1785  0.2580  0.2599
25127SOL    HW176822   1.151   2.489  10.940 -0.9629 -0.2620  1.0042
25127SOL    HW276823   1.234   2.587  11.021  1.1174  0.2815 -1.6642
25128SOL     OW76824   0.367   4.671   7.613  0.4328 -0.4118 -0.5463
25128SOL    HW176825   0.322   4.683   7.530 -1.0608  0.1066  0.2950
25128SOL    HW276826   0.418   4.752   7.625 -1.4010  0.7082  0.2092
25129SOL     OW76827   7.723   6.803   8.437 -0.0307 -0.0028  0.1185
25129SOL    HW176828   7.668   6.825   8.512  0.6053  0.6163  0.4146
25129SOL    HW276829   7.662   6.788   8.366 -0.5798  0.7364  0.4249
25130SOL     OW76830   0.445   4.586   7.892  0.2645  0.7025  0.1294
25130SOL    HW176831   0.406   4.566   7.807 -2.1456 -0.4194  1.4011
25130SOL    HW276832   0.402   4.527   7.953 -0.1389  3.3162  2.5950
25131SOL     OW76833   7.488   2.908   9.028  0.6256  0.2271 -0.1282
25131SOL    HW176834   7.491   2.978   8.964 -0.5392 -1.1465 -1.7983
25131SOL    HW276835   7.396   2.904   9.055  0.8150 -0.1781  0.4750
25132SOL     OW76836   0.773   6.015   9.407  0.2026  1.4225  0.3897
25132SOL    HW176837   0.786   6.031   9.314 -4.5614  3.1032 -0.2295
25132SOL    HW276838   0.802   6.095   9.450  0.1826  1.5692  0.1262
25133SOL     OW76839   7.255   4.694   9.317  0.2512  0.0523  0.5719
25133SOL    HW176840   7.234   4.692   9.411  0.8070 -1.0139  0.6890
25133SOL    HW276841   7.320   4.763   9.308 -0.3276  0.6481  0.8445
25134SOL     OW76842   7.553   2.347   8.799 -0.3121 -0.3926 -0.1714
25134SOL    HW176843   7.516   2.405   8.733  2.1141 -1.2182 -2.4169
25134SOL    HW276844   7.599   2.405   8.859  0.0560  0.1999 -1.0049
25135SOL     OW76845   6.705   4.288   8.073  0.3125  0.4414 -0.2333
25135SOL    HW176846   6.691   4.354   8.004 -1.0383 -0.1553 -0.5571
25135SOL    HW276847   6.675   4.206   8.034 -1.4860  0.2567  1.4004
25136SOL     OW76848   1.117   4.886   7.943 -0.3036  0.1982  0.1906
25136SOL    HW176849   1.161   4.803   7.927  0.7087  0.5654  0.9412
25136SOL    HW276850   1.075   4.876   8.029  2.0719  1.2953  1.5951
25137SOL     OW76851   2.052   6.152   7.380 -0.0565  0.2157 -0.1054
25137SOL    HW176852   2.103   6.076   7.351 -1.6230 -1.0238  0.2346
25137SOL    HW276853   1.966   6.116   7.401 -0.2767  1.7637  1.9387
25138SOL     OW76854   7.095   3.023  10.141  0.1688 -0.8211  0.2441
25138SOL    HW176855   7.022   3.084  10.151 -0.1507 -1.1113 -0.2432
25138SOL    HW276856   7.108   3.016  10.047 -0.7722 -2.6117  0.1971
25139SOL     OW76857   0.320   4.020   8.563 -0.1621  0.1705  0.3767
25139SOL    HW176858   0.276   4.056   8.486  1.1531  0.5669 -0.2246
25139SOL    HW276859   0.254   4.022   8.632 -1.2611  0.1310 -0.6504
25140SOL     OW76860   0.502   3.588   7.539 -0.2668  0.0362 -0.1762
25140SOL    HW176861   0.595   3.613   7.533 -0.1249 -0.6430 -0.9739
25140SOL    HW276862   0.458   3.669   7.567  0.5367  0.4115  0.0620
25141SOL     OW76863   0.231   4.255   9.105 -0.3642  0.0790 -0.3458
25141SOL    HW176864   0.182   4.238   9.185 -1.0396 -0.8795 -0.9483
25141SOL    HW276865   0.289   4.180   9.095 -0.0101  0.3740 -0.5665
25142SOL     OW76866   0.757   4.191   8.738 -0.4904 -0.1342  0.2641
25142SOL    HW176867   0.799   4.135   8.673  1.8743  0.4280  1.2080
25142SOL    HW276868   0.751   4.137   8.817 -0.7044  0.0924  0.4068
25143SOL     OW76869   6.772   5.627   7.166 -0.0486 -0.7497 -0.2596
25143SOL    HW176870   6.789   5.616   7.072 -1.5734 -0.0508 -0.6455
25143SOL    HW276871   6.809   5.548   7.206  0.2583 -1.2606 -1.4944
25144SOL     OW76872   0.432   6.288   8.267  0.1652  0.2714 -0.7870
25144SOL    HW176873   0.407   6.380   8.273  0.5862  0.4029 -0.9656
25144SOL    HW276874   0.434   6.270   8.173 -2.4397 -0.6453 -0.7434
25145SOL     OW76875   7.037   5.203   9.252 -0.6712 -0.3737 -0.0940
25145SOL    HW176876   7.048   5.195   9.347 -0.4940  0.1728 -0.0629
25145SOL    HW276877   6.944   5.184   9.238 -0.4283 -1.7680  0.0224
25146SOL     OW76878   1.971   3.608   6.964  0.0596  0.2498  0.5844
25146SOL    HW176879   2.029   3.684   6.951  1.2498 -0.8307 -0.6942
25146SOL    HW276880   1.986   3.553   6.888 -1.3247 -0.9466  1.1394
25147SOL     OW76881   6.811   5.648   8.889 -0.6739  0.1217  0.0528
25147SOL    HW176882   6.792   5.728   8.840  0.0220  0.0033 -0.4186
25147SOL    HW276883   6.809   5.578   8.824  0.4942 -0.0058  0.1199
25148SOL     OW76884   7.930   4.495   8.017 -0.4153  0.7620  0.4080
25148SOL    HW176885   7.929   4.475   8.111 -0.9693  0.0065  0.2494
25148SOL    HW276886   7.880   4.577   8.010 -1.6352  0.0702  0.6341
25149SOL     OW76887   6.968   5.060  10.872  0.4824  0.1572 -0.4229
25149SOL    HW176888   6.983   5.012  10.790 -1.9159 -2.4647  0.5039
25149SOL    HW276889   6.893   5.116  10.854 -0.3911 -0.8226  0.0752
25150SOL     OW76890   7.298   3.977   8.650  0.3279  0.1929 -0.1068
25150SOL    HW176891   7.274   4.004   8.562  1.8804 -1.3442 -1.0700
25150SOL    HW276892   7.320   4.059   8.695  1.0142  0.9033 -1.6528
25151SOL     OW76893   5.180   7.294   9.868  0.0023  0.1500  0.0309
25151SOL    HW176894   5.151   7.300   9.959 -3.6963  0.6722 -1.0146
25151SOL    HW276895   5.174   7.200   9.848  0.5766  0.0648  0.2490
25152SOL     OW76896   7.425   1.928   6.861 -0.5010  0.2742 -0.3400
25152SOL    HW176897   7.337   1.964   6.867 -0.5860  0.2132 -1.1526
25152SOL    HW276898   7.452   1.945   6.771 -0.9730 -2.6620 -1.1252
25153SOL     OW76899   0.790   4.744   8.287  0.2026 -0.1067  0.2288
25153SOL    HW176900   0.726   4.796   8.335  1.9136  1.1689  1.2280
25153SOL    HW276901   0.822   4.680   8.351  1.1829  0.4188  0.2798
25154SOL     OW76902   7.850   5.054  10.158 -0.1406  0.0405  0.4306
25154SOL    HW176903   7.878   5.034  10.068  3.6547  0.8395  1.2559
25154SOL    HW276904   7.794   5.131  10.149  0.2801  0.1945 -1.2695
25155SOL     OW76905   0.392   6.254   7.989  0.0314 -0.3841 -0.1245
25155SOL    HW176906   0.460   6.194   7.959 -0.0746  0.0700 -1.3593
25155SOL    HW276907   0.404   6.332   7.934  0.9873  1.2737  2.2813
25156SOL     OW76908   0.946   5.477   8.914 -0.2213  0.0524  0.0801
25156SOL    HW176909   1.025   5.527   8.894 -0.3379 -0.4464 -1.7991
25156SOL    HW276910   0.903   5.464   8.830 -1.3732 -1.2590  0.8161
25157SOL     OW76911   7.577   3.372   8.420 -0.5387 -0.7278 -0.1349
25157SOL    HW176912   7.616   3.452   8.455 -1.6397 -1.2193  2.4530
25157SOL    HW276913   7.613   3.302   8.474  1.0938 -2.1978 -2.9079
25158SOL     OW76914   0.179   3.638   7.742 -0.1216  0.7201 -0.1111
25158SOL    HW176915   0.255   3.695   7.754  0.5375 -0.3641  0.9907
25158SOL    HW276916   0.143   3.628   7.830 -1.1343  0.6441 -0.5217
25159SOL     OW76917   7.048   4.970  10.625 -0.2371  0.4356  0.4193
25159SOL    HW176918   6.999   4.978  10.543  0.9000  0.4287 -0.2811
25159SOL    HW276919   7.135   4.939  10.598  1.0292  2.9568  1.3126
25160SOL     OW76920   4.883   6.228   9.848  0.1365 -0.2596  0.2610
25160SOL    HW176921   4.897   6.238   9.942  0.1317  0.0840  0.2243
25160SOL    HW276922   4.794   6.261   9.833 -0.6108 -2.0472  0.4310
25161SOL     OW76923   6.791   4.991   7.181 -0.5193  0.3485  0.2869
25161SOL    HW176924   6.784   4.900   7.211 -0.5816 -0.0448 -0.8675
25161SOL    HW276925   6.727   4.998   7.111 -0.6528  1.3521  0.4960
25162SOL     OW76926   7.262   6.732   9.429  0.0781 -0.0611  0.7747
25162SOL    HW176927   7.182   6.762   9.386 -0.0128  0.6973  1.4567
25162SOL    HW276928   7.331   6.790   9.394 -0.1689  1.3238  2.4319
25163SOL     OW76929   1.246   2.281   9.496 -0.4256  0.3904 -0.1323
25163SOL    HW176930   1.328   2.321   9.467  0.6963 -1.1802  0.7387
25163SOL    HW276931   1.271   2.226   9.570 -2.3747  0.2968  0.5060
25164SOL     OW76932   6.272   4.532   6.852  0.3493  0.3270  0.3990
25164SOL    HW176933   6.197   4.577   6.890  0.6994  0.9063  0.4135
25164SOL    HW276934   6.304   4.475   6.922 -0.4832 -0.4380  0.1718
25165SOL     OW76935   7.696   4.670   9.561 -0.3397  0.3481  0.3013
25165SOL    HW176936   7.646   4.751   9.574 -0.6532 -0.0271  1.6169
25165SOL    HW276937   7.633   4.600   9.580 -0.7505 -0.3561 -3.0079
25166SOL     OW76938   7.494   4.244  10.900 -0.0657  0.3222  0.2064
25166SOL    HW176939   7.442   4.318  10.867 -1.4345 -0.1299  1.2412
25166SOL    HW276940   7.430   4.174  10.912  0.6184  0.0053  2.3563
25167SOL     OW76941   0.343   3.520   9.283  0.4257 -0.4899  0.1311
25167SOL    HW176942   0.331   3.614   9.291  0.5871 -0.6240  2.6616
25167SOL    HW276943   0.421   3.510   9.227  3.2731  1.0946  3.4478
25168SOL     OW76944   7.264   3.350  10.362  0.2524  0.0271  0.1861
25168SOL    HW176945   7.312   3.299  10.297 -0.9459  0.1734 -0.8620
25168SOL    HW276946   7.189   3.384  10.314 -0.2588  0.7797  1.4769
25169SOL     OW76947   1.986   3.485   9.779  0.3810  0.2698 -0.7907
25169SOL    HW176948   1.943   3.542   9.715  0.1776  2.6546  1.2938
25169SOL    HW276949   2.070   3.463   9.739 -0.4946  0.1064 -2.6233
25170SOL     OW76950   7.566   3.205  10.942 -0.2022  0.1406 -0.4939
25170SOL    HW176951   7.559   3.273  11.008  1.5158 -0.3874  0.2831
25170SOL    HW276952   7.484   3.211  10.893 -1.0648  1.2470  0.9946
25171SOL     OW76953   7.886   5.828   8.937 -0.0540  0.2512 -0.0039
25171SOL    HW176954   7.831   5.810   9.013 -1.0741  0.2553 -0.7295
25171SOL    HW276955   7.975   5.832   8.973 -0.6237  1.4786  1.3936
25172SOL     OW76956   6.070   4.899   8.623 -0.8320 -0.8698 -0.6391
25172SOL    HW176957   5.976   4.899   8.607 -0.8988 -0.7500 -0.2685
25172SOL    HW276958   6.096   4.991   8.617 -0.7934 -0.8667 -0.4458
25173SOL     OW76959   7.688   4.570   9.155  0.4220  0.2872 -0.4222
25173SOL    HW176960   7.729   4.541   9.074 -0.1589  0.7141 -0.8749
25173SOL    HW276961   7.618   4.629   9.127 -0.4278 -0.3374  0.3430
25174SOL     OW76962   6.851   2.844  11.541  0.4471  0.1962 -0.0320
25174SOL    HW176963   6.763   2.840  11.577  1.0225  3.0897  1.9948
25174SOL    HW276964   6.843   2.896  11.461  0.3203  0.3794  0.1021
25175SOL     OW76965   6.883   1.894   0.235  0.1197 -0.3627 -0.3429
25175SOL    HW176966   6.840   1.924   0.315 -0.5744 -0.9655 -0.4783
25175SOL    HW276967   6.838   1.940   0.164 -0.6075 -1.3000 -0.5141
25176SOL     OW76968   7.720   2.453  10.250  0.4052 -0.6716 -0.0893
25176SOL    HW176969   7.625   2.447  10.266  0.2263  1.1620 -0.2194
25176SOL    HW276970   7.756   2.488  10.331  1.0889 -1.9546  0.1867
25177SOL     OW76971   7.391   3.156   8.495  0.5109  0.0002  0.3076
25177SOL    HW176972   7.444   3.225   8.455 -0.5379  0.2421 -0.7431
25177SOL    HW276973   7.304   3.195   8.504  0.5453 -0.2966  2.2462
25178SOL     OW76974   7.559   3.951  11.218 -0.9765 -0.0927 -0.2442
25178SOL    HW176975   7.654   3.942  11.220 -0.9517  0.0964 -0.5029
25178SOL    HW276976   7.544   4.045  11.203 -1.1944 -0.2174 -0.8220
25179SOL     OW76977   6.845   4.794  10.095  0.0118  0.7336 -0.3827
25179SOL    HW176978   6.759   4.807  10.056  0.4948 -0.3091 -1.9170
25179SOL    HW276979   6.828   4.742  10.174 -0.8201  1.0587 -0.3412
25180SOL     OW76980   0.897   3.166   8.402  0.1733 -0.8052  0.4010
25180SOL    HW176981   0.890   3.204   8.314  2.7302 -0.4586  0.2740
25180SOL    HW276982   0.850   3.082   8.395  0.0777 -0.6538 -1.2139
25181SOL     OW76983   6.811   5.309  10.210 -0.6172  1.0127 -0.7595
25181SOL    HW176984   6.786   5.218  10.221 -1.1899  0.9525 -2.3310
25181SOL    HW276985   6.816   5.344  10.300  3.0647 -1.4043  0.1691
25182SOL     OW76986   5.843   2.366   8.191  0.0805 -0.3514 -0.1425
25182SOL    HW176987   5.870   2.442   8.243 -0.7241 -0.1756  0.0386
25182SOL    HW276988   5.759   2.340   8.230  0.1242 -1.0394 -0.5090
25183SOL     OW76989   0.635   5.842   9.847  0.1103 -0.1283 -0.2199
25183SOL    HW176990   0.631   5.844   9.752  1.4915  0.3812 -0.2970
25183SOL    HW276991   0.544   5.838   9.876 -0.4167  1.3397 -1.5388
25184SOL     OW76992   6.811   3.186  11.368 -0.6151 -0.0045  0.4759
25184SOL    HW176993   6.766   3.210  11.287 -0.4543 -0.4046  0.2672
25184SOL    HW276994   6.852   3.102  11.349  1.5968  1.0848  0.1229
25185SOL     OW76995   7.197   5.301  11.295 -0.2957 -0.8532  0.0837
25185SOL    HW176996   7.269   5.266  11.348  0.0117  1.6378  1.4495
25185SOL    HW276997   7.239   5.365  11.237 -1.3264  0.1637  0.4463
25186SOL     OW76998   0.008   3.898  10.538 -0.6968  0.8047  0.2506
25186SOL    HW176999   0.086   3.939  10.500  0.0849 -0.3981  0.5011
25186SOL    HW277000   0.011   3.924  10.631 -1.5487  2.1471 -0.0658
25187SOL     OW77001   0.176   4.578  10.085 -0.8327 -0.5737  0.4290
25187SOL    HW177002   0.195   4.528  10.006 -0.8336  2.1984 -1.4474
25187SOL    HW277003   0.084   4.560  10.103 -1.3208  0.0439 -1.2561
25188SOL     OW77004   0.749   3.611  10.012  0.0070 -0.4174 -0.5183
25188SOL    HW177005   0.736   3.651  10.098 -0.1256 -0.9809 -0.2692
25188SOL    HW277006   0.825   3.553  10.025  0.3337 -0.0864 -0.9278
25189SOL     OW77007   0.546   3.400  10.045  0.0055 -0.1493  0.1192
25189SOL    HW177008   0.587   3.316  10.024  1.1825  0.3067  0.4744
25189SOL    HW277009   0.620   3.460  10.057 -0.8006  0.8490  0.2418
25190SOL     OW77010   6.697   3.243   8.772  0.1902 -0.0696  0.0284
25190SOL    HW177011   6.676   3.157   8.736  0.5929 -0.3796  0.5181
25190SOL    HW277012   6.613   3.287   8.780  0.1362  0.3893 -2.1816
25191SOL     OW77013   7.937   1.606  11.128  0.1460  0.0850  0.2330
25191SOL    HW177014   8.017   1.555  11.120  0.8265  0.9410  1.3501
25191SOL    HW277015   7.896   1.575  11.209 -0.4196 -0.0199 -0.0856
25192SOL     OW77016   1.924   3.803  10.269  0.0989  0.1346  0.2070
25192SOL    HW177017   1.858   3.839  10.209 -0.0581 -0.2591  0.1388
25192SOL    HW277018   1.957   3.879  10.317 -0.4558  0.3276  0.2919
25193SOL     OW77019   0.404   1.361  11.813 -0.4011  0.5375  0.4373
25193SOL    HW177020   0.375   1.335  11.726  0.4601  0.0915  0.2692
25193SOL    HW277021   0.456   1.441  11.798 -1.5345  1.3568  0.7374
25194SOL     OW77022   7.652   4.340  10.396  0.6199 -0.1259 -0.1752
25194SOL    HW177023   7.705   4.291  10.333  1.5718  0.2358  0.3347
25194SOL    HW277024   7.610   4.273  10.449  0.9452 -0.4101 -0.2727
25195SOL     OW77025   0.606   4.479   9.354  0.3021 -0.2117 -0.2786
25195SOL    HW177026   0.516   4.456   9.377 -0.9848  3.4327 -1.1123
25195SOL    HW277027   0.626   4.555   9.408  2.3629 -0.0245 -1.2200
25196SOL     OW77028   0.657   4.664   9.556 -0.2727 -0.0654 -0.2766
25196SOL    HW177029   0.716   4.679   9.630  1.4299  1.0439 -1.7681
25196SOL    HW277030   0.578   4.627   9.595  0.7844 -0.0749  2.0058
25197SOL     OW77031   6.184   4.377  10.005  1.1261  0.7546 -0.3671
25197SOL    HW177032   6.135   4.352   9.926 -0.9079 -2.8219  1.7891
25197SOL    HW277033   6.124   4.434  10.053  1.1654  0.4990 -0.0184
25198SOL     OW77034   1.237   3.073  11.005 -0.2847 -0.5153 -1.0449
25198SOL    HW177035   1.149   3.051  11.036 -0.7335  1.4956 -0.7880
25198SOL    HW277036   1.234   3.167  10.988  2.7431  0.3820  2.2124
25199SOL     OW77037   7.861   2.279   9.795 -0.6271 -0.4956 -0.2056
25199SOL    HW177038   7.805   2.256   9.869  1.0681 -2.0982  0.6790
25199SOL    HW277039   7.877   2.195   9.751  1.8757 -0.3014  0.2069
25200SOL     OW77040   7.955   3.426   9.979 -0.7509  0.3235  0.1876
25200SOL    HW177041   8.029   3.460   9.928  0.9289 -4.3162 -0.9346
25200SOL    HW277042   7.979   3.441  10.070  1.5459 -0.8058 -0.1625
25201SOL     OW77043   7.725   4.253   9.731  0.7120 -0.3978 -0.1303
25201SOL    HW177044   7.731   4.222   9.821  0.0502 -1.1914 -0.3496
25201SOL    HW277045   7.748   4.346   9.736  0.6121 -0.4163  0.8627
25202SOL     OW77046   5.104   6.703   9.685  0.3433  0.1629  0.1339
25202SOL    HW177047   5.113   6.645   9.609 -0.5658 -0.7818  0.7184
25202SOL    HW277048   5.078   6.645   9.756 -0.9084  1.3169  0.6625
25203SOL     OW77049   7.827   2.530  10.941 -0.1872 -0.1514 -0.1502
25203SOL    HW177050   7.768   2.603  10.921  0.3673  0.1854 -0.5834
25203SOL    HW277051   7.820   2.518  11.035  0.6203  1.2561  0.1156
25204SOL     OW77052   6.508   4.430   9.218 -0.1598 -0.0827  0.4269
25204SOL    HW177053   6.521   4.447   9.125 -1.4297  0.2164  0.2894
25204SOL    HW277054   6.540   4.509   9.261  1.2726 -0.5809  0.3276
25205SOL     OW77055   0.017   3.120   9.530  0.3228  0.0850  0.1318
25205SOL    HW177056   0.055   3.193   9.579  0.7091 -0.4489  0.6449
25205SOL    HW277057  -0.051   3.160   9.476  2.3446  1.2480 -1.7101
25206SOL     OW77058   7.103   4.353   8.962 -0.1100  0.1991  0.2830
25206SOL    HW177059   7.089   4.429   8.905 -0.7482  0.5722  0.9151
25206SOL    HW277060   7.158   4.386   9.033 -0.3987  0.0680  0.5672
25207SOL     OW77061   7.803   4.162   9.993  0.0673  0.2340  0.0115
25207SOL    HW177062   7.817   4.172  10.088  3.0581  1.0569 -0.4084
25207SOL    HW277063   7.827   4.071   9.975 -0.1180  0.1913 -0.0216
25208SOL     OW77064   1.048   6.574   9.115 -0.0835  0.2855 -0.2648
25208SOL    HW177065   0.958   6.588   9.146  0.0025 -1.1785  0.7445
25208SOL    HW277066   1.038   6.521   9.035 -0.1335  0.7754 -0.5903
25209SOL     OW77067   0.587   3.606   9.151  0.2100 -0.3192  0.1630
25209SOL    HW177068   0.631   3.529   9.187 -0.3902 -0.4154  0.7201
25209SOL    HW277069   0.615   3.609   9.059  1.1345 -0.5396  0.4316
25210SOL     OW77070   0.506   3.530  11.389 -0.2104 -0.5806  0.3969
25210SOL    HW177071   0.495   3.559  11.298  2.5279 -1.4067 -0.2803
25210SOL    HW277072   0.454   3.451  11.395  0.0069 -0.8172 -0.6368
25211SOL     OW77073   1.533   5.832  10.549 -0.4274 -0.1171  0.8492
25211SOL    HW177074   1.603   5.806  10.609  0.1278  1.3369  0.8663
25211SOL    HW277075   1.556   5.921  10.522 -0.6884 -0.6821 -1.4726
25212SOL     OW77076   6.435   4.304  10.474  0.2562 -0.1608  0.0402
25212SOL    HW177077   6.399   4.218  10.497  1.0014 -0.3319  0.5991
25212SOL    HW277078   6.452   4.299  10.380 -0.4207 -0.3487 -0.0830
25213SOL     OW77079   0.401   4.007   9.360 -0.2779 -0.0162 -0.3784
25213SOL    HW177080   0.437   3.919   9.368 -0.6427  0.0159  3.4855
25213SOL    HW277081   0.438   4.041   9.278 -1.3163 -4.1810 -2.8361
25214SOL     OW77082   0.705   5.198  11.310  0.1310 -0.5025  0.0715
25214SOL    HW177083   0.705   5.253  11.388  1.6486 -0.7276  0.2458
25214SOL    HW277084   0.784   5.223  11.263 -0.4182 -0.8535 -1.0579
25215SOL     OW77085   7.099   4.469   9.482  0.3186  0.0583 -0.1064
25215SOL    HW177086   7.004   4.479   9.492  0.2742  1.6093 -1.7348
25215SOL    HW277087   7.132   4.471   9.572 -1.0386  1.4305  0.4149
25216SOL     OW77088   1.094   4.645  11.153  0.7006 -0.3742  0.4046
25216SOL    HW177089   1.059   4.686  11.232  1.2610 -1.5739  1.3169
25216SOL    HW277090   1.161   4.705  11.122 -0.0961  0.5088  0.3434
25217SOL     OW77091   6.693   5.658  10.045 -0.0106  0.1029  0.1709
25217SOL    HW177092   6.761   5.634   9.982  0.7284 -0.0214  1.0078
25217SOL    HW277093   6.690   5.754  10.041 -0.3669  0.0716 -0.4602
25218SOL     OW77094   0.408   5.108   9.649  0.0266 -0.6314 -0.3422
25218SOL    HW177095   0.502   5.128   9.647 -0.2811  0.8947 -2.4378
25218SOL    HW277096   0.386   5.109   9.742  1.9063 -0.1104  0.1441
25219SOL     OW77097   6.566   5.397  10.592  0.1847 -0.2999 -0.2207
25219SOL    HW177098   6.645   5.398  10.538 -0.0725 -1.8219 -0.6815
25219SOL    HW277099   6.513   5.325  10.556 -1.6766  1.0291 -0.2853
25220SOL     OW77100   7.554   4.878   9.659 -0.3518  0.1457 -0.2989
25220SOL    HW177101   7.466   4.887   9.622 -0.1776  0.6548 -0.6032
25220SOL    HW277102   7.567   4.958   9.709  0.1386  0.3204 -0.6970
25221SOL     OW77103   6.639   2.994   8.669  0.0475  0.1666 -0.5787
25221SOL    HW177104   6.619   2.950   8.585  1.0473  0.6359 -1.0720
25221SOL    HW277105   6.584   2.947   8.733 -1.1248  0.1263 -1.5591
25222SOL     OW77106   7.504   5.008  10.863  0.4660 -0.4538  0.0118
25222SOL    HW177107   7.431   4.976  10.916  0.5131 -0.1288  0.2743
25222SOL    HW277108   7.570   4.939  10.871  0.6062 -0.2560  0.6594
25223SOL     OW77109   7.727   5.805   9.133  0.0180  0.2617  0.4814
25223SOL    HW177110   7.725   5.731   9.194 -2.1042 -0.8858 -0.8932
25223SOL    HW277111   7.686   5.877   9.181  1.2922  0.3470  1.5077
25224SOL     OW77112   7.970   3.958  11.581 -0.6661  0.1892 -0.0535
25224SOL    HW177113   8.034   3.898  11.620 -0.9936 -0.9110 -1.1452
25224SOL    HW277114   8.019   4.002  11.511 -0.4428  1.1781  0.7102
25225SOL     OW77115   6.892   4.711   8.625  0.1302 -0.4651  0.4414
25225SOL    HW177116   6.817   4.710   8.565 -0.8115 -1.0853  1.5654
25225SOL    HW277117   6.915   4.803   8.633 -1.8793  0.0205  1.6262
25226SOL     OW77118   0.905   4.127  11.935  0.0438  0.5974  0.3742
25226SOL    HW177119   0.844   4.083  11.875  1.0768 -1.2757  0.6318
25226SOL    HW277120   0.857   4.204  11.965 -1.7513 -0.1837 -0.3390
25227SOL     OW77121   1.568   3.297  11.307  0.2497 -0.5165  0.1308
25227SOL    HW177122   1.486   3.248  11.297 -0.3135 -0.0622  2.0801
25227SOL    HW277123   1.545   3.387  11.283  0.2764 -0.4804  0.2367
25228SOL     OW77124   7.369   3.409   8.781 -0.0479  0.6547  0.2906
25228SOL    HW177125   7.454   3.442   8.753 -0.8691  1.3326 -1.5142
25228SOL    HW277126   7.328   3.483   8.825  0.2555  0.3292  1.1570
25229SOL     OW77127   0.875   3.227  12.301  0.0241 -0.4956  0.2610
25229SOL    HW177128   0.843   3.232  12.391  0.2212 -0.4445  0.3272
25229SOL    HW277129   0.830   3.151  12.264 -0.5059 -0.1754  0.2250
25230SOL     OW77130   0.021   5.443  10.901 -0.1182 -0.4555 -0.3414
25230SOL    HW177131   0.012   5.530  10.939  0.7646 -1.2663  1.8837
25230SOL    HW277132   0.108   5.443  10.861 -0.1561 -0.2963 -0.4239
25231SOL     OW77133   0.711   4.045  10.354 -0.3180 -0.0029 -0.1326
25231SOL    HW177134   0.801   4.075  10.359  0.2878 -1.8676  1.5842
25231SOL    HW277135   0.663   4.103  10.414 -0.0882  0.3680 -0.3018
25232SOL     OW77136   1.110   5.001  10.235  0.1141 -0.0129 -0.4826
25232SOL    HW177137   1.189   4.989  10.183 -0.0089 -1.5832 -0.3671
25232SOL    HW277138   1.130   4.958  10.318 -0.0307  1.6403  0.4467
25233SOL     OW77139   7.061   4.576  10.002  0.1741 -0.1873  0.3494
25233SOL    HW177140   7.105   4.568  10.087  0.6050  0.1211  0.1613
25233SOL    HW277141   6.996   4.644  10.015  0.4019  0.0291  0.3712
25234SOL     OW77142   0.372   6.835  10.381 -0.2979 -0.2323 -0.5428
25234SOL    HW177143   0.279   6.853  10.397 -0.2151 -0.8982  0.7668
25234SOL    HW277144   0.375   6.808  10.289 -1.2958  0.4486 -0.7940
25235SOL     OW77145   0.047   5.815   0.275  0.1822 -0.2077  0.0730
25235SOL    HW177146   0.122   5.784   0.224  0.4789  1.4398 -0.5683
25235SOL    HW277147  -0.029   5.776   0.233  0.6372 -1.6043  0.5018
25236SOL     OW77148   7.259   4.835  11.608 -0.0013 -0.2711 -0.1258
25236SOL    HW177149   7.209   4.832  11.689  0.6856  1.1342  0.3787
25236SOL    HW277150   7.232   4.917  11.566 -0.8643 -1.3074 -1.6893
25237SOL     OW77151   5.982   4.616  10.679  0.0995  0.1915  0.5941
25237SOL    HW177152   5.973   4.527  10.713 -0.4014  0.1765  0.4214
25237SOL    HW277153   5.906   4.628  10.622 -1.8373  1.9754  3.3160
25238SOL     OW77154   7.307   5.556  11.675  0.4680  0.1990  0.4375
25238SOL    HW177155   7.307   5.625  11.608 -3.2016  0.0973  0.1411
25238SOL    HW277156   7.338   5.600  11.754  0.8690  1.4516 -0.3769
25239SOL     OW77157   0.660   4.803  11.149  0.6986  0.2457  0.5312
25239SOL    HW177158   0.712   4.760  11.216  0.1071  1.0813  1.5487
25239SOL    HW277159   0.607   4.733  11.111  1.2459 -0.2791  0.7149
25240SOL     OW77160   1.719   3.642  10.832  0.0825  0.3506 -0.3321
25240SOL    HW177161   1.802   3.607  10.802 -0.0160  0.6953 -1.0166
25240SOL    HW277162   1.664   3.646  10.754 -1.2811 -1.7807  0.4454
25241SOL     OW77163   1.047   5.857   0.418  0.2243 -0.1066 -0.4680
25241SOL    HW177164   1.134   5.852   0.378  0.5178  1.3928 -0.0638
25241SOL    HW277165   1.027   5.950   0.423 -0.6570 -0.3304  1.0668
25242SOL     OW77166   0.948   2.934   1.182  0.0787 -0.0370 -0.2717
25242SOL    HW177167   0.861   2.970   1.166 -1.1610 -2.9801 -0.7089
25242SOL    HW277168   1.007   2.991   1.132 -1.5792  1.7670 -0.3019
25243SOL     OW77169   0.259   6.049  11.382  0.3150 -0.5275 -0.0906
25243SOL    HW177170   0.180   6.103  11.385  0.4656 -0.2928 -0.3470
25243SOL    HW277171   0.302   6.074  11.301  0.8378 -0.4033  0.2237
25244SOL     OW77172   2.282   3.057   0.370 -0.1804  0.0024 -0.0524
25244SOL    HW177173   2.319   3.002   0.300 -1.3724  0.1784 -0.8529
25244SOL    HW277174   2.202   3.010   0.396 -0.3346  0.5171  0.3989
25245SOL     OW77175   6.942   6.730  12.407  0.2035  0.0331 -0.6431
25245SOL    HW177176   6.962   6.800  12.344 -0.6539 -0.7303 -1.8053
25245SOL    HW277177   6.975   6.650  12.365  0.3380 -0.3860  0.2477
25246SOL     OW77178   0.913   2.899  12.109  0.3195 -0.1172 -0.2076
25246SOL    HW177179   0.928   2.866  12.197  2.3530  0.0557 -0.4283
25246SOL    HW277180   0.830   2.947  12.115  0.1363 -0.5788  1.4551
25247SOL     OW77181   7.377   3.773   8.267 -0.1400 -0.0466  0.4236
25247SOL    HW177182   7.468   3.800   8.259  0.1437  0.1548  3.2232
25247SOL    HW277183   7.327   3.851   8.244  0.3511 -0.1909 -1.2489
25248SOL     OW77184   0.390   3.622  10.567 -0.0691 -0.0648 -0.0714
25248SOL    HW177185   0.303   3.595  10.538 -0.3931 -0.2173  0.9939
25248SOL    HW277186   0.375   3.703  10.616  0.6216  0.9043 -1.3822
25249SOL     OW77187   1.407   1.355  11.343 -0.0050  0.1069 -0.4299
25249SOL    HW177188   1.428   1.374  11.252  0.0288 -2.7072 -1.1104
25249SOL    HW277189   1.471   1.289  11.369 -2.5171 -2.2487  0.2376
25250SOL     OW77190   0.084   3.089  11.348  0.2433 -0.9739 -0.6195
25250SOL    HW177191   0.166   3.124  11.381 -0.8355  0.5830  0.5726
25250SOL    HW277192   0.057   3.025  11.413  0.2055 -1.0171 -0.6773
25251SOL     OW77193   7.647   5.589   0.643 -0.2856  0.2378 -0.0061
25251SOL    HW177194   7.651   5.530   0.568 -1.9523  0.6857 -0.4881
25251SOL    HW277195   7.670   5.675   0.607  1.1386  0.0854  0.4856
25252SOL     OW77196   0.773   4.553  12.227 -0.8052 -0.3801 -0.4069
25252SOL    HW177197   0.799   4.614  12.296 -0.0973 -0.6284 -0.4410
25252SOL    HW277198   0.713   4.603  12.172  0.2087  0.4890 -0.7620
25253SOL     OW77199   1.117   3.533  10.351  0.1674  0.3802  0.5074
25253SOL    HW177200   1.034   3.544  10.397  0.7539 -0.4720  1.8344
25253SOL    HW277201   1.156   3.455  10.390  1.8674  1.1085  0.3465
25254SOL     OW77202   6.907   5.674   0.463 -0.0074 -0.0939 -0.3494
25254SOL    HW177203   6.869   5.605   0.409 -1.1597 -0.3352  0.7214
25254SOL    HW277204   6.842   5.690   0.531  1.0263  0.7980  0.4722
25255SOL     OW77205   0.800   4.811   1.514 -0.1160  0.0995 -0.7143
25255SOL    HW177206   0.888   4.799   1.478  0.4300  0.4711  0.4750
25255SOL    HW277207   0.745   4.751   1.462  1.1209 -1.4019 -0.3598
25256SOL     OW77208   7.278   6.175   0.416  0.0325  0.1369  0.1708
25256SOL    HW177209   7.230   6.096   0.441  0.0404  0.3716  0.9759
25256SOL    HW277210   7.369   6.145   0.405  0.1447  0.1169  1.0262
25257SOL     OW77211   0.652   5.174   1.097 -0.0232  0.7342  0.0481
25257SOL    HW177212   0.724   5.113   1.080  0.9077  1.9023 -0.3863
25257SOL    HW277213   0.656   5.192   1.191  0.9121  1.5450 -0.1280
25258SOL     OW77214   1.094   2.678   1.126 -0.2915 -0.7237 -0.0998
25258SOL    HW177215   1.077   2.768   1.155 -0.0571 -0.7693  0.1803
25258SOL    HW277216   1.025   2.661   1.062 -0.7531 -0.5815  0.3480
25259SOL     OW77217   0.187   3.654  10.861 -0.0630  0.1976 -0.0646
25259SOL    HW177218   0.213   3.568  10.895  0.2484  0.7313  1.1207
25259SOL    HW277219   0.101   3.640  10.822  0.0296 -0.6742  0.0234
25260SOL     OW77220   5.902   2.433  12.485  0.0312 -0.6661  0.4167
25260SOL    HW177221   5.962   2.385  12.428 -0.2683  1.9414 -2.3847
25260SOL    HW277222   5.897   2.520  12.445 -1.9500  0.6822  3.2951
25261SOL     OW77223   0.654   6.749  11.439 -0.5478 -0.0013  0.0887
25261SOL    HW177224   0.592   6.700  11.385  0.3335 -0.1389 -0.8228
25261SOL    HW277225   0.614   6.835  11.452 -1.6884 -0.6339  0.9297
25262SOL     OW77226   7.739   3.688  12.391 -0.5816 -0.1327 -0.2519
25262SOL    HW177227   7.707   3.600  12.375  0.8902 -0.3433 -2.3824
25262SOL    HW277228   7.665   3.745  12.367 -0.8943 -0.7386 -0.7583
25263SOL     OW77229   7.931   3.604  10.784 -0.4309 -0.3514 -0.3638
25263SOL    HW177230   7.928   3.630  10.877 -0.1789  0.8641 -0.6732
25263SOL    HW277231   7.843   3.570  10.766 -1.5120  2.1990 -0.4044
25264SOL     OW77232   7.680   5.622  11.136  0.2043 -0.2876  0.3932
25264SOL    HW177233   7.642   5.624  11.048  0.4920 -0.5577  0.2621
25264SOL    HW277234   7.775   5.619  11.121  0.2320 -1.1622  0.7006
25265SOL     OW77235   7.260   5.283  11.620 -0.4565  0.2931  0.1093
25265SOL    HW177236   7.313   5.241  11.688  1.6208 -0.4832 -1.8528
25265SOL    HW277237   7.286   5.375  11.622  1.0689 -0.0766 -0.8160
25266SOL     OW77238   1.268   4.444  11.117  0.0489 -0.4568 -0.0251
25266SOL    HW177239   1.208   4.387  11.068 -0.9470 -0.1518  0.8044
25266SOL    HW277240   1.231   4.532  11.107  1.1784 -0.0395 -0.6931
25267SOL     OW77241   7.713   6.126  10.912 -1.0257 -0.4072 -0.6264
25267SOL    HW177242   7.675   6.039  10.908  0.3151 -1.0203 -0.5794
25267SOL    HW277243   7.757   6.138  10.828  0.1171 -0.4153 -0.0430
25268SOL     OW77244   1.120   6.289   1.063  0.2293  0.5090 -0.1480
25268SOL    HW177245   1.203   6.284   1.014 -0.2653 -0.6948 -0.9260
25268SOL    HW277246   1.096   6.197   1.077 -1.9079  0.7910 -1.6034
25269SOL     OW77247   6.362   0.972  10.676 -0.2831 -0.8450  0.5297
25269SOL    HW177248   6.280   0.934  10.707 -1.2577 -0.1639 -1.0654
25269SOL    HW277249   6.380   1.044  10.736  0.0567 -2.0035  1.8617
25270SOL     OW77250   1.007   5.513  12.105 -0.3993  0.4212  0.0394
25270SOL    HW177251   0.926   5.464  12.120 -0.7368 -0.1655 -3.0986
25270SOL    HW277252   0.983   5.605  12.120 -0.7158  0.0256  2.3265
25271SOL     OW77253   1.170   5.857  10.140  0.8157 -1.1308 -0.0109
25271SOL    HW177254   1.226   5.783  10.118  1.3320 -0.9056  0.5180
25271SOL    HW277255   1.211   5.897  10.217 -0.3560 -1.2733  0.7186
25272SOL     OW77256   0.644   4.833  10.629  0.1238  0.2623 -0.6091
25272SOL    HW177257   0.567   4.868  10.674 -1.2051 -2.8724 -0.1483
25272SOL    HW277258   0.612   4.806  10.543  0.2526 -2.2594  0.0381
25273SOL     OW77259   7.856   3.917  11.132  0.3539 -0.3216  0.1517
25273SOL    HW177260   7.814   3.940  11.049  1.5032 -0.6546 -0.5376
25273SOL    HW277261   7.883   3.826  11.121 -0.0921 -0.5888  1.1596
25274SOL     OW77262   6.192   7.977   1.154 -0.1414 -0.2776 -0.5258
25274SOL    HW177263   6.111   8.027   1.144 -0.3499 -0.5300 -0.1653
25274SOL    HW277264   6.241   8.023   1.222 -0.1555 -0.3430 -0.4715
25275SOL     OW77265   1.472   2.969  10.885 -0.0216  0.1464  0.5546
25275SOL    HW177266   1.385   2.997  10.914 -0.3881  0.7850 -1.0413
25275SOL    HW277267   1.513   2.934  10.963 -1.5571  0.2342  1.4478
25276SOL     OW77268   0.919   4.800  10.711  0.2434 -0.8067  0.1175
25276SOL    HW177269   0.834   4.838  10.690  0.6422 -0.2964 -0.5960
25276SOL    HW277270   0.924   4.720  10.659  0.1777 -0.8725  0.2100
25277SOL     OW77271   0.993   5.445   0.486 -0.0198  0.4878 -0.3063
25277SOL    HW177272   0.910   5.407   0.515  0.6985 -0.6725  0.2831
25277SOL    HW277273   0.984   5.453   0.391 -0.4893 -0.4357 -0.3467
25278SOL     OW77274   0.366   4.700   1.279 -0.1157 -0.1047  0.0726
25278SOL    HW177275   0.445   4.734   1.237 -0.3886  0.8533  0.3053
25278SOL    HW277276   0.293   4.736   1.227 -0.4170 -0.0559  0.5159
25279SOL     OW77277   7.604   6.128   1.964 -0.4022  0.2529  0.1953
25279SOL    HW177278   7.534   6.182   1.928 -1.3451 -0.3325  1.0931
25279SOL    HW277279   7.664   6.190   2.004 -0.2181  0.7822 -0.8597
25280SOL     OW77280   1.638   7.479   0.229 -0.3422  0.4632  0.4829
25280SOL    HW177281   1.559   7.533   0.239 -0.9689 -0.4199  0.4779
25280SOL    HW277282   1.606   7.398   0.189  0.6360  0.2340  0.1420
25281SOL     OW77283   5.992   7.220   0.573 -0.3188  0.0075 -0.5672
25281SOL    HW177284   6.056   7.289   0.554  0.4208  0.3589  2.6047
25281SOL    HW277285   5.917   7.240   0.517  1.5203  0.7739 -2.9254
25282SOL     OW77286   7.863   6.934  12.199 -0.3667 -0.4187  0.0975
25282SOL    HW177287   7.827   6.986  12.271 -0.1809  2.1601 -1.5416
25282SOL    HW277288   7.957   6.928  12.219 -0.3290  0.2137  0.1368
25283SOL     OW77289   1.214   7.600  12.036  0.1742 -0.2071 -0.0453
25283SOL    HW177290   1.173   7.518  12.066 -2.4975  1.6169  1.7447
25283SOL    HW277291   1.150   7.637  11.975  1.2273  0.7303 -0.6084
25284SOL     OW77292   0.159   6.955   0.850  0.0195 -0.2661  0.2348
25284SOL    HW177293   0.125   6.878   0.895 -1.4712  0.6916  0.7917
25284SOL    HW277294   0.192   7.011   0.919  0.4405 -0.0755 -0.1144
25285SOL     OW77295   7.081   0.607   1.567 -0.0435  0.5270  0.0995
25285SOL    HW177296   7.071   0.551   1.643  3.0408  2.5218  2.2135
25285SOL    HW277297   7.158   0.572   1.521  2.5403  3.2308  1.9712
25286SOL     OW77298   0.240   6.742  11.291  0.0985  0.1445  0.3968
25286SOL    HW177299   0.241   6.786  11.376 -0.6348  0.2442  0.3613
25286SOL    HW277300   0.310   6.784  11.241  0.5042  0.1144  0.9362
25287SOL     OW77301   5.859   5.923   2.557 -0.2362  0.3735  0.1274
25287SOL    HW177302   5.763   5.932   2.564 -0.4212  1.2996 -2.5025
25287SOL    HW277303   5.872   5.848   2.499  0.5920  0.9680 -0.4743
25288SOL     OW77304   0.366   5.864   0.971  0.5929 -0.0276 -0.0569
25288SOL    HW177305   0.272   5.870   0.989 -0.0931 -1.4850 -2.6643
25288SOL    HW277306   0.396   5.792   1.026 -0.1225 -0.4713 -0.2404
25289SOL     OW77307   6.466   5.570   1.553  0.0759  0.6790 -0.7723
25289SOL    HW177308   6.509   5.532   1.630  0.6578  1.1256 -0.8640
25289SOL    HW277309   6.374   5.578   1.578  0.1628  0.3343 -0.3175
25290SOL     OW77310   6.211   6.464   0.977 -0.0929  0.3302 -0.1777
25290SOL    HW177311   6.234   6.382   0.934  0.3385  1.2999 -1.9348
25290SOL    HW277312   6.157   6.438   1.051  1.2246 -1.6060  0.1844
25291SOL     OW77313   7.972   7.146   0.763  0.2690 -0.1307 -0.0312
25291SOL    HW177314   8.025   7.067   0.775 -1.1206 -1.3520 -1.4379
25291SOL    HW277315   7.906   7.121   0.698  1.5466  3.0344 -2.8437
25292SOL     OW77316   6.506   4.665   0.834 -0.2961  0.1542 -0.1274
25292SOL    HW177317   6.521   4.754   0.867 -0.1711 -0.1704  0.7239
25292SOL    HW277318   6.441   4.628   0.894 -1.9406  0.3652 -1.7241
25293SOL     OW77319   6.686   6.329   2.943 -0.2993  0.0511  0.0750
25293SOL    HW177320   6.686   6.372   3.028 -1.8580 -1.5738  0.9556
25293SOL    HW277321   6.727   6.244   2.958  2.6377  1.0194 -1.6119
25294SOL     OW77322   0.050   6.416  11.469 -0.1675  0.4761 -0.4161
25294SOL    HW177323   0.084   6.439  11.383 -0.3845  0.1093 -0.6016
25294SOL    HW277324   0.031   6.500  11.511 -0.2448  0.6530 -0.8013
25295SOL     OW77325   0.368   6.987   1.889 -0.3346  0.0269 -0.4681
25295SOL    HW177326   0.413   7.037   1.821 -0.3248  0.5844 -0.0538
25295SOL    HW277327   0.278   7.018   1.886 -0.4834 -0.4183 -0.6657
25296SOL     OW77328   7.334   5.706   2.641 -0.0282  0.1746  0.4024
25296SOL    HW177329   7.336   5.617   2.676 -0.9998  0.1803  0.4965
25296SOL    HW277330   7.251   5.712   2.594 -0.1371  1.1459  0.6941
25297SOL     OW77331   7.056   7.069   1.466 -0.4608  0.1340 -0.4164
25297SOL    HW177332   7.109   7.137   1.424  0.7552 -0.9504 -0.7025
25297SOL    HW277333   7.119   7.017   1.516 -1.8030  1.2486  2.7059
25298SOL     OW77334   7.442   7.525   1.271  0.0772  0.3637  0.0946
25298SOL    HW177335   7.437   7.540   1.176  1.3005 -0.1266 -0.0711
25298SOL    HW277336   7.351   7.518   1.299 -0.4349  2.9740 -0.6236
25299SOL     OW77337   0.012   3.736   0.484  1.2487 -0.8596 -0.0984
25299SOL    HW177338  -0.025   3.777   0.406  0.0151 -0.1499  0.8144
25299SOL    HW277339   0.090   3.787   0.504 -1.2504  2.5471  2.1384
25300SOL     OW77340   0.494   5.544  12.012  0.7039  0.1679  0.2446
25300SOL    HW177341   0.433   5.590  11.955  0.6711 -0.2831 -0.0903
25300SOL    HW277342   0.509   5.604  12.085 -0.5782  0.0505  0.6263
25301SOL     OW77343   1.183   0.117  11.908 -0.2275  0.5207 -0.1911
25301SOL    HW177344   1.249   0.062  11.866 -1.1212 -0.7132 -0.0287
25301SOL    HW277345   1.227   0.201  11.922  0.7571  0.2823 -1.6462
25302SOL     OW77346   7.378   0.060   0.110  0.2872 -0.0725 -0.2729
25302SOL    HW177347   7.444  -0.009   0.124  0.0726  0.3059  3.9247
25302SOL    HW277348   7.430   0.138   0.093  0.8169 -0.2547  0.4560
25303SOL     OW77349   6.484   7.256   0.591 -0.4186  0.0744  0.4075
25303SOL    HW177350   6.423   7.306   0.645 -0.3374  0.4434  0.1663
25303SOL    HW277351   6.570   7.276   0.628 -0.3263  0.6508 -0.0997
25304SOL     OW77352   0.277   0.917   2.858  0.0326  0.2216 -0.3256
25304SOL    HW177353   0.223   0.840   2.877 -0.7199  0.6250 -0.8285
25304SOL    HW277354   0.299   0.952   2.944 -2.2649  1.2754 -0.0964
25305SOL     OW77355   0.811   6.332   1.393  0.0992  0.2329  0.0614
25305SOL    HW177356   0.902   6.315   1.414  0.0011  0.6013  0.8435
25305SOL    HW277357   0.796   6.422   1.421 -0.2724  0.4795 -0.8844
25306SOL     OW77358   1.716   7.663  11.417 -0.3952 -0.5570  0.0063
25306SOL    HW177359   1.730   7.687  11.509 -1.4422 -0.3604  0.1282
25306SOL    HW277360   1.699   7.747  11.373  0.9374 -0.5477 -0.5490
25307SOL     OW77361   7.026   3.961  11.265 -0.5176 -0.3087  0.2984
25307SOL    HW177362   7.059   3.979  11.177  0.1808 -1.4572  0.3171
25307SOL    HW277363   7.047   4.040  11.315  0.2533 -0.1684 -0.2397
25308SOL     OW77364   1.082   6.314   1.369  0.0025 -0.1108  0.1860
25308SOL    HW177365   1.092   6.322   1.274  0.0364 -0.1364  0.1874
25308SOL    HW277366   1.117   6.396   1.403 -1.2538  0.4718  0.0987
25309SOL     OW77367   0.444   5.823   0.660  0.1411  0.5562  0.1055
25309SOL    HW177368   0.430   5.917   0.645 -0.6066  0.4782  0.2693
25309SOL    HW277369   0.391   5.803   0.737 -0.2425 -0.1415 -0.3275
25310SOL     OW77370   0.091   5.305   2.794 -0.0323  0.0233  0.0895
25310SOL    HW177371   0.041   5.259   2.726 -2.3182 -0.6248  2.0561
25310SOL    HW277372   0.037   5.381   2.816  1.4175  1.0677  0.1278
25311SOL     OW77373   7.484   6.918   3.241 -0.2933 -0.0328 -0.6211
25311SOL    HW177374   7.497   6.956   3.154  0.8208 -1.4398 -1.1094
25311SOL    HW277375   7.573   6.903   3.273 -0.6857  0.6279  0.8516
25312SOL     OW77376   7.245   6.125  12.227  0.5757 -0.5291  0.1610
25312SOL    HW177377   7.208   6.181  12.295  1.0399  0.1351 -0.1169
25312SOL    HW277378   7.181   6.055  12.216 -1.5289  1.4983 -1.5388
25313SOL     OW77379   0.057   6.764   1.019 -0.5241  0.5652 -0.6628
25313SOL    HW177380   0.115   6.820   1.070  1.0483 -0.7152 -0.9533
25313SOL    HW277381  -0.002   6.725   1.085 -0.8950  1.6736 -0.3275
25314SOL     OW77382   7.447   5.770   0.177  0.0709  0.1542  0.2353
25314SOL    HW177383   7.466   5.690   0.226  0.6929 -0.9871 -1.7587
25314SOL    HW277384   7.493   5.760   0.094 -1.6603  1.5725 -1.0066
25315SOL     OW77385   6.571   6.306   2.695 -0.1798 -0.3362 -0.0295
25315SOL    HW177386   6.647   6.305   2.754  0.1902 -0.0129 -0.4956
25315SOL    HW277387   6.540   6.396   2.697  0.4028 -0.0990 -1.0373
25316SOL     OW77388   7.891   0.783   2.699 -0.5210 -0.0941 -0.1560
25316SOL    HW177389   7.980   0.815   2.687 -0.5094  0.6804  1.6892
25316SOL    HW277390   7.854   0.781   2.610  0.3446  2.4983 -0.6711
25317SOL     OW77391   7.216   6.138   3.242 -0.2472  0.0147 -0.6509
25317SOL    HW177392   7.276   6.165   3.311  1.9854 -1.0942 -2.0435
25317SOL    HW277393   7.129   6.162   3.275  0.5957 -1.1335  2.8553
25318SOL     OW77394   5.705   7.232  11.815  0.5735 -0.4209 -0.1362
25318SOL    HW177395   5.767   7.277  11.759  1.8135 -1.7723  0.0795
25318SOL    HW277396   5.689   7.148  11.772 -0.6496 -0.3430  0.1198
25319SOL     OW77397   7.363   5.949   1.723  0.1658  0.0248  0.5048
25319SOL    HW177398   7.365   5.943   1.628  1.3668 -0.9317  0.5644
25319SOL    HW277399   7.325   5.865   1.751 -1.2915  0.7647  0.8604
25320SOL     OW77400   5.830   5.962   1.928  0.7734 -0.0287 -0.1967
25320SOL    HW177401   5.768   5.967   2.000  0.8177 -3.6344  0.2651
25320SOL    HW277402   5.904   6.016   1.957 -1.0362  2.3334  0.3081
25321SOL     OW77403   7.653   7.135   1.169  0.3227  0.3521 -0.1119
25321SOL    HW177404   7.723   7.189   1.132  1.4729 -0.8395  0.2212
25321SOL    HW277405   7.676   7.046   1.142 -1.1303 -0.0576 -0.0538
25322SOL     OW77406   0.446   6.261   0.682  0.2526  0.3273  0.0917
25322SOL    HW177407   0.430   6.284   0.591  1.8328  1.6350  0.1030
25322SOL    HW277408   0.536   6.288   0.698  0.3479 -0.8170  1.7689
25323SOL     OW77409   7.324   6.800   3.003 -0.5539  0.3123  0.2100
25323SOL    HW177410   7.285   6.855   3.071 -0.0513  0.3966  0.4302
25323SOL    HW277411   7.345   6.861   2.932  0.2178  0.4499  0.5468
25324SOL     OW77412   7.072   4.964   0.922  0.1397 -0.0791 -0.1281
25324SOL    HW177413   7.141   4.976   0.858 -0.8588  0.0970 -1.1983
25324SOL    HW277414   7.092   5.027   0.991  2.2739 -1.5539  0.7081
25325SOL     OW77415   6.704   7.122   1.901 -0.6330  0.2461 -0.3988
25325SOL    HW177416   6.772   7.152   1.961 -0.7281 -2.4701  1.2532
25325SOL    HW277417   6.622   7.157   1.936 -0.3872  1.1547 -0.7233
25326SOL     OW77418   0.011   5.337   0.751 -0.7908 -0.3322 -0.7068
25326SOL    HW177419   0.020   5.361   0.843  1.1927 -0.7388 -0.7630
25326SOL    HW277420  -0.056   5.269   0.751 -1.5307  0.3555  0.2874
25327SOL     OW77421   7.109   7.086   1.804 -0.2225  0.0887 -0.3886
25327SOL    HW177422   7.072   7.003   1.832 -1.3845  0.3221 -1.1710
25327SOL    HW277423   7.144   7.068   1.717 -2.5873  0.9362 -1.5924
25328SOL     OW77424   0.504   0.469   0.665  0.4818 -0.8272 -0.5896
25328SOL    HW177425   0.560   0.491   0.740 -1.4344  0.4008  0.5738
25328SOL    HW277426   0.562   0.422   0.605  2.5517 -0.2761  0.8508
25329SOL     OW77427   7.668   6.430  11.820  0.0542 -0.4893  0.1177
25329SOL    HW177428   7.719   6.470  11.891  0.3364  0.4154 -0.5744
25329SOL    HW277429   7.699   6.474  11.741 -2.6165  0.9894 -0.2306
25330SOL     OW77430   7.182   6.630   2.580  0.3613 -0.2399 -0.3594
25330SOL    HW177431   7.217   6.646   2.492 -1.4613 -0.1080 -1.1009
25330SOL    HW277432   7.114   6.564   2.568  1.0130 -1.2327  1.1830
25331SOL     OW77433   7.535   6.884  11.794 -0.3905 -0.1492 -0.2773
25331SOL    HW177434   7.596   6.831  11.844 -1.5821 -0.7116  0.6367
25331SOL    HW277435   7.585   6.962  11.769  1.2979 -1.5195 -1.3712
25332SOL     OW77436   7.297   6.754   1.297  0.1408  0.1453  0.4180
25332SOL    HW177437   7.211   6.747   1.255 -0.1820  0.5570  0.9844
25332SOL    HW277438   7.338   6.829   1.254 -0.5520  1.1372  1.4268
25333SOL     OW77439   0.295   6.863   1.194 -0.3220 -0.4366  0.5533
25333SOL    HW177440   0.316   6.835   1.284 -0.0240 -0.8114  0.3696
25333SOL    HW277441   0.352   6.811   1.139 -1.3388 -1.0734  0.0683
25334SOL     OW77442   0.248   7.562   1.508 -0.6906  0.2006  0.2312
25334SOL    HW177443   0.254   7.557   1.412 -1.9597  0.5815  0.1189
25334SOL    HW277444   0.233   7.654   1.526 -2.1306 -0.0971  0.6735
25335SOL     OW77445   0.129   6.550   2.019 -0.6984 -0.0670 -0.7074
25335SOL    HW177446   0.107   6.458   2.002  2.5776 -1.2433  0.5960
25335SOL    HW277447   0.178   6.577   1.941  0.1667 -0.1311 -0.1926
25336SOL     OW77448   5.879   7.815   2.134 -0.1298 -0.5398  0.4726
25336SOL    HW177449   5.904   7.741   2.079 -0.5499 -0.5763  0.3175
25336SOL    HW277450   5.796   7.845   2.096  1.1402  1.4589 -0.9226
25337SOL     OW77451   6.796   5.592  12.276  0.4680 -0.3867 -0.1454
25337SOL    HW177452   6.763   5.587  12.186 -1.3591 -1.0637  0.5139
25337SOL    HW277453   6.816   5.684  12.289 -0.7403 -0.0113 -0.7632
25338SOL     OW77454   6.554   4.952   3.479 -0.4549  0.5950 -0.0046
25338SOL    HW177455   6.645   4.975   3.497  0.0197 -1.7061  0.9415
25338SOL    HW277456   6.516   4.935   3.565 -1.2981 -0.0475 -0.4865
25339SOL     OW77457   5.942   7.446   1.612  0.0474 -0.1169  0.5879
25339SOL    HW177458   5.921   7.413   1.524  0.4417 -0.1496  0.5041
25339SOL    HW277459   6.019   7.502   1.598 -1.0389  1.4353  0.5977
25340SOL     OW77460   7.316   4.585   3.003  0.1501 -0.3119 -0.5093
25340SOL    HW177461   7.326   4.536   2.922 -0.6885 -0.2478 -0.6671
25340SOL    HW277462   7.244   4.541   3.049 -0.1525  0.3420 -0.3397
25341SOL     OW77463   1.163   6.233   0.037  0.4950  0.2793  0.1536
25341SOL    HW177464   1.224   6.224  -0.036  0.4557  2.1365 -0.1505
25341SOL    HW277465   1.109   6.154   0.033  1.0341 -0.0466 -1.3131
25342SOL     OW77466   0.834   6.999   3.697 -0.0369  0.2560  0.6965
25342SOL    HW177467   0.893   7.017   3.771  1.3919 -0.2937 -0.2644
25342SOL    HW277468   0.861   6.913   3.666 -0.0827  0.8163 -0.9693
25343SOL     OW77469   4.502   7.937   3.971 -0.1287  0.0268  0.4269
25343SOL    HW177470   4.508   7.914   3.879 -1.7620 -0.2148  0.3538
25343SOL    HW277471   4.408   7.936   3.990  0.2107 -0.6855  2.2755
25344SOL     OW77472   7.789   6.885   2.240  0.3472 -0.9761  0.0586
25344SOL    HW177473   7.865   6.833   2.214  0.8385 -0.0382 -0.4649
25344SOL    HW277474   7.820   6.937   2.315  0.8974  0.8969 -1.3917
25345SOL     OW77475   1.151   7.251   2.331 -0.5844 -0.1256  0.4007
25345SOL    HW177476   1.170   7.333   2.285 -0.2641  0.2234  1.1476
25345SOL    HW277477   1.222   7.241   2.394 -1.5251 -0.1057  1.4906
25346SOL     OW77478   0.150   6.998   0.559 -0.4065 -0.0290  0.3079
25346SOL    HW177479   0.103   7.079   0.539  1.1255  1.1393  1.2122
25346SOL    HW277480   0.186   7.012   0.646  1.9109 -0.6611 -0.4717
25347SOL     OW77481   0.188   0.881   2.599  0.3253 -0.5504  0.4928
25347SOL    HW177482   0.245   0.811   2.568  2.7796  1.9107 -0.9503
25347SOL    HW277483   0.214   0.895   2.690 -1.5261 -2.6433  1.4492
25348SOL     OW77484   6.914   4.626   3.319  0.3358 -0.3092 -0.0677
25348SOL    HW177485   6.824   4.644   3.294  0.6151 -0.4071 -1.1959
25348SOL    HW277486   6.930   4.537   3.290  1.1969  0.1615 -1.0992
25349SOL     OW77487   6.922   6.231   3.221  0.2369  0.2748 -0.0919
25349SOL    HW177488   6.987   6.220   3.151 -0.8413 -0.1617 -1.0675
25349SOL    HW277489   6.870   6.306   3.193 -0.0407  0.2604  0.3795
25350SOL     OW77490   0.610   5.118   4.227 -0.8717  0.0286 -0.1041
25350SOL    HW177491   0.623   5.077   4.142  0.5081  0.0224  0.0892
25350SOL    HW277492   0.688   5.173   4.239 -0.0834 -1.4173  1.9620
25351SOL     OW77493   7.503   6.489   2.475  0.3362 -0.4928  0.1254
25351SOL    HW177494   7.530   6.564   2.527  1.0174 -1.0973  0.6759
25351SOL    HW277495   7.424   6.456   2.519  1.6453 -1.8073  1.6584
25352SOL     OW77496   6.877   6.508   2.217 -0.1679  0.1597  0.2147
25352SOL    HW177497   6.949   6.521   2.156 -0.2089  1.3479  0.3919
25352SOL    HW277498   6.815   6.451   2.171  0.3773  0.0267 -0.3548
25353SOL     OW77499   7.609   7.679   1.929 -0.8116 -0.5539  0.0986
25353SOL    HW177500   7.651   7.764   1.926 -1.0323 -0.2425  3.0905
25353SOL    HW277501   7.529   7.690   1.877 -2.2453  1.9715  2.6025
25354SOL     OW77502   1.150   6.772   2.803 -0.6120  0.0692  0.2182
25354SOL    HW177503   1.193   6.777   2.718 -0.9529  0.0378  0.0388
25354SOL    HW277504   1.151   6.679   2.826 -1.2927 -0.0451 -0.1674
25355SOL     OW77505   7.163   7.344   2.765  0.1198  0.0733  0.3487
25355SOL    HW177506   7.130   7.308   2.847  0.7860 -0.5324  0.3633
25355SOL    HW277507   7.144   7.277   2.700  1.7324 -0.5230  0.4454
25356SOL     OW77508   7.562   7.713   0.334  0.4474 -0.0928  0.0255
25356SOL    HW177509   7.554   7.772   0.409  2.0944 -0.5011  0.5767
25356SOL    HW277510   7.604   7.766   0.266 -1.0494  0.2793 -0.6557
25357SOL     OW77511   0.573   7.714   1.526  0.4371 -0.2895 -0.4853
25357SOL    HW177512   0.601   7.626   1.501 -1.0563 -0.9544  0.0458
25357SOL    HW277513   0.480   7.705   1.546 -0.0926  1.7097 -1.7584
25358SOL     OW77514   7.564   7.946   3.580  0.0273 -0.0154  0.1264
25358SOL    HW177515   7.577   8.040   3.588 -1.2724  0.1917  0.1203
25358SOL    HW277516   7.570   7.913   3.670  2.7997 -0.3132 -0.0868
25359SOL     OW77517   6.841   0.449   2.170 -0.1053  0.1204  0.0420
25359SOL    HW177518   6.896   0.382   2.130 -0.3858 -0.3973  0.5074
25359SOL    HW277519   6.882   0.532   2.146  0.4219 -0.2315 -0.2758
25360SOL     OW77520   6.722   5.736   3.489  0.1331 -0.3776  0.5717
25360SOL    HW177521   6.691   5.757   3.577  1.0136 -0.1121  0.8288
25360SOL    HW277522   6.796   5.795   3.475  0.1654 -0.5974 -0.2481
25361SOL     OW77523   7.442   6.297   2.224  0.7496  0.1111 -0.1159
25361SOL    HW177524   7.411   6.250   2.302 -0.8944  1.2456 -0.0165
25361SOL    HW277525   7.478   6.379   2.259 -1.2472  1.2459 -0.5707
25362SOL     OW77526   6.633   7.032   3.506 -0.1233  0.6169 -0.1174
25362SOL    HW177527   6.564   6.974   3.473  1.7086 -1.5709 -0.3556
25362SOL    HW277528   6.696   7.037   3.435  1.6362 -0.3814  1.2967
25363SOL     OW77529   0.114   4.033   2.734 -0.2429  0.1730 -0.2131
25363SOL    HW177530   0.093   3.940   2.726  0.7073  0.0452 -1.5214
25363SOL    HW277531   0.122   4.048   2.828  1.7735 -1.6132 -0.0263
25364SOL     OW77532   7.179   6.547   2.313  0.4390 -0.5378  0.2592
25364SOL    HW177533   7.256   6.562   2.258 -0.8968  1.4130 -1.2202
25364SOL    HW277534   7.142   6.465   2.280  0.7182 -0.3793 -0.4628
25365SOL     OW77535   7.701   6.713   2.894 -0.5006  0.3932  0.3125
25365SOL    HW177536   7.698   6.808   2.898 -0.6200  0.3746  0.6701
25365SOL    HW277537   7.733   6.694   2.805  3.2264  0.8315  1.3956
25366SOL     OW77538   1.872   6.799   1.976  0.5964 -0.1563 -0.5810
25366SOL    HW177539   1.801   6.768   2.032  0.7507  0.0913 -0.2407
25366SOL    HW277540   1.832   6.868   1.923 -0.1633 -1.9926 -2.4974
25367SOL     OW77541   0.339   7.521   3.735  0.7423 -0.5244  0.0054
25367SOL    HW177542   0.278   7.454   3.765 -1.2560  0.3116 -1.9114
25367SOL    HW277543   0.410   7.472   3.693  1.4631 -1.5127  2.2460
25368SOL     OW77544   6.762   6.440   3.197 -0.2092 -0.4193 -0.6465
25368SOL    HW177545   6.692   6.480   3.250  0.0976  0.0352 -0.5753
25368SOL    HW277546   6.805   6.515   3.155  1.2402 -0.5673  0.5358
25369SOL     OW77547   7.565   5.904   2.465  0.1003 -0.1716  0.1058
25369SOL    HW177548   7.605   5.896   2.552  1.8148  1.6584 -0.4525
25369SOL    HW277549   7.636   5.935   2.409 -1.1604 -0.6319 -1.8090
25370SOL     OW77550   6.396   6.973   3.819  0.2792  0.0237 -0.1549
25370SOL    HW177551   6.380   6.883   3.789  0.0619  0.4168 -1.2493
25370SOL    HW277552   6.331   6.987   3.887 -1.5610  0.2800 -1.8879
25371SOL     OW77553   0.720   6.612   1.338  0.5072 -0.1555 -0.2100
25371SOL    HW177554   0.807   6.587   1.370  0.6717  2.1340  1.4058
25371SOL    HW277555   0.730   6.704   1.313 -1.6060  0.3641  0.6851
25372SOL     OW77556   7.640   7.213   4.282 -0.2820  0.2794 -0.7260
25372SOL    HW177557   7.607   7.276   4.218  0.5407 -1.2152 -2.7393
25372SOL    HW277558   7.707   7.260   4.330 -2.3427  2.0817  0.5673
25373SOL     OW77559   0.183   4.922   2.824 -0.3206  0.2923  0.4137
25373SOL    HW177560   0.253   4.986   2.814  1.5056 -1.7945 -1.1930
25373SOL    HW277561   0.150   4.908   2.735 -1.5334 -0.1283  0.9018
25374SOL     OW77562   6.940   5.910   4.047  0.5399  0.4338  0.5765
25374SOL    HW177563   6.873   5.922   4.115  0.2215 -0.1635  0.3788
25374SOL    HW277564   6.894   5.865   3.976  1.1282  0.1079  0.3968
25375SOL     OW77565   6.883   6.271   3.482 -0.0430 -0.1569 -0.3360
25375SOL    HW177566   6.879   6.232   3.395  1.4641  0.9552 -0.9617
25375SOL    HW277567   6.879   6.365   3.466  0.2393  0.0637  0.8023
25376SOL     OW77568   5.791   0.481   2.357 -0.3936 -0.2562 -0.4070
25376SOL    HW177569   5.797   0.549   2.291  0.6955 -0.1797 -0.2541
25376SOL    HW277570   5.866   0.498   2.415 -0.5700 -1.1043  0.0814
25377SOL     OW77571   6.097   6.033   2.204  0.7768 -0.4792 -0.1270
25377SOL    HW177572   6.163   6.031   2.134  0.7821  0.6257 -0.1722
25377SOL    HW277573   6.128   6.102   2.263 -0.5308  0.3177 -0.3425
25378SOL     OW77574   7.506   5.523   2.905 -0.2256  0.0857 -0.3092
25378SOL    HW177575   7.547   5.546   2.988  1.0025 -1.0981 -0.5465
25378SOL    HW277576   7.580   5.502   2.847 -0.8798  2.6697 -2.3147
25379SOL     OW77577   0.222   7.345   2.301  0.3129  0.2171 -0.2949
25379SOL    HW177578   0.293   7.305   2.250 -0.2076 -1.7049  0.3867
25379SOL    HW277579   0.251   7.338   2.392 -1.0032 -1.2798  0.0589
25380SOL     OW77580   5.758   6.978   2.228 -0.1942  0.0657  0.3498
25380SOL    HW177581   5.798   6.936   2.151 -1.5728  0.1927 -0.4588
25380SOL    HW277582   5.833   7.009   2.278  0.7496  0.0673 -0.9888
25381SOL     OW77583   7.530   6.997   1.898  0.2094 -0.1059 -0.2153
25381SOL    HW177584   7.559   6.908   1.876  1.5236  0.3448 -0.3894
25381SOL    HW277585   7.505   7.035   1.815  1.8282  0.4252 -0.4935
25382SOL     OW77586   6.286   6.513   2.414 -0.7894  0.1078 -0.6844
25382SOL    HW177587   6.232   6.448   2.458  1.8539 -1.0207  1.1997
25382SOL    HW277588   6.264   6.596   2.458  1.8390 -0.9831  3.2972
25383SOL     OW77589   0.268   7.873   2.877  0.2258 -0.5232  0.7828
25383SOL    HW177590   0.343   7.916   2.918  1.6523 -2.2380  0.1017
25383SOL    HW277591   0.291   7.781   2.875 -1.8173 -1.0806  0.2987
25384SOL     OW77592   7.884   4.084   3.779 -0.2610  0.0263  0.2861
25384SOL    HW177593   7.940   4.162   3.777  2.2440 -1.6575 -0.6280
25384SOL    HW277594   7.800   4.114   3.743  0.8104  2.1571 -0.6526
25385SOL     OW77595   7.094   5.316   4.472  0.3567 -0.1076  1.3287
25385SOL    HW177596   7.011   5.317   4.424  1.3357  1.2352 -0.4573
25385SOL    HW277597   7.092   5.394   4.527  0.5254  0.0632  1.0958
25386SOL     OW77598   7.886   0.285   2.586  0.7777 -0.4579 -0.1479
25386SOL    HW177599   7.928   0.366   2.558 -0.8292  0.5175  0.1233
25386SOL    HW277600   7.889   0.289   2.682  1.2465 -1.0409 -0.1309
25387SOL     OW77601   7.418   6.664   2.223  0.2334  0.1931 -0.2533
25387SOL    HW177602   7.468   6.743   2.244 -1.4300  0.6521  2.4509
25387SOL    HW277603   7.443   6.601   2.291 -3.1687  0.6608  1.6121
25388SOL     OW77604   1.117   7.883   2.796  0.6994 -0.2544 -0.1289
25388SOL    HW177605   1.068   7.883   2.713  0.5480  0.0825 -0.0420
25388SOL    HW277606   1.173   7.960   2.790  0.9147 -0.4057 -0.0483
25389SOL     OW77607   1.691   1.869   2.379  0.2746 -0.1548 -0.3309
25389SOL    HW177608   1.645   1.953   2.383 -0.1672 -0.4391  0.7882
25389SOL    HW277609   1.643   1.813   2.439 -0.3074 -1.6508 -2.1022
25390SOL     OW77610   7.212   6.926   2.317 -0.3804 -0.2779  0.2118
25390SOL    HW177611   7.301   6.915   2.285 -0.7089 -0.6597 -0.5853
25390SOL    HW277612   7.156   6.912   2.241 -1.0698  2.3544  0.1385
25391SOL     OW77613   5.475   6.215   2.669 -0.0562  0.2898  0.0403
25391SOL    HW177614   5.506   6.180   2.753  1.9038  1.6132 -0.0832
25391SOL    HW277615   5.526   6.169   2.603 -0.5828  0.2793 -0.3668
25392SOL     OW77616   7.424   7.646   3.800  0.3947  0.1687  0.0333
25392SOL    HW177617   7.403   7.557   3.831  1.7437 -1.0021 -2.1480
25392SOL    HW277618   7.345   7.697   3.815  0.0413 -0.9948  2.6767
25393SOL     OW77619   7.343   0.326   2.728  0.8699  0.3579 -0.1404
25393SOL    HW177620   7.424   0.290   2.692  0.1803 -0.8888 -0.5201
25393SOL    HW277621   7.277   0.307   2.660  0.4956  2.5642 -0.4595
25394SOL     OW77622   0.712   5.657   2.641  0.2553  0.8739 -0.6023
25394SOL    HW177623   0.780   5.637   2.576  0.0502  2.7385 -1.4619
25394SOL    HW277624   0.652   5.582   2.637  0.1797  0.9939 -2.6867
25395SOL     OW77625   7.650   6.727   3.695 -0.9314  0.0098 -0.3304
25395SOL    HW177626   7.572   6.673   3.685 -1.0516 -0.2850  1.8039
25395SOL    HW277627   7.625   6.812   3.656 -2.1796 -0.1952 -0.0171
25396SOL     OW77628   5.283   4.874   1.424  0.2002 -0.3528  0.6193
25396SOL    HW177629   5.262   4.794   1.377 -0.3355 -0.2225  0.6335
25396SOL    HW277630   5.367   4.903   1.387 -0.3978 -0.0504 -0.5207
25397SOL     OW77631   6.956   6.622   3.140 -0.4772 -0.6688  0.2531
25397SOL    HW177632   7.006   6.703   3.134 -1.7962  0.1171 -0.8381
25397SOL    HW277633   6.931   6.615   3.232  0.3359 -0.2852  0.5069
25398SOL     OW77634   0.140   0.525   3.849 -0.0016 -0.1950 -0.2240
25398SOL    HW177635   0.214   0.525   3.910  0.3634 -1.9258 -0.6126
25398SOL    HW277636   0.095   0.608   3.865  2.0387  0.9299 -0.0092
25399SOL     OW77637   6.428   6.875   2.577  1.1893  0.5225 -0.3292
25399SOL    HW177638   6.503   6.856   2.633  1.6071  0.1356 -1.0168
25399SOL    HW277639   6.465   6.916   2.500  0.5514  1.6046 -0.0752
25400SOL     OW77640   6.736   7.185   2.990 -0.2389 -0.3865 -0.1012
25400SOL    HW177641   6.788   7.156   2.915 -0.3315 -0.8547  0.0104
25400SOL    HW277642   6.681   7.256   2.956  1.8922  1.5445  0.2431
25401SOL     OW77643   6.536   1.061   2.867 -0.6004  0.7635 -0.7326
25401SOL    HW177644   6.565   1.146   2.900 -0.5253 -0.0449  1.4428
25401SOL    HW277645   6.565   1.059   2.776  2.1885  1.8200  0.0279
25402SOL     OW77646   6.044   5.901   4.119 -0.2767 -0.1210 -0.3200
25402SOL    HW177647   5.962   5.873   4.079 -0.6095  1.1054 -0.5039
25402SOL    HW277648   6.068   5.981   4.073 -1.3240  2.0745  2.6527
25403SOL     OW77649   6.465   6.882   2.000 -0.0462  0.0584 -0.1874
25403SOL    HW177650   6.511   6.957   1.961 -2.7340  2.8097  1.4958
25403SOL    HW277651   6.392   6.866   1.940  0.1164 -0.7814 -0.1678
25404SOL     OW77652   0.725   5.589   3.825  0.6059 -0.3446 -0.3328
25404SOL    HW177653   0.758   5.503   3.800  1.5793  0.2750 -1.3060
25404SOL    HW277654   0.804   5.642   3.839  0.0751  0.9638 -1.8979
25405SOL     OW77655   7.153   7.063   5.259 -0.2499  0.2471 -0.2253
25405SOL    HW177656   7.148   7.029   5.349 -1.9796 -0.0830 -0.4089
25405SOL    HW277657   7.246   7.062   5.238  0.6348  3.0517  2.6075
25406SOL     OW77658   7.932   6.085   4.663 -0.2080 -0.0166 -0.5721
25406SOL    HW177659   7.969   6.023   4.601 -0.0562 -0.1132 -0.3878
25406SOL    HW277660   7.842   6.100   4.632 -0.3252 -0.5087 -0.4840
25407SOL     OW77661   6.968   6.880   4.866  1.0758  0.6499  0.2271
25407SOL    HW177662   6.892   6.937   4.862  1.1577  0.6999 -0.8922
25407SOL    HW277663   6.966   6.831   4.784  1.3538 -0.5079  0.8866
25408SOL     OW77664   0.697   7.030   5.529  0.4476 -0.4413 -0.7724
25408SOL    HW177665   0.726   7.049   5.618  0.1563 -0.1522 -0.7389
25408SOL    HW277666   0.625   7.091   5.513  0.1683 -0.8306 -1.0263
25409SOL     OW77667   7.503   7.307   4.614  0.6505  0.0231  0.8293
25409SOL    HW177668   7.466   7.325   4.527 -0.0287  0.5440  1.2153
25409SOL    HW277669   7.460   7.227   4.643  2.1742 -1.1560 -0.0343
25410SOL     OW77670   6.664   0.277   5.233  0.3655  0.1993 -0.3545
25410SOL    HW177671   6.582   0.325   5.248  0.7499  0.7945 -0.1458
25410SOL    HW277672   6.644   0.220   5.158  0.1297  1.2307 -1.0969
25411SOL     OW77673   6.326   0.855   2.956  0.5575 -0.3338 -0.3857
25411SOL    HW177674   6.392   0.913   2.919  0.0205  1.2473  1.0414
25411SOL    HW277675   6.245   0.878   2.912  0.4412 -0.3802 -0.1992
25412SOL     OW77676   1.000   6.027   5.234  0.2432 -0.2065 -0.5762
25412SOL    HW177677   1.063   6.073   5.179 -1.0553 -0.3710 -2.2874
25412SOL    HW277678   1.053   5.987   5.303  1.6908  1.7080 -0.4976
25413SOL     OW77679   6.951   7.558   5.308 -0.3226 -0.2225  0.8038
25413SOL    HW177680   6.922   7.487   5.251 -1.0413  1.0545 -0.4955
25413SOL    HW277681   7.012   7.608   5.254  0.5544 -0.1133  1.8657
25414SOL     OW77682   0.492   6.803   4.774  0.4712  0.2109  0.4052
25414SOL    HW177683   0.580   6.833   4.797  0.1918  0.4057  1.2736
25414SOL    HW277684   0.468   6.742   4.844 -0.7105  1.4038  1.0912
25415SOL     OW77685   1.259   4.766   3.926 -0.2572 -1.2727 -0.2095
25415SOL    HW177686   1.351   4.786   3.944 -0.2583 -1.0279 -0.4813
25415SOL    HW277687   1.214   4.785   4.009 -0.2519 -0.1907 -0.4411
25416SOL     OW77688   6.363   6.163   5.639  0.3977 -0.1452 -0.0282
25416SOL    HW177689   6.393   6.136   5.552 -1.1577  1.3798 -1.1146
25416SOL    HW277690   6.440   6.157   5.695  1.7323 -0.0453 -1.7858
25417SOL     OW77691   1.024   7.798   4.787  0.0499  0.1308  0.1798
25417SOL    HW177692   1.101   7.796   4.843  0.5656  0.1271 -0.5182
25417SOL    HW277693   0.991   7.708   4.787  0.4582 -0.0239 -0.0731
25418SOL     OW77694   6.633   6.827   2.742 -0.2157 -0.4009 -0.1141
25418SOL    HW177695   6.724   6.805   2.723  0.4417  1.9284  0.0080
25418SOL    HW277696   6.632   6.844   2.836  0.0144  2.5357 -0.5377
25419SOL     OW77697   6.791   7.501   4.340 -0.4871  0.2530  0.3302
25419SOL    HW177698   6.857   7.482   4.274 -1.2155 -1.1115 -0.0328
25419SOL    HW277699   6.831   7.569   4.395  0.5979  0.5337 -0.7777
25420SOL     OW77700   6.587   5.828   3.703 -0.4012 -0.5751 -0.5369
25420SOL    HW177701   6.495   5.848   3.686  0.2610  3.0465 -0.6479
25420SOL    HW277702   6.606   5.871   3.787  0.7889 -2.8218  0.4223
25421SOL     OW77703   6.979   0.236   4.253 -1.2823  0.1060 -0.2267
25421SOL    HW177704   6.907   0.285   4.294  0.3228  0.5760  2.2421
25421SOL    HW277705   7.010   0.176   4.322  0.2506 -0.5518 -1.4290
25422SOL     OW77706   0.793   0.428   4.614  0.0261 -0.3705  0.3171
25422SOL    HW177707   0.829   0.403   4.699 -0.0155  0.0100  0.4485
25422SOL    HW277708   0.867   0.419   4.554 -0.3679 -2.2938  0.0685
25423SOL     OW77709   7.809   6.151   6.982 -0.3863  0.9438  0.1155
25423SOL    HW177710   7.873   6.209   7.023 -0.1882  2.0208 -1.6156
25423SOL    HW277711   7.860   6.099   6.920 -1.0615  1.3831 -0.8348
25424SOL     OW77712   6.543   5.688   4.439  0.2635  0.2348  0.3994
25424SOL    HW177713   6.448   5.681   4.437  0.2985 -0.2333  0.0949
25424SOL    HW277714   6.561   5.782   4.445 -0.2125  0.3602 -0.0583
25425SOL     OW77715   6.917   0.608   4.209  0.4755 -0.0115  0.8940
25425SOL    HW177716   6.836   0.615   4.158  1.7531  0.1536 -1.2210
25425SOL    HW277717   6.982   0.654   4.157  1.7905  0.5892  2.9623
25426SOL     OW77718   6.241   6.716   3.736 -0.1566 -0.2803  0.5013
25426SOL    HW177719   6.164   6.764   3.766  0.1891 -0.8136  2.3533
25426SOL    HW277720   6.206   6.648   3.679 -0.7617  1.2763 -1.0866
25427SOL     OW77721   0.432   4.797   0.657 -0.8364  0.1546  0.7004
25427SOL    HW177722   0.446   4.829   0.568 -1.5019  0.1794  0.6012
25427SOL    HW277723   0.517   4.759   0.683 -0.9437 -0.8305 -0.3327
25428SOL     OW77724   7.243   6.670   3.726 -0.4029  0.1123 -0.2171
25428SOL    HW177725   7.262   6.763   3.710  0.0688  0.0029 -0.2893
25428SOL    HW277726   7.295   6.648   3.803 -0.0673 -0.2438 -0.5446
25429SOL     OW77727   7.277   4.745   3.636  0.0634 -0.0010 -0.3503
25429SOL    HW177728   7.329   4.823   3.619 -1.3523  0.9192 -0.5995
25429SOL    HW277729   7.278   4.736   3.731  1.4655 -0.5815 -0.3923
25430SOL     OW77730   7.728   7.370   5.130 -0.5735  0.0708  0.1537
25430SOL    HW177731   7.658   7.407   5.183  0.6380 -0.5435  2.3013
25430SOL    HW277732   7.692   7.289   5.094 -0.6163 -1.0190  2.4313
25431SOL     OW77733   6.233   5.729   4.466 -0.7570  0.8082 -0.1378
25431SOL    HW177734   6.143   5.724   4.497 -0.9172 -2.3204 -0.7232
25431SOL    HW277735   6.230   5.788   4.391 -2.9046 -0.9568 -1.5911
25432SOL     OW77736   7.153   7.507   4.109 -0.0374 -0.8452 -0.0828
25432SOL    HW177737   7.193   7.555   4.181  2.0585  0.0676 -1.7496
25432SOL    HW277738   7.080   7.562   4.080 -0.3721 -0.8268  0.7785
25433SOL     OW77739   7.379   5.823   6.230  0.0328 -1.0877 -0.4115
25433SOL    HW177740   7.437   5.898   6.248  1.3118 -2.0921 -0.2281
25433SOL    HW277741   7.304   5.862   6.184  0.2532  0.4313  0.4210
25434SOL     OW77742   5.342   0.665   4.365 -0.0459 -0.2101 -0.0190
25434SOL    HW177743   5.320   0.757   4.356 -2.9229 -0.8432 -0.4419
25434SOL    HW277744   5.343   0.649   4.459  1.9591  0.5235  0.1131
25435SOL     OW77745   6.303   7.990   2.853 -0.1301 -0.0382  0.4513
25435SOL    HW177746   6.327   7.938   2.930  2.3253  0.0186 -0.1989
25435SOL    HW277747   6.359   7.958   2.783  0.4042  2.3992 -0.3626
25436SOL     OW77748   0.511   6.540   5.305 -0.3507  0.1986 -0.3563
25436SOL    HW177749   0.508   6.591   5.386 -0.8396 -1.0033  0.4213
25436SOL    HW277750   0.597   6.498   5.307 -0.3361  0.2239 -0.4955
25437SOL     OW77751   5.836   0.363   3.752  0.2938  0.2353  0.2987
25437SOL    HW177752   5.892   0.395   3.682 -2.1670 -0.4327 -2.1496
25437SOL    HW277753   5.844   0.429   3.821  1.5326  1.8067 -1.2665
25438SOL     OW77754   7.525   5.858   6.788  0.5022 -0.6062 -0.7638
25438SOL    HW177755   7.507   5.943   6.749  1.9094 -0.0374 -0.2531
25438SOL    HW277756   7.550   5.878   6.878 -2.5633 -1.8603  0.5078
25439SOL     OW77757   0.954   6.616   5.990  0.6729 -0.3056  0.1764
25439SOL    HW177758   1.017   6.586   5.926  0.2178 -2.6275  0.7329
25439SOL    HW277759   0.868   6.593   5.954  0.2489  0.6664  0.4988
25440SOL     OW77760   7.001   2.020   5.984  0.5706 -0.1451 -0.0308
25440SOL    HW177761   7.039   2.080   5.919  1.1711  0.3907  0.7971
25440SOL    HW277762   6.925   2.066   6.018 -0.8697 -1.1944 -1.6448
25441SOL     OW77763   0.496   5.395   3.895 -0.2552  0.2733  0.4077
25441SOL    HW177764   0.445   5.431   3.822 -1.1434  0.6444  1.2041
25441SOL    HW277765   0.555   5.465   3.920 -1.1642  0.7739  1.1823
25442SOL     OW77766   7.858   1.154   6.481 -0.6244 -0.0638 -0.1412
25442SOL    HW177767   7.893   1.242   6.471 -1.8068  0.6148  1.3851
25442SOL    HW277768   7.852   1.141   6.575 -1.1890 -1.4935 -0.3512
25443SOL     OW77769   1.598   6.813   5.658 -0.4572  1.0072 -0.2011
25443SOL    HW177770   1.533   6.867   5.613 -0.2251  2.0010  0.6088
25443SOL    HW277771   1.658   6.877   5.697  0.3451  0.1275  0.0209
25444SOL     OW77772   0.793   6.698   4.643  0.1382  0.2721 -0.4894
25444SOL    HW177773   0.782   6.621   4.698 -1.9150  0.7119 -0.2014
25444SOL    HW277774   0.882   6.729   4.663 -0.5139  0.4716  2.6770
25445SOL     OW77775   7.966   7.447   2.257  0.0048 -0.5958 -0.0595
25445SOL    HW177776   7.915   7.401   2.324 -2.0687 -0.0703 -1.1921
25445SOL    HW277777   8.056   7.422   2.275 -0.7578 -2.8308  1.1226
25446SOL     OW77778   7.275   0.036   4.720 -0.0263 -0.1417 -0.3501
25446SOL    HW177779   7.278   0.120   4.673  1.8939  0.0037 -0.0257
25446SOL    HW277780   7.251  -0.028   4.652  0.3431  0.3991 -1.0068
25447SOL     OW77781   0.333   0.334   4.067 -0.4435  0.0007  0.1196
25447SOL    HW177782   0.389   0.265   4.032 -0.5765 -0.6021  1.0755
25447SOL    HW277783   0.388   0.413   4.066  0.6498 -0.7005  1.6043
25448SOL     OW77784   7.352   1.552   4.451 -0.0208 -0.6651  0.6662
25448SOL    HW177785   7.416   1.611   4.411 -1.3979  0.3399 -0.1101
25448SOL    HW277786   7.318   1.499   4.379 -0.8530 -0.4356  0.8768
25449SOL     OW77787   6.206   6.516   4.025 -0.4307  0.0257 -0.6381
25449SOL    HW177788   6.178   6.433   4.062 -2.2414  0.7510 -0.2845
25449SOL    HW277789   6.131   6.547   3.974  0.2723  1.3544 -0.9340
25450SOL     OW77790   6.645   0.080   4.763 -0.0081 -0.0818  0.4815
25450SOL    HW177791   6.644   0.099   4.669 -0.8333  0.0160  0.5067
25450SOL    HW277792   6.587   0.005   4.773 -1.2483  0.9162  1.1125
25451SOL     OW77793   6.189   0.550   4.302  0.3587 -0.4779  0.1257
25451SOL    HW177794   6.219   0.459   4.294  0.0736 -0.5224 -0.5628
25451SOL    HW277795   6.172   0.562   4.395  1.8978 -0.6383  0.4582
25452SOL     OW77796   7.068   1.010   4.885  0.3366 -0.2865  0.2574
25452SOL    HW177797   6.975   1.016   4.905  0.3315  1.6246 -0.1947
25452SOL    HW277798   7.079   1.061   4.805  1.9741  0.6741  1.0484
25453SOL     OW77799   6.277   7.497   4.234  1.0541  0.5002  0.1304
25453SOL    HW177800   6.236   7.506   4.148 -1.8604  0.3154  1.3837
25453SOL    HW277801   6.356   7.550   4.228 -0.1447  2.2486 -2.0007
25454SOL     OW77802   0.017   7.527   4.687  0.0262 -0.5311 -0.2684
25454SOL    HW177803  -0.021   7.442   4.711  0.9553 -1.0350 -0.5325
25454SOL    HW277804  -0.032   7.591   4.740 -0.9986 -1.1768 -0.4127
25455SOL     OW77805   7.864   6.611   3.054  0.1468 -0.0177  0.4192
25455SOL    HW177806   7.809   6.650   2.985  0.9717  0.4392  0.0121
25455SOL    HW277807   7.845   6.518   3.050 -0.1737  0.0662 -0.1042
25456SOL     OW77808   0.536   6.381   4.849 -0.0583  0.3490 -0.0449
25456SOL    HW177809   0.616   6.426   4.874  0.5102 -0.7703  0.1972
25456SOL    HW277810   0.479   6.388   4.925  1.1328 -1.8261  1.1200
25457SOL     OW77811   7.541   7.619   5.039  0.5211 -0.0181 -0.0960
25457SOL    HW177812   7.626   7.575   5.039  0.6592  0.2124 -1.0706
25457SOL    HW277813   7.562   7.711   5.025  0.0288 -0.2990 -3.4677
25458SOL     OW77814   7.585   7.940   4.316  0.1626  0.0828  0.3518
25458SOL    HW177815   7.644   7.941   4.391  1.7882  0.3517 -0.8650
25458SOL    HW277816   7.623   7.874   4.258 -0.3935  0.6866 -0.7242
25459SOL     OW77817   7.163   0.450   5.901  0.0107 -0.2666 -0.2799
25459SOL    HW177818   7.229   0.410   5.845  0.3733  0.5095 -0.4257
25459SOL    HW277819   7.099   0.381   5.916 -0.1134 -0.4747 -1.6761
25460SOL     OW77820   0.284   1.750   4.139 -0.0542  0.1682 -0.4259
25460SOL    HW177821   0.286   1.769   4.045 -0.8242  0.1531 -0.4536
25460SOL    HW277822   0.373   1.764   4.168  0.2201  0.0716 -1.1847
25461SOL     OW77823   7.686   7.706   5.677  0.4559 -0.0387 -0.2912
25461SOL    HW177824   7.753   7.674   5.737  0.2456 -0.7751 -0.4371
25461SOL    HW277825   7.605   7.663   5.705  0.5532 -1.2838 -1.7463
25462SOL     OW77826   7.260   6.262   3.883 -0.2549 -0.3217  0.1370
25462SOL    HW177827   7.227   6.172   3.895 -0.8291 -0.1374 -0.0165
25462SOL    HW277828   7.232   6.286   3.795 -0.0757 -0.0042  0.1666
25463SOL     OW77829   7.502   6.504   3.923  0.3261  0.1558 -0.2962
25463SOL    HW177830   7.455   6.575   3.967  3.0325  0.3795  2.5824
25463SOL    HW277831   7.477   6.425   3.972  1.4805  0.0056  0.0728
25464SOL     OW77832   0.123   7.633   7.144 -0.6148 -0.1485 -0.4060
25464SOL    HW177833   0.122   7.718   7.101 -1.9032 -0.5372 -1.2071
25464SOL    HW277834   0.214   7.622   7.173 -0.5754  1.8038  0.3949
25465SOL     OW77835   6.089   7.990   5.283  0.5261 -0.0267  0.1079
25465SOL    HW177836   6.136   7.995   5.366 -0.6170 -0.9947  0.8228
25465SOL    HW277837   5.997   7.997   5.306  0.1405 -1.2074 -0.9836
25466SOL     OW77838   2.065   6.587   5.250  0.0385 -0.2567 -0.3968
25466SOL    HW177839   1.970   6.594   5.245  0.1412  1.1852 -0.7299
25466SOL    HW277840   2.095   6.676   5.269  1.3596 -0.5404 -1.0019
25467SOL     OW77841   0.068   6.873   3.883 -0.0004 -0.1471 -0.3268
25467SOL    HW177842  -0.026   6.872   3.864 -0.0289 -0.7946 -0.1932
25467SOL    HW277843   0.098   6.786   3.856  0.5730  0.0825 -0.4297
25468SOL     OW77844   7.193   6.858   3.344 -0.9549  0.1547  0.4731
25468SOL    HW177845   7.219   6.950   3.342  1.0192 -0.3789 -1.0203
25468SOL    HW277846   7.105   6.858   3.306 -0.8608  1.3983  0.2091
25469SOL     OW77847   6.926   6.458   5.283  0.1214 -0.1482  0.5437
25469SOL    HW177848   6.994   6.392   5.298  0.6498  0.2157 -0.2039
25469SOL    HW277849   6.948   6.497   5.199 -1.4403 -0.5341 -0.0690
25470SOL     OW77850   6.874   5.342   6.496  0.4601 -0.3231  0.0178
25470SOL    HW177851   6.898   5.250   6.508  0.4499 -0.3061  0.1617
25470SOL    HW277852   6.954   5.383   6.461  0.2089 -0.5613 -0.8508
25471SOL     OW77853   6.912   7.230   5.468  0.2498 -0.4170 -0.2127
25471SOL    HW177854   6.831   7.189   5.438  1.1502 -1.6491 -1.0837
25471SOL    HW277855   6.953   7.262   5.387  0.5994  0.2777  0.2312
25472SOL     OW77856   0.343   7.077   6.347  0.7456  0.3884  0.1340
25472SOL    HW177857   0.417   7.061   6.290  0.6605  0.0865  0.1019
25472SOL    HW277858   0.282   7.129   6.295 -0.3294 -1.7335 -0.8855
25473SOL     OW77859   6.499   4.469   7.133 -1.1129  0.3144 -0.5768
25473SOL    HW177860   6.406   4.449   7.120 -1.6480  2.0991  0.1624
25473SOL    HW277861   6.511   4.471   7.228 -0.8552  2.1170 -0.5991
25474SOL     OW77862   0.294   5.375   6.231 -0.8173  0.0473  0.0798
25474SOL    HW177863   0.374   5.322   6.231 -1.8803 -1.6467  0.9340
25474SOL    HW277864   0.282   5.401   6.140 -0.0327 -0.8577 -0.2960
25475SOL     OW77865   0.563   7.688   6.327  0.3585 -0.0682  0.0735
25475SOL    HW177866   0.608   7.746   6.388 -2.1761 -0.1238  2.1507
25475SOL    HW277867   0.564   7.735   6.244  2.7395  0.6125  0.4191
25476SOL     OW77868   7.310   7.489   6.220  0.6472 -0.8519 -0.1615
25476SOL    HW177869   7.233   7.522   6.267 -0.1023 -0.8228 -1.3501
25476SOL    HW277870   7.299   7.394   6.220  2.3548 -1.1299  2.5085
25477SOL     OW77871   7.869   6.958   9.147 -0.4759 -0.1585  0.0319
25477SOL    HW177872   7.836   6.929   9.062  1.0183  0.4426 -0.7957
25477SOL    HW277873   7.939   7.019   9.126  1.5567 -1.7890  1.6466
25478SOL     OW77874   0.480   7.634   5.558  0.2642 -0.3829  0.4261
25478SOL    HW177875   0.529   7.556   5.530  0.6412  0.3315 -0.9684
25478SOL    HW277876   0.454   7.614   5.648  3.0810 -0.8327  1.2339
25479SOL     OW77877   7.244   7.249   7.184  0.0084 -0.3259  0.3984
25479SOL    HW177878   7.339   7.258   7.189  0.0276 -0.0691 -0.3407
25479SOL    HW277879   7.211   7.338   7.197 -0.2210 -0.6400  2.2666
25480SOL     OW77880   6.576   5.027   8.691  0.2029  0.0859  0.3178
25480SOL    HW177881   6.540   5.062   8.610 -0.2689  0.2497  0.5955
25480SOL    HW277882   6.588   4.934   8.674 -0.2780  0.0432  0.1931
25481SOL     OW77883   1.394   4.540   8.500  0.4254 -0.1475  0.3157
25481SOL    HW177884   1.430   4.607   8.559  0.6782  0.2935 -0.3216
25481SOL    HW277885   1.418   4.457   8.541  1.2295  0.1438  0.4744
25482SOL     OW77886   0.136   6.307   5.443  0.1439  0.1187 -0.0958
25482SOL    HW177887   0.080   6.359   5.501  0.0147  0.6720 -0.7103
25482SOL    HW277888   0.170   6.237   5.499 -0.9253 -0.0553  0.3681
25483SOL     OW77889   6.330   6.258   6.509  0.5597 -0.3796  0.3605
25483SOL    HW177890   6.384   6.336   6.510 -0.2033  0.1574  1.1898
25483SOL    HW277891   6.296   6.250   6.598 -1.7790  0.0732 -0.4125
25484SOL     OW77892   7.041   7.751   5.568 -0.4920 -0.1645 -0.3974
25484SOL    HW177893   7.090   7.712   5.640  0.2653  1.3405 -0.0479
25484SOL    HW277894   6.953   7.714   5.576 -0.2572 -0.4939  0.9416
25485SOL     OW77895   0.003   6.516   7.405 -0.0298  0.0110 -0.2418
25485SOL    HW177896  -0.081   6.563   7.399  0.4427  1.1047  1.0786
25485SOL    HW277897   0.048   6.539   7.324 -0.5965  0.2675 -0.4941
25486SOL     OW77898   7.594   7.168   6.276  0.3157 -0.0138  0.6012
25486SOL    HW177899   7.500   7.187   6.283  0.4299  0.1179  2.4747
25486SOL    HW277900   7.630   7.199   6.359  1.9010 -0.7698  0.2286
25487SOL     OW77901   6.957   0.264   4.728  0.7386  0.4853  0.5084
25487SOL    HW177902   6.998   0.348   4.751  0.3215  0.8700 -0.1141
25487SOL    HW277903   6.973   0.208   4.804 -0.1118  1.5311  1.4993
25488SOL     OW77904   0.297   6.375   8.613 -0.4740 -0.2095  0.2310
25488SOL    HW177905   0.262   6.442   8.554 -0.1403 -0.7491 -0.6003
25488SOL    HW277906   0.246   6.297   8.593 -2.4420  0.2959  2.7933
25489SOL     OW77907   0.495   5.631   6.746 -0.7372  0.1762  0.2115
25489SOL    HW177908   0.531   5.718   6.764 -1.8015  0.2767  2.1591
25489SOL    HW277909   0.561   5.570   6.781 -0.4573  0.2205 -0.2325
25490SOL     OW77910   0.108   6.444   6.278 -0.1266 -0.2836 -0.2259
25490SOL    HW177911   0.163   6.471   6.205  1.4276 -1.0653  0.6148
25490SOL    HW277912   0.018   6.456   6.246  0.4970  1.6245 -1.4049
25491SOL     OW77913   7.727   0.624   5.878  0.1500 -0.0997 -0.3708
25491SOL    HW177914   7.726   0.592   5.969 -0.3088  1.1983  0.0952
25491SOL    HW277915   7.761   0.550   5.828 -2.5550 -2.0541  0.4159
25492SOL     OW77916   7.308   5.995   4.340 -0.3829 -0.2259 -0.2275
25492SOL    HW177917   7.400   6.018   4.346  0.1021 -1.6834 -1.5843
25492SOL    HW277918   7.287   5.957   4.426 -0.3620  2.0580  0.8769
25493SOL     OW77919   1.408   6.045   5.765  0.0740 -0.7370  0.8884
25493SOL    HW177920   1.381   6.010   5.850  1.0391 -3.1060  0.3191
25493SOL    HW277921   1.452   6.127   5.784  0.0192 -1.0954  2.6597
25494SOL     OW77922   0.016   4.498   6.199 -0.1278 -0.5332 -0.2958
25494SOL    HW177923   0.048   4.407   6.197  4.1367  0.7670 -0.7297
25494SOL    HW277924   0.008   4.522   6.107  2.4458  0.5557 -0.2940
25495SOL     OW77925   0.226   7.626   4.875  0.1965 -0.5500 -0.3475
25495SOL    HW177926   0.206   7.571   4.951 -1.0737  0.1950 -0.1166
25495SOL    HW277927   0.151   7.615   4.817 -1.2254  2.5653  0.6624
25496SOL     OW77928   7.453   4.918   8.201 -0.2066  0.3645  0.3147
25496SOL    HW177929   7.422   4.827   8.199 -0.6950  0.4988  1.4633
25496SOL    HW277930   7.383   4.968   8.158 -0.7550  0.4258  1.2694
25497SOL     OW77931   2.778   4.905   7.633 -0.1093  0.1886  0.1106
25497SOL    HW177932   2.724   4.897   7.555 -0.6306  0.1314  0.4737
25497SOL    HW277933   2.868   4.900   7.601 -0.3310 -0.4768 -0.4131
25498SOL     OW77934   0.473   7.318   6.082 -0.3119 -0.0625 -0.5663
25498SOL    HW177935   0.555   7.270   6.068 -1.1824 -1.2013 -2.1486
25498SOL    HW277936   0.407   7.250   6.095 -1.0885  0.8229  0.2701
25499SOL     OW77937   0.766   0.615   6.816  0.1509  0.5739 -0.8931
25499SOL    HW177938   0.695   0.674   6.843 -0.8988 -1.0829  0.1639
25499SOL    HW277939   0.787   0.566   6.896  1.1084 -0.3420 -1.6909
25500SOL     OW77940   1.467   6.670   4.776  0.4081 -0.4154 -0.4438
25500SOL    HW177941   1.469   6.588   4.727 -1.0885 -1.0162  0.4114
25500SOL    HW277942   1.472   6.739   4.709 -0.4557 -1.2058 -1.3497
25501SOL     OW77943   7.189   6.143   6.950  0.0647 -0.4358  0.0691
25501SOL    HW177944   7.239   6.096   7.017  1.2580 -1.2745 -1.3415
25501SOL    HW277945   7.098   6.127   6.972  0.4431 -1.7367  0.7840
25502SOL     OW77946   7.932   6.360   8.875 -0.0750  0.5814 -0.3073
25502SOL    HW177947   8.014   6.367   8.924 -1.6826  1.9524  2.4917
25502SOL    HW277948   7.903   6.451   8.865 -1.8307  0.0827 -0.0659
25503SOL     OW77949   5.457   7.795   8.831  0.0247 -0.3882 -0.3698
25503SOL    HW177950   5.498   7.876   8.864 -0.3006  0.4430 -1.9101
25503SOL    HW277951   5.524   7.757   8.773 -0.0919 -0.8668 -0.1952
25504SOL     OW77952   5.860   5.542   7.811  0.3244  0.0314  0.3913
25504SOL    HW177953   5.821   5.630   7.813  0.2262 -0.0057  0.1281
25504SOL    HW277954   5.914   5.542   7.732 -0.0478 -0.3039  0.1335
25505SOL     OW77955   6.695   5.955   6.856 -0.2055 -0.3612  0.9949
25505SOL    HW177956   6.773   5.900   6.855  0.0769  0.0266  0.4504
25505SOL    HW277957   6.622   5.894   6.855  0.0819 -0.7943 -1.7714
25506SOL     OW77958   7.602   4.502   8.788  0.1493  0.3781 -0.2034
25506SOL    HW177959   7.675   4.476   8.845  0.1086 -0.1844 -0.4029
25506SOL    HW277960   7.524   4.469   8.833  0.1433 -0.3818 -0.7467
25507SOL     OW77961   0.258   4.533   8.356 -0.5030  0.4955  0.1622
25507SOL    HW177962   0.170   4.496   8.358 -0.3950 -0.0844 -2.0241
25507SOL    HW277963   0.249   4.615   8.308 -0.0839  1.2668  1.3672
25508SOL     OW77964   0.655   6.513   6.976 -0.2987 -0.1951 -0.4127
25508SOL    HW177965   0.704   6.479   7.051 -0.5807 -1.8401 -0.9375
25508SOL    HW277966   0.705   6.589   6.947  0.3398 -0.1120  0.8443
25509SOL     OW77967   0.903   7.302   8.003  0.7627 -0.4006 -0.0562
25509SOL    HW177968   0.925   7.320   7.911  0.2528  1.7712  0.1761
25509SOL    HW277969   0.898   7.207   8.009 -0.3139 -0.5750 -2.5759
25510SOL     OW77970   0.419   6.824   7.240  0.4807 -0.1629  0.4445
25510SOL    HW177971   0.328   6.853   7.237  0.6872  0.4411 -0.8223
25510SOL    HW277972   0.417   6.744   7.293 -0.8262 -0.3153  0.2004
25511SOL     OW77973   7.164   5.685   7.945  0.0844  0.4431 -0.0691
25511SOL    HW177974   7.236   5.622   7.937  1.6746  1.9466  1.4448
25511SOL    HW277975   7.205   5.770   7.932 -0.1829  1.8571  5.6436
25512SOL     OW77976   6.499   5.918   4.050  0.9079 -0.4625  0.4068
25512SOL    HW177977   6.564   5.890   4.114 -0.6350 -1.3704  1.6584
25512SOL    HW277978   6.445   5.840   4.035 -0.3512  0.4545 -0.0051
25513SOL     OW77979   7.707   6.665   5.962  0.2684 -0.0408 -0.3000
25513SOL    HW177980   7.718   6.570   5.957 -0.4681 -0.1806  0.5145
25513SOL    HW277981   7.751   6.689   6.044  0.5083  0.3383 -0.5350
25514SOL     OW77982   6.972   6.553   7.427 -0.4210  0.2044  0.2413
25514SOL    HW177983   6.909   6.515   7.487  0.0369 -0.8419  0.0901
25514SOL    HW277984   6.930   6.546   7.341 -0.5941  0.6164  0.2930
25515SOL     OW77985   7.015   5.633   6.211 -0.3936  0.6147 -0.4296
25515SOL    HW177986   6.950   5.654   6.144  0.5893  0.4282 -1.4780
25515SOL    HW277987   7.047   5.546   6.187 -0.6816  0.1398  0.8299
25516SOL     OW77988   7.780   6.514   4.547 -0.0025  0.1114 -0.3156
25516SOL    HW177989   7.869   6.507   4.514  0.5974  1.7728  0.8645
25516SOL    HW277990   7.744   6.593   4.506 -1.2397 -0.9615 -1.3978
25517SOL     OW77991   7.978   7.049   6.668 -0.2344  0.5096  0.4084
25517SOL    HW177992   8.036   6.973   6.675 -1.6086 -0.5963  0.0722
25517SOL    HW277993   8.024   7.118   6.716  1.1191 -0.4658  0.5821
25518SOL     OW77994   7.364   6.994   5.998  0.3249 -0.4631  0.2201
25518SOL    HW177995   7.356   6.923   6.062 -0.0205 -0.0661  0.6174
25518SOL    HW277996   7.454   6.986   5.965  0.3166 -1.0324  0.3195
25519SOL     OW77997   6.655   6.394   5.956 -0.4483  0.9212 -0.1236
25519SOL    HW177998   6.585   6.349   6.003 -2.4396  2.3869 -1.4905
25519SOL    HW277999   6.721   6.326   5.940 -2.2495 -0.9304 -0.1027
25520SOL     OW78000   7.337   7.659   5.710 -0.5679 -0.1422 -0.2983
25520SOL    HW178001   7.365   7.569   5.698  1.2717  0.3080  0.2629
25520SOL    HW278002   7.388   7.709   5.646  0.6066  0.8262  1.3287
25521SOL     OW78003   1.463   2.141   5.883  0.2802 -0.0849 -0.3814
25521SOL    HW178004   1.438   2.152   5.791 -0.1375 -0.8280 -0.3601
25521SOL    HW278005   1.417   2.062   5.911 -0.7877  0.9528  0.9047
25522SOL     OW78006   6.642   4.648   6.472  0.4575  0.1101  0.5800
25522SOL    HW178007   6.580   4.582   6.502 -1.3346  1.8339  0.8807
25522SOL    HW278008   6.725   4.602   6.465 -0.9729 -2.5029 -0.5669
25523SOL     OW78009   7.983   5.623   9.240 -0.2911 -0.3205 -0.5748
25523SOL    HW178010   7.919   5.588   9.302  0.4346 -1.5832 -0.5006
25523SOL    HW278011   8.067   5.588   9.270  0.2051 -0.1353 -1.6971
25524SOL     OW78012   4.843   7.696   6.091 -0.2317  0.3443  0.0019
25524SOL    HW178013   4.910   7.760   6.067 -0.4459  0.7321  0.4249
25524SOL    HW278014   4.892   7.619   6.120  0.0277  0.7342  0.5942
25525SOL     OW78015   6.854   6.642   5.650  0.1287 -0.1295  0.5646
25525SOL    HW178016   6.857   6.734   5.624 -1.9467  0.0506  0.8026
25525SOL    HW278017   6.774   6.608   5.610  1.1627 -2.0435 -0.0511
25526SOL     OW78018   0.090   7.099   7.611 -0.7309  0.0549  0.3609
25526SOL    HW178019   0.020   7.097   7.545  0.9344 -0.4698 -1.4685
25526SOL    HW278020   0.170   7.115   7.561  0.4517  1.1053  2.4421
25527SOL     OW78021   6.642   7.095   3.764 -0.4561 -0.2936 -0.1670
25527SOL    HW178022   6.557   7.062   3.792  0.5863 -1.8330  1.4556
25527SOL    HW278023   6.660   7.050   3.682 -1.1476 -0.0441 -0.4605
25528SOL     OW78024   7.161   5.902   6.641 -0.4803  0.3161 -0.1117
25528SOL    HW178025   7.080   5.872   6.600  0.1289 -0.8553 -0.4789
25528SOL    HW278026   7.230   5.850   6.600  0.4880  1.4127  0.0775
25529SOL     OW78027   7.904   7.124   7.385  0.0816 -0.1529  0.8120
25529SOL    HW178028   7.929   7.097   7.297 -0.5997 -0.1847  0.6258
25529SOL    HW278029   7.863   7.046   7.423 -1.8522  0.5412  0.2926
25530SOL     OW78030   1.088   0.014   7.767 -0.3300 -0.0884  0.1364
25530SOL    HW178031   1.136  -0.068   7.774  1.7022  0.7778 -2.1144
25530SOL    HW278032   1.027   0.001   7.694  1.3973  0.9314 -1.5766
25531SOL     OW78033   6.481   0.392   4.514  0.1542 -0.0030  0.1940
25531SOL    HW178034   6.472   0.481   4.480 -0.7825  0.4150  1.4273
25531SOL    HW278035   6.392   0.356   4.512  0.4079 -0.6573  0.3431
25532SOL     OW78036   0.791   6.673   7.370 -0.1325 -0.1023  0.0078
25532SOL    HW178037   0.794   6.755   7.321 -1.3108  0.3757  0.6823
25532SOL    HW278038   0.812   6.606   7.305  0.6787  0.7084 -0.5910
25533SOL     OW78039   7.565   5.224   7.429 -0.0704 -0.1744 -0.4389
25533SOL    HW178040   7.495   5.287   7.447 -1.6087 -1.7244 -0.7056
25533SOL    HW278041   7.581   5.232   7.336 -0.1048 -0.0135 -0.4316
25534SOL     OW78042   0.444   0.566   6.116  0.0743  0.1924 -0.1832
25534SOL    HW178043   0.525   0.533   6.078 -0.2439  1.0979 -1.7411
25534SOL    HW278044   0.378   0.502   6.092 -0.4865  1.6523 -2.9486
25535SOL     OW78045   6.584   6.095   7.267  0.2996  0.3986 -0.0152
25535SOL    HW178046   6.499   6.069   7.230 -0.1712  1.0696  0.5690
25535SOL    HW278047   6.626   6.013   7.290 -0.3124  0.0676 -0.0530
25536SOL     OW78048   0.547   7.488   7.537 -0.1620  0.1582 -0.1642
25536SOL    HW178049   0.534   7.398   7.569 -1.4769  0.9724  1.7637
25536SOL    HW278050   0.460   7.517   7.511 -0.0415  1.3989  0.7304
25537SOL     OW78051   6.532   3.814   7.725  0.2102 -0.3990  0.4281
25537SOL    HW178052   6.521   3.783   7.815  2.2718 -1.4439  0.3836
25537SOL    HW278053   6.627   3.826   7.716 -0.0800  1.0413 -1.1863
25538SOL     OW78054   6.048   5.965   8.002 -0.2109  0.2192  0.0046
25538SOL    HW178055   5.959   5.987   7.973 -0.3840  0.4622  0.6889
25538SOL    HW278056   6.044   5.973   8.098  0.2131 -0.9937  0.1368
25539SOL     OW78057   7.914   5.928   8.414  0.0872  0.9980 -0.2647
25539SOL    HW178058   7.945   5.839   8.404 -1.1865  0.4984  0.0506
25539SOL    HW278059   7.994   5.981   8.417  0.8413 -0.0622 -0.9692
25540SOL     OW78060   0.646   7.554   7.170 -0.0419  0.0305  0.4397
25540SOL    HW178061   0.662   7.464   7.141 -1.6451 -0.0248 -0.4001
25540SOL    HW278062   0.651   7.605   7.089  2.0223  0.9264  1.0606
25541SOL     OW78063   0.297   1.337   6.110 -0.3142 -0.3164 -0.4856
25541SOL    HW178064   0.216   1.289   6.093 -0.4384 -0.1165 -0.4612
25541SOL    HW278065   0.346   1.331   6.029 -1.0776  0.9780 -1.0883
25542SOL     OW78066   7.458   7.348   6.904  0.0641 -0.2384 -0.0486
25542SOL    HW178067   7.441   7.256   6.921 -1.4053 -0.3430 -1.7599
25542SOL    HW278068   7.553   7.353   6.893  0.3827 -1.1717  1.8327
25543SOL     OW78069   7.042   6.858   9.323  0.0753 -0.1045 -0.6388
25543SOL    HW178070   6.956   6.819   9.307 -0.3152  0.8664 -1.0662
25543SOL    HW278071   7.060   6.908   9.243 -0.0013  1.5276  0.3115
25544SOL     OW78072   6.646   7.133   6.062 -0.4769 -0.1916  0.6017
25544SOL    HW178073   6.600   7.206   6.019  0.0365  0.2129  0.7326
25544SOL    HW278074   6.692   7.089   5.991 -0.7753 -0.3808  0.5246
25545SOL     OW78075   6.902   6.224   7.005 -0.0673  0.6032 -0.2334
25545SOL    HW178076   6.826   6.281   7.017  0.4444  1.0909  0.8797
25545SOL    HW278077   6.870   6.136   7.026 -0.7944  0.4949 -1.6913
25546SOL     OW78078   0.378   0.255  10.691  0.1051 -0.0382  0.3975
25546SOL    HW178079   0.287   0.265  10.665  0.6999  0.6496 -1.6007
25546SOL    HW278080   0.380   0.283  10.783 -1.6289  0.1885  0.4000
25547SOL     OW78081   6.240   5.297  10.012  0.5533  0.0555 -0.0891
25547SOL    HW178082   6.190   5.369   9.974  0.0316  0.2082  0.8450
25547SOL    HW278083   6.271   5.332  10.096  1.8300 -0.2059 -0.4385
25548SOL     OW78084   0.549   6.754   7.842 -0.4370 -0.2502  0.4211
25548SOL    HW178085   0.472   6.798   7.806 -0.5454  0.0089  0.9582
25548SOL    HW278086   0.601   6.730   7.765 -1.2981 -0.8876  0.0177
25549SOL     OW78087   0.172   6.949   7.327 -0.0347 -0.0550  0.0590
25549SOL    HW178088   0.171   7.039   7.357  0.9473  1.0413 -2.7907
25549SOL    HW278089   0.110   6.947   7.254  0.7332 -1.3720 -0.6043
25550SOL     OW78090   1.680   1.629   9.612 -0.0319  0.5533  0.3966
25550SOL    HW178091   1.771   1.613   9.588 -0.2978 -0.6595  0.1352
25550SOL    HW278092   1.681   1.636   9.708  0.4362  1.2930  0.3416
25551SOL     OW78093   7.520   4.844   5.393 -0.4833  0.2142  0.2862
25551SOL    HW178094   7.459   4.914   5.366 -1.2911 -0.8980 -0.8866
25551SOL    HW278095   7.537   4.861   5.486 -0.2377  2.2675 -0.0881
25552SOL     OW78096   7.132   7.415   8.228  0.0625 -0.0771  0.5782
25552SOL    HW178097   7.182   7.441   8.150 -1.0779  1.8321  0.4020
25552SOL    HW278098   7.072   7.348   8.196  0.2242  0.0406  0.0060
25553SOL     OW78099   7.387   7.727   6.406  0.1242  0.0370 -0.1533
25553SOL    HW178100   7.423   7.681   6.330  0.2246  0.5987 -0.4467
25553SOL    HW278101   7.463   7.758   6.454  0.0552  0.0071 -0.0261
25554SOL     OW78102   7.445   0.399   8.319 -0.1414  1.0294  0.1552
25554SOL    HW178103   7.490   0.415   8.402  1.2088 -0.2004 -0.2884
25554SOL    HW278104   7.487   0.320   8.284 -1.1973  1.0864 -1.3446
25555SOL     OW78105   7.729   7.305   8.790  0.4023 -0.0934  0.4557
25555SOL    HW178106   7.644   7.348   8.796  0.9514  0.9180  1.8339
25555SOL    HW278107   7.714   7.228   8.736 -1.3137  0.2150  0.4370
25556SOL     OW78108   0.874   7.833   9.035  0.0142 -0.2813  0.3154
25556SOL    HW178109   0.903   7.773   8.966  1.1166  0.2927  0.2639
25556SOL    HW278110   0.910   7.797   9.116  0.7478  0.3417  0.2741
25557SOL     OW78111   6.073   5.917   7.206 -0.4569 -0.0870 -0.4222
25557SOL    HW178112   6.034   5.998   7.239  0.9909 -0.1342  1.6491
25557SOL    HW278113   6.154   5.908   7.256  0.0557 -2.1577 -1.5162
25558SOL     OW78114   7.502   3.969   9.135  0.0850 -0.2220  0.2091
25558SOL    HW178115   7.421   4.011   9.106 -0.2102 -1.6641 -1.2024
25558SOL    HW278116   7.496   3.879   9.103  1.2857 -0.9990  1.9617
25559SOL     OW78117   0.813   5.172   8.680 -0.4430 -0.0769  0.5977
25559SOL    HW178118   0.827   5.263   8.652 -1.7442  0.3243  1.1370
25559SOL    HW278119   0.873   5.160   8.753 -0.5155  0.4942  0.7635
25560SOL     OW78120   7.254   7.071   8.112 -0.3137 -0.3164  0.0587
25560SOL    HW178121   7.269   6.981   8.138 -1.1381 -0.0199  1.6761
25560SOL    HW278122   7.338   7.114   8.124 -0.2522 -0.5761  0.5664
25561SOL     OW78123   6.609   7.246   8.763  0.1895 -0.1323 -0.0634
25561SOL    HW178124   6.693   7.207   8.738  0.6789  0.2577  0.9359
25561SOL    HW278125   6.624   7.281   8.850 -0.7965  0.6226 -0.1853
25562SOL     OW78126   0.984   0.927   9.576 -0.9611  0.0635 -0.0146
25562SOL    HW178127   0.965   0.965   9.490 -0.8267 -1.6208 -0.8234
25562SOL    HW278128   1.042   0.990   9.618  0.0222  0.3242 -1.6845
25563SOL     OW78129   0.535   6.312   8.935 -0.5413  0.2957 -0.0721
25563SOL    HW178130   0.493   6.389   8.897  0.7419  1.3655  0.5568
25563SOL    HW278131   0.586   6.275   8.863 -1.4660 -0.2225 -0.4792
25564SOL     OW78132   0.183   7.871   9.398  0.0415 -0.3392  0.1031
25564SOL    HW178133   0.190   7.924   9.319 -1.8870  0.1783  0.2178
25564SOL    HW278134   0.268   7.878   9.441  0.7752  0.2097 -1.4011
25565SOL     OW78135   0.201   7.357   8.432 -0.5022 -0.0256 -0.1149
25565SOL    HW178136   0.193   7.438   8.482 -0.5002 -0.7919  1.2000
25565SOL    HW278137   0.146   7.370   8.355  0.3404  1.6001 -0.4676
25566SOL     OW78138   0.231   0.761   8.973  0.4080 -0.2855  0.2943
25566SOL    HW178139   0.207   0.853   8.987 -1.4032 -0.7078  0.1837
25566SOL    HW278140   0.178   0.734   8.898 -0.2589 -1.8474  1.2873
25567SOL     OW78141   5.893   6.037   7.676 -0.4361  0.1912 -0.0546
25567SOL    HW178142   5.840   6.005   7.749 -0.0026 -0.7672 -0.1406
25567SOL    HW278143   5.849   6.117   7.647 -0.8287  0.3716  1.0029
25568SOL     OW78144   0.297   6.366   9.176 -0.1364 -0.4038  0.4279
25568SOL    HW178145   0.228   6.304   9.199  2.4036 -3.9042 -0.5283
25568SOL    HW278146   0.310   6.354   9.082  1.8242  0.0144  0.6009
25569SOL     OW78147   0.490   7.017   9.791 -0.3977  0.0477 -0.5810
25569SOL    HW178148   0.438   7.051   9.718 -1.7477 -1.7780 -0.5332
25569SOL    HW278149   0.488   6.922   9.780 -0.8379 -0.3061  1.9227
25570SOL     OW78150   7.354   6.455  10.941  0.8240 -0.0862 -0.2192
25570SOL    HW178151   7.312   6.460  11.027  0.6507 -1.3372 -0.2146
25570SOL    HW278152   7.393   6.542  10.929 -0.5208  0.6463  0.4093
25571SOL     OW78153   0.072   0.339   8.861  0.2047  0.4028  0.2325
25571SOL    HW178154   0.153   0.371   8.823 -0.3929 -1.8482 -3.5111
25571SOL    HW278155   0.016   0.416   8.869  1.1719  1.3590 -1.6370
25572SOL     OW78156   0.530   5.612   8.731 -0.4306 -0.3297  0.1206
25572SOL    HW178157   0.523   5.646   8.642  1.3066 -0.8418 -0.2619
25572SOL    HW278158   0.582   5.677   8.778 -0.7693 -0.3893  0.5908
25573SOL     OW78159   0.487   7.958   9.071 -0.5436  0.1330  0.5012
25573SOL    HW178160   0.543   8.007   9.010  0.2489 -0.6321  0.5990
25573SOL    HW278161   0.500   7.866   9.047  2.1353 -0.5167  3.6181
25574SOL     OW78162   6.919   6.237  11.071  1.0171  0.1147 -0.3535
25574SOL    HW178163   6.992   6.242  11.133  1.8452  0.8802 -1.3525
25574SOL    HW278164   6.878   6.324  11.076  1.1591  0.2203 -0.9473
25575SOL     OW78165   7.886   7.305  10.889 -0.1042 -0.1394 -0.6574
25575SOL    HW178166   7.797   7.340  10.889 -0.8148 -1.7947 -0.1080
25575SOL    HW278167   7.909   7.295  10.797 -0.8085 -0.3904 -0.8118
25576SOL     OW78168   6.903   7.391  10.127  0.6162 -0.3026  0.2010
25576SOL    HW178169   6.963   7.376  10.053 -1.0998  0.5412 -1.4278
25576SOL    HW278170   6.857   7.307  10.136  1.0890 -0.5275  0.5848
25577SOL     OW78171   1.274   7.177  10.090 -0.1689  0.7504  0.2904
25577SOL    HW178172   1.341   7.109  10.079  0.1995  1.2889 -0.9351
25577SOL    HW278173   1.223   7.174  10.009 -1.3596  0.6602  1.0205
25578SOL     OW78174   0.184   7.421   7.753  0.4564  0.1083 -0.8040
25578SOL    HW178175   0.105   7.406   7.805  1.5554 -1.0288  0.6657
25578SOL    HW278176   0.217   7.505   7.784  1.5493 -0.9412  1.0498
25579SOL     OW78177   7.197   6.426   8.899 -0.5963 -0.0190  0.7146
25579SOL    HW178178   7.139   6.405   8.826  2.3294 -1.5197 -1.3704
25579SOL    HW278179   7.177   6.361   8.966 -1.0056 -0.8440 -0.1848
25580SOL     OW78180   0.953   7.734   6.983 -0.1311 -0.8315 -0.0116
25580SOL    HW178181   0.999   7.724   7.067 -0.9830  0.3695  0.6397
25580SOL    HW278182   0.861   7.713   7.004 -0.5333  0.4867 -0.3765
25581SOL     OW78183   7.870   7.739   9.628 -0.1706  0.2471 -0.4681
25581SOL    HW178184   7.954   7.699   9.604 -0.8117 -1.0510 -0.6182
25581SOL    HW278185   7.890   7.789   9.707  0.2355 -2.1869  1.0671
25582SOL     OW78186   0.105   7.407   7.475  0.1961 -0.1416 -0.5720
25582SOL    HW178187   0.012   7.411   7.497  0.4415 -2.2212  1.2526
25582SOL    HW278188   0.147   7.383   7.558  2.2133 -0.3915 -1.6293
25583SOL     OW78189   0.699   0.289   8.324  0.3715  0.3433 -0.3766
25583SOL    HW178190   0.689   0.305   8.418  0.8060  0.6314 -0.3735
25583SOL    HW278191   0.722   0.375   8.287 -2.7346  0.9483 -1.2177
25584SOL     OW78192   7.428   7.123   7.618  0.2190  0.1780 -0.0235
25584SOL    HW178193   7.469   7.100   7.535  0.6343  3.6954 -0.9583
25584SOL    HW278194   7.359   7.057   7.629  2.0279 -2.1395 -1.5923
25585SOL     OW78195   7.252   0.237   8.996 -0.4243  0.3036  0.5544
25585SOL    HW178196   7.317   0.246   9.065 -1.1851 -1.4776  1.5695
25585SOL    HW278197   7.169   0.255   9.039 -0.7937  0.5675 -0.2511
25586SOL     OW78198   6.523   5.322   8.308 -0.1069 -0.0497  0.1259
25586SOL    HW178199   6.473   5.336   8.228 -0.0802  0.0344  0.1241
25586SOL    HW278200   6.547   5.410   8.337 -0.2652 -0.0684  0.3199
25587SOL     OW78201   1.374   0.804   8.601 -0.0827  0.2247  0.1104
25587SOL    HW178202   1.466   0.798   8.627 -0.3634 -1.0065  0.9179
25587SOL    HW278203   1.357   0.898   8.594  0.9054  0.5075  1.1960
25588SOL     OW78204   6.942   6.816  10.244 -0.0352 -0.3268  0.0209
25588SOL    HW178205   6.902   6.828  10.330 -2.7127 -1.4169 -0.9847
25588SOL    HW278206   6.982   6.729  10.248  1.8353  0.5115  0.8182
25589SOL     OW78207   7.736   7.129   9.805 -0.0644 -0.2777 -0.5539
25589SOL    HW178208   7.827   7.138   9.777 -0.0144 -0.7703 -0.5603
25589SOL    HW278209   7.695   7.078   9.735 -0.6529  1.0246 -1.1725
25590SOL     OW78210   0.573   0.824   6.115  0.3661 -0.2869 -0.2500
25590SOL    HW178211   0.506   0.756   6.115  0.4019 -0.4738  2.6661
25590SOL    HW278212   0.628   0.804   6.039 -0.1393 -3.0131 -0.0220
25591SOL     OW78213   6.988   7.754   7.420  0.0660  0.5074 -0.0666
25591SOL    HW178214   6.926   7.795   7.479  2.2079  2.4133  0.9881
25591SOL    HW278215   6.997   7.815   7.347 -0.1469 -0.3133 -0.8050
25592SOL     OW78216   6.837   7.093  10.105  0.5478  0.1580  0.5662
25592SOL    HW178217   6.877   7.056  10.184  0.6063  0.4563  0.6762
25592SOL    HW278218   6.872   7.040  10.033 -0.8159 -1.2531  0.8714
25593SOL     OW78219   6.922   5.334   7.195 -0.0604 -0.2056 -0.2161
25593SOL    HW178220   6.990   5.285   7.148 -0.0056  0.7977 -1.2286
25593SOL    HW278221   6.841   5.289   7.171  0.3108 -2.6101  2.5117
25594SOL     OW78222   5.398   6.250   6.056 -0.0976 -0.0184  0.3325
25594SOL    HW178223   5.400   6.277   5.965  3.4272 -0.7240  0.0323
25594SOL    HW278224   5.437   6.324   6.104 -0.5459 -0.2421  1.0675
25595SOL     OW78225   0.653   0.864   6.821  0.7105  0.0201  0.2207
25595SOL    HW178226   0.588   0.931   6.844  1.1477  0.4016  0.3624
25595SOL    HW278227   0.691   0.895   6.739 -0.2930 -0.9397 -0.6416
25596SOL     OW78228   7.825   7.738  10.461 -0.6609 -0.8838 -0.2996
25596SOL    HW178229   7.795   7.720  10.372 -1.0140 -0.2084 -0.3266
25596SOL    HW278230   7.914   7.770  10.451 -1.1925  0.5957 -0.5586
25597SOL     OW78231   0.105   0.394   9.295 -0.1365  0.1982 -0.1223
25597SOL    HW178232   0.022   0.438   9.314  0.1901  1.1049 -0.7283
25597SOL    HW278233   0.106   0.318   9.353  0.3703  2.2640  2.8003
25598SOL     OW78234   0.698   6.953   8.839  0.6725 -0.6707 -0.2581
25598SOL    HW178235   0.719   7.013   8.910  0.6881  0.5528 -1.2681
25598SOL    HW278236   0.614   6.985   8.804  0.3563 -1.6219 -0.4093
25599SOL     OW78237   0.830   5.018  10.531  0.3099 -0.5931 -0.1628
25599SOL    HW178238   0.774   4.942  10.514 -0.6025  0.4078 -1.9203
25599SOL    HW278239   0.799   5.054  10.614  0.7829 -2.1178  0.7236
25600SOL     OW78240   7.782   7.291   8.136  0.0144  0.3986  0.5977
25600SOL    HW178241   7.834   7.371   8.126 -0.4829  0.4809 -2.2250
25600SOL    HW278242   7.847   7.222   8.153  0.5852  1.1593  1.5997
25601SOL     OW78243   7.129   6.985   9.901 -0.0164  0.1291 -0.2317
25601SOL    HW178244   7.203   6.954   9.849  0.7491 -0.5741  1.2266
25601SOL    HW278245   7.153   7.075   9.925 -0.2013  0.3251 -0.7665
25602SOL     OW78246   0.249   5.341   9.808  0.3504  0.6726  0.6494
25602SOL    HW178247   0.299   5.374   9.734  1.6135 -1.0876  0.6595
25602SOL    HW278248   0.207   5.261   9.776  0.6509  0.0630  1.7148
25603SOL     OW78249   7.747   7.740  10.211  0.1443 -0.0584  0.2440
25603SOL    HW178250   7.703   7.659  10.184  1.1092 -1.2102  1.9456
25603SOL    HW278251   7.833   7.735  10.171  0.5517 -0.3804  1.1250
25604SOL     OW78252   6.614   4.662   9.561  0.5556  0.1856  0.1060
25604SOL    HW178253   6.539   4.614   9.527  0.0809  0.3959  0.8209
25604SOL    HW278254   6.613   4.746   9.514  0.0243  0.3956  0.4804
25605SOL     OW78255   0.643   6.546   9.683 -0.2178  0.5887 -0.2731
25605SOL    HW178256   0.583   6.604   9.636 -1.4080  0.0133  0.5018
25605SOL    HW278257   0.632   6.461   9.641 -1.4883  0.0042  1.1636
25606SOL     OW78258   6.295   7.128   8.980 -0.5214 -0.2320  0.1477
25606SOL    HW178259   6.250   7.210   8.959  0.8745  0.2885 -0.9115
25606SOL    HW278260   6.237   7.060   8.946 -1.7203  0.2647  1.0754
25607SOL     OW78261   7.135   7.250  10.759 -0.3571 -0.1218  0.2634
25607SOL    HW178262   7.161   7.160  10.779  0.1152 -0.4353 -1.6456
25607SOL    HW278263   7.167   7.266  10.671 -0.2019  2.0333  0.6582
25608SOL     OW78264   7.475   7.287   9.361 -0.4087 -0.6668 -0.6779
25608SOL    HW178265   7.559   7.277   9.316 -0.8538 -0.5055 -1.5591
25608SOL    HW278266   7.428   7.354   9.311 -0.2402  0.8137  1.0569
25609SOL     OW78267   6.682   6.726  10.054  0.0777  0.2782 -0.3413
25609SOL    HW178268   6.758   6.678  10.019  1.5835  2.1908  0.1221
25609SOL    HW278269   6.715   6.766  10.134 -1.6220  0.7190  0.1698
25610SOL     OW78270   7.246   0.557   8.993  0.2007 -0.5596 -0.0068
25610SOL    HW178271   7.331   0.546   8.951  1.0336  2.5561  0.6238
25610SOL    HW278272   7.183   0.561   8.921  0.8731 -0.7147 -0.6066
25611SOL     OW78273   5.160   6.974  11.943 -0.5276  0.3936  0.4234
25611SOL    HW178274   5.106   7.020  11.878  0.2446  1.1709  0.3207
25611SOL    HW278275   5.108   6.897  11.967 -0.7755  0.0057 -1.2176
25612SOL     OW78276   7.227   6.982  10.750  0.3971 -0.6660  0.4409
25612SOL    HW178277   7.195   6.905  10.798 -0.1490 -1.6055 -1.3070
25612SOL    HW278278   7.322   6.979  10.760  0.4540 -2.0415 -0.2103
25613SOL     OW78279   7.463   4.810  11.865 -0.0185 -0.1787 -0.1674
25613SOL    HW178280   7.488   4.857  11.944  2.6886 -1.2105 -0.2868
25613SOL    HW278281   7.439   4.723  11.895  1.0416 -0.5817 -0.4454
25614SOL     OW78282   7.593   5.667  10.056 -0.5484 -0.4470 -0.2627
25614SOL    HW178283   7.587   5.625   9.970  4.8915  0.7833 -1.6626
25614SOL    HW278284   7.585   5.761  10.037  1.8920 -0.0742  0.2317
25615SOL     OW78285   4.260   5.308  10.311  0.5635 -0.6869 -0.6162
25615SOL    HW178286   4.208   5.279  10.386 -0.3950  0.0350 -0.9753
25615SOL    HW278287   4.325   5.367  10.349 -0.5963  0.5333 -0.4306
25616SOL     OW78288   1.549   6.042   9.920 -0.2798  0.2847  0.4517
25616SOL    HW178289   1.593   6.100   9.858  1.2068 -0.6419  0.5986
25616SOL    HW278290   1.545   6.092  10.002 -0.6319  0.8271  0.1126
25617SOL     OW78291   0.204   7.115   8.570  0.5564  0.6531  0.4136
25617SOL    HW178292   0.200   7.203   8.533 -0.2779 -0.0690 -1.3219
25617SOL    HW278293   0.292   7.084   8.548  0.1130  0.2792 -0.9290
25618SOL     OW78294   1.917   7.418  10.577 -0.2881 -0.6475 -0.6801
25618SOL    HW178295   1.929   7.341  10.521 -0.7802 -1.5694  0.4223
25618SOL    HW278296   1.997   7.468  10.566  0.6738 -2.0433 -0.3671
25619SOL     OW78297   6.659   1.103   8.855 -0.0678 -0.5800  0.6764
25619SOL    HW178298   6.676   1.024   8.906 -1.0353 -0.0660  1.8361
25619SOL    HW278299   6.564   1.115   8.861  0.0708  0.6847  0.5405
25620SOL     OW78300   0.833   0.479  11.493 -0.0099 -0.1194 -0.2398
25620SOL    HW178301   0.789   0.407  11.538 -0.0439 -0.3713 -0.6731
25620SOL    HW278302   0.864   0.441  11.411  0.8717  0.0981 -0.0140
25621SOL     OW78303   7.344   6.033  11.002 -0.1818 -0.5648  0.1872
25621SOL    HW178304   7.330   6.031  11.097  0.3084 -1.0114  0.2524
25621SOL    HW278305   7.273   6.088  10.969  1.8635  3.1184  1.2422
25622SOL     OW78306   7.162   6.579  10.248  0.0262  0.0468  0.9794
25622SOL    HW178307   7.116   6.496  10.234  0.3195 -0.0611  0.6251
25622SOL    HW278308   7.161   6.622  10.163 -1.5452  1.1642  1.5420
25623SOL     OW78309   0.362   6.030  10.683  0.1288  0.1391 -0.4995
25623SOL    HW178310   0.454   6.041  10.707 -0.1053  0.4420  0.2812
25623SOL    HW278311   0.319   6.001  10.763 -0.1791 -1.6292 -1.2448
25624SOL     OW78312   0.049   4.639  10.417  0.0288  0.0591  1.1875
25624SOL    HW178313   0.016   4.727  10.402 -1.3774 -0.2501  2.2595
25624SOL    HW278314  -0.011   4.583  10.367  2.5643 -0.1943 -1.8743
25625SOL     OW78315   7.705   5.621   9.377  0.3500  0.0270 -0.0857
25625SOL    HW178316   7.760   5.626   9.455  0.5453  0.0672 -0.2265
25625SOL    HW278317   7.616   5.613   9.412  0.5080 -0.8461  0.1517
25626SOL     OW78318   1.196   6.444   9.401  0.2259 -0.5741  0.6905
25626SOL    HW178319   1.108   6.439   9.363 -0.1323  0.4812  1.3422
25626SOL    HW278320   1.182   6.479   9.489  1.3606  0.2446  0.5654
25627SOL     OW78321   6.662   6.916  10.305 -0.2819  0.3094  0.3132
25627SOL    HW178322   6.646   6.832  10.348  0.6422 -0.4898 -0.8400
25627SOL    HW278323   6.742   6.949  10.345 -0.7190  0.7340  0.8629
25628SOL     OW78324   5.109   5.597   9.553  0.3189  0.4275  0.1836
25628SOL    HW178325   5.090   5.577   9.461 -2.2867  2.1845  0.2149
25628SOL    HW278326   5.061   5.530   9.602 -0.4394  1.0096  0.2494
25629SOL     OW78327   7.271   5.768  11.479 -0.3849 -0.3558 -0.1438
25629SOL    HW178328   7.327   5.764  11.401  0.8755  1.0976  0.6458
25629SOL    HW278329   7.182   5.764  11.444  0.1630 -1.0951 -1.5527
25630SOL     OW78330   1.086   6.519  11.061 -0.7733  0.3090 -0.1042
25630SOL    HW178331   1.053   6.572  11.134  0.7067  2.0538 -0.6226
25630SOL    HW278332   1.162   6.474  11.097  0.5790  1.9556 -0.7420
25631SOL     OW78333   7.673   7.055  10.403  0.3849  0.1929  0.0533
25631SOL    HW178334   7.765   7.062  10.428  0.3401  0.3253  0.1810
25631SOL    HW278335   7.630   7.129  10.445  0.1817  0.0187  0.1582
25632SOL     OW78336   7.217   6.555  10.514  0.0945  0.4109 -0.0547
25632SOL    HW178337   7.220   6.567  10.419 -2.3377  0.8736 -0.1371
25632SOL    HW278338   7.264   6.631  10.549  3.0734 -0.9273 -0.8242
25633SOL     OW78339   6.527   6.913  11.220 -0.1360  0.0770  0.3062
25633SOL    HW178340   6.551   6.948  11.134  0.3715 -0.5021  0.2130
25633SOL    HW278341   6.581   6.962  11.282 -0.0165  0.0275  0.2413
25634SOL     OW78342   7.599   0.181   9.860 -0.1916 -0.3220  0.1017
25634SOL    HW178343   7.512   0.161   9.824 -0.4923 -0.4480  0.8903
25634SOL    HW278344   7.630   0.098   9.896  1.0522 -0.7390 -1.7793
25635SOL     OW78345   7.703   6.381  10.604 -0.0497 -0.4196 -0.7286
25635SOL    HW178346   7.740   6.469  10.613 -1.6165  0.4604 -2.3087
25635SOL    HW278347   7.651   6.369  10.684  2.0289 -0.9411  0.6351
25636SOL     OW78348   6.741   6.863  12.100 -0.2998  0.1258  0.2190
25636SOL    HW178349   6.683   6.861  12.176 -1.0517  0.7180 -0.3316
25636SOL    HW278350   6.701   6.805  12.037 -1.5805  2.2520 -1.0454
25637SOL     OW78351   5.502   6.479  11.281 -0.1303  0.0741  0.0615
25637SOL    HW178352   5.478   6.455  11.370 -1.7128  1.0567 -0.0665
25637SOL    HW278353   5.513   6.396  11.236 -0.1979 -0.4303  0.9433
25638SOL     OW78354   0.860   6.596  10.521 -0.1868  0.1687 -0.4974
25638SOL    HW178355   0.765   6.592  10.510 -0.2778 -1.7961  0.4409
25638SOL    HW278356   0.873   6.634  10.608 -0.0521  1.6117 -1.1358
25639SOL     OW78357   7.359   6.184  10.164 -0.5457 -0.2687  0.0883
25639SOL    HW178358   7.427   6.194  10.097  0.4684 -1.5629  0.8662
25639SOL    HW278359   7.348   6.272  10.201  0.7208 -0.0307 -0.0583
25640SOL     OW78360   0.704   6.359   9.143 -0.1156  0.2670  0.3047
25640SOL    HW178361   0.647   6.378   9.218 -0.7097  0.5572 -0.2076
25640SOL    HW278362   0.647   6.314   9.081 -0.0756  1.4707 -0.6462
25641SOL     OW78363   6.403   3.764  11.294 -0.1584 -0.1392 -0.3237
25641SOL    HW178364   6.457   3.750  11.372 -2.5149 -0.0080  1.4372
25641SOL    HW278365   6.352   3.683  11.286 -0.5277  0.1753 -1.2362
25642SOL     OW78366   7.643   5.574  10.310  0.0537 -0.3392 -0.6116
25642SOL    HW178367   7.635   5.563  10.215 -0.7531  2.6251 -1.0019
25642SOL    HW278368   7.701   5.650  10.320  0.4703 -0.8651  1.3013
25643SOL     OW78369   7.494   7.050  10.679 -0.0708 -0.2565  0.4341
25643SOL    HW178370   7.555   7.071  10.750  0.5300  0.4376 -0.2699
25643SOL    HW278371   7.521   7.107  10.607  0.4607 -2.1470 -0.9422
25644SOL     OW78372   0.377   7.064  10.068 -0.2205  0.4546  0.0415
25644SOL    HW178373   0.407   7.036   9.982  0.6135  1.0195  0.1431
25644SOL    HW278374   0.302   7.007  10.087 -0.5521  0.4721 -1.1484
25645SOL     OW78375   5.983   6.201  10.368 -0.2372  0.0080 -0.0623
25645SOL    HW178376   5.961   6.109  10.354 -0.9636 -0.3536  2.8540
25645SOL    HW278377   5.899   6.243  10.389  0.4089  0.7307  1.2411
25646SOL     OW78378   0.037   5.419   9.496 -0.4122 -0.2381 -0.4197
25646SOL    HW178379  -0.007   5.355   9.553  0.0305  0.0192  0.2320
25646SOL    HW278380   0.105   5.368   9.451  0.6319 -0.0559  0.8778
25647SOL     OW78381   6.253   5.711   9.589  0.8007  0.8548 -0.4399
25647SOL    HW178382   6.280   5.781   9.648  0.9490  0.9529 -0.6231
25647SOL    HW278383   6.203   5.755   9.520 -1.9655  0.4448  1.1330
25648SOL     OW78384   7.688   7.014  11.385 -0.2101  0.4049  0.3111
25648SOL    HW178385   7.760   6.979  11.438  1.0220  0.2602 -1.3338
25648SOL    HW278386   7.730   7.036  11.301 -2.5080 -1.9209 -1.5911
25649SOL     OW78387   7.205   6.636  11.435  0.0273 -0.8649 -0.2791
25649SOL    HW178388   7.201   6.730  11.414  0.5602 -0.6431  0.5502
25649SOL    HW278389   7.263   6.631  11.510 -0.3950 -1.8188  0.0014
25650SOL     OW78390   5.848   5.888   9.062 -0.1754 -0.1343  0.4488
25650SOL    HW178391   5.895   5.910   8.982  0.2575  1.7856  1.1647
25650SOL    HW278392   5.905   5.827   9.108 -0.1093 -0.7056 -0.3772
25651SOL     OW78393   7.642   5.597  11.594 -0.4877 -0.3195 -0.0390
25651SOL    HW178394   7.734   5.574  11.596 -0.5381 -0.4574  1.3800
25651SOL    HW278395   7.614   5.575  11.505  0.9545  0.2320 -0.6663
25652SOL     OW78396   7.915   6.945   9.979  0.1481 -0.7062  0.3507
25652SOL    HW178397   7.924   7.015   9.913  0.8663  0.3653  1.5275
25652SOL    HW278398   7.961   6.979  10.056 -0.7231 -1.8961  1.4430
25653SOL     OW78399   1.853   6.571  10.602 -0.0335 -0.2234 -0.1124
25653SOL    HW178400   1.878   6.524  10.681 -0.5146 -0.7710 -0.2824
25653SOL    HW278401   1.872   6.663  10.622  1.2880 -0.5102  0.0760
25654SOL     OW78402   5.458   6.955  11.231  0.1017  0.0402 -0.1000
25654SOL    HW178403   5.543   6.998  11.235  1.3177 -2.1039 -0.9800
25654SOL    HW278404   5.424   6.975  11.144 -0.4172  1.0602  0.3232
25655SOL     OW78405   1.461   5.529  12.487  0.2531  0.5857 -0.1327
25655SOL    HW178406   1.484   5.488  12.403  1.2633 -0.5331  0.6572
25655SOL    HW278407   1.543   5.530  12.536 -0.7419 -0.8909  1.7002
25656SOL     OW78408   2.188   5.826  10.074  0.0499 -0.3868  0.3576
25656SOL    HW178409   2.252   5.801  10.008  0.0830  1.3994 -0.3384
25656SOL    HW278410   2.103   5.808  10.034  0.0823 -0.3469  0.2723
25657SOL     OW78411   0.099   6.097   9.745 -0.6870  0.2981 -0.0322
25657SOL    HW178412   0.148   6.153   9.685 -0.3457  1.5031  1.3229
25657SOL    HW278413   0.011   6.135   9.746 -0.3969  0.9979  1.0588
25658SOL     OW78414   0.818   6.669  10.814 -0.4552  0.0350 -0.8026
25658SOL    HW178415   0.735   6.680  10.861  0.0230  0.1245  0.0391
25658SOL    HW278416   0.842   6.577  10.828 -0.6615 -0.1192 -1.4633
25659SOL     OW78417   6.708   6.407  11.477 -0.3295  0.1595 -0.5478
25659SOL    HW178418   6.628   6.402  11.426 -0.9366 -0.0860  0.4183
25659SOL    HW278419   6.679   6.412  11.568  0.7035  1.3772 -0.2455
25660SOL     OW78420   4.421   0.073  11.763 -0.5332 -0.0848  0.1353
25660SOL    HW178421   4.328   0.063  11.783 -0.6767  0.3499 -0.3137
25660SOL    HW278422   4.453  -0.017  11.752 -0.7736 -0.2627  0.8356
25661SOL     OW78423   0.026   5.803  11.672  0.2522 -0.1936  0.5030
25661SOL    HW178424  -0.023   5.844  11.601  0.0982  2.1121  1.8594
25661SOL    HW278425   0.107   5.772  11.631  0.2507  1.2501 -0.6575
25662SOL     OW78426   0.151   5.409  11.482 -0.8929 -0.3106 -0.5495
25662SOL    HW178427   0.221   5.379  11.539  0.2590  1.5740 -0.8933
25662SOL    HW278428   0.189   5.408  11.394 -0.5528  2.5373 -0.5275
25663SOL     OW78429   6.850   7.043  10.467 -0.4781  0.1901  0.3235
25663SOL    HW178430   6.942   7.030  10.489 -0.4977  0.9572  0.8854
25663SOL    HW278431   6.818   7.105  10.532 -1.0736  0.8973 -0.6150
25664SOL     OW78432   6.934   0.126  10.904  0.5415 -0.6826 -0.9366
25664SOL    HW178433   6.905   0.053  10.959 -0.8698  0.9942  0.7080
25664SOL    HW278434   7.028   0.113  10.895  0.2591 -2.9571 -1.1377
25665SOL     OW78435   7.373   3.713  10.991  0.3818  0.3498 -0.0109
25665SOL    HW178436   7.467   3.712  10.975  0.3655  2.3280 -0.4395
25665SOL    HW278437   7.364   3.735  11.083  0.3296 -1.7355  0.5254
25666SOL     OW78438   5.776   6.929   9.828 -0.0055 -0.1028 -0.2677
25666SOL    HW178439   5.836   6.897   9.759  1.0726  0.7943  0.2173
25666SOL    HW278440   5.775   6.859   9.893  0.5258 -0.1315 -0.2857
25667SOL     OW78441   0.949   5.207  10.343  0.5197  0.3279  0.1862
25667SOL    HW178442   0.917   5.139  10.403  3.1366  0.8860  2.4260
25667SOL    HW278443   0.999   5.159  10.277 -1.0485 -0.1718 -0.6855
25668SOL     OW78444   6.028   6.957  11.378  0.3771 -0.0510  0.2803
25668SOL    HW178445   5.948   6.943  11.430 -0.1102  0.6630 -0.2624
25668SOL    HW278446   6.006   7.029  11.319  1.4583  0.2024  0.1724
25669SOL     OW78447   6.833   6.486  11.132  0.0614  0.2303 -0.6960
25669SOL    HW178448   6.743   6.515  11.147 -0.0938 -0.7619  0.4301
25669SOL    HW278449   6.880   6.512  11.211  0.9285  1.2222 -1.4910
25670SOL     OW78450   0.222   5.669   0.116 -0.0361 -0.1794  0.4163
25670SOL    HW178451   0.240   5.749   0.068 -1.3786  1.1911  2.0595
25670SOL    HW278452   0.171   5.615   0.056  1.7597 -0.2924 -1.0749
25671SOL     OW78453   0.163   6.475  11.247  0.2146 -0.6088  0.2576
25671SOL    HW178454   0.142   6.439  11.161  0.2224 -1.5464  0.6334
25671SOL    HW278455   0.180   6.568  11.231 -1.2791 -0.4399 -0.5093
25672SOL     OW78456   1.222   6.749  10.955 -0.3654  0.3841  0.5222
25672SOL    HW178457   1.175   6.685  11.009 -1.2813  0.4131 -0.1997
25672SOL    HW278458   1.167   6.758  10.877  2.5693 -2.3325 -2.1251
25673SOL     OW78459   7.680   5.775  12.187 -0.2790  0.0889  0.1216
25673SOL    HW178460   7.755   5.824  12.152 -1.0149  0.2791 -1.2696
25673SOL    HW278461   7.713   5.687  12.201  0.4944  0.4418  0.5991
25674SOL     OW78462   6.480   6.468   9.776  0.5226 -0.3508  0.2939
25674SOL    HW178463   6.482   6.392   9.834  1.6119 -2.5027 -2.3654
25674SOL    HW278464   6.427   6.440   9.701  2.7085  0.6783 -1.7649
25675SOL     OW78465   7.347   7.917  10.611 -0.2564  0.3393 -0.3960
25675SOL    HW178466   7.386   7.997  10.575  2.1306  0.2718  1.7927
25675SOL    HW278467   7.373   7.849  10.549  1.3903  0.6522 -0.1040
25676SOL     OW78468   7.837   5.808   0.538  0.1270  0.1332 -0.3615
25676SOL    HW178469   7.893   5.749   0.588 -0.1885 -0.3443 -0.5647
25676SOL    HW278470   7.898   5.866   0.493  0.4601 -0.3455 -0.5375
25677SOL     OW78471   6.980   6.909  12.219  0.0383 -0.3263 -0.7000
25677SOL    HW178472   6.900   6.878  12.176  0.9847 -0.0601 -2.7659
25677SOL    HW278473   7.051   6.875  12.165  1.3738 -0.9772  1.3951
25678SOL     OW78474   5.773   6.241  10.891  0.2743  0.5002  0.1243
25678SOL    HW178475   5.850   6.296  10.877 -1.2053  2.1704 -2.1826
25678SOL    HW278476   5.735   6.274  10.972  1.6546  0.0334  0.9848
25679SOL     OW78477   7.470   6.102   0.669  0.2392  0.1885  0.0478
25679SOL    HW178478   7.395   6.147   0.708 -0.7062  0.0031 -1.4519
25679SOL    HW278479   7.534   6.172   0.652 -0.3460  0.6484 -0.3060
25680SOL     OW78480   7.878   5.678  12.483  0.2347 -0.0702 -0.6289
25680SOL    HW178481   7.847   5.761  12.448  1.2303  0.0516 -1.2608
25680SOL    HW278482   7.847   5.677  12.574  1.3299  1.6099 -0.1790
25681SOL     OW78483   2.242   6.583  11.063  0.2131 -0.1266  0.0112
25681SOL    HW178484   2.203   6.642  11.128 -0.1337  0.5308 -0.7793
25681SOL    HW278485   2.312   6.538  11.110  0.2997  0.7125  0.6972
25682SOL     OW78486   6.604   6.879   9.768 -0.1907  0.3565 -0.1386
25682SOL    HW178487   6.673   6.852   9.830  1.9501  1.3427 -1.9389
25682SOL    HW278488   6.609   6.815   9.697 -1.2225  0.3886 -0.2523
25683SOL     OW78489   0.976   1.141  10.652  0.1497 -0.1194  0.3607
25683SOL    HW178490   1.039   1.102  10.591 -0.4677 -0.1418 -0.2811
25683SOL    HW278491   1.029   1.175  10.724  0.8899 -0.1763 -0.1503
25684SOL     OW78492   7.418   6.368  11.869  0.2617  0.4196  0.6664
25684SOL    HW178493   7.386   6.332  11.786  1.0472 -0.3887  0.6899
25684SOL    HW278494   7.512   6.384  11.853  0.2495  1.0141  1.1538
25685SOL     OW78495   2.191   5.235  12.215  0.5571 -0.5941  0.2884
25685SOL    HW178496   2.258   5.303  12.221 -0.2294  0.1408  1.0663
25685SOL    HW278497   2.217   5.182  12.139  1.0416  0.7168 -0.4897
25686SOL     OW78498   7.570   5.004  10.257 -0.2203 -0.2632  0.1377
25686SOL    HW178499   7.568   5.029  10.164  0.2817  0.2609  0.2679
25686SOL    HW278500   7.520   4.922  10.260 -0.5744 -0.0781 -0.5316
25687SOL     OW78501   5.858   6.153  11.892  0.4125  0.0894 -0.3688
25687SOL    HW178502   5.861   6.185  11.802 -1.2378  1.0653 -0.1161
25687SOL    HW278503   5.845   6.059  11.884  0.9899  0.0623 -1.1283
25688SOL     OW78504   0.404   5.777  12.220  0.1294  0.4062 -0.1016
25688SOL    HW178505   0.313   5.749  12.232 -0.0994  0.3700 -1.7233
25688SOL    HW278506   0.398   5.871  12.205  0.5791  0.7786  1.7704
25689SOL     OW78507   6.502   5.634  11.814 -0.4156  0.0189  0.4550
25689SOL    HW178508   6.539   5.700  11.756 -2.2892  0.5543 -0.1964
25689SOL    HW278509   6.520   5.550  11.770  0.1462  0.2409  0.2509
25690SOL     OW78510   7.878   6.486   0.337 -0.1003 -0.2884  0.2368
25690SOL    HW178511   7.903   6.478   0.429  0.1986 -0.8852  0.1081
25690SOL    HW278512   7.784   6.505   0.339  0.3240  2.1480  0.7380
25691SOL     OW78513   0.091   7.634  11.518  0.1751 -0.0183 -0.2481
25691SOL    HW178514   0.039   7.585  11.582 -2.0682  0.7573 -1.3735
25691SOL    HW278515   0.103   7.574  11.445  1.0972 -0.2604  0.0824
25692SOL     OW78516   7.412   5.665  10.512 -0.0305 -0.2926  0.4827
25692SOL    HW178517   7.380   5.666  10.603 -0.2420  0.5995  0.4034
25692SOL    HW278518   7.375   5.744  10.473  1.7959  0.4769  0.2111
25693SOL     OW78519   1.273   7.799  12.194 -0.2282  0.0220 -0.1598
25693SOL    HW178520   1.254   7.724  12.138 -0.7598  0.7686 -1.0304
25693SOL    HW278521   1.205   7.863  12.172 -0.4402  0.3566  1.3561
25694SOL     OW78522   5.190   6.403   0.625  0.0755  0.4562  0.2565
25694SOL    HW178523   5.148   6.463   0.687  0.0315 -0.4530  1.1258
25694SOL    HW278524   5.178   6.316   0.663  2.4078  0.1191  0.3465
25695SOL     OW78525   0.085   6.736   0.537  0.2299  0.1282 -0.0420
25695SOL    HW178526   0.046   6.705   0.618 -0.8173 -0.9189 -0.9189
25695SOL    HW278527   0.109   6.827   0.556  2.3057 -0.7732  2.2106
25696SOL     OW78528   6.435   6.333   1.151  0.2296 -0.2325 -0.0313
25696SOL    HW178529   6.448   6.427   1.141 -1.0738 -0.1494 -1.4065
25696SOL    HW278530   6.345   6.325   1.182  0.7880 -0.9929  1.4642
25697SOL     OW78531   0.081   0.845  11.057  0.1543 -0.1781  0.3357
25697SOL    HW178532   0.072   0.922  11.000 -0.3668 -0.3247  0.2159
25697SOL    HW278533   0.053   0.771  11.003 -0.8598 -0.2534  0.9398
25698SOL     OW78534   0.351   6.513  10.975  0.0014  0.0011  0.7843
25698SOL    HW178535   0.269   6.550  10.943  0.5207  0.7557  0.2961
25698SOL    HW278536   0.328   6.425  11.005 -1.1538  0.5510  1.5226
25699SOL     OW78537   7.079   7.280   9.910 -0.3378  0.3940  0.2903
25699SOL    HW178538   7.056   7.340   9.838  0.0565 -0.9044 -0.9767
25699SOL    HW278539   7.169   7.302   9.932 -0.0802  0.0735 -0.4034
25700SOL     OW78540   7.456   4.585  11.633 -0.6881  0.2758  0.4443
25700SOL    HW178541   7.399   4.558  11.706  1.1647 -1.7443  1.2413
25700SOL    HW278542   7.479   4.503  11.589  0.4612  1.1969 -0.7347
25701SOL     OW78543   7.744   5.691   0.230  0.0618  0.2452 -0.3695
25701SOL    HW178544   7.724   5.624   0.295 -0.0523 -0.0323 -0.6934
25701SOL    HW278545   7.668   5.749   0.230 -0.2858 -0.2149 -0.8447
25702SOL     OW78546   0.674   5.900  11.003 -0.3685 -0.0084  0.9850
25702SOL    HW178547   0.679   5.980  11.055 -0.7414 -0.2155  1.3476
25702SOL    HW278548   0.765   5.874  10.990 -0.1891  0.9778  0.0679
25703SOL     OW78549   6.775   5.815   0.669  0.4907  0.4621  0.3966
25703SOL    HW178550   6.863   5.783   0.691  0.4652  0.4831  0.5274
25703SOL    HW278551   6.791   5.895   0.620  0.5814 -0.1185 -0.5606
25704SOL     OW78552   7.456   7.667  10.828 -0.0466 -0.2267  0.3703
25704SOL    HW178553   7.519   7.634  10.764 -0.6117 -1.4867  0.4232
25704SOL    HW278554   7.409   7.589  10.858 -2.8725  0.7765 -0.9908
25705SOL     OW78555   6.672   5.048  10.248  0.1203  0.4287 -0.5170
25705SOL    HW178556   6.598   5.024  10.304  1.0932 -1.7582 -0.0588
25705SOL    HW278557   6.645   5.021  10.160 -0.5905  1.9734 -0.8021
25706SOL     OW78558   0.894   6.879  10.992  0.1095  0.3029  0.1209
25706SOL    HW178559   0.859   6.801  10.951 -0.7709 -0.6923  2.5445
25706SOL    HW278560   0.971   6.902  10.940 -0.5341 -1.2033 -1.5990
25707SOL     OW78561   0.255   7.415   1.252 -0.0978  0.1840  0.0602
25707SOL    HW178562   0.314   7.355   1.297 -0.9725  0.5810  1.8139
25707SOL    HW278563   0.311   7.462   1.190  0.6379 -2.3285 -1.3355
25708SOL     OW78564   7.556   5.043  11.645  0.2559 -0.1096 -0.8112
25708SOL    HW178565   7.644   5.068  11.671 -0.1258  0.4076  0.0443
25708SOL    HW278566   7.499   5.086  11.709 -0.5067 -2.1703 -0.0088
25709SOL     OW78567   0.801   5.412   9.150 -0.3454 -0.2945  0.2756
25709SOL    HW178568   0.845   5.330   9.128  0.0512  0.0360 -0.1682
25709SOL    HW278569   0.820   5.470   9.077  1.3692  0.9710  1.6498
25710SOL     OW78570   7.019   4.579  10.510 -0.4017 -0.3003  0.1437
25710SOL    HW178571   7.039   4.615  10.597  3.9573 -2.1841  0.1603
25710SOL    HW278572   6.973   4.497  10.528  0.4448 -0.6607  0.7454
25711SOL     OW78573   7.013   5.582  10.004 -0.3148  0.0427 -0.0911
25711SOL    HW178574   6.968   5.587   9.920  1.3655 -0.5042 -1.0871
25711SOL    HW278575   7.034   5.489  10.014  1.2291  0.3666 -0.0612
25712SOL     OW78576   7.936   6.272   0.158 -0.7091 -0.3979 -0.1176
25712SOL    HW178577   7.970   6.301   0.242  0.1052 -0.7239 -0.3236
25712SOL    HW278578   7.923   6.352   0.108 -1.2005 -0.2027  0.3165
25713SOL     OW78579   0.898   0.020   8.674 -0.1205 -0.0761 -0.7204
25713SOL    HW178580   0.990   0.045   8.662  0.1992 -1.7072 -2.1784
25713SOL    HW278581   0.896  -0.073   8.650 -1.9414 -0.3939  0.4887
25714SOL     OW78582   6.753   6.685   0.613 -0.1710 -0.4897 -0.3701
25714SOL    HW178583   6.673   6.652   0.573 -1.9135  2.1301  0.6734
25714SOL    HW278584   6.791   6.742   0.546  1.0014 -1.8830 -0.9384
25715SOL     OW78585   0.172   0.437   1.809 -0.1448 -0.3821 -0.3127
25715SOL    HW178586   0.243   0.373   1.796  0.6890  0.1660  1.3228
25715SOL    HW278587   0.170   0.487   1.727  0.6882 -1.0575 -0.7641
25716SOL     OW78588   7.358   7.077   1.112  0.2323  0.1381 -0.1428
25716SOL    HW178589   7.432   7.083   1.173 -0.8631 -2.6907  1.6360
25716SOL    HW278590   7.368   6.992   1.070 -1.1134  0.4545 -1.1616
25717SOL     OW78591   0.792   7.740   2.215 -0.2554 -0.0584  0.0791
25717SOL    HW178592   0.869   7.733   2.272 -0.4582 -0.7242  0.2746
25717SOL    HW278593   0.738   7.808   2.256 -0.7182 -1.0031  1.0594
25718SOL     OW78594   7.468   7.914  11.600 -0.4164  0.3400  0.2237
25718SOL    HW178595   7.555   7.900  11.638 -0.3311  1.6294  0.5442
25718SOL    HW278596   7.444   7.829  11.564 -0.2733 -0.8485  2.6863
25719SOL     OW78597   7.104   0.620   0.871  0.1127  0.5885 -0.3824
25719SOL    HW178598   7.128   0.537   0.830 -0.1788  0.2919  0.0317
25719SOL    HW278599   7.010   0.612   0.887  0.4694  0.0348  1.7612
25720SOL     OW78600   0.349   7.853  10.960  0.6148 -0.4172  0.0034
25720SOL    HW178601   0.273   7.876  11.012  0.7974  1.7205 -0.5681
25720SOL    HW278602   0.424   7.879  11.013  0.9532 -1.8424  0.2634
25721SOL     OW78603   1.316   0.816   1.415 -0.1435 -0.5729  0.1100
25721SOL    HW178604   1.393   0.758   1.411 -0.6062 -1.1460 -0.8321
25721SOL    HW278605   1.352   0.904   1.403  0.6018 -0.5940  1.8351
25722SOL     OW78606   0.891   0.402   0.094  0.1006  0.3514 -0.3569
25722SOL    HW178607   0.921   0.328   0.147 -1.2533 -0.3167 -0.4946
25722SOL    HW278608   0.807   0.427   0.132 -0.4391  0.4815 -1.5779
25723SOL     OW78609   0.736   7.172   0.459  0.3365 -0.3290 -0.6568
25723SOL    HW178610   0.710   7.264   0.450 -0.1132 -0.5435 -1.6721
25723SOL    HW278611   0.680   7.125   0.398  0.7896 -1.2420 -0.3868
25724SOL     OW78612   0.025   7.625   1.140  0.0797 -0.1439  0.1633
25724SOL    HW178613   0.058   7.564   1.074  2.4378  0.4575  0.6855
25724SOL    HW278614   0.003   7.569   1.215  1.2412 -0.4732  0.2776
25725SOL     OW78615   0.095   0.745   2.267 -0.0670  0.1374  0.2966
25725SOL    HW178616   0.180   0.780   2.291 -0.0798  0.3151  0.0775
25725SOL    HW278617   0.105   0.716   2.176 -0.3266  0.4406  0.1683
25726SOL     OW78618   6.371   0.354   0.641  0.1885 -0.3767 -0.6094
25726SOL    HW178619   6.409   0.286   0.585  0.8855 -1.3013  0.9099
25726SOL    HW278620   6.319   0.408   0.582  1.0012 -1.2155 -2.1587
25727SOL     OW78621   6.819   1.621   1.870 -0.0551 -0.4320  0.0638
25727SOL    HW178622   6.848   1.563   1.799 -0.9657  0.0417 -0.7086
25727SOL    HW278623   6.749   1.572   1.914  0.5569 -0.7568  0.7157
25728SOL     OW78624   0.475   0.373  12.348  0.5323  0.2016  0.6896
25728SOL    HW178625   0.414   0.314  12.391 -0.1570 -0.5165 -1.1876
25728SOL    HW278626   0.547   0.317  12.318  0.7812  0.6056  0.5164
25729SOL     OW78627   1.238   7.585  11.649  0.1381  0.1900 -0.9854
25729SOL    HW178628   1.270   7.631  11.572  1.6724  0.0509 -0.4677
25729SOL    HW278629   1.264   7.494  11.635  2.9852  0.5856  0.8733
25730SOL     OW78630   7.079   0.030   0.452  0.8817 -0.2347 -0.0868
25730SOL    HW178631   7.085  -0.063   0.475 -1.8939 -0.3016  0.6880
25730SOL    HW278632   7.076   0.030   0.356 -5.2037 -1.7203 -0.2679
25731SOL     OW78633   0.586   2.041  11.409  0.6402 -0.0932  0.5413
25731SOL    HW178634   0.588   2.071  11.500  0.9644 -0.5286  0.6800
25731SOL    HW278635   0.677   2.049  11.380  0.2353  1.9127 -0.3655
25732SOL     OW78636   7.618   6.265   1.253  0.1748 -0.3877 -0.3152
25732SOL    HW178637   7.595   6.358   1.247  1.0189 -0.2016 -0.7654
25732SOL    HW278638   7.663   6.258   1.338  0.0006 -0.4149 -0.2237
25733SOL     OW78639   7.932   7.499  11.748 -0.0394 -0.4101 -0.1363
25733SOL    HW178640   7.940   7.497  11.843  0.5855 -0.7469 -0.1928
25733SOL    HW278641   7.837   7.496  11.732 -0.1239 -3.6610  0.4177
25734SOL     OW78642   0.519   6.507   0.448 -0.1921  0.1898  0.3148
25734SOL    HW178643   0.572   6.506   0.527 -1.3762 -1.9091  1.1830
25734SOL    HW278644   0.429   6.520   0.479 -0.3413  3.4314 -1.0886
25735SOL     OW78645   6.605   0.837   4.506  0.0448  0.4234 -0.6681
25735SOL    HW178646   6.692   0.832   4.547 -0.1533  1.0654 -0.1423
25735SOL    HW278647   6.608   0.917   4.454 -0.3901  0.7118 -0.2551
25736SOL     OW78648   7.603   0.094   2.820 -0.0722  0.2434 -0.7465
25736SOL    HW178649   7.584   0.057   2.906  0.8043 -0.1529 -0.7187
25736SOL    HW278650   7.596   0.189   2.833  1.8449  0.2948  0.2377
25737SOL     OW78651   6.569   0.608   5.709  0.1311 -0.0037 -0.6258
25737SOL    HW178652   6.610   0.677   5.657  0.8907 -0.7786 -1.0889
25737SOL    HW278653   6.621   0.604   5.789 -0.9046  1.0401  0.1217
25738SOL     OW78654   7.819   0.813   1.541 -0.7817  0.4011  0.6764
25738SOL    HW178655   7.844   0.730   1.579  0.0925  0.4363  0.2066
25738SOL    HW278656   7.781   0.790   1.456  0.5564  0.5289  0.0108
25739SOL     OW78657   6.730   0.940   3.387  0.1854  0.0452  0.3568
25739SOL    HW178658   6.701   1.016   3.337  1.1134 -0.3323 -0.8172
25739SOL    HW278659   6.654   0.881   3.388  0.4052 -0.3362 -1.4583
25740SOL     OW78660   0.370   0.200   3.141  0.2773 -1.0113  0.6254
25740SOL    HW178661   0.311   0.166   3.208 -0.3550 -1.9355 -0.3809
25740SOL    HW278662   0.451   0.150   3.154  0.0471 -1.4247  0.4938
25741SOL     OW78663   5.869   1.642   2.932  0.5828  0.0527  0.1695
25741SOL    HW178664   5.806   1.570   2.937 -0.7077  1.2033  2.1304
25741SOL    HW278665   5.908   1.634   2.845 -1.4306 -1.4213 -0.6874
25742SOL     OW78666   7.818   0.692   2.120 -0.1662  0.2708  0.0105
25742SOL    HW178667   7.863   0.702   2.036  0.7435 -1.4704  0.2362
25742SOL    HW278668   7.751   0.761   2.121  0.5262  1.0033 -1.6535
25743SOL     OW78669   0.310   0.450   2.244 -0.0698 -0.0567 -0.2473
25743SOL    HW178670   0.352   0.529   2.210 -0.4932 -0.2470 -1.2186
25743SOL    HW278671   0.217   0.462   2.226 -0.7020  0.9278  2.9992
25744SOL     OW78672   7.254   7.919   2.265  0.0825 -0.2440  0.1753
25744SOL    HW178673   7.303   7.841   2.292  1.5360  0.3286 -0.6677
25744SOL    HW278674   7.312   7.963   2.204 -0.2537  2.0626  1.4031
25745SOL     OW78675   7.310   7.885   3.383  0.3866  0.0946  0.0119
25745SOL    HW178676   7.349   7.860   3.466  0.1678  1.2958  0.4985
25745SOL    HW278677   7.347   7.971   3.364  1.5412 -0.7264 -1.8670
25746SOL     OW78678   7.406   7.472   2.617  0.3063 -0.0292  0.4734
25746SOL    HW178679   7.337   7.411   2.641  0.9647 -0.3683  1.5687
25746SOL    HW278680   7.472   7.463   2.686  1.2825  0.5416 -0.3521
25747SOL     OW78681   0.462   0.340   1.670  0.3153  0.4227  0.4584
25747SOL    HW178682   0.457   0.245   1.661 -0.5570  0.5412 -0.4541
25747SOL    HW278683   0.477   0.354   1.763 -2.0061 -0.5579  1.0656
25748SOL     OW78684   5.123   1.200   4.682  0.5434  0.2741  0.3097
25748SOL    HW178685   5.106   1.129   4.744 -0.2410  2.5486  2.8538
25748SOL    HW278686   5.171   1.157   4.611  0.8054 -2.6501  2.0613
25749SOL     OW78687   6.408   2.537   5.659 -0.2022 -0.0399 -0.5146
25749SOL    HW178688   6.422   2.454   5.704  0.0047  0.3325  0.1259
25749SOL    HW278689   6.318   2.534   5.628  0.4403 -1.4440 -2.5048
25750SOL     OW78690   6.904   1.457   2.929 -0.0216  0.5090 -0.6520
25750SOL    HW178691   6.973   1.390   2.935 -1.7631 -1.4357 -1.1395
25750SOL    HW278692   6.907   1.486   2.838  0.4739  0.7922 -0.5463
25751SOL     OW78693   6.217   0.381   4.045 -0.9139 -0.8979  0.1054
25751SOL    HW178694   6.291   0.336   4.085  0.8355  0.2590 -1.6254
25751SOL    HW278695   6.140   0.333   4.075  0.4186 -1.5011  2.8486
25752SOL     OW78696   6.501   7.613   4.163  0.0056  0.2698 -0.1774
25752SOL    HW178697   6.561   7.687   4.166  0.0485  0.3099 -1.4456
25752SOL    HW278698   6.549   7.545   4.115 -0.0863 -0.5503  0.8371
25753SOL     OW78699   5.376   0.014   4.901  0.1870  0.0298 -0.2469
25753SOL    HW178700   5.427  -0.007   4.979  0.0559 -0.5093 -0.2988
25753SOL    HW278701   5.300   0.062   4.933  0.5254  0.4852 -0.1257
25754SOL     OW78702   5.563   6.856   4.612  0.3557 -0.3636  0.0379
25754SOL    HW178703   5.634   6.833   4.553 -0.0083  0.5712 -0.8046
25754SOL    HW278704   5.573   6.797   4.686  1.4208 -0.8982 -0.5058
25755SOL     OW78705   7.654   6.305   0.616 -0.2773  0.1130  0.1297
25755SOL    HW178706   7.607   6.387   0.603  0.7663  0.8548  0.8629
25755SOL    HW278707   7.737   6.317   0.571 -0.7104 -1.1438 -1.0593
25756SOL     OW78708   5.784   6.361   2.681 -0.3405 -0.5362  0.1137
25756SOL    HW178709   5.801   6.312   2.762  2.3514  0.3441  0.1891
25756SOL    HW278710   5.727   6.433   2.709  1.1706  0.2031  1.4745
25757SOL     OW78711   0.248   1.440   4.347  0.2762 -0.3320 -0.4661
25757SOL    HW178712   0.307   1.378   4.304 -1.3684 -1.2531 -1.4921
25757SOL    HW278713   0.199   1.480   4.275 -0.8396 -0.1217  0.3874
25758SOL     OW78714   6.716   0.711   3.022  0.1705 -0.5445 -0.0103
25758SOL    HW178715   6.741   0.642   3.084  1.8028 -0.5314 -0.6107
25758SOL    HW278716   6.634   0.680   2.984  0.4327 -1.7490  0.3464
25759SOL     OW78717   7.319   1.846   5.086  0.2819 -0.0392 -0.0944
25759SOL    HW178718   7.329   1.896   5.005  0.8859  2.1530  1.2396
25759SOL    HW278719   7.397   1.791   5.090  0.6412  0.4243 -0.6374
25760SOL     OW78720   7.520   7.327   4.058  0.4557 -0.7872 -0.3802
25760SOL    HW178721   7.440   7.375   4.036  0.7482 -0.3320 -0.4702
25760SOL    HW278722   7.504   7.238   4.028 -0.6203 -1.0935  1.0136
25761SOL     OW78723   6.943   0.278   6.065 -0.4997 -0.3660  0.4648
25761SOL    HW178724   6.942   0.186   6.039 -1.8986 -0.2090 -0.1795
25761SOL    HW278725   6.900   0.323   5.992 -1.3363  0.5740  1.5102
25762SOL     OW78726   7.995   1.361   4.561 -0.0015  0.0774  0.0406
25762SOL    HW178727   7.974   1.332   4.472 -0.7489 -1.8227  0.7770
25762SOL    HW278728   8.091   1.369   4.561  0.2336 -1.9965 -0.4217
25763SOL     OW78729   1.138   7.350   4.830  0.1995  0.1096  0.0513
25763SOL    HW178730   1.177   7.355   4.743 -0.3539  1.3234 -0.1484
25763SOL    HW278731   1.086   7.269   4.829  2.1380 -1.2224  0.1294
25764SOL     OW78732   7.045   6.846   1.125  0.0961 -0.0835 -0.1480
25764SOL    HW178733   7.099   6.779   1.083  0.6186 -0.1816  0.6580
25764SOL    HW278734   6.957   6.810   1.122 -0.0299  0.2910 -1.9130
25765SOL     OW78735   7.080   0.178   3.443  0.3691 -0.1417 -0.2385
25765SOL    HW178736   7.133   0.201   3.367  1.4621 -1.8878 -0.0664
25765SOL    HW278737   7.001   0.139   3.406 -0.1034  1.0143 -0.4788
25766SOL     OW78738   6.606   7.762   4.769 -0.7211  0.2177  0.0308
25766SOL    HW178739   6.531   7.799   4.817 -0.9341  0.4092 -0.4459
25766SOL    HW278740   6.596   7.667   4.779 -0.6264  0.2610  0.5712
25767SOL     OW78741   6.988   7.454   4.912  0.1390  0.0217 -0.5909
25767SOL    HW178742   6.934   7.436   4.989  1.8878  0.0847  0.7033
25767SOL    HW278743   7.031   7.370   4.893 -0.4885 -0.0724 -1.7120
25768SOL     OW78744   0.094   0.305   5.334  0.2588 -0.1652 -0.3895
25768SOL    HW178745   0.031   0.341   5.396  0.1109 -0.0482 -0.6071
25768SOL    HW278746   0.060   0.329   5.248 -0.2520 -1.4809 -0.5707
25769SOL     OW78747   6.857   7.846   3.788  0.0655 -0.5963  0.3508
25769SOL    HW178748   6.886   7.891   3.867 -0.5920 -0.4163  0.4951
25769SOL    HW278749   6.829   7.760   3.819  0.9645 -0.9793  0.1301
25770SOL     OW78750   0.172   1.095   4.147 -0.2895  0.5983  0.1553
25770SOL    HW178751   0.159   1.058   4.060 -1.1184 -0.7462  0.8313
25770SOL    HW278752   0.267   1.098   4.158 -0.1763  0.8235 -0.7886
25771SOL     OW78753   1.503   7.240   5.673 -0.3064 -0.2477  0.6523
25771SOL    HW178754   1.592   7.209   5.659 -0.3741  0.5766 -1.9592
25771SOL    HW278755   1.448   7.167   5.646 -0.4417 -0.3769  1.2654
25772SOL     OW78756   7.713   1.678   4.958 -0.4022 -0.0023  0.2584
25772SOL    HW178757   7.636   1.636   4.996  0.8318 -1.5875  1.1206
25772SOL    HW278758   7.776   1.684   5.030  0.7586  0.0412 -0.7124
25773SOL     OW78759   0.001   7.776   3.925 -0.6093 -0.1992  0.2481
25773SOL    HW178760   0.085   7.733   3.945 -0.2919 -0.0623 -0.6983
25773SOL    HW278761  -0.012   7.759   3.831 -0.7742  1.2364 -0.0189
25774SOL     OW78762   6.845   7.596   2.832  0.4738 -0.7360 -0.6109
25774SOL    HW178763   6.842   7.689   2.853  2.8332 -1.0117  1.5636
25774SOL    HW278764   6.905   7.590   2.758 -0.2311 -0.4820 -1.2054
25775SOL     OW78765   7.117   6.926   2.631  0.1972  0.3650  0.7278
25775SOL    HW178766   7.057   6.854   2.651 -0.2852  0.6351  0.2462
25775SOL    HW278767   7.135   6.918   2.538 -0.1217  1.0698  0.6018
25776SOL     OW78768   5.989   7.847   3.234 -0.3997  0.5042  0.3164
25776SOL    HW178769   5.900   7.813   3.243 -1.1195  2.2579  0.2089
25776SOL    HW278770   6.039   7.799   3.300 -2.4106  2.6121  3.6832
25777SOL     OW78771   7.053   1.047   3.133 -0.2032  0.2329  0.4426
25777SOL    HW178772   7.038   1.108   3.205 -0.0352 -0.2111  0.8634
25777SOL    HW278773   6.968   1.039   3.091 -0.2522  0.6704  0.4514
25778SOL     OW78774   6.886   7.781   5.874  0.1179 -0.3848 -0.0007
25778SOL    HW178775   6.888   7.700   5.824  0.5203  0.8576 -2.1308
25778SOL    HW278776   6.827   7.839   5.824 -0.0045  0.7172  1.3398
25779SOL     OW78777   0.954   7.123   6.237  0.4539 -0.0060 -0.7435
25779SOL    HW178778   0.976   7.063   6.165  1.2413  1.4842 -1.7838
25779SOL    HW278779   1.038   7.160   6.264  0.2063 -0.6762  1.1336
25780SOL     OW78780   1.909   7.020   5.218 -0.0281  0.6640  0.2687
25780SOL    HW178781   1.939   7.070   5.142 -1.2758  0.9474 -0.0665
25780SOL    HW278782   1.976   7.035   5.285  1.3363  0.0248 -0.9070
25781SOL     OW78783   7.659   6.749   7.209  0.2168 -0.2335  0.4193
25781SOL    HW178784   7.572   6.732   7.173  0.5789 -0.7332 -0.2462
25781SOL    HW278785   7.676   6.841   7.188 -0.5817  0.1839  1.5055
25782SOL     OW78786   0.482   1.327   5.912 -0.3160 -0.2031  0.2128
25782SOL    HW178787   0.570   1.357   5.936 -0.6876  1.1120  0.0408
25782SOL    HW278788   0.490   1.232   5.906  0.8874 -0.1835  1.0237
25783SOL     OW78789   0.570   7.091   6.851 -0.3471  0.3129  0.3775
25783SOL    HW178790   0.588   7.043   6.770  0.5343 -1.6314  1.6252
25783SOL    HW278791   0.474   7.096   6.855 -0.4033  0.3388 -0.7214
25784SOL     OW78792   7.658   7.117   5.780  0.7095 -0.5388 -0.0447
25784SOL    HW178793   7.656   7.043   5.841 -1.2071 -0.5662 -0.0916
25784SOL    HW278794   7.672   7.077   5.694  0.5276 -0.7706  0.0318
25785SOL     OW78795   7.713   1.560   5.473  0.5344  0.4329 -0.1995
25785SOL    HW178796   7.780   1.600   5.529 -0.1602  1.3865 -0.0315
25785SOL    HW278797   7.760   1.490   5.427  1.6203  0.9966  0.0011
25786SOL     OW78798   7.463   0.395   5.270  0.3231 -0.5962 -0.3108
25786SOL    HW178799   7.538   0.345   5.302  0.3180  0.5314  1.5978
25786SOL    HW278800   7.453   0.467   5.333 -2.0220 -0.3941 -0.8169
25787SOL     OW78801   6.657   7.352   5.597 -0.3840 -0.2764 -0.0044
25787SOL    HW178802   6.705   7.430   5.570 -0.0915 -0.2130  0.6783
25787SOL    HW278803   6.725   7.289   5.623 -0.5957 -0.9620 -1.0645
25788SOL     OW78804   0.300   0.205   6.689 -0.0529 -0.0060  0.4083
25788SOL    HW178805   0.356   0.281   6.670  0.5162  0.0289  2.0723
25788SOL    HW278806   0.270   0.219   6.778 -1.9288 -0.5593 -0.0972
25789SOL     OW78807   7.690   6.308   6.398  0.1431  0.0157 -0.1808
25789SOL    HW178808   7.655   6.220   6.387 -0.2194  0.2828 -1.2814
25789SOL    HW278809   7.613   6.365   6.404  0.3423  0.4661 -1.4333
25790SOL     OW78810   7.247   7.684   5.990 -0.5998  0.0014  0.6564
25790SOL    HW178811   7.311   7.678   5.919 -0.0756 -0.3512  1.1476
25790SOL    HW278812   7.186   7.612   5.973 -1.0528  0.5236  0.0160
25791SOL     OW78813   0.309   7.194   6.617  0.3543 -0.6353 -0.1998
25791SOL    HW178814   0.316   7.134   6.543 -2.3834  1.6993 -2.5450
25791SOL    HW278815   0.371   7.264   6.598 -0.1964 -0.1365 -0.1884
25792SOL     OW78816   7.929   0.793   7.329  0.2123  0.1597  0.0752
25792SOL    HW178817   7.938   0.711   7.280  2.3277  1.1978 -1.4665
25792SOL    HW278818   7.856   0.838   7.286 -0.9179 -0.8449  0.8884
25793SOL     OW78819   6.684   1.756   4.450  0.2011 -0.1380  0.3795
25793SOL    HW178820   6.774   1.782   4.471 -0.2663  0.7483  1.3342
25793SOL    HW278821   6.657   1.703   4.525 -0.0405 -0.5286  0.0231
25794SOL     OW78822   0.971   6.555   5.508 -0.1457 -0.1184  0.2350
25794SOL    HW178823   0.922   6.635   5.490  0.3024  0.1226  0.0576
25794SOL    HW278824   0.922   6.486   5.461  0.0763  0.2339 -0.5318
25795SOL     OW78825   5.170   7.437   5.424  0.1734 -0.0696  0.5282
25795SOL    HW178826   5.116   7.514   5.443  0.9676  0.8605 -0.7485
25795SOL    HW278827   5.252   7.453   5.471 -0.2247 -0.9209  1.5363
25796SOL     OW78828   0.307   0.959   6.440 -0.7640  0.5766 -0.4740
25796SOL    HW178829   0.321   0.995   6.352 -1.5213 -0.9622 -1.2620
25796SOL    HW278830   0.212   0.948   6.447 -0.7925  1.4151  0.8744
25797SOL     OW78831   6.380   0.890   4.872  0.0486  0.4002 -0.5643
25797SOL    HW178832   6.321   0.837   4.927 -0.0886  0.5928 -0.5264
25797SOL    HW278833   6.422   0.826   4.815 -0.8116  0.3450 -1.1590
25798SOL     OW78834   0.087   2.238   5.454  0.1333 -0.1646  0.3854
25798SOL    HW178835   0.039   2.320   5.466  1.3274  0.4003  1.5128
25798SOL    HW278836   0.075   2.190   5.536 -0.1618 -0.9337 -0.0894
25799SOL     OW78837   0.931   7.085   4.828 -0.1980  0.0004 -0.2176
25799SOL    HW178838   0.894   7.044   4.907 -0.2989 -1.2159 -0.8725
25799SOL    HW278839   0.880   7.049   4.756  0.7595  0.0611 -0.9498
25800SOL     OW78840   0.183   0.285   7.805 -0.0066 -0.0441  0.0914
25800SOL    HW178841   0.233   0.249   7.732 -0.1782 -1.2431  0.5526
25800SOL    HW278842   0.092   0.262   7.785 -0.2749  1.1932 -0.2062
25801SOL     OW78843   7.948   7.993   8.226  0.2820  0.5278 -0.2689
25801SOL    HW178844   8.034   7.971   8.190  0.2472  0.9224 -0.6018
25801SOL    HW278845   7.900   7.910   8.225  0.8517  0.1791  0.4800
25802SOL     OW78846   7.737   7.291   6.834  0.9172 -0.0694  0.0539
25802SOL    HW178847   7.791   7.366   6.808 -0.6099  1.8983  2.1274
25802SOL    HW278848   7.694   7.264   6.753  0.9696  1.7819 -0.6513
25803SOL     OW78849   0.052   6.554   5.866  0.6323  0.3894 -0.5560
25803SOL    HW178850   0.044   6.510   5.781 -1.6433 -0.9357  0.2561
25803SOL    HW278851  -0.002   6.633   5.858 -1.5289 -0.9106  0.2847
25804SOL     OW78852   1.167   0.089  10.529 -0.0434  0.4124  0.5954
25804SOL    HW178853   1.185   0.175  10.491  0.8688  0.4250  1.0166
25804SOL    HW278854   1.075   0.072  10.510  0.6348 -0.1782 -2.7812
25805SOL     OW78855   1.667   0.053   7.763 -0.0076 -0.5031 -0.6119
25805SOL    HW178856   1.626  -0.010   7.705  1.3187 -1.3785 -0.6483
25805SOL    HW278857   1.759   0.056   7.734  0.4366 -0.1677  0.7510
25806SOL     OW78858   7.771   1.015   7.613  0.0644 -0.0303  0.0150
25806SOL    HW178859   7.728   1.038   7.530 -0.0547  1.6193  0.4956
25806SOL    HW278860   7.824   1.092   7.634  2.0773 -1.3965  0.2423
25807SOL     OW78861   0.217   5.643   8.714 -0.0119  0.6575  0.5468
25807SOL    HW178862   0.142   5.618   8.767  0.2562 -0.6590  0.3552
25807SOL    HW278863   0.293   5.617   8.766  0.2522 -1.3383 -0.7214
25808SOL     OW78864   7.749   6.901   7.516  0.4377  0.3095 -0.2916
25808SOL    HW178865   7.726   6.910   7.609 -1.8707 -0.2201 -0.7661
25808SOL    HW278866   7.788   6.814   7.509  0.2304  0.1843  0.0903
25809SOL     OW78867   2.709   0.208   7.001  0.1500 -0.3993  0.3207
25809SOL    HW178868   2.666   0.199   7.086 -0.4303 -3.4989 -0.1991
25809SOL    HW278869   2.801   0.189   7.019  0.3619  0.7110  0.5001
25810SOL     OW78870   6.500   6.985   9.089 -0.2301  0.0409 -0.4762
25810SOL    HW178871   6.513   7.011   9.181  1.0567  0.3177 -0.7206
25810SOL    HW278872   6.440   7.050   9.054  0.3030  0.7197 -0.1673
25811SOL     OW78873   6.735   7.438   8.970 -0.4710 -0.3699  0.2011
25811SOL    HW178874   6.661   7.497   8.987 -3.4131 -3.6127 -0.1341
25811SOL    HW278875   6.766   7.464   8.884 -2.2643  0.2055 -0.3311
25812SOL     OW78876   0.516   6.321   6.812 -0.1355  0.4743 -0.0768
25812SOL    HW178877   0.586   6.359   6.866  1.2704 -0.3441 -1.2685
25812SOL    HW278878   0.449   6.390   6.809  1.0367  1.6796  0.2967
25813SOL     OW78879   2.425   0.182   9.344  0.3912 -0.2214  0.0630
25813SOL    HW178880   2.474   0.121   9.399 -0.9603  0.2865  1.8942
25813SOL    HW278881   2.400   0.253   9.402 -0.1183  0.9328 -1.4862
25814SOL     OW78882   7.492   6.405   7.754 -0.3520  0.6448  0.3650
25814SOL    HW178883   7.525   6.495   7.745 -0.2110  0.6398  0.8187
25814SOL    HW278884   7.441   6.407   7.835  0.6207  0.0275  1.0075
25815SOL     OW78885   0.646   7.598   8.371  0.1870  0.2260  0.1602
25815SOL    HW178886   0.571   7.610   8.429 -1.0922 -0.7416 -1.2207
25815SOL    HW278887   0.624   7.646   8.292  1.5525  0.8658  0.1391
25816SOL     OW78888   7.828   0.880   8.369 -0.0160 -0.3505  0.1695
25816SOL    HW178889   7.859   0.869   8.279  0.3335 -1.1027  0.3685
25816SOL    HW278890   7.885   0.948   8.405 -0.6552  0.5056 -0.3913
25817SOL     OW78891   1.522   6.592   8.018  0.0422 -0.0230  0.1348
25817SOL    HW178892   1.561   6.558   8.098 -0.1983  0.7456  0.5946
25817SOL    HW278893   1.596   6.631   7.971 -0.1131  1.3009  0.9370
25818SOL     OW78894   1.153   0.013   8.037  0.0557  0.3538 -0.4783
25818SOL    HW178895   1.143  -0.009   7.944 -1.9620 -0.8238 -0.0346
25818SOL    HW278896   1.154   0.108   8.039 -1.0535  0.4128 -1.6251
25819SOL     OW78897   7.886   0.228   7.882  0.1382 -0.1954  0.8962
25819SOL    HW178898   7.811   0.268   7.838  0.7717  0.1701  0.1281
25819SOL    HW278899   7.870   0.244   7.975  1.0888  3.2592  0.5994
25820SOL     OW78900   6.242   0.995   7.274 -0.4418  0.1099 -0.6125
25820SOL    HW178901   6.267   0.993   7.182 -1.1935  1.0883 -0.8513
25820SOL    HW278902   6.153   0.959   7.276 -0.1983 -0.4869 -0.1809
25821SOL     OW78903   6.085   1.324   7.234  0.0386  0.1957  0.0213
25821SOL    HW178904   6.102   1.397   7.175  0.7587  0.9883  1.1825
25821SOL    HW278905   6.060   1.364   7.317 -1.3526 -0.9038  0.1822
25822SOL     OW78906   6.798   7.050  11.150 -0.0943 -0.1965  0.4364
25822SOL    HW178907   6.824   6.966  11.188  0.3865 -0.1597  0.1951
25822SOL    HW278908   6.786   7.032  11.057  0.5279  0.1106  0.2907
25823SOL     OW78909   7.145   0.112   9.630  0.0671  0.2650  0.1515
25823SOL    HW178910   7.087   0.187   9.620 -0.2320  0.1469  0.9385
25823SOL    HW278911   7.090   0.036   9.611 -0.2381  0.1072  1.5495
25824SOL     OW78912   1.991   5.375  12.306 -0.1222 -0.5290 -0.1654
25824SOL    HW178913   2.056   5.322  12.260 -0.5137 -0.9812 -0.2005
25824SOL    HW278914   2.041   5.449  12.340  0.1248  0.0075 -1.5982
25825SOL     OW78915   0.973   0.256  10.990 -0.5972  0.7997  0.3602
25825SOL    HW178916   0.880   0.257  11.015 -0.9193  1.6952 -0.7885
25825SOL    HW278917   1.018   0.226  11.069 -1.8446  0.5090  1.0000
25826SOL     OW78918   6.532   7.781  10.007 -0.4157 -0.0806  0.0075
25826SOL    HW178919   6.575   7.839   9.944 -0.2768  0.7451  0.8332
25826SOL    HW278920   6.577   7.697   9.997  1.4195  0.7450  0.8091
25827SOL     OW78921   6.148   7.797  11.013  0.3570  0.1998  0.4468
25827SOL    HW178922   6.056   7.798  11.037 -0.2286 -1.7474 -1.4152
25827SOL    HW278923   6.189   7.742  11.080 -0.2058 -0.4776  0.2490
25828SOL     OW78924   1.533   6.979  10.968 -0.0303  0.5080 -0.6763
25828SOL    HW178925   1.506   6.929  11.045 -1.4723 -0.0008 -1.4788
25828SOL    HW278926   1.629   6.983  10.974  0.0592 -1.4944 -0.0648
25829SOL     OW78927   0.054   7.648   9.304 -0.4778  0.2243 -0.6919
25829SOL    HW178928   0.039   7.588   9.378 -0.6438  0.3217 -0.6454
25829SOL    HW278929   0.094   7.725   9.345 -0.5135  0.2535 -0.7121
25830SOL     OW78930   0.029   7.896  10.422  0.3704 -0.4029  0.0072
25830SOL    HW178931   0.050   7.908  10.514  1.7298 -1.4219 -0.1414
25830SOL    HW278932   0.111   7.912  10.376 -0.5697  1.4319 -1.1850
25831SOL     OW78933   1.046   7.408  10.079  0.5821 -0.4269  0.3570
25831SOL    HW178934   1.015   7.319  10.094  1.7368 -0.9484 -0.2932
25831SOL    HW278935   1.110   7.401  10.009  2.0378  0.6477  1.5111
25832SOL     OW78936   6.886   6.161  10.244 -0.3206  0.4673  0.4077
25832SOL    HW178937   6.965   6.126  10.203  1.2021  0.2496  3.2468
25832SOL    HW278938   6.825   6.088  10.244  0.2611 -0.0284  0.0623
25833SOL     OW78939   7.047   7.820  11.133 -0.6560  0.1564  0.1619
25833SOL    HW178940   7.011   7.738  11.166 -1.1989  0.1611 -0.4128
25833SOL    HW278941   6.971   7.873  11.112 -0.3413  1.3877  1.8907
25834SOL     OW78942   7.648   7.492  11.741  0.1586 -0.1369 -0.6050
25834SOL    HW178943   7.624   7.583  11.761 -0.6096 -0.2067 -1.1797
25834SOL    HW278944   7.573   7.441  11.770 -0.7112 -0.3054 -2.9851
25835SOL     OW78945   7.293   7.478  11.202 -0.0208  0.3811  0.1108
25835SOL    HW178946   7.245   7.511  11.278 -0.9483 -0.9583  0.1367
25835SOL    HW278947   7.314   7.388  11.225 -0.2455 -0.0186 -1.1896
25836SOL     OW78948   7.545   0.549  10.894  0.0319 -0.2655 -0.0563
25836SOL    HW178949   7.574   0.624  10.946 -1.3965 -1.2395  2.3466
25836SOL    HW278950   7.493   0.587  10.824 -0.0244  1.0285  0.6524
25837SOL     OW78951   7.057   0.943   9.168 -0.4493 -0.0364 -0.1680
25837SOL    HW178952   7.090   1.005   9.233 -1.4597  0.2426  0.0986
25837SOL    HW278953   6.962   0.954   9.170 -0.4358  1.9060 -3.5670
25838SOL     OW78954   7.613   1.231  11.145  0.1123  0.6628  0.5720
25838SOL    HW178955   7.670   1.155  11.131 -0.2279  0.0067  2.5031
25838SOL    HW278956   7.526   1.202  11.118  0.1741  0.7147  0.3170
25839SOL     OW78957   6.584   0.088  10.216  0.4352  0.8887  0.1532
25839SOL    HW178958   6.524   0.071  10.144 -1.1312  3.5720  0.7009
25839SOL    HW278959   6.574   0.013  10.275 -1.2459  0.5714 -0.4953
25840SOL     OW78960   0.778   1.335   9.888 -0.0796  0.3005  0.6130
25840SOL    HW178961   0.703   1.319   9.944  0.1192  1.9188  1.3975
25840SOL    HW278962   0.742   1.381   9.812  0.0409  0.6178  0.7468
25841SOL     OW78963   7.899   7.269   9.986 -0.3095 -0.7549  0.1448
25841SOL    HW178964   7.821   7.233  10.029 -2.0648  0.7766 -1.5688
25841SOL    HW278965   7.933   7.332  10.049 -0.2228 -1.6706  1.0474
25842SOL     OW78966   6.957   0.495   7.806  0.0187  0.7162 -0.8953
25842SOL    HW178967   6.983   0.586   7.822  1.0533  0.9200 -3.3526
25842SOL    HW278968   7.019   0.443   7.857 -0.3779  1.3443  0.2729
25843SOL     OW78969   7.164   0.876  11.086 -0.3219 -0.0345  0.0577
25843SOL    HW178970   7.153   0.850  11.177 -1.0745 -0.1221 -0.0529
25843SOL    HW278971   7.147   0.797  11.036  1.6152 -0.3814 -0.1122
25844SOL     OW78972   6.001   1.639  12.464 -0.5036  0.3580  0.2463
25844SOL    HW178973   6.060   1.574  12.424  0.0225  1.8637 -1.5733
25844SOL    HW278974   5.932   1.651  12.399 -1.2353  0.7710  1.0864
25845SOL     OW78975   7.034   7.919  10.652 -0.2060  0.0256  0.5670
25845SOL    HW178976   7.038   7.878  10.738 -0.0226 -0.1888  0.4584
25845SOL    HW278977   7.123   7.912  10.618 -0.5824 -1.2330 -0.2526
25846SOL     OW78978   7.696   6.666  11.589 -0.0760 -0.0061  0.5252
25846SOL    HW178979   7.639   6.619  11.528 -0.1335 -1.8541  1.9246
25846SOL    HW278980   7.636   6.717  11.643 -0.0868  0.9739 -0.3879
25847SOL     OW78981   7.793   1.175  11.558  0.5856  0.1219 -0.3210
25847SOL    HW178982   7.850   1.103  11.531 -0.0006 -0.8345  0.8937
25847SOL    HW278983   7.706   1.151  11.525 -0.0314 -0.8017  1.8252
25848SOL     OW78984   2.273   0.672  10.723 -0.2932 -0.0204  0.0582
25848SOL    HW178985   2.193   0.682  10.671 -0.0635 -0.4932 -0.3932
25848SOL    HW278986   2.318   0.597  10.684 -0.7516 -1.2637  1.7738
25849SOL     OW78987   7.584   5.881  10.933  0.3491  0.0361 -0.1442
25849SOL    HW178988   7.511   5.914  10.985  0.5784  0.4866 -0.1105
25849SOL    HW278989   7.555   5.794  10.905  0.4254 -0.4117  1.1354
25850SOL     OW78990   7.580   6.005  10.345  0.2912  0.5493 -0.3053
25850SOL    HW178991   7.525   6.019  10.268 -0.7011  0.1790  0.3167
25850SOL    HW278992   7.552   6.072  10.407  0.1528  0.0223  0.2141
25851SOL     OW78993   5.784   0.830  12.279 -0.1499 -0.4256 -0.0792
25851SOL    HW178994   5.822   0.790  12.201  1.3261  0.7515 -0.0029
25851SOL    HW278995   5.842   0.903  12.299 -1.0260 -0.1466  1.5955
25852SOL     OW78996   0.929   7.629  10.427  0.1883 -0.2947  0.6629
25852SOL    HW178997   0.925   7.555  10.488 -0.8923 -0.6285  0.2152
25852SOL    HW278998   0.904   7.591  10.342 -1.3228  0.7666  0.6107
25853SOL     OW78999   0.938   2.462   0.074 -0.3557  0.0045 -0.1049
25853SOL    HW179000   0.939   2.366   0.076 -1.6690 -0.0238  1.0884
25853SOL    HW279001   0.865   2.484   0.016  1.0547  0.3397 -1.8280
25854SOL     OW79002   0.491   0.405  11.301  0.2785  0.0309 -0.4078
25854SOL    HW179003   0.407   0.433  11.338  0.4392 -1.1819  0.9910
25854SOL    HW279004   0.533   0.485  11.272 -1.1594  0.7141 -0.7020
25855SOL     OW79005   0.453   7.680  11.439 -0.0202 -0.1068  0.6313
25855SOL    HW179006   0.532   7.626  11.437 -0.3089 -0.5317 -0.3395
25855SOL    HW279007   0.422   7.675  11.529  1.5785  0.8594  1.2809
25856SOL     OW79008   1.604   0.105  11.391  0.2736  0.0760 -0.2693
25856SOL    HW179009   1.577   0.197  11.382  2.2063  0.6008 -1.0205
25856SOL    HW279010   1.597   0.088  11.485  0.6809  1.2598 -0.0082
25857SOL     OW79011   0.007   6.090  10.433  0.2270  0.7397  0.5452
25857SOL    HW179012   0.021   6.153  10.363  0.6871 -0.0129 -0.0567
25857SOL    HW279013   0.088   6.093  10.484 -0.1600  1.3855  1.1386
25858SOL     OW79014   2.214   7.631  11.544 -0.3239 -0.2840  0.4380
25858SOL    HW179015   2.298   7.621  11.591 -0.3964  0.7460  0.8207
25858SOL    HW279016   2.204   7.726  11.534 -1.0964 -0.4337 -0.2585
25859SOL     OW79017   1.739   1.629  10.647 -0.5218  0.2831  0.3889
25859SOL    HW179018   1.798   1.669  10.583  1.4012 -0.8071  1.3899
25859SOL    HW279019   1.755   1.535  10.640 -1.0725  0.0688  1.7065
25860SOL     OW79020   7.556   5.146  11.134 -0.1637  0.0616  0.2559
25860SOL    HW179021   7.548   5.172  11.226  0.5936 -0.1060  0.3777
25860SOL    HW279022   7.467   5.122  11.108 -0.4006  0.1914  0.9177
25861NA      NA79023   0.410   1.906   3.068 -0.2189  0.1127 -0.3174
25862NA      NA79024   1.892   0.055   8.221  0.4815 -0.0703  0.0447
25863NA      NA79025   1.253   7.490  10.650 -0.0195  0.2020  0.0583
25864NA      NA79026   0.960   0.594  12.453  0.0073 -0.2631  0.1534
25865NA      NA79027   2.031   0.744  10.409  0.2253  0.1522  0.4564
25866NA      NA79028   1.349   2.721   5.149  0.1783  0.0052 -0.4926
25867NA      NA79029   1.456   2.656   8.021 -0.3816 -0.5134  0.4897
25868NA      NA79030   0.004   1.329   9.867 -0.1067  0.2915 -0.0265
25869NA      NA79031   0.155   2.254  10.031  0.2649  0.3658 -0.1854
25870NA      NA79032   2.632   3.256  10.040  0.2720 -0.6319  0.3666
25871NA      NA79033   2.396   3.269   0.372  0.2548  0.0037 -0.3159
25872NA      NA79034   0.533   5.330   0.978  0.1796 -0.4975  0.4928
25873NA      NA79035   0.203   4.200   2.609 -0.2275 -0.0334 -0.1100
25874NA      NA79036   1.458   4.290   5.571  0.3477  0.0407  0.8400
25875NA      NA79037   1.395   3.278   4.647 -0.7609  0.0358  0.1552
25876NA      NA79038   7.967   5.168   4.249 -0.0050 -0.3630 -0.0466
25877NA      NA79039   0.457   3.817   8.487  0.0105  0.3094 -0.2269
25878NA      NA79040   0.579   4.476   7.545 -0.0007  0.0117  0.2036
25879NA      NA79041   0.218   4.480   9.016 -0.0143 -0.0258  0.2635
25880NA      NA79042   7.313   5.426   3.390 -0.1707 -0.1797  0.1733
25881NA      NA79043   7.833   7.399   1.680  0.0234 -0.2738  0.1428
25882NA      NA79044   1.203   5.352   2.346 -0.4047 -0.3297  0.4835
25883NA      NA79045   1.600   5.100   6.372  0.4013 -0.2019  0.1183
25884NA      NA79046   0.883   7.583   8.347  0.6993  0.3907  0.4214
25885NA      NA79047   7.448   5.467  10.394  0.0218 -0.4343 -0.2713
25886NA      NA79048   0.908   7.640   3.708  0.1036 -0.2201  0.7344
25887NA      NA79049   0.195   7.995   8.631 -0.0978  0.7824  0.1015
25888NA      NA79050   2.864   1.068  11.802  0.3062  0.0669 -0.0443
25889NA      NA79051   2.157   1.318   5.324  0.0967 -0.1291 -0.1118
25890NA      NA79052   2.718   1.304   5.583 -0.2315  0.0449 -0.5641
25891NA      NA79053   1.719   7.763  10.278  0.4863  0.3863 -0.0432
25892NA      NA79054   3.052   2.316  10.910  0.3599  0.2756 -0.3272
25893NA      NA79055   2.515   2.370   2.689 -0.1057 -0.1104 -0.0261
25894NA      NA79056   2.347   2.941   2.877  0.4904  0.1953 -0.1214
25895NA      NA79057   2.578   1.607   4.412  0.5168  0.5492 -0.1090
25896NA      NA79058   2.295   2.500   8.043  0.4141 -0.3918 -0.4637
25897NA      NA79059   3.113   2.713   9.239 -0.2913 -0.2323  0.1565
25898NA      NA79060   2.646   6.076   1.416 -0.4659 -0.1433 -0.2912
25899NA      NA79061   3.554   4.358   3.842  0.1262  0.0435  0.3120
25900NA      NA79062   2.760   5.621   9.507 -0.0115  0.0543  0.0535
25901NA      NA79063   1.937   4.860  12.487 -0.3281 -0.0397 -0.2101
25902NA      NA79064   2.731   4.543  10.256  0.2488  0.0470  0.6694
25903NA      NA79065   3.589   6.610  12.154 -0.0817 -0.2176 -0.0190
25904NA      NA79066   3.192   6.576   4.266  0.6207 -0.3782  0.1433
25905NA      NA79067   1.427   5.647   4.477 -0.1113  0.0605 -0.0902
25906NA      NA79068   1.196   6.767   9.106  0.0986 -0.2099  0.1059
25907NA      NA79069   3.071   6.478   8.261  0.1448 -0.1759  0.0071
25908NA      NA79070   3.968   5.958  12.390  0.2114  0.3069  0.1575
25909NA      NA79071   2.459   7.635   1.119  0.0419  0.2677 -0.2327
25910NA      NA79072   3.141   0.310   0.949  0.2174 -0.1866 -0.1398
25911NA      NA79073   2.171   6.408  10.270 -0.6986  0.4370 -0.7199
25912NA      NA79074   4.984   0.072   3.707 -0.1183  0.0340 -0.2327
25913NA      NA79075   3.778   1.639   7.270 -0.0215 -0.4116 -0.2054
25914NA      NA79076   4.796   0.192  10.853  0.2676 -0.1392 -0.0539
25915NA      NA79077   5.349   2.310  11.721 -0.1792 -0.1041 -0.3693
25916NA      NA79078   5.767   2.395  11.952  0.5101 -0.0915 -0.5346
25917NA      NA79079   4.841   4.925   0.755 -0.3294 -0.2370  0.3636
25918NA      NA79080   4.007   6.451   2.803  0.4268  0.2466  0.6606
25919NA      NA79081   5.499   6.798   7.316  0.2885  0.2250  0.4963
25920NA      NA79082   3.858   6.033   5.797 -0.1886  0.2510 -0.2097
25921NA      NA79083   4.054   5.615   7.455 -0.3477  0.1396  0.0324
25922NA      NA79084   4.011   5.163   7.858 -0.2956  0.4477 -0.0886
25923NA      NA79085   4.812   6.389  11.943  0.1941 -0.0980 -0.1264
25924NA      NA79086   5.169   6.790   2.578  0.2874  0.3829 -0.3617
25925NA      NA79087   3.929   7.168   2.102 -0.0893  0.5149  0.1742
25926NA      NA79088   3.576   6.377   6.459 -0.0368  0.1190 -0.1336
25927NA      NA79089   6.296   1.738   3.448  0.0836 -0.3748  0.3050
25928NA      NA79090   6.565   1.325   7.107  0.8494 -0.2015  0.3324
25929NA      NA79091   5.117   0.211   7.075  0.2317 -0.0728 -0.1915
25930NA      NA79092   6.002   0.587   0.059 -0.4560  0.6288 -0.3017
25931NA      NA79093   6.225   2.510   3.319 -0.1968  0.4526  0.9188
25932NA      NA79094   5.839   3.628   3.601 -0.0956  0.0937 -0.5066
25933NA      NA79095   6.122   4.171   5.234  0.2511  0.1940  0.4084
25934NA      NA79096   5.488   3.253   5.644 -0.2845  0.1075  0.2403
25935NA      NA79097   5.555   3.244   3.300  0.1614 -0.1679 -0.3630
25936NA      NA79098   6.203   2.670   9.106  0.2335  0.3750  0.0612
25937NA      NA79099   6.462   0.537   9.376 -0.8512 -0.0915  0.0379
25938NA      NA79100   5.901   2.365   0.643  0.1062 -0.3461  0.2238
25939NA      NA79101   6.984   3.860  11.976  0.2685 -0.2632  0.2371
25940NA      NA79102   5.581   5.528   5.482  0.1707 -0.0677  0.1355
25941NA      NA79103   7.504   4.808  11.635  0.0038  0.2339 -0.2302
25942NA      NA79104   5.742   6.224  12.475  0.3516 -0.6817 -0.1257
25943NA      NA79105   6.039   6.298   5.323 -0.2659 -0.5240 -0.4780
25944NA      NA79106   5.499   4.966   6.759  0.2694  0.6361 -0.9085
25945NA      NA79107   5.650   7.142   9.815  0.0199  0.0208 -0.3778
25946NA      NA79108   7.177   7.748   6.503 -0.1517 -0.4802  0.2319
25947NA      NA79109   7.761   1.224   0.557 -0.4744 -0.1508  0.0938
25948NA      NA79110   0.456   1.288   7.881 -0.0985 -0.0769  0.1904
25949NA      NA79111   7.654   2.581   9.564 -0.0719  0.3946  0.1917
25950NA      NA79112   7.932   2.054   1.117 -0.0196 -0.7453  0.6829
25951NA      NA79113   7.000   2.383   6.133 -0.1171  0.1721  0.3982
25952NA      NA79114   7.420   4.714   3.183  0.5227  0.8474  0.0513
25953NA      NA79115   7.688   3.345   9.929 -0.0472  0.3536  0.8803
25954NA      NA79116   0.128   0.074   4.811  0.0199  0.1934 -0.3349
25955NA      NA79117   7.235   0.337   5.242 -0.0648 -0.3170  0.1833
25956NA      NA79118   7.387   7.907  10.848  0.6193 -0.5188 -0.2790
25957CL      CL79119   7.870   0.209   0.686  0.5712 -0.0382 -0.2574
25958CL      CL79120   1.384   2.597   1.519  0.2520 -0.1306 -0.2230
25959CL      CL79121   1.654   2.578   3.034  0.2722  0.0233  0.0558
25960CL      CL79122   7.318   3.016   9.342 -0.1087  0.2771 -0.0293
25961CL      CL79123   7.933   4.459   1.666  0.3025  0.2326 -0.0538
25962CL      CL79124   7.976   5.129   1.983 -0.0161  0.0135  0.0914
25963CL      CL79125   1.113   6.204   4.931  0.5230 -0.0754  0.1219
25964CL      CL79126   7.465   5.602   5.359  0.0860  0.0514  0.5003
25965CL      CL79127   1.238   4.463   7.281  0.2498 -0.2712 -0.3550
25966CL      CL79128   1.986   7.226   0.448  0.4318  0.1945 -0.0266
25967CL      CL79129   0.074   7.468   8.129 -0.0708 -0.5417  0.0363
25968CL      CL79130   3.377   0.540   3.053  0.3745 -0.0110  0.0242
25969CL      CL79131   1.104   0.333   8.057  0.1706 -0.5636 -0.1287
25970CL      CL79132   2.030   2.036   9.504  0.0885 -0.0582  0.6273
25971CL      CL79133   2.006   1.449  10.192  0.0339 -0.0888  0.1529
25972CL      CL79134   2.131   5.588   0.402 -0.1201 -0.0673 -0.0528
25973CL      CL79135   1.105   4.200   5.056 -0.3572 -0.0042  0.0408
25974CL      CL79136   0.998   6.388   3.129  0.1126 -0.0105 -0.0830
25975CL      CL79137   2.782   7.152   5.777  0.0034 -0.4372  0.1514
25976CL      CL79138   2.570   7.804   2.182  0.0254  0.3465 -0.1653
25977CL      CL79139   6.609   1.373   5.263  0.1891  0.0314  0.2624
25978CL      CL79140   3.076   0.484   6.907 -0.3224  0.4674  0.1063
25979CL      CL79141   3.751   0.432  11.331 -0.3965  0.0060  0.2228
25980CL      CL79142   6.093   0.246   9.260 -0.0643  0.0686  0.0893
25981CL      CL79143   5.279   1.964   1.755  0.3439  0.3553 -0.0355
25982CL      CL79144   4.408   0.858   2.728  0.5472  0.0341 -0.1374
25983CL      CL79145   5.689   4.724  10.346 -0.3914  0.0655  0.3842
25984CL      CL79146   4.262   6.337  12.456 -0.0847 -0.0286 -0.0310
25985CL      CL79147   4.338   7.465   2.327  0.3928  0.6205 -0.2415
25986CL      CL79148   4.896   6.147   3.380  0.1907 -0.4812  0.0690
25987CL      CL79149   3.435   6.772   5.750 -0.0968 -0.1591 -0.2921
25988CL      CL79150   5.379   7.185   6.948 -0.3519  0.0548  0.1245
25989CL      CL79151   5.687   7.388   5.557 -0.0084 -0.0541  0.4136
25990CL      CL79152   4.173   6.152   8.568  0.1045 -0.3140  0.1968
25991CL      CL79153   5.047   0.371   1.866  0.6264  0.2889 -0.2909
25992CL      CL79154   5.266   0.877   9.450  0.2992 -0.3202  0.0929
25993CL      CL79155   7.717   2.424  12.388  0.0013 -0.0250 -0.0469
25994CL      CL79156   7.054   2.778   6.160  0.2245  0.4505  0.0193
25995CL      CL79157   0.987   3.931   3.298  0.0888 -0.0195  0.0323
25996CL      CL79158   6.302   4.258   4.649  0.0759  0.3820 -0.5069
25997CL      CL79159   0.714   7.186   9.055 -0.3455  0.3935  0.0285
25998CL      CL79160   0.094   3.048  11.889 -0.3119  0.0614  0.1335
25999CL      CL79161   7.210   6.155   0.862  0.3570  0.2610 -0.0797
26000CL      CL79162   6.984   7.861   7.137 -0.0365  0.0509  0.1431
26001CL      CL79163   6.885   6.456   9.489 -0.4599 -0.3049  1.1281
26002CL      CL79164   6.561   1.003   0.455  0.1340 -0.0500 -0.3262
26003CL      CL79165   7.582   5.172   9.792 -0.0960 -0.0746  0.1209
26004CL      CL79166   0.460   7.363   0.384 -0.4803 -0.3144  0.1432
   8.00000   8.00000  12.50000
