Protein in water
78490
    1DC     O5'    1   3.005   4.366   3.335
    1DC     H5T    2   3.066   4.330   3.402
    1DC     C5'    3   2.885   4.290   3.334
    1DC    H5'1    4   2.812   4.341   3.273
    1DC    H5'2    5   2.845   4.286   3.436
    1DC     C4'    6   2.896   4.146   3.280
    1DC     H4'    7   2.795   4.109   3.263
    1DC     O4'    8   2.968   4.136   3.157
    1DC     C1'    9   3.039   4.012   3.153
    1DC     H1'   10   3.007   3.953   3.068
    1DC      N1   11   3.187   4.035   3.144
    1DC      C6   12   3.246   4.148   3.193
    1DC      H6   13   3.188   4.220   3.249
    1DC      C5   14   3.379   4.169   3.175
    1DC      H5   15   3.426   4.257   3.218
    1DC      C4   16   3.453   4.069   3.107
    1DC      N4   17   3.580   4.086   3.086
    1DC     H41   18   3.628   4.161   3.135
    1DC     H42   19   3.633   4.009   3.047
    1DC      N3   20   3.398   3.961   3.055
    1DC      C2   21   3.266   3.939   3.078
    1DC      O2   22   3.218   3.833   3.036
    1DC     C3'   23   2.962   4.049   3.377
    1DC     H3'   24   3.050   4.095   3.422
    1DC     C2'   25   3.002   3.938   3.281
    1DC    H2'1   26   3.085   3.880   3.321
    1DC    H2'2   27   2.917   3.872   3.263
    1DC     O3'   28   2.869   4.001   3.473
    2DG       P   29   2.918   3.972   3.622
    2DG     O1P   30   2.797   3.934   3.700
    2DG     O2P   31   2.998   4.087   3.665
    2DG     O5'   32   3.009   3.843   3.603
    2DG     C5'   33   2.947   3.717   3.589
    2DG    H5'1   34   2.866   3.724   3.517
    2DG    H5'2   35   2.906   3.687   3.685
    2DG     C4'   36   3.045   3.610   3.542
    2DG     H4'   37   2.989   3.518   3.527
    2DG     O4'   38   3.107   3.645   3.419
    2DG     C1'   39   3.233   3.581   3.416
    2DG     H1'   40   3.236   3.511   3.334
    2DG      N9   41   3.341   3.679   3.397
    2DG      C8   42   3.337   3.816   3.409
    2DG      H8   43   3.250   3.869   3.447
    2DG      N7   44   3.445   3.876   3.369
    2DG      C5   45   3.532   3.770   3.340
    2DG      C6   46   3.669   3.769   3.295
    2DG      O6   47   3.740   3.863   3.261
    2DG      N1   48   3.722   3.643   3.286
    2DG      H1   49   3.820   3.636   3.264
    2DG      C2   50   3.652   3.530   3.308
    2DG      N2   51   3.718   3.419   3.291
    2DG     H21   52   3.817   3.423   3.271
    2DG     H22   53   3.669   3.332   3.298
    2DG      N3   54   3.523   3.524   3.339
    2DG      C4   55   3.470   3.649   3.358
    2DG     C3'   56   3.156   3.579   3.641
    2DG     H3'   57   3.197   3.671   3.684
    2DG     C2'   58   3.253   3.508   3.549
    2DG    H2'1   59   3.355   3.516   3.586
    2DG    H2'2   60   3.226   3.403   3.538
    2DG     O3'   61   3.107   3.488   3.737
    3DA       P   62   3.175   3.475   3.880
    3DA     O1P   63   3.089   3.379   3.952
    3DA     O2P   64   3.198   3.610   3.935
    3DA     O5'   65   3.317   3.407   3.847
    3DA     C5'   66   3.323   3.269   3.819
    3DA    H5'1   67   3.251   3.246   3.740
    3DA    H5'2   68   3.295   3.215   3.909
    3DA     C4'   69   3.460   3.216   3.773
    3DA     H4'   70   3.449   3.108   3.759
    3DA     O4'   71   3.507   3.270   3.650
    3DA     C1'   72   3.647   3.294   3.661
    3DA     H1'   73   3.703   3.254   3.577
    3DA      N9   74   3.676   3.439   3.663
    3DA      C8   75   3.598   3.545   3.702
    3DA      H8   76   3.501   3.533   3.748
    3DA      N7   77   3.650   3.662   3.673
    3DA      C5   78   3.775   3.629   3.619
    3DA      C6   79   3.886   3.702   3.569
    3DA      N6   80   3.897   3.833   3.564
    3DA     H61   81   3.830   3.888   3.618
    3DA     H62   82   3.988   3.873   3.546
    3DA      N1   83   3.994   3.638   3.523
    3DA      C2   84   3.995   3.506   3.527
    3DA      H2   85   4.086   3.458   3.491
    3DA      N3   86   3.900   3.424   3.568
    3DA      C4   87   3.792   3.494   3.614
    3DA     C3'   88   3.570   3.231   3.878
    3DA     H3'   89   3.562   3.326   3.931
    3DA     C2'   90   3.693   3.224   3.788
    3DA    H2'1   91   3.778   3.273   3.833
    3DA    H2'2   92   3.718   3.120   3.767
    3DA     O3'   93   3.569   3.118   3.963
    4DC       P   94   3.617   3.129   4.114
    4DC     O1P   95   3.588   2.996   4.172
    4DC     O2P   96   3.553   3.248   4.172
    4DC     O5'   97   3.777   3.155   4.100
    4DC     C5'   98   3.868   3.048   4.078
    4DC    H5'1   99   3.831   2.987   3.996
    4DC    H5'2  100   3.871   2.986   4.168
    4DC     C4'  101   4.012   3.092   4.044
    4DC     H4'  102   4.070   3.001   4.031
    4DC     O4'  103   4.019   3.166   3.922
    4DC     C1'  104   4.125   3.261   3.929
    4DC     H1'  105   4.198   3.243   3.850
    4DC      N1  106   4.077   3.402   3.917
    4DC      C6  107   3.948   3.437   3.947
    4DC      H6  108   3.881   3.364   3.989
    4DC      C5  109   3.906   3.564   3.924
    4DC      H5  110   3.803   3.591   3.943
    4DC      C4  111   4.001   3.659   3.878
    4DC      N4  112   3.965   3.783   3.861
    4DC     H41  113   3.872   3.812   3.885
    4DC     H42  114   4.033   3.852   3.832
    4DC      N3  115   4.126   3.627   3.850
    4DC      C2  116   4.166   3.499   3.868
    4DC      O2  117   4.282   3.471   3.839
    4DC     C3'  118   4.085   3.175   4.151
    4DC     H3'  119   4.017   3.248   4.196
    4DC     C2'  120   4.191   3.240   4.064
    4DC    H2'1  121   4.226   3.334   4.108
    4DC    H2'2  122   4.275   3.172   4.051
    4DC     O3'  123   4.151   3.094   4.248
    5DT       P  124   4.199   3.153   4.390
    5DT     O1P  125   4.260   3.044   4.467
    5DT     O2P  126   4.091   3.234   4.448
    5DT     O5'  127   4.318   3.253   4.353
    5DT     C5'  128   4.445   3.203   4.316
    5DT    H5'1  129   4.432   3.136   4.231
    5DT    H5'2  130   4.487   3.145   4.397
    5DT     C4'  131   4.544   3.313   4.278
    5DT     H4'  132   4.639   3.265   4.256
    5DT     O4'  133   4.501   3.381   4.161
    5DT     C1'  134   4.537   3.518   4.171
    5DT     H1'  135   4.598   3.546   4.086
    5DT      N1  136   4.419   3.609   4.174
    5DT      C6  137   4.296   3.570   4.224
    5DT      H6  138   4.285   3.475   4.272
    5DT      C5  139   4.187   3.650   4.210
    5DT      C7  140   4.053   3.602   4.264
    5DT     H71  141   3.992   3.687   4.293
    5DT     H72  142   4.000   3.546   4.187
    5DT     H73  143   4.068   3.538   4.352
    5DT      C4  144   4.199   3.782   4.146
    5DT      O4  145   4.109   3.860   4.121
    5DT      N3  146   4.327   3.817   4.111
    5DT      H3  147   4.341   3.913   4.082
    5DT      C2  148   4.438   3.737   4.122
    5DT      O2  149   4.549   3.777   4.084
    5DT     C3'  150   4.572   3.418   4.385
    5DT     H3'  151   4.480   3.443   4.440
    5DT     C2'  152   4.620   3.532   4.298
    5DT    H2'1  153   4.605   3.628   4.346
    5DT    H2'2  154   4.725   3.520   4.274
    5DT     O3'  155   4.678   3.377   4.469
    6DC       P  156   4.693   3.432   4.618
    6DC     O1P  157   4.813   3.365   4.673
    6DC     O2P  158   4.563   3.414   4.687
    6DC     O5'  159   4.723   3.588   4.600
    6DC     C5'  160   4.854   3.630   4.569
    6DC    H5'1  161   4.885   3.575   4.481
    6DC    H5'2  162   4.920   3.604   4.652
    6DC     C4'  163   4.871   3.778   4.538
    6DC     H4'  164   4.978   3.797   4.524
    6DC     O4'  165   4.804   3.815   4.418
    6DC     C1'  166   4.760   3.950   4.431
    6DC     H1'  167   4.803   4.012   4.351
    6DC      N1  168   4.612   3.964   4.426
    6DC      C6  169   4.527   3.861   4.457
    6DC      H6  170   4.566   3.768   4.497
    6DC      C5  171   4.393   3.877   4.442
    6DC      H5  172   4.325   3.797   4.467
    6DC      C4  173   4.346   4.004   4.399
    6DC      N4  174   4.220   4.025   4.380
    6DC     H41  175   4.148   3.959   4.407
    6DC     H42  176   4.188   4.118   4.353
    6DC      N3  177   4.427   4.105   4.375
    6DC      C2  178   4.560   4.088   4.388
    6DC      O2  179   4.633   4.184   4.366
    6DC     C3'  180   4.824   3.871   4.648
    6DC     H3'  181   4.727   3.837   4.687
    6DC     C2'  182   4.810   3.999   4.567
    6DC    H2'1  183   4.741   4.068   4.614
    6DC    H2'2  184   4.908   4.045   4.557
    6DC     O3'  185   4.922   3.885   4.749
    7DT       P  186   4.880   3.931   4.895
    7DT     O1P  187   5.001   3.922   4.980
    7DT     O2P  188   4.760   3.856   4.933
    7DT     O5'  189   4.845   4.084   4.874
    7DT     C5'  190   4.946   4.180   4.853
    7DT    H5'1  191   5.010   4.147   4.772
    7DT    H5'2  192   5.006   4.189   4.944
    7DT     C4'  193   4.891   4.319   4.819
    7DT     H4'  194   4.976   4.383   4.801
    7DT     O4'  195   4.810   4.322   4.701
    7DT     C1'  196   4.698   4.408   4.723
    7DT     H1'  197   4.694   4.484   4.646
    7DT      N1  198   4.568   4.335   4.721
    7DT      C6  199   4.556   4.202   4.755
    7DT      H6  200   4.640   4.149   4.797
    7DT      C5  201   4.439   4.135   4.740
    7DT      C7  202   4.433   3.988   4.779
    7DT     H71  203   4.329   3.956   4.786
    7DT     H72  204   4.485   3.928   4.705
    7DT     H73  205   4.481   3.974   4.876
    7DT      C4  206   4.319   4.206   4.693
    7DT      O4  207   4.208   4.159   4.676
    7DT      N3  208   4.338   4.339   4.667
    7DT      H3  209   4.255   4.392   4.642
    7DT      C2  210   4.455   4.408   4.680
    7DT      O2  211   4.459   4.528   4.654
    7DT     C3'  212   4.813   4.384   4.933
    7DT     H3'  213   4.758   4.309   4.991
    7DT     C2'  214   4.721   4.477   4.857
    7DT    H2'1  215   4.629   4.493   4.911
    7DT    H2'2  216   4.770   4.573   4.840
    7DT     O3'  217   4.905   4.460   5.010
    8DA       P  218   4.879   4.488   5.165
    8DA     O1P  219   4.992   4.573   5.207
    8DA     O2P  220   4.864   4.357   5.231
    8DA     O5'  221   4.745   4.577   5.166
    8DA     C5'  222   4.755   4.715   5.135
    8DA    H5'1  223   4.820   4.726   5.048
    8DA    H5'2  224   4.803   4.765   5.219
    8DA     C4'  225   4.624   4.788   5.104
    8DA     H4'  226   4.651   4.890   5.083
    8DA     O4'  227   4.556   4.742   4.988
    8DA     C1'  228   4.417   4.767   5.005
    8DA     H1'  229   4.379   4.831   4.926
    8DA      N9  230   4.342   4.639   5.000
    8DA      C8  231   4.386   4.513   5.026
    8DA      H8  232   4.487   4.493   5.061
    8DA      N7  233   4.299   4.419   5.000
    8DA      C5  234   4.185   4.491   4.964
    8DA      C6  235   4.052   4.456   4.929
    8DA      N6  236   4.007   4.333   4.920
    8DA     H61  237   4.070   4.256   4.936
    8DA     H62  238   3.913   4.315   4.887
    8DA      N1  239   3.963   4.552   4.904
    8DA      C2  240   4.001   4.678   4.910
    8DA      H2  241   3.924   4.751   4.888
    8DA      N3  242   4.122   4.727   4.938
    8DA      C4  243   4.209   4.626   4.965
    8DA     C3'  244   4.524   4.794   5.219
    8DA     H3'  245   4.514   4.697   5.269
    8DA     C2'  246   4.399   4.834   5.141
    8DA    H2'1  247   4.309   4.801   5.191
    8DA    H2'2  248   4.396   4.942   5.128
    8DA     O3'  249   4.564   4.900   5.306
    9DC       P  250   4.523   4.905   5.461
    9DC     O1P  251   4.585   5.030   5.511
    9DC     O2P  252   4.558   4.776   5.525
    9DC     O5'  253   4.363   4.921   5.460
    9DC     C5'  254   4.303   5.047   5.434
    9DC    H5'1  255   4.351   5.092   5.347
    9DC    H5'2  256   4.319   5.112   5.520
    9DC     C4'  257   4.152   5.039   5.405
    9DC     H4'  258   4.119   5.140   5.381
    9DC     O4'  259   4.125   4.958   5.292
    9DC     C1'  260   3.995   4.901   5.305
    9DC     H1'  261   3.931   4.938   5.224
    9DC      N1  262   3.998   4.753   5.299
    9DC      C6  263   4.110   4.680   5.329
    9DC      H6  264   4.199   4.730   5.367
    9DC      C5  265   4.110   4.545   5.311
    9DC      H5  266   4.198   4.487   5.333
    9DC      C4  267   3.989   4.485   5.266
    9DC      N4  268   3.986   4.357   5.244
    9DC     H41  269   4.070   4.301   5.254
    9DC     H42  270   3.900   4.315   5.211
    9DC      N3  271   3.879   4.553   5.240
    9DC      C2  272   3.881   4.687   5.258
    9DC      O2  273   3.777   4.752   5.237
    9DC     C3'  274   4.064   4.989   5.519
    9DC     H3'  275   4.111   4.903   5.569
    9DC     C2'  276   3.940   4.947   5.440
    9DC    H2'1  277   3.885   4.868   5.491
    9DC    H2'2  278   3.874   5.032   5.425
    9DC     O3'  279   4.028   5.093   5.609
   10DG       P  280   3.980   5.064   5.759
   10DG     O1P  281   3.950   5.196   5.819
   10DG     O2P  282   4.081   4.980   5.825
   10DG     O5'  283   3.841   4.984   5.742
   10DG     C5'  284   3.719   5.056   5.727
   10DG    H5'1  285   3.728   5.121   5.641
   10DG    H5'2  286   3.704   5.117   5.816
   10DG     C4'  287   3.592   4.972   5.708
   10DG     H4'  288   3.509   5.043   5.699
   10DG     O4'  289   3.596   4.899   5.586
   10DG     C1'  290   3.525   4.777   5.604
   10DG     H1'  291   3.446   4.765   5.530
   10DG      N9  292   3.616   4.661   5.589
   10DG      C8  293   3.751   4.651   5.610
   10DG      H8  294   3.810   4.733   5.650
   10DG      N7  295   3.802   4.535   5.576
   10DG      C5  296   3.690   4.460   5.537
   10DG      C6  297   3.676   4.323   5.496
   10DG      O6  298   3.761   4.236   5.480
   10DG      N1  299   3.545   4.286   5.473
   10DG      H1  300   3.529   4.190   5.446
   10DG      C2  301   3.440   4.369   5.487
   10DG      N2  302   3.321   4.319   5.469
   10DG     H21  303   3.311   4.219   5.449
   10DG     H22  304   3.243   4.379   5.484
   10DG      N3  305   3.447   4.497   5.523
   10DG      C4  306   3.576   4.536   5.548
   10DG     C3'  307   3.554   4.879   5.823
   10DG     H3'  308   3.642   4.828   5.863
   10DG     C2'  309   3.464   4.784   5.744
   10DG    H2'1  310   3.460   4.686   5.790
   10DG    H2'2  311   3.363   4.825   5.737
   10DG     O3'  312   3.479   4.950   5.922
   11DG       P  313   3.451   4.892   6.071
   11DG     O1P  314   3.358   4.986   6.139
   11DG     O2P  315   3.579   4.861   6.137
   11DG     O5'  316   3.371   4.755   6.042
   11DG     C5'  317   3.233   4.756   6.007
   11DG    H5'1  318   3.218   4.824   5.924
   11DG    H5'2  319   3.177   4.794   6.093
   11DG     C4'  320   3.175   4.619   5.968
   11DG     H4'  321   3.068   4.633   5.952
   11DG     O4'  322   3.230   4.566   5.849
   11DG     C1'  323   3.232   4.424   5.858
   11DG     H1'  324   3.171   4.378   5.780
   11DG      N9  325   3.368   4.371   5.845
   11DG      C8  326   3.488   4.431   5.877
   11DG      H8  327   3.495   4.530   5.920
   11DG      N7  328   3.592   4.358   5.848
   11DG      C5  329   3.536   4.237   5.804
   11DG      C6  330   3.596   4.113   5.766
   11DG      O6  331   3.715   4.084   5.757
   11DG      N1  332   3.505   4.013   5.740
   11DG      H1  333   3.542   3.923   5.715
   11DG      C2  334   3.371   4.030   5.746
   11DG      N2  335   3.296   3.924   5.731
   11DG     H21  336   3.340   3.832   5.721
   11DG     H22  337   3.198   3.936   5.740
   11DG      N3  338   3.309   4.144   5.777
   11DG      C4  339   3.399   4.244   5.806
   11DG     C3'  340   3.191   4.513   6.076
   11DG     H3'  341   3.289   4.520   6.123
   11DG     C2'  342   3.176   4.385   5.995
   11DG    H2'1  343   3.231   4.303   6.039
   11DG    H2'2  344   3.071   4.357   5.984
   11DG     O3'  345   3.084   4.520   6.168
   12DA       P  346   3.100   4.467   6.317
   12DA     O1P  347   2.968   4.490   6.378
   12DA     O2P  348   3.218   4.533   6.375
   12DA     O5'  349   3.122   4.308   6.298
   12DA     C5'  350   3.008   4.226   6.283
   12DA    H5'1  351   2.943   4.270   6.207
   12DA    H5'2  352   2.954   4.228   6.378
   12DA     C4'  353   3.028   4.078   6.244
   12DA     H4'  354   2.928   4.035   6.242
   12DA     O4'  355   3.085   4.058   6.115
   12DA     C1'  356   3.169   3.943   6.119
   12DA     H1'  357   3.147   3.874   6.037
   12DA      N9  358   3.312   3.978   6.110
   12DA      C8  359   3.375   4.096   6.140
   12DA      H8  360   3.323   4.182   6.181
   12DA      N7  361   3.503   4.097   6.114
   12DA      C5  362   3.527   3.966   6.069
   12DA      C6  363   3.641   3.893   6.028
   12DA      N6  364   3.762   3.945   6.011
   12DA     H61  365   3.771   4.044   5.992
   12DA     H62  366   3.837   3.884   5.979
   12DA      N1  367   3.633   3.763   6.002
   12DA      C2  368   3.514   3.705   6.008
   12DA      H2  369   3.513   3.600   5.983
   12DA      N3  370   3.398   3.759   6.042
   12DA      C4  371   3.412   3.891   6.072
   12DA     C3'  372   3.106   3.993   6.343
   12DA     H3'  373   3.194   4.047   6.379
   12DA     C2'  374   3.142   3.876   6.253
   12DA    H2'1  375   3.229   3.822   6.290
   12DA    H2'2  376   3.058   3.807   6.244
   12DA     O3'  377   3.021   3.948   6.448
   13DA       P  378   3.081   3.915   6.592
   13DA     O1P  379   2.965   3.880   6.678
   13DA     O2P  380   3.173   4.024   6.631
   13DA     O5'  381   3.163   3.780   6.562
   13DA     C5'  382   3.095   3.657   6.549
   13DA    H5'1  383   3.015   3.669   6.476
   13DA    H5'2  384   3.052   3.632   6.646
   13DA     C4'  385   3.181   3.538   6.505
   13DA     H4'  386   3.115   3.453   6.493
   13DA     O4'  387   3.244   3.557   6.378
   13DA     C1'  388   3.374   3.500   6.382
   13DA     H1'  389   3.389   3.431   6.299
   13DA      N9  390   3.477   3.607   6.372
   13DA      C8  391   3.464   3.741   6.396
   13DA      H8  392   3.374   3.785   6.436
   13DA      N7  393   3.569   3.811   6.364
   13DA      C5  394   3.662   3.714   6.326
   13DA      C6  395   3.798   3.716   6.289
   13DA      N6  396   3.872   3.825   6.281
   13DA     H61  397   3.831   3.914   6.306
   13DA     H62  398   3.969   3.823   6.251
   13DA      N1  399   3.863   3.603   6.263
   13DA      C2  400   3.795   3.489   6.272
   13DA      H2  401   3.853   3.400   6.253
   13DA      N3  402   3.668   3.470   6.304
   13DA      C4  403   3.607   3.589   6.332
   13DA     C3'  404   3.286   3.495   6.607
   13DA     H3'  405   3.329   3.582   6.659
   13DA     C2'  406   3.386   3.426   6.515
   13DA    H2'1  407   3.487   3.430   6.555
   13DA    H2'2  408   3.358   3.322   6.501
   13DA     O3'  409   3.226   3.400   6.693
   14DG       P  410   3.280   3.370   6.841
   14DG     O1P  411   3.200   3.256   6.890
   14DG     O2P  412   3.278   3.495   6.919
   14DG     O5'  413   3.432   3.321   6.817
   14DG     C5'  414   3.457   3.185   6.788
   14DG    H5'1  415   3.391   3.153   6.708
   14DG    H5'2  416   3.433   3.127   6.877
   14DG     C4'  417   3.601   3.152   6.747
   14DG     H4'  418   3.605   3.044   6.732
   14DG     O4'  419   3.642   3.213   6.625
   14DG     C1'  420   3.781   3.245   6.633
   14DG     H1'  421   3.835   3.200   6.550
   14DG      N9  422   3.806   3.391   6.627
   14DG      C8  423   3.725   3.496   6.663
   14DG      H8  424   3.626   3.481   6.704
   14DG      N7  425   3.779   3.613   6.644
   14DG      C5  426   3.908   3.583   6.597
   14DG      C6  427   4.020   3.666   6.561
   14DG      O6  428   4.030   3.788   6.556
   14DG      N1  429   4.133   3.595   6.526
   14DG      H1  430   4.215   3.649   6.503
   14DG      C2  431   4.139   3.460   6.523
   14DG      N2  432   4.255   3.407   6.495
   14DG     H21  433   4.335   3.468   6.480
   14DG     H22  434   4.259   3.308   6.488
   14DG      N3  435   4.038   3.378   6.552
   14DG      C4  436   3.925   3.447   6.589
   14DG     C3'  437   3.707   3.182   6.853
   14DG     H3'  438   3.686   3.277   6.903
   14DG     C2'  439   3.832   3.190   6.766
   14DG    H2'1  440   3.907   3.254   6.810
   14DG    H2'2  441   3.873   3.090   6.751
   14DG     O3'  442   3.721   3.073   6.941
   15DG       P  443   3.773   3.095   7.090
   15DG     O1P  444   3.771   2.960   7.151
   15DG     O2P  445   3.693   3.202   7.151
   15DG     O5'  446   3.927   3.138   7.068
   15DG     C5'  447   4.025   3.037   7.046
   15DG    H5'1  448   3.988   2.970   6.970
   15DG    H5'2  449   4.036   2.980   7.139
   15DG     C4'  450   4.166   3.082   7.003
   15DG     H4'  451   4.223   2.991   6.989
   15DG     O4'  452   4.170   3.153   6.879
   15DG     C1'  453   4.274   3.250   6.883
   15DG     H1'  454   4.343   3.237   6.800
   15DG      N9  455   4.223   3.388   6.876
   15DG      C8  456   4.098   3.435   6.908
   15DG      H8  457   4.020   3.371   6.947
   15DG      N7  458   4.083   3.563   6.886
   15DG      C5  459   4.211   3.605   6.846
   15DG      C6  460   4.263   3.734   6.815
   15DG      O6  461   4.206   3.844   6.811
   15DG      N1  462   4.397   3.735   6.784
   15DG      H1  463   4.437   3.825   6.760
   15DG      C2  464   4.474   3.624   6.781
   15DG      N2  465   4.601   3.643   6.755
   15DG     H21  466   4.636   3.738   6.743
   15DG     H22  467   4.662   3.563   6.752
   15DG      N3  468   4.431   3.500   6.806
   15DG      C4  469   4.298   3.497   6.840
   15DG     C3'  470   4.244   3.164   7.105
   15DG     H3'  471   4.179   3.237   7.156
   15DG     C2'  472   4.347   3.231   7.016
   15DG    H2'1  473   4.380   3.326   7.058
   15DG    H2'2  474   4.433   3.166   7.001
   15DG     O3'  475   4.314   3.079   7.194
   16DG       P  476   4.358   3.127   7.339
   16DG     O1P  477   4.430   3.012   7.398
   16DG     O2P  478   4.239   3.184   7.407
   16DG     O5'  479   4.466   3.243   7.309
   16DG     C5'  480   4.602   3.208   7.291
   16DG    H5'1  481   4.608   3.131   7.215
   16DG    H5'2  482   4.637   3.165   7.386
   16DG     C4'  483   4.701   3.318   7.256
   16DG     H4'  484   4.798   3.268   7.248
   16DG     O4'  485   4.676   3.380   7.130
   16DG     C1'  486   4.700   3.520   7.142
   16DG     H1'  487   4.764   3.558   7.062
   16DG      N9  488   4.577   3.601   7.137
   16DG      C8  489   4.448   3.570   7.172
   16DG      H8  490   4.418   3.473   7.209
   16DG      N7  491   4.365   3.669   7.157
   16DG      C5  492   4.444   3.775   7.113
   16DG      C6  493   4.415   3.913   7.084
   16DG      O6  494   4.308   3.974   7.087
   16DG      N1  495   4.527   3.986   7.051
   16DG      H1  496   4.512   4.083   7.031
   16DG      C2  497   4.652   3.935   7.044
   16DG      N2  498   4.750   4.017   7.021
   16DG     H21  499   4.731   4.117   7.013
   16DG     H22  500   4.841   3.978   7.013
   16DG      N3  501   4.685   3.808   7.068
   16DG      C4  502   4.576   3.733   7.102
   16DG     C3'  503   4.719   3.425   7.363
   16DG     H3'  504   4.625   3.447   7.414
   16DG     C2'  505   4.768   3.541   7.277
   16DG    H2'1  506   4.741   3.636   7.321
   16DG    H2'2  507   4.876   3.537   7.266
   16DG     O3'  508   4.823   3.384   7.450
   17DC       P  509   4.836   3.437   7.601
   17DC     O1P  510   4.960   3.376   7.652
   17DC     O2P  511   4.708   3.413   7.670
   17DC     O5'  512   4.862   3.594   7.580
   17DC     C5'  513   4.992   3.636   7.545
   17DC    H5'1  514   5.024   3.578   7.459
   17DC    H5'2  515   5.058   3.614   7.629
   17DC     C4'  516   5.008   3.783   7.509
   17DC     H4'  517   5.115   3.797   7.491
   17DC     O4'  518   4.940   3.819   7.390
   17DC     C1'  519   4.890   3.951   7.403
   17DC     H1'  520   4.923   4.012   7.318
   17DC      N1  521   4.742   3.959   7.409
   17DC      C6  522   4.663   3.855   7.452
   17DC      H6  523   4.708   3.764   7.488
   17DC      C5  524   4.528   3.868   7.448
   17DC      H5  525   4.464   3.786   7.478
   17DC      C4  526   4.475   3.992   7.404
   17DC      N4  527   4.346   4.007   7.397
   17DC     H41  528   4.289   3.924   7.405
   17DC     H42  529   4.309   4.090   7.353
   17DC      N3  530   4.549   4.095   7.368
   17DC      C2  531   4.683   4.081   7.372
   17DC      O2  532   4.753   4.178   7.344
   17DC     C3'  533   4.969   3.882   7.618
   17DC     H3'  534   4.878   3.849   7.669
   17DC     C2'  535   4.948   4.006   7.533
   17DC    H2'1  536   4.881   4.076   7.582
   17DC    H2'2  537   5.043   4.056   7.513
   17DC     O3'  538   5.079   3.902   7.705
   18DA       P  539   5.057   3.945   7.857
   18DA     O1P  540   5.193   3.960   7.915
   18DA     O2P  541   4.959   3.855   7.918
   18DA     O5'  542   4.994   4.092   7.839
   18DA     C5'  543   5.081   4.201   7.815
   18DA    H5'1  544   5.143   4.178   7.728
   18DA    H5'2  545   5.144   4.211   7.902
   18DA     C4'  546   5.014   4.336   7.790
   18DA     H4'  547   5.093   4.409   7.778
   18DA     O4'  548   4.937   4.336   7.670
   18DA     C1'  549   4.822   4.417   7.692
   18DA     H1'  550   4.812   4.492   7.613
   18DA      N9  551   4.699   4.335   7.691
   18DA      C8  552   4.681   4.201   7.718
   18DA      H8  553   4.761   4.136   7.751
   18DA      N7  554   4.559   4.160   7.701
   18DA      C5  555   4.490   4.277   7.663
   18DA      C6  556   4.357   4.310   7.630
   18DA      N6  557   4.257   4.225   7.620
   18DA     H61  558   4.278   4.126   7.621
   18DA     H62  559   4.166   4.258   7.589
   18DA      N1  560   4.322   4.437   7.605
   18DA      C2  561   4.416   4.530   7.608
   18DA      H2  562   4.384   4.630   7.586
   18DA      N3  563   4.545   4.514   7.634
   18DA      C4  564   4.575   4.384   7.660
   18DA     C3'  565   4.926   4.385   7.906
   18DA     H3'  566   4.866   4.303   7.945
   18DA     C2'  567   4.842   4.485   7.827
   18DA    H2'1  568   4.746   4.505   7.875
   18DA    H2'2  569   4.896   4.578   7.813
   18DA     O3'  570   5.004   4.449   8.006
   19DT       P  571   4.945   4.484   8.153
   19DT     O1P  572   5.048   4.561   8.226
   19DT     O2P  573   4.884   4.365   8.215
   19DT     O5'  574   4.826   4.586   8.125
   19DT     C5'  575   4.849   4.724   8.108
   19DT    H5'1  576   4.914   4.738   8.021
   19DT    H5'2  577   4.900   4.763   8.197
   19DT     C4'  578   4.720   4.802   8.089
   19DT     H4'  579   4.747   4.907   8.076
   19DT     O4'  580   4.654   4.760   7.969
   19DT     C1'  581   4.514   4.767   7.989
   19DT     H1'  582   4.469   4.830   7.912
   19DT      N1  583   4.447   4.633   7.981
   19DT      C6  584   4.513   4.516   8.013
   19DT      H6  585   4.615   4.520   8.047
   19DT      C5  586   4.452   4.396   8.001
   19DT      C7  587   4.531   4.270   8.034
   19DT     H71  588   4.482   4.183   7.990
   19DT     H72  589   4.631   4.277   7.993
   19DT     H73  590   4.535   4.257   8.141
   19DT      C4  591   4.313   4.387   7.957
   19DT      O4  592   4.245   4.285   7.947
   19DT      N3  593   4.254   4.508   7.928
   19DT      H3  594   4.157   4.505   7.899
   19DT      C2  595   4.313   4.631   7.942
   19DT      O2  596   4.247   4.733   7.922
   19DT     C3'  597   4.619   4.793   8.205
   19DT     H3'  598   4.612   4.690   8.242
   19DT     C2'  599   4.496   4.833   8.125
   19DT    H2'1  600   4.404   4.801   8.172
   19DT    H2'2  601   4.493   4.942   8.112
   19DT     O3'  602   4.648   4.888   8.309
   20DC       P  603   4.577   4.885   8.455
   20DC     O1P  604   4.630   5.002   8.528
   20DC     O2P  605   4.589   4.752   8.518
   20DC     O5'  606   4.424   4.913   8.428
   20DC     C5'  607   4.376   5.044   8.405
   20DC    H5'1  608   4.430   5.089   8.322
   20DC    H5'2  609   4.390   5.104   8.495
   20DC     C4'  610   4.227   5.039   8.371
   20DC     H4'  611   4.193   5.140   8.349
   20DC     O4'  612   4.208   4.958   8.257
   20DC     C1'  613   4.083   4.891   8.267
   20DC     H1'  614   4.020   4.922   8.184
   20DC      N1  615   4.096   4.742   8.264
   20DC      C6  616   4.212   4.676   8.293
   20DC      H6  617   4.297   4.730   8.332
   20DC      C5  618   4.220   4.541   8.274
   20DC      H5  619   4.312   4.489   8.295
   20DC      C4  620   4.103   4.474   8.230
   20DC      N4  621   4.105   4.346   8.210
   20DC     H41  622   4.192   4.298   8.208
   20DC     H42  623   4.022   4.301   8.172
   20DC      N3  624   3.988   4.536   8.211
   20DC      C2  625   3.983   4.670   8.225
   20DC      O2  626   3.876   4.727   8.204
   20DC     C3'  627   4.140   4.983   8.483
   20DC     H3'  628   4.190   4.900   8.533
   20DC     C2'  629   4.021   4.937   8.400
   20DC    H2'1  630   3.968   4.856   8.449
   20DC    H2'2  631   3.953   5.020   8.382
   20DC     O3'  632   4.101   5.086   8.573
   21DT       P  633   4.067   5.058   8.728
   21DT     O1P  634   4.019   5.187   8.784
   21DT     O2P  635   4.179   4.988   8.794
   21DT     O5'  636   3.940   4.959   8.720
   21DT     C5'  637   3.813   5.013   8.687
   21DT    H5'1  638   3.825   5.080   8.601
   21DT    H5'2  639   3.779   5.073   8.772
   21DT     C4'  640   3.700   4.915   8.653
   21DT     H4'  641   3.613   4.978   8.635
   21DT     O4'  642   3.717   4.843   8.533
   21DT     C1'  643   3.643   4.721   8.543
   21DT     H1'  644   3.571   4.712   8.461
   21DT      N1  645   3.736   4.605   8.537
   21DT      C6  646   3.870   4.619   8.568
   21DT      H6  647   3.908   4.715   8.599
   21DT      C5  648   3.955   4.514   8.562
   21DT      C7  649   4.101   4.539   8.594
   21DT     H71  650   4.163   4.463   8.546
   21DT     H72  651   4.132   4.637   8.558
   21DT     H73  652   4.117   4.533   8.702
   21DT      C4  653   3.907   4.381   8.523
   21DT      O4  654   3.972   4.277   8.519
   21DT      N3  655   3.773   4.377   8.491
   21DT      H3  656   3.737   4.286   8.465
   21DT      C2  657   3.683   4.479   8.502
   21DT      O2  658   3.562   4.458   8.484
   21DT     C3'  659   3.661   4.815   8.762
   21DT     H3'  660   3.750   4.762   8.797
   21DT     C2'  661   3.571   4.726   8.678
   21DT    H2'1  662   3.559   4.627   8.721
   21DT    H2'2  663   3.473   4.772   8.665
   21DT     O3'  664   3.589   4.877   8.868
   22DG       P  665   3.578   4.812   9.016
   22DG     O1P  666   3.505   4.908   9.101
   22DG     O2P  667   3.712   4.763   9.059
   22DG     O5'  668   3.486   4.684   8.997
   22DG     C5'  669   3.346   4.697   8.977
   22DG    H5'1  670   3.328   4.767   8.895
   22DG    H5'2  671   3.301   4.737   9.068
   22DG     C4'  672   3.279   4.564   8.942
   22DG     H4'  673   3.172   4.581   8.929
   22DG     O4'  674   3.331   4.512   8.821
   22DG     C1'  675   3.339   4.371   8.830
   22DG     H1'  676   3.282   4.325   8.749
   22DG      N9  677   3.480   4.325   8.818
   22DG      C8  678   3.596   4.392   8.845
   22DG      H8  679   3.599   4.494   8.883
   22DG      N7  680   3.704   4.323   8.821
   22DG      C5  681   3.656   4.199   8.779
   22DG      C6  682   3.723   4.076   8.743
   22DG      O6  683   3.843   4.051   8.734
   22DG      N1  684   3.635   3.972   8.721
   22DG      H1  685   3.677   3.883   8.697
   22DG      C2  686   3.501   3.982   8.727
   22DG      N2  687   3.431   3.874   8.707
   22DG     H21  688   3.480   3.786   8.691
   22DG     H22  689   3.332   3.882   8.701
   22DG      N3  690   3.433   4.094   8.754
   22DG      C4  691   3.518   4.199   8.781
   22DG     C3'  692   3.297   4.457   9.050
   22DG     H3'  693   3.398   4.463   9.091
   22DG     C2'  694   3.281   4.331   8.965
   22DG    H2'1  695   3.335   4.247   9.009
   22DG    H2'2  696   3.176   4.306   8.954
   22DG     O3'  697   3.196   4.464   9.150
   23DC       P  698   3.227   4.421   9.300
   23DC     O1P  699   3.106   4.451   9.382
   23DC     O2P  700   3.355   4.484   9.340
   23DC     O5'  701   3.244   4.261   9.291
   23DC     C5'  702   3.131   4.176   9.273
   23DC    H5'1  703   3.069   4.218   9.193
   23DC    H5'2  704   3.073   4.178   9.365
   23DC     C4'  705   3.158   4.029   9.240
   23DC     H4'  706   3.060   3.981   9.235
   23DC     O4'  707   3.219   4.012   9.112
   23DC     C1'  708   3.301   3.896   9.114
   23DC     H1'  709   3.272   3.826   9.035
   23DC      N1  710   3.445   3.929   9.096
   23DC      C6  711   3.495   4.054   9.123
   23DC      H6  712   3.431   4.131   9.162
   23DC      C5  713   3.626   4.079   9.100
   23DC      H5  714   3.666   4.177   9.118
   23DC      C4  715   3.708   3.972   9.053
   23DC      N4  716   3.834   3.994   9.034
   23DC     H41  717   3.868   4.088   9.042
   23DC     H42  718   3.891   3.923   8.989
   23DC      N3  719   3.662   3.851   9.029
   23DC      C2  720   3.530   3.828   9.050
   23DC      O2  721   3.487   3.714   9.029
   23DC     C3'  722   3.238   3.947   9.341
   23DC     H3'  723   3.324   4.004   9.377
   23DC     C2'  724   3.278   3.831   9.251
   23DC    H2'1  725   3.368   3.781   9.287
   23DC    H2'2  726   3.197   3.759   9.244
   23DC     O3'  727   3.155   3.899   9.446
   24DG       P  728   3.215   3.847   9.585
   24DG     O1P  729   3.100   3.802   9.668
   24DG     O2P  730   3.302   3.952   9.641
   24DG     O5'  731   3.303   3.718   9.552
   24DG     C5'  732   3.238   3.595   9.527
   24DG    H5'1  733   3.170   3.609   9.443
   24DG    H5'2  734   3.181   3.566   9.614
   24DG     C4'  735   3.333   3.480   9.493
   24DG     H4'  736   3.274   3.389   9.486
   24DG     O4'  737   3.394   3.500   9.365
   24DG     C1'  738   3.527   3.454   9.371
   24DG     H1'  739   3.549   3.384   9.290
   24DG      N9  740   3.624   3.566   9.360
   24DG      C8  741   3.609   3.699   9.390
   24DG      H8  742   3.518   3.740   9.432
   24DG      N7  743   3.714   3.772   9.363
   24DG      C5  744   3.807   3.679   9.314
   24DG      C6  745   3.943   3.692   9.270
   24DG      O6  746   4.013   3.794   9.259
   24DG      N1  747   4.003   3.572   9.240
   24DG      H1  748   4.100   3.575   9.212
   24DG      C2  749   3.939   3.453   9.244
   24DG      N2  750   4.008   3.348   9.212
   24DG     H21  751   4.105   3.360   9.184
   24DG     H22  752   3.958   3.261   9.202
   24DG      N3  753   3.813   3.435   9.281
   24DG      C4  754   3.752   3.552   9.315
   24DG     C3'  755   3.443   3.454   9.597
   24DG     H3'  756   3.484   3.549   9.633
   24DG     C2'  757   3.540   3.381   9.505
   24DG    H2'1  758   3.642   3.385   9.541
   24DG    H2'2  759   3.509   3.277   9.493
   24DG     O3'  760   3.396   3.371   9.705
   25DC       P  761   3.472   3.359   9.847
   25DC     O1P  762   3.404   3.253   9.925
   25DC     O2P  763   3.491   3.492   9.909
   25DC     O5'  764   3.619   3.305   9.813
   25DC     C5'  765   3.638   3.170   9.777
   25DC    H5'1  766   3.571   3.148   9.694
   25DC    H5'2  767   3.613   3.109   9.863
   25DC     C4'  768   3.780   3.135   9.732
   25DC     H4'  769   3.785   3.028   9.715
   25DC     O4'  770   3.811   3.201   9.611
   25DC     C1'  771   3.949   3.232   9.609
   25DC     H1'  772   3.997   3.188   9.520
   25DC      N1  773   3.973   3.380   9.608
   25DC      C6  774   3.878   3.471   9.646
   25DC      H6  775   3.783   3.438   9.686
   25DC      C5  776   3.904   3.604   9.635
   25DC      H5  777   3.830   3.677   9.663
   25DC      C4  778   4.031   3.642   9.585
   25DC      N4  779   4.060   3.767   9.563
   25DC     H41  780   3.988   3.836   9.572
   25DC     H42  781   4.147   3.787   9.515
   25DC      N3  782   4.125   3.556   9.553
   25DC      C2  783   4.097   3.424   9.564
   25DC      O2  784   4.188   3.344   9.541
   25DC     C3'  785   3.889   3.172   9.832
   25DC     H3'  786   3.872   3.273   9.870
   25DC     C2'  787   4.008   3.170   9.737
   25DC    H2'1  788   4.092   3.228   9.776
   25DC    H2'2  789   4.039   3.068   9.716
   25DC     O3'  790   3.906   3.077   9.935
   25DC     H3T  791   3.951   3.119  10.009
   26G      O5'  792   5.057   3.974   9.219
   26G      H5T  793   4.995   3.986   9.143
   26G      C5'  794   5.136   3.860   9.190
   26G     H5'1  795   5.232   3.868   9.241
   26G     H5'2  796   5.155   3.857   9.084
   26G      C4'  797   5.071   3.727   9.230
   26G      H4'  798   5.151   3.654   9.233
   26G      O4'  799   5.006   3.731   9.357
   26G      C1'  800   4.888   3.651   9.350
   26G      H1'  801   4.886   3.577   9.429
   26G       N9  802   4.764   3.732   9.361
   26G       C8  803   4.744   3.867   9.346
   26G       H8  804   4.822   3.934   9.313
   26G       N7  805   4.624   3.907   9.379
   26G       C5  806   4.556   3.788   9.408
   26G       C6  807   4.419   3.762   9.446
   26G       O6  808   4.326   3.841   9.467
   26G       N1  809   4.392   3.628   9.462
   26G       H1  810   4.296   3.603   9.481
   26G       C2  811   4.485   3.530   9.451
   26G       N2  812   4.446   3.408   9.472
   26G      H21  813   4.347   3.387   9.483
   26G      H22  814   4.514   3.334   9.469
   26G       N3  815   4.614   3.550   9.425
   26G       C4  816   4.642   3.681   9.400
   26G      C3'  817   4.970   3.673   9.128
   26G      H3'  818   4.905   3.754   9.095
   26G      C2'  819   4.892   3.576   9.217
   26G     H2'1  820   4.792   3.558   9.177
   26G      O2'  821   4.962   3.454   9.238
   26G     HO'2  822   4.971   3.414   9.150
   26G      O3'  823   5.034   3.606   9.021
   27C        P  824   4.960   3.594   8.880
   27C      O1P  825   5.050   3.524   8.785
   27C      O2P  826   4.910   3.729   8.848
   27C      O5'  827   4.839   3.497   8.916
   27C      C5'  828   4.859   3.357   8.923
   27C     H5'1  829   4.944   3.335   8.988
   27C     H5'2  830   4.882   3.319   8.824
   27C      C4'  831   4.737   3.280   8.976
   27C      H4'  832   4.769   3.177   8.995
   27C      O4'  833   4.685   3.335   9.097
   27C      C1'  834   4.543   3.328   9.094
   27C      H1'  835   4.508   3.271   9.180
   27C       N1  836   4.475   3.460   9.097
   27C       C6  837   4.536   3.576   9.055
   27C       H6  838   4.634   3.573   9.011
   27C       C5  839   4.472   3.694   9.069
   27C       H5  840   4.520   3.785   9.035
   27C       C4  841   4.341   3.693   9.123
   27C       N4  842   4.276   3.804   9.140
   27C      H41  843   4.315   3.888   9.102
   27C      H42  844   4.180   3.799   9.171
   27C       N3  845   4.280   3.582   9.163
   27C       C2  846   4.345   3.465   9.148
   27C       O2  847   4.285   3.362   9.180
   27C      C3'  848   4.624   3.273   8.875
   27C      H3'  849   4.616   3.367   8.820
   27C      C2'  850   4.503   3.253   8.967
   27C     H2'1  851   4.414   3.296   8.922
   27C      O2'  852   4.480   3.116   9.000
   27C     HO'2  853   4.446   3.078   8.918
   27C      O3'  854   4.641   3.161   8.789
   28G        P  855   4.584   3.165   8.640
   28G      O1P  856   4.615   3.033   8.582
   28G      O2P  857   4.632   3.288   8.576
   28G      O5'  858   4.428   3.170   8.673
   28G      C5'  859   4.354   3.050   8.677
   28G     H5'1  860   4.403   2.979   8.743
   28G     H5'2  861   4.353   3.007   8.577
   28G      C4'  862   4.211   3.067   8.725
   28G      H4'  863   4.168   2.968   8.740
   28G      O4'  864   4.198   3.141   8.847
   28G      C1'  865   4.079   3.219   8.836
   28G      H1'  866   4.009   3.195   8.916
   28G       N9  867   4.106   3.364   8.841
   28G       C8  868   4.217   3.436   8.805
   28G       H8  869   4.305   3.392   8.760
   28G       N7  870   4.209   3.563   8.835
   28G       C5  871   4.078   3.579   8.882
   28G       C6  872   4.002   3.694   8.924
   28G       O6  873   4.036   3.812   8.936
   28G       N1  874   3.871   3.665   8.954
   28G       H1  875   3.809   3.741   8.973
   28G       C2  876   3.818   3.541   8.947
   28G       N2  877   3.690   3.529   8.968
   28G      H21  878   3.634   3.613   8.978
   28G      H22  879   3.649   3.440   8.948
   28G       N3  880   3.884   3.430   8.916
   28G       C4  881   4.014   3.456   8.883
   28G      C3'  882   4.128   3.135   8.618
   28G      H3'  883   4.182   3.219   8.572
   28G      C2'  884   4.012   3.184   8.704
   28G     H2'1  885   3.964   3.271   8.659
   28G      O2'  886   3.919   3.079   8.724
   28G     HO'2  887   3.898   3.052   8.633
   28G      O3'  888   4.088   3.037   8.525
   29C        P  889   4.035   3.078   8.381
   29C      O1P  890   3.998   2.950   8.316
   29C      O2P  891   4.134   3.169   8.322
   29C      O5'  892   3.904   3.158   8.423
   29C      C5'  893   3.779   3.093   8.431
   29C     H5'1  894   3.786   3.005   8.495
   29C     H5'2  895   3.753   3.060   8.331
   29C      C4'  896   3.665   3.182   8.480
   29C      H4'  897   3.579   3.117   8.497
   29C      O4'  898   3.691   3.251   8.601
   29C      C1'  899   3.627   3.378   8.595
   29C      H1'  900   3.558   3.389   8.678
   29C       N1  901   3.723   3.492   8.600
   29C       C6  902   3.852   3.481   8.556
   29C       H6  903   3.885   3.389   8.509
   29C       C5  904   3.936   3.586   8.566
   29C       H5  905   4.037   3.576   8.531
   29C       C4  906   3.883   3.708   8.614
   29C       N4  907   3.958   3.814   8.615
   29C      H41  908   4.042   3.809   8.560
   29C      H42  909   3.917   3.902   8.645
   29C       N3  910   3.759   3.720   8.659
   29C       C2  911   3.677   3.613   8.652
   29C       O2  912   3.562   3.625   8.694
   29C      C3'  913   3.620   3.283   8.376
   29C      H3'  914   3.705   3.326   8.324
   29C      C2'  915   3.548   3.385   8.465
   29C     H2'1  916   3.550   3.484   8.419
   29C      O2'  917   3.415   3.343   8.491
   29C     HO'2  918   3.389   3.306   8.406
   29C      O3'  919   3.526   3.220   8.289
   30A        P  920   3.505   3.271   8.141
   30A      O1P  921   3.410   3.172   8.085
   30A      O2P  922   3.638   3.290   8.080
   30A      O5'  923   3.432   3.412   8.167
   30A      C5'  924   3.292   3.418   8.190
   30A     H5'1  925   3.266   3.348   8.269
   30A     H5'2  926   3.240   3.386   8.099
   30A      C4'  927   3.241   3.557   8.229
   30A      H4'  928   3.136   3.546   8.256
   30A      O4'  929   3.308   3.610   8.343
   30A      C1'  930   3.327   3.750   8.326
   30A      H1'  931   3.285   3.804   8.410
   30A       N9  932   3.469   3.788   8.316
   30A       C8  933   3.579   3.717   8.273
   30A       H8  934   3.571   3.618   8.229
   30A       N7  935   3.693   3.779   8.291
   30A       C5  936   3.655   3.903   8.343
   30A       C6  937   3.724   4.019   8.385
   30A       N6  938   3.854   4.034   8.387
   30A      H61  939   3.910   3.964   8.342
   30A      H62  940   3.894   4.122   8.418
   30A       N1  941   3.657   4.124   8.432
   30A       C2  942   3.525   4.117   8.436
   30A       H2  943   3.477   4.203   8.478
   30A       N3  944   3.446   4.016   8.404
   30A       C4  945   3.519   3.910   8.356
   30A      C3'  946   3.242   3.662   8.117
   30A      H3'  947   3.330   3.649   8.053
   30A      C2'  948   3.251   3.791   8.200
   30A     H2'1  949   3.304   3.869   8.145
   30A      O2'  950   3.123   3.837   8.242
   30A     HO'2  951   3.072   3.840   8.160
   30A      O3'  952   3.118   3.658   8.046
   31G        P  953   3.101   3.726   7.902
   31G      O1P  954   2.955   3.729   7.875
   31G      O2P  955   3.192   3.659   7.808
   31G      O5'  956   3.149   3.876   7.928
   31G      C5'  957   3.051   3.977   7.943
   31G     H5'1  958   2.980   3.946   8.019
   31G     H5'2  959   3.001   3.985   7.846
   31G      C4'  960   3.101   4.116   7.978
   31G      H4'  961   3.013   4.177   8.002
   31G      O4'  962   3.189   4.119   8.089
   31G      C1'  963   3.277   4.228   8.068
   31G      H1'  964   3.265   4.301   8.148
   31G       N9  965   3.418   4.185   8.066
   31G       C8  966   3.473   4.063   8.035
   31G       H8  967   3.413   3.979   8.001
   31G       N7  968   3.602   4.057   8.053
   31G       C5  969   3.636   4.188   8.091
   31G       C6  970   3.763   4.249   8.123
   31G       O6  971   3.874   4.201   8.132
   31G       N1  972   3.752   4.385   8.148
   31G       H1  973   3.838   4.434   8.163
   31G       C2  974   3.636   4.453   8.148
   31G       N2  975   3.639   4.581   8.172
   31G      H21  976   3.730   4.626   8.180
   31G      H22  977   3.554   4.632   8.164
   31G       N3  978   3.515   4.400   8.127
   31G       C4  979   3.524   4.266   8.096
   31G      C3'  980   3.170   4.183   7.861
   31G      H3'  981   3.242   4.114   7.815
   31G      C2'  982   3.243   4.295   7.936
   31G     H2'1  983   3.332   4.327   7.881
   31G      O2'  984   3.157   4.406   7.963
   31G     HO'2  985   3.130   4.436   7.875
   31G      O3'  986   3.074   4.232   7.770
   32A        P  987   3.113   4.261   7.620
   32A      O1P  988   2.986   4.297   7.552
   32A      O2P  989   3.190   4.147   7.571
   32A      O5'  990   3.210   4.387   7.636
   32A      C5'  991   3.162   4.519   7.646
   32A     H5'1  992   3.081   4.523   7.718
   32A     H5'2  993   3.123   4.547   7.548
   32A      C4'  994   3.270   4.621   7.687
   32A      H4'  995   3.220   4.714   7.710
   32A      O4'  996   3.347   4.582   7.801
   32A      C1'  997   3.481   4.628   7.786
   32A      H1'  998   3.510   4.693   7.869
   32A       N9  999   3.579   4.517   7.782
   32A       C8 1000   3.562   4.386   7.745
   32A       H8 1001   3.468   4.347   7.705
   32A       N7 1002   3.666   4.311   7.766
   32A       C5 1003   3.764   4.402   7.810
   32A       C6 1004   3.900   4.393   7.846
   32A       N6 1005   3.971   4.283   7.847
   32A      H61 1006   3.929   4.199   7.810
   32A      H62 1007   4.069   4.285   7.872
   32A       N1 1008   3.968   4.503   7.882
   32A       C2 1009   3.904   4.618   7.884
   32A       H2 1010   3.963   4.704   7.913
   32A       N3 1011   3.776   4.643   7.856
   32A       C4 1012   3.711   4.528   7.818
   32A      C3' 1013   3.370   4.652   7.576
   32A      H3' 1014   3.398   4.561   7.523
   32A      C2' 1015   3.487   4.708   7.657
   32A     H2'1 1016   3.582   4.693   7.604
   32A      O2' 1017   3.466   4.845   7.687
   32A     HO'2 1018   3.440   4.880   7.601
   32A      O3' 1019   3.317   4.754   7.490
   33U        P 1020   3.359   4.758   7.337
   33U      O1P 1021   3.282   4.872   7.277
   33U      O2P 1022   3.346   4.622   7.285
   33U      O5' 1023   3.514   4.798   7.351
   33U      C5' 1024   3.553   4.933   7.355
   33U     H5'1 1025   3.488   4.985   7.424
   33U     H5'2 1026   3.538   4.977   7.256
   33U      C4' 1027   3.699   4.956   7.398
   33U      H4' 1028   3.710   5.062   7.421
   33U      O4' 1029   3.740   4.882   7.513
   33U      C1' 1030   3.879   4.852   7.499
   33U      H1' 1031   3.936   4.897   7.581
   33U       N1 1032   3.907   4.706   7.500
   33U       C6 1033   3.811   4.613   7.467
   33U       H6 1034   3.714   4.644   7.429
   33U       C5 1035   3.837   4.480   7.482
   33U       H5 1036   3.762   4.406   7.458
   33U       C4 1037   3.966   4.432   7.528
   33U       O4 1038   3.996   4.316   7.551
   33U       N3 1039   4.057   4.531   7.550
   33U       H3 1040   4.150   4.500   7.576
   33U       C2 1041   4.036   4.666   7.538
   33U       O2 1042   4.127   4.746   7.560
   33U      C3' 1043   3.798   4.925   7.288
   33U      H3' 1044   3.773   4.831   7.239
   33U      C2' 1045   3.927   4.914   7.368
   33U     H2'1 1046   3.999   4.850   7.318
   33U      O2' 1047   3.985   5.042   7.394
   33U     HO'2 1048   4.005   5.078   7.307
   33U      O3' 1049   3.801   5.036   7.199
   34G        P 1050   3.834   5.018   7.046
   34G      O1P 1051   3.829   5.155   6.991
   34G      O2P 1052   3.744   4.915   6.992
   34G      O5' 1053   3.986   4.970   7.056
   34G      C5' 1054   4.089   5.067   7.062
   34G     H5'1 1055   4.062   5.144   7.134
   34G     H5'2 1056   4.097   5.115   6.964
   34G      C4' 1057   4.227   5.013   7.101
   34G      H4' 1058   4.292   5.099   7.115
   34G      O4' 1059   4.227   4.939   7.222
   34G      C1' 1060   4.325   4.836   7.212
   34G      H1' 1061   4.397   4.843   7.293
   34G       N9 1062   4.265   4.702   7.217
   34G       C8 1063   4.136   4.662   7.190
   34G       H8 1064   4.060   4.730   7.153
   34G       N7 1065   4.113   4.536   7.216
   34G       C5 1066   4.239   4.486   7.254
   34G       C6 1067   4.285   4.353   7.288
   34G       O6 1068   4.222   4.249   7.302
   34G       N1 1069   4.422   4.346   7.304
   34G       H1 1070   4.460   4.254   7.319
   34G       C2 1071   4.505   4.452   7.297
   34G       N2 1072   4.633   4.429   7.310
   34G      H21 1073   4.666   4.333   7.319
   34G      H22 1074   4.694   4.507   7.307
   34G       N3 1075   4.468   4.578   7.272
   34G       C4 1076   4.333   4.587   7.250
   34G      C3' 1077   4.292   4.927   6.993
   34G      H3' 1078   4.219   4.858   6.949
   34G      C2' 1079   4.397   4.854   7.078
   34G     H2'1 1080   4.424   4.758   7.033
   34G      O2' 1081   4.511   4.937   7.094
   34G     HO'2 1082   4.517   4.979   7.006
   34G      O3' 1083   4.354   5.013   6.899
   35C        P 1084   4.379   4.966   6.750
   35C      O1P 1085   4.447   5.083   6.687
   35C      O2P 1086   4.255   4.912   6.695
   35C      O5' 1087   4.484   4.848   6.771
   35C      C5' 1088   4.621   4.876   6.779
   35C     H5'1 1089   4.634   4.957   6.849
   35C     H5'2 1090   4.653   4.908   6.680
   35C      C4' 1091   4.709   4.758   6.824
   35C      H4' 1092   4.809   4.796   6.843
   35C      O4' 1093   4.666   4.694   6.943
   35C      C1' 1094   4.695   4.555   6.930
   35C      H1' 1095   4.761   4.522   7.011
   35C       N1 1096   4.571   4.472   6.935
   35C       C6 1097   4.447   4.521   6.900
   35C       H6 1098   4.437   4.620   6.858
   35C       C5 1099   4.337   4.444   6.916
   35C       H5 1100   4.240   4.482   6.889
   35C       C4 1101   4.355   4.313   6.968
   35C       N4 1102   4.252   4.237   6.989
   35C      H41 1103   4.160   4.268   6.967
   35C      H42 1104   4.268   4.143   7.026
   35C       N3 1105   4.473   4.264   6.998
   35C       C2 1106   4.583   4.340   6.980
   35C       O2 1107   4.693   4.292   7.004
   35C      C3' 1108   4.722   4.653   6.715
   35C      H3' 1109   4.624   4.634   6.669
   35C      C2' 1110   4.768   4.532   6.797
   35C     H2'1 1111   4.734   4.440   6.750
   35C      O2' 1112   4.909   4.528   6.818
   35C     HO'2 1113   4.939   4.450   6.767
   35C      O3' 1114   4.819   4.697   6.622
   36C        P 1115   4.807   4.660   6.469
   36C      O1P 1116   4.927   4.719   6.406
   36C      O2P 1117   4.673   4.704   6.426
   36C      O5' 1118   4.823   4.500   6.476
   36C      C5' 1119   4.954   4.444   6.484
   36C     H5'1 1120   5.012   4.502   6.556
   36C     H5'2 1121   5.000   4.455   6.386
   36C      C4' 1122   4.963   4.297   6.525
   36C      H4' 1123   5.068   4.275   6.544
   36C      O4' 1124   4.893   4.268   6.645
   36C      C1' 1125   4.845   4.133   6.639
   36C      H1' 1126   4.887   4.073   6.720
   36C       N1 1127   4.697   4.126   6.648
   36C       C6 1128   4.617   4.235   6.623
   36C       H6 1129   4.660   4.325   6.582
   36C       C5 1130   4.484   4.229   6.650
   36C       H5 1131   4.421   4.315   6.634
   36C       C4 1132   4.432   4.105   6.699
   36C       N4 1133   4.305   4.093   6.721
   36C      H41 1134   4.242   4.169   6.700
   36C      H42 1135   4.271   4.003   6.753
   36C       N3 1136   4.507   3.998   6.719
   36C       C2 1137   4.639   4.006   6.694
   36C       O2 1138   4.707   3.905   6.711
   36C      C3' 1139   4.918   4.198   6.418
   36C      H3' 1140   4.827   4.233   6.368
   36C      C2' 1141   4.892   4.074   6.505
   36C     H2'1 1142   4.815   4.011   6.461
   36C      O2' 1143   5.011   3.999   6.528
   36C     HO'2 1144   5.032   3.963   6.440
   36C      O3' 1145   5.026   4.179   6.328
   37C        P 1146   5.009   4.109   6.186
   37C      O1P 1147   5.147   4.082   6.141
   37C      O2P 1148   4.921   4.193   6.103
   37C      O5' 1149   4.938   3.968   6.215
   37C      C5' 1150   5.012   3.847   6.217
   37C     H5'1 1151   5.096   3.858   6.286
   37C     H5'2 1152   5.053   3.830   6.117
   37C      C4' 1153   4.931   3.723   6.258
   37C      H4' 1154   5.003   3.643   6.276
   37C      O4' 1155   4.855   3.743   6.377
   37C      C1' 1156   4.738   3.661   6.372
   37C      H1' 1157   4.741   3.587   6.452
   37C       N1 1158   4.610   3.737   6.387
   37C       C6 1159   4.600   3.870   6.355
   37C       H6 1160   4.684   3.922   6.311
   37C       C5 1161   4.484   3.935   6.377
   37C       H5 1162   4.475   4.040   6.351
   37C       C4 1163   4.375   3.862   6.430
   37C       N4 1164   4.262   3.923   6.453
   37C      H41 1165   4.250   4.019   6.422
   37C      H42 1166   4.182   3.872   6.489
   37C       N3 1167   4.381   3.732   6.456
   37C       C2 1168   4.497   3.667   6.433
   37C       O2 1169   4.500   3.545   6.452
   37C      C3' 1170   4.835   3.672   6.151
   37C      H3' 1171   4.783   3.755   6.103
   37C      C2' 1172   4.739   3.589   6.238
   37C     H2'1 1173   4.640   3.588   6.193
   37C      O2' 1174   4.784   3.455   6.260
   37C     HO'2 1175   4.746   3.405   6.186
   37C      O3' 1176   4.905   3.590   6.058
   38U        P 1177   4.846   3.562   5.913
   38U      O1P 1178   4.938   3.464   5.851
   38U      O2P 1179   4.826   3.692   5.847
   38U      O5' 1180   4.707   3.488   5.942
   38U      C5' 1181   4.707   3.347   5.957
   38U     H5'1 1182   4.786   3.318   6.025
   38U     H5'2 1183   4.727   3.302   5.859
   38U      C4' 1184   4.577   3.287   6.010
   38U      H4' 1185   4.595   3.183   6.037
   38U      O4' 1186   4.528   3.357   6.124
   38U      C1' 1187   4.386   3.350   6.121
   38U      H1' 1188   4.350   3.296   6.209
   38U       N1 1189   4.323   3.485   6.122
   38U       C6 1190   4.389   3.598   6.078
   38U       H6 1191   4.486   3.590   6.032
   38U       C5 1192   4.332   3.721   6.094
   38U       H5 1193   4.383   3.811   6.062
   38U       C4 1194   4.201   3.737   6.155
   38U       O4 1195   4.142   3.841   6.177
   38U       N3 1196   4.140   3.619   6.188
   38U       H3 1197   4.046   3.626   6.225
   38U       C2 1198   4.193   3.493   6.172
   38U       O2 1199   4.125   3.394   6.200
   38U      C3' 1200   4.466   3.286   5.906
   38U      H3' 1201   4.463   3.381   5.852
   38U      C2' 1202   4.344   3.271   5.997
   38U     H2'1 1203   4.254   3.310   5.951
   38U      O2' 1204   4.326   3.136   6.039
   38U     HO'2 1205   4.344   3.080   5.962
   38U      O3' 1206   4.482   3.174   5.820
   39U        P 1207   4.435   3.182   5.669
   39U      O1P 1208   4.472   3.052   5.608
   39U      O2P 1209   4.489   3.307   5.612
   39U      O5' 1210   4.275   3.189   5.683
   39U      C5' 1211   4.201   3.071   5.710
   39U     H5'1 1212   4.244   3.020   5.796
   39U     H5'2 1213   4.209   3.004   5.624
   39U      C4' 1214   4.053   3.093   5.740
   39U      H4' 1215   4.006   2.995   5.752
   39U      O4' 1216   4.037   3.165   5.861
   39U      C1' 1217   3.916   3.239   5.853
   39U      H1' 1218   3.848   3.208   5.933
   39U       N1 1219   3.939   3.386   5.864
   39U       C6 1220   4.055   3.445   5.819
   39U       H6 1221   4.132   3.384   5.772
   39U       C5 1222   4.074   3.579   5.832
   39U       H5 1223   4.164   3.627   5.797
   39U       C4 1224   3.973   3.664   5.892
   39U       O4 1225   3.980   3.784   5.909
   39U       N3 1226   3.859   3.598   5.931
   39U       H3 1227   3.785   3.655   5.968
   39U       C2 1228   3.836   3.463   5.920
   39U       O2 1229   3.730   3.415   5.959
   39U      C3' 1230   3.971   3.166   5.633
   39U      H3' 1231   4.025   3.255   5.600
   39U      C2' 1232   3.851   3.204   5.720
   39U     H2'1 1233   3.798   3.290   5.679
   39U      O2' 1234   3.761   3.096   5.741
   39U     HO'2 1235   3.705   3.092   5.663
   39U      O3' 1236   3.933   3.084   5.523
   40C        P 1237   3.874   3.151   5.391
   40C      O1P 1238   3.851   3.044   5.291
   40C      O2P 1239   3.960   3.265   5.356
   40C      O5' 1240   3.735   3.209   5.436
   40C      C5' 1241   3.620   3.129   5.448
   40C     H5'1 1242   3.638   3.046   5.515
   40C     H5'2 1243   3.592   3.089   5.350
   40C      C4' 1244   3.506   3.216   5.502
   40C      H4' 1245   3.422   3.152   5.525
   40C      O4' 1246   3.539   3.286   5.621
   40C      C1' 1247   3.472   3.411   5.619
   40C      H1' 1248   3.405   3.420   5.705
   40C       N1 1249   3.568   3.525   5.622
   40C       C6 1250   3.698   3.513   5.580
   40C       H6 1251   3.731   3.422   5.534
   40C       C5 1252   3.785   3.616   5.593
   40C       H5 1253   3.887   3.606   5.559
   40C       C4 1254   3.735   3.737   5.647
   40C       N4 1255   3.813   3.839   5.661
   40C      H41 1256   3.911   3.833   5.637
   40C      H42 1257   3.776   3.924   5.702
   40C       N3 1258   3.609   3.752   5.683
   40C       C2 1259   3.524   3.648   5.672
   40C       O2 1260   3.407   3.663   5.706
   40C      C3' 1261   3.461   3.318   5.398
   40C      H3' 1262   3.546   3.365   5.349
   40C      C2' 1263   3.389   3.417   5.491
   40C     H2'1 1264   3.388   3.517   5.448
   40C      O2' 1265   3.256   3.373   5.514
   40C     HO'2 1266   3.225   3.352   5.425
   40C      O3' 1267   3.372   3.255   5.308
   41C        P 1268   3.347   3.310   5.161
   41C      O1P 1269   3.241   3.222   5.108
   41C      O2P 1270   3.474   3.321   5.088
   41C      O5' 1271   3.281   3.453   5.190
   41C      C5' 1272   3.141   3.466   5.208
   41C     H5'1 1273   3.108   3.393   5.283
   41C     H5'2 1274   3.092   3.443   5.114
   41C      C4' 1275   3.097   3.605   5.253
   41C      H4' 1276   2.991   3.600   5.276
   41C      O4' 1277   3.161   3.650   5.372
   41C      C1' 1278   3.173   3.792   5.366
   41C      H1' 1279   3.123   3.839   5.450
   41C       N1 1280   3.315   3.838   5.365
   41C       C6 1281   3.418   3.753   5.335
   41C       H6 1282   3.397   3.654   5.296
   41C       C5 1283   3.545   3.794   5.352
   41C       H5 1284   3.625   3.726   5.330
   41C       C4 1285   3.568   3.928   5.393
   41C       N4 1286   3.690   3.968   5.407
   41C      H41 1287   3.764   3.900   5.393
   41C      H42 1288   3.709   4.064   5.436
   41C       N3 1289   3.470   4.013   5.419
   41C       C2 1290   3.342   3.970   5.404
   41C       O2 1291   3.250   4.050   5.425
   41C      C3' 1292   3.113   3.713   5.147
   41C      H3' 1293   3.212   3.705   5.099
   41C      C2' 1294   3.105   3.837   5.236
   41C     H2'1 1295   3.158   3.921   5.191
   41C      O2' 1296   2.971   3.872   5.265
   41C     HO'2 1297   2.945   3.930   5.193
   41C      O3' 1298   3.006   3.712   5.052
   42G        P 1299   3.021   3.788   4.913
   42G      O1P 1300   2.894   3.775   4.840
   42G      O2P 1301   3.146   3.742   4.850
   42G      O5' 1302   3.040   3.943   4.950
   42G      C5' 1303   2.929   4.029   4.962
   42G     H5'1 1304   2.860   3.991   5.038
   42G     H5'2 1305   2.876   4.034   4.867
   42G      C4' 1306   2.971   4.172   5.001
   42G      H4' 1307   2.880   4.230   5.019
   42G      O4' 1308   3.052   4.174   5.118
   42G      C1' 1309   3.145   4.282   5.106
   42G      H1' 1310   3.135   4.352   5.188
   42G       N9 1311   3.284   4.233   5.104
   42G       C8 1312   3.333   4.107   5.079
   42G       H8 1313   3.270   4.024   5.049
   42G       N7 1314   3.462   4.095   5.095
   42G       C5 1315   3.503   4.225   5.127
   42G       C6 1316   3.634   4.280   5.153
   42G       O6 1317   3.744   4.225   5.158
   42G       N1 1318   3.632   4.416   5.175
   42G       H1 1319   3.721   4.461   5.192
   42G       C2 1320   3.520   4.491   5.173
   42G       N2 1321   3.534   4.620   5.186
   42G      H21 1322   3.627   4.659   5.195
   42G      H22 1323   3.454   4.678   5.168
   42G       N3 1324   3.396   4.446   5.153
   42G       C4 1325   3.395   4.310   5.130
   42G      C3' 1326   3.049   4.245   4.891
   42G      H3' 1327   3.125   4.179   4.849
   42G      C2' 1328   3.113   4.355   4.976
   42G     H2'1 1329   3.202   4.395   4.928
   42G      O2' 1330   3.020   4.459   5.005
   42G     HO'2 1331   2.980   4.482   4.920
   42G      O3' 1332   2.961   4.298   4.793
   43U        P 1333   3.008   4.324   4.644
   43U      O1P 1334   2.888   4.369   4.570
   43U      O2P 1335   3.083   4.206   4.599
   43U      O5' 1336   3.109   4.448   4.658
   43U      C5' 1337   3.060   4.579   4.680
   43U     H5'1 1338   2.985   4.577   4.759
   43U     H5'2 1339   3.011   4.614   4.589
   43U      C4' 1340   3.168   4.680   4.719
   43U      H4' 1341   3.119   4.775   4.741
   43U      O4' 1342   3.242   4.643   4.835
   43U      C1' 1343   3.377   4.687   4.820
   43U      H1' 1344   3.406   4.753   4.903
   43U       N1 1345   3.472   4.572   4.816
   43U       C6 1346   3.432   4.444   4.780
   43U       H6 1347   3.329   4.427   4.752
   43U       C5 1348   3.519   4.341   4.780
   43U       H5 1349   3.487   4.241   4.754
   43U       C4 1350   3.658   4.360   4.815
   43U       O4 1351   3.745   4.274   4.813
   43U       N3 1352   3.690   4.488   4.853
   43U       H3 1353   3.786   4.504   4.875
   43U       C2 1354   3.605   4.596   4.853
   43U       O2 1355   3.648   4.707   4.884
   43U      C3' 1356   3.270   4.706   4.608
   43U      H3' 1357   3.302   4.612   4.564
   43U      C2' 1358   3.383   4.768   4.690
   43U     H2'1 1359   3.479   4.757   4.640
   43U      O2' 1360   3.354   4.905   4.714
   43U     HO'2 1361   3.292   4.929   4.644
   43U      O3' 1362   3.217   4.797   4.513
   44A        P 1363   3.258   4.788   4.359
   44A      O1P 1364   3.183   4.894   4.289
   44A      O2P 1365   3.242   4.647   4.317
   44A      O5' 1366   3.414   4.827   4.364
   44A      C5' 1367   3.450   4.963   4.384
   44A     H5'1 1368   3.390   5.003   4.465
   44A     H5'2 1369   3.426   5.019   4.293
   44A      C4' 1370   3.597   4.988   4.419
   44A      H4' 1371   3.608   5.095   4.434
   44A      O4' 1372   3.638   4.925   4.540
   44A      C1' 1373   3.776   4.889   4.529
   44A      H1' 1374   3.834   4.932   4.611
   44A       N9 1375   3.794   4.742   4.532
   44A       C8 1376   3.700   4.643   4.518
   44A       H8 1377   3.597   4.662   4.492
   44A       N7 1378   3.745   4.522   4.540
   44A       C5 1379   3.882   4.544   4.565
   44A       C6 1380   3.992   4.459   4.592
   44A       N6 1381   3.984   4.328   4.604
   44A      H61 1382   3.893   4.285   4.605
   44A      H62 1383   4.065   4.272   4.627
   44A       N1 1384   4.114   4.511   4.609
   44A       C2 1385   4.128   4.642   4.603
   44A       H2 1386   4.228   4.680   4.619
   44A       N3 1387   4.035   4.735   4.580
   44A       C4 1388   3.912   4.677   4.560
   44A      C3' 1389   3.697   4.950   4.311
   44A      H3' 1390   3.675   4.850   4.273
   44A      C2' 1391   3.825   4.948   4.396
   44A     H2'1 1392   3.902   4.886   4.351
   44A      O2' 1393   3.873   5.080   4.419
   44A     HO'2 1394   3.860   5.126   4.335
   44A      O3' 1395   3.700   5.049   4.208
   45G        P 1396   3.733   5.006   4.058
   45G      O1P 1397   3.723   5.125   3.970
   45G      O2P 1398   3.654   4.886   4.025
   45G      O5' 1399   3.889   4.972   4.074
   45G      C5' 1400   3.982   5.077   4.092
   45G     H5'1 1401   3.948   5.143   4.171
   45G     H5'2 1402   3.987   5.135   4.000
   45G      C4' 1403   4.125   5.032   4.127
   45G      H4' 1404   4.183   5.122   4.133
   45G      O4' 1405   4.138   4.966   4.253
   45G      C1' 1406   4.230   4.859   4.239
   45G      H1' 1407   4.305   4.859   4.318
   45G       N9 1408   4.165   4.727   4.245
   45G       C8 1409   4.034   4.690   4.223
   45G       H8 1410   3.958   4.760   4.190
   45G       N7 1411   4.010   4.564   4.244
   45G       C5 1412   4.135   4.511   4.276
   45G       C6 1413   4.177   4.377   4.305
   45G       O6 1414   4.111   4.273   4.308
   45G       N1 1415   4.312   4.366   4.330
   45G       H1 1416   4.347   4.273   4.348
   45G       C2 1417   4.397   4.470   4.327
   45G       N2 1418   4.524   4.444   4.343
   45G      H21 1419   4.554   4.347   4.354
   45G      H22 1420   4.587   4.521   4.335
   45G       N3 1421   4.364   4.597   4.302
   45G       C4 1422   4.230   4.610   4.277
   45G      C3' 1423   4.192   4.946   4.020
   45G      H3' 1424   4.121   4.874   3.980
   45G      C2' 1425   4.300   4.877   4.105
   45G     H2'1 1426   4.329   4.781   4.062
   45G      O2' 1427   4.415   4.960   4.127
   45G     HO'2 1428   4.489   4.914   4.084
   45G      O3' 1429   4.249   5.028   3.920
   46A        P 1430   4.285   4.969   3.777
   46A      O1P 1431   4.363   5.078   3.713
   46A      O2P 1432   4.162   4.920   3.712
   46A      O5' 1433   4.387   4.848   3.799
   46A      C5' 1434   4.526   4.873   3.806
   46A     H5'1 1435   4.544   4.947   3.884
   46A     H5'2 1436   4.559   4.913   3.710
   46A      C4' 1437   4.611   4.751   3.837
   46A      H4' 1438   4.714   4.783   3.850
   46A      O4' 1439   4.568   4.691   3.958
   46A      C1' 1440   4.590   4.552   3.949
   46A      H1' 1441   4.656   4.519   4.030
   46A       N9 1442   4.464   4.476   3.959
   46A       C8 1443   4.335   4.519   3.938
   46A       H8 1444   4.310   4.620   3.909
   46A       N7 1445   4.245   4.427   3.956
   46A       C5 1446   4.320   4.314   3.991
   46A       C6 1447   4.289   4.180   4.024
   46A       N6 1448   4.166   4.131   4.033
   46A      H61 1449   4.090   4.196   4.026
   46A      H62 1450   4.150   4.039   4.071
   46A       N1 1451   4.386   4.092   4.051
   46A       C2 1452   4.511   4.136   4.052
   46A       H2 1453   4.586   4.063   4.077
   46A       N3 1454   4.556   4.259   4.026
   46A       C4 1455   4.453   4.344   3.995
   46A      C3' 1456   4.611   4.643   3.728
   46A      H3' 1457   4.509   4.626   3.693
   46A      C2' 1458   4.659   4.526   3.815
   46A     H2'1 1459   4.631   4.430   3.773
   46A      O2' 1460   4.799   4.531   3.840
   46A     HO'2 1461   4.844   4.543   3.755
   46A      O3' 1462   4.701   4.675   3.620
   47G        P 1463   4.680   4.616   3.472
   47G      O1P 1464   4.788   4.665   3.383
   47G      O2P 1465   4.541   4.639   3.428
   47G      O5' 1466   4.703   4.459   3.488
   47G      C5' 1467   4.836   4.411   3.503
   47G     H5'1 1468   4.887   4.470   3.579
   47G     H5'2 1469   4.889   4.424   3.408
   47G      C4' 1470   4.844   4.265   3.544
   47G      H4' 1471   4.949   4.239   3.556
   47G      O4' 1472   4.781   4.242   3.669
   47G      C1' 1473   4.728   4.110   3.670
   47G      H1' 1474   4.767   4.052   3.754
   47G       N9 1475   4.580   4.115   3.679
   47G       C8 1476   4.494   4.219   3.651
   47G       H8 1477   4.529   4.316   3.620
   47G       N7 1478   4.368   4.188   3.663
   47G       C5 1479   4.370   4.055   3.707
   47G       C6 1480   4.264   3.961   3.738
   47G       O6 1481   4.142   3.973   3.731
   47G       N1 1482   4.310   3.837   3.774
   47G       H1 1483   4.241   3.769   3.801
   47G       C2 1484   4.441   3.802   3.775
   47G       N2 1485   4.470   3.676   3.793
   47G      H21 1486   4.395   3.610   3.813
   47G      H22 1487   4.567   3.654   3.795
   47G       N3 1488   4.542   3.883   3.743
   47G       C4 1489   4.500   4.009   3.713
   47G      C3' 1490   4.784   4.166   3.445
   47G      H3' 1491   4.685   4.201   3.413
   47G      C2' 1492   4.769   4.044   3.537
   47G     H2'1 1493   4.693   3.976   3.502
   47G      O2' 1494   4.895   3.978   3.547
   47G     HO'2 1495   4.934   3.990   3.460
   47G      O3' 1496   4.871   4.142   3.335
   48U        P 1497   4.814   4.102   3.191
   48U      O1P 1498   4.928   4.094   3.096
   48U      O2P 1499   4.697   4.186   3.161
   48U      O5' 1500   4.763   3.954   3.217
   48U      C5' 1501   4.854   3.846   3.229
   48U     H5'1 1502   4.932   3.871   3.301
   48U     H5'2 1503   4.900   3.827   3.132
   48U      C4' 1504   4.783   3.719   3.276
   48U      H4' 1505   4.859   3.641   3.288
   48U      O4' 1506   4.716   3.737   3.400
   48U      C1' 1507   4.595   3.661   3.399
   48U      H1' 1508   4.591   3.596   3.487
   48U       N1 1509   4.472   3.745   3.403
   48U       C6 1510   4.472   3.879   3.371
   48U       H6 1511   4.564   3.926   3.339
   48U       C5 1512   4.359   3.953   3.379
   48U       H5 1513   4.359   4.058   3.355
   48U       C4 1514   4.234   3.895   3.421
   48U       O4 1515   4.125   3.952   3.420
   48U       N3 1516   4.242   3.763   3.456
   48U       H3 1517   4.157   3.720   3.491
   48U       C2 1518   4.354   3.683   3.445
   48U       O2 1519   4.345   3.561   3.465
   48U      C3' 1520   4.680   3.667   3.177
   48U      H3' 1521   4.618   3.749   3.142
   48U      C2' 1522   4.601   3.575   3.271
   48U     H2'1 1523   4.501   3.556   3.233
   48U      O2' 1524   4.669   3.453   3.298
   48U     HO'2 1525   4.669   3.402   3.215
   48U      O3' 1526   4.744   3.597   3.071
   49C        P 1527   4.683   3.600   2.923
   49C      O1P 1528   4.785   3.541   2.833
   49C      O2P 1529   4.637   3.737   2.894
   49C      O5' 1530   4.556   3.505   2.936
   49C      C5' 1531   4.571   3.365   2.952
   49C     H5'1 1532   4.648   3.345   3.026
   49C     H5'2 1533   4.602   3.321   2.858
   49C      C4' 1534   4.441   3.298   2.999
   49C      H4' 1535   4.462   3.192   3.012
   49C      O4' 1536   4.395   3.348   3.124
   49C      C1' 1537   4.252   3.342   3.127
   49C      H1' 1538   4.219   3.283   3.214
   49C       N1 1539   4.189   3.478   3.136
   49C       C6 1540   4.260   3.592   3.108
   49C       H6 1541   4.362   3.586   3.074
   49C       C5 1542   4.201   3.714   3.124
   49C       H5 1543   4.257   3.804   3.103
   49C       C4 1544   4.066   3.717   3.166
   49C       N4 1545   4.007   3.832   3.181
   49C      H41 1546   4.063   3.913   3.199
   49C      H42 1547   3.912   3.833   3.217
   49C       N3 1548   3.996   3.608   3.191
   49C       C2 1549   4.056   3.487   3.179
   49C       O2 1550   3.990   3.386   3.205
   49C      C3' 1551   4.323   3.310   2.902
   49C      H3' 1552   4.312   3.414   2.870
   49C      C2' 1553   4.209   3.271   2.998
   49C     H2'1 1554   4.113   3.308   2.961
   49C      O2' 1555   4.204   3.130   3.021
   49C     HO'2 1556   4.112   3.106   3.039
   49C      O3' 1557   4.335   3.222   2.791
   50G        P 1558   4.250   3.242   2.658
   50G      O1P 1559   4.283   3.130   2.568
   50G      O2P 1560   4.274   3.380   2.610
   50G      O5' 1561   4.095   3.233   2.697
   50G      C5' 1562   4.030   3.108   2.718
   50G     H5'1 1563   4.083   3.051   2.794
   50G     H5'2 1564   4.031   3.051   2.625
   50G      C4' 1565   3.884   3.127   2.763
   50G      H4' 1566   3.837   3.029   2.774
   50G      O4' 1567   3.877   3.195   2.888
   50G      C1' 1568   3.758   3.274   2.891
   50G      H1' 1569   3.691   3.245   2.973
   50G       N9 1570   3.790   3.418   2.904
   50G       C8 1571   3.903   3.486   2.864
   50G       H8 1572   3.991   3.435   2.828
   50G       N7 1573   3.892   3.616   2.870
   50G       C5 1574   3.762   3.636   2.919
   50G       C6 1575   3.685   3.756   2.942
   50G       O6 1576   3.714   3.874   2.924
   50G       N1 1577   3.557   3.731   2.987
   50G       H1 1578   3.501   3.810   3.014
   50G       C2 1579   3.506   3.607   3.005
   50G       N2 1580   3.383   3.598   3.047
   50G      H21 1581   3.329   3.683   3.064
   50G      H22 1582   3.351   3.506   3.072
   50G       N3 1583   3.572   3.494   2.982
   50G       C4 1584   3.700   3.515   2.941
   50G      C3' 1585   3.798   3.211   2.668
   50G      H3' 1586   3.853   3.300   2.638
   50G      C2' 1587   3.683   3.253   2.760
   50G     H2'1 1588   3.636   3.345   2.725
   50G      O2' 1589   3.586   3.151   2.778
   50G     HO'2 1590   3.542   3.135   2.694
   50G      O3' 1591   3.748   3.144   2.552
   50G      H3T 1592   3.697   3.209   2.503
   51SOL     OW 1593   0.253   0.614   0.056
   51SOL    HW1 1594   0.209   0.652   0.133
   51SOL    HW2 1595   0.210   0.530   0.042
   52SOL     OW 1596   7.992   0.377   0.606
   52SOL    HW1 1597   7.908   0.382   0.652
   52SOL    HW2 1598   7.991   0.292   0.563
   53SOL     OW 1599   0.570   1.302   1.201
   53SOL    HW1 1600   0.488   1.299   1.152
   53SOL    HW2 1601   0.583   1.395   1.221
   54SOL     OW 1602   1.570   1.513   0.711
   54SOL    HW1 1603   1.527   1.492   0.794
   54SOL    HW2 1604   1.498   1.518   0.648
   55SOL     OW 1605   1.753   0.619   0.250
   55SOL    HW1 1606   1.726   0.602   0.160
   55SOL    HW2 1607   1.712   0.549   0.301
   56SOL     OW 1608   0.743   1.144   1.059
   56SOL    HW1 1609   0.678   1.182   1.119
   56SOL    HW2 1610   0.779   1.220   1.013
   57SOL     OW 1611   0.881   0.756   1.828
   57SOL    HW1 1612   0.877   0.827   1.893
   57SOL    HW2 1613   0.901   0.801   1.746
   58SOL     OW 1614   0.680   1.000   0.640
   58SOL    HW1 1615   0.747   0.992   0.708
   58SOL    HW2 1616   0.612   1.054   0.680
   59SOL     OW 1617   0.696   1.174   1.807
   59SOL    HW1 1618   0.752   1.225   1.866
   59SOL    HW2 1619   0.681   1.233   1.732
   60SOL     OW 1620   0.333   1.417   1.068
   60SOL    HW1 1621   0.282   1.359   1.011
   60SOL    HW2 1622   0.382   1.473   1.007
   61SOL     OW 1623   1.462   1.508   1.362
   61SOL    HW1 1624   1.513   1.588   1.368
   61SOL    HW2 1625   1.392   1.519   1.428
   62SOL     OW 1626   0.435   0.382   1.498
   62SOL    HW1 1627   0.525   0.351   1.491
   62SOL    HW2 1628   0.382   0.302   1.502
   63SOL     OW 1629   1.601   0.452   0.722
   63SOL    HW1 1630   1.513   0.445   0.684
   63SOL    HW2 1631   1.609   0.544   0.747
   64SOL     OW 1632   0.225   1.704   0.485
   64SOL    HW1 1633   0.228   1.785   0.535
   64SOL    HW2 1634   0.301   1.709   0.427
   65SOL     OW 1635   1.142   1.343   1.695
   65SOL    HW1 1636   1.179   1.335   1.783
   65SOL    HW2 1637   1.093   1.262   1.682
   66SOL     OW 1638   0.291   1.444   0.529
   66SOL    HW1 1639   0.261   1.534   0.539
   66SOL    HW2 1640   0.238   1.394   0.591
   67SOL     OW 1641   0.281   1.096   0.910
   67SOL    HW1 1642   0.284   1.001   0.924
   67SOL    HW2 1643   0.199   1.124   0.951
   68SOL     OW 1644   0.600   1.805   1.416
   68SOL    HW1 1645   0.524   1.781   1.469
   68SOL    HW2 1646   0.625   1.892   1.448
   69SOL     OW 1647   0.578   0.975   0.161
   69SOL    HW1 1648   0.640   0.992   0.090
   69SOL    HW2 1649   0.616   1.020   0.237
   70SOL     OW 1650   1.636   0.131   1.490
   70SOL    HW1 1651   1.646   0.156   1.398
   70SOL    HW2 1652   1.567   0.188   1.523
   71SOL     OW 1653   0.129   0.639   0.546
   71SOL    HW1 1654   0.098   0.552   0.571
   71SOL    HW2 1655   0.116   0.693   0.624
   72SOL     OW 1656   1.858   1.752   0.319
   72SOL    HW1 1657   1.927   1.722   0.379
   72SOL    HW2 1658   1.878   1.844   0.303
   73SOL     OW 1659   0.038   1.556   0.099
   73SOL    HW1 1660   0.030   1.481   0.159
   73SOL    HW2 1661   0.057   1.630   0.156
   74SOL     OW 1662   1.737   0.968   0.641
   74SOL    HW1 1663   1.749   0.888   0.591
   74SOL    HW2 1664   1.671   1.017   0.592
   75SOL     OW 1665   1.643   1.134   0.431
   75SOL    HW1 1666   1.731   1.113   0.401
   75SOL    HW2 1667   1.656   1.202   0.497
   76SOL     OW 1668   0.152   0.763   1.569
   76SOL    HW1 1669   0.247   0.764   1.569
   76SOL    HW2 1670   0.126   0.844   1.611
   77SOL     OW 1671   0.617   1.395   0.736
   77SOL    HW1 1672   0.573   1.310   0.745
   77SOL    HW2 1673   0.603   1.421   0.645
   78SOL     OW 1674   1.284   1.234   1.417
   78SOL    HW1 1675   1.311   1.165   1.357
   78SOL    HW2 1676   1.344   1.227   1.491
   79SOL     OW 1677   0.839   0.031   0.580
   79SOL    HW1 1678   0.879   0.104   0.533
   79SOL    HW2 1679   0.747   0.055   0.588
   80SOL     OW 1680   0.177   0.933   1.262
   80SOL    HW1 1681   0.267   0.899   1.261
   80SOL    HW2 1682   0.145   0.921   1.173
   81SOL     OW 1683   1.515   1.008   0.226
   81SOL    HW1 1684   1.442   0.955   0.257
   81SOL    HW2 1685   1.550   1.050   0.304
   82SOL     OW 1686   1.174   1.811   1.622
   82SOL    HW1 1687   1.189   1.873   1.550
   82SOL    HW2 1688   1.196   1.726   1.585
   83SOL     OW 1689   0.333   0.254   1.791
   83SOL    HW1 1690   0.383   0.327   1.829
   83SOL    HW2 1691   0.245   0.265   1.827
   84SOL     OW 1692   1.482   1.425   0.954
   84SOL    HW1 1693   1.414   1.440   1.019
   84SOL    HW2 1694   1.467   1.335   0.923
   85SOL     OW 1695   1.652   1.757   0.588
   85SOL    HW1 1696   1.635   1.722   0.500
   85SOL    HW2 1697   1.635   1.684   0.647
   86SOL     OW 1698   0.594   0.721   0.276
   86SOL    HW1 1699   0.600   0.810   0.241
   86SOL    HW2 1700   0.531   0.727   0.347
   87SOL     OW 1701   1.303   0.363   0.934
   87SOL    HW1 1702   1.211   0.338   0.937
   87SOL    HW2 1703   1.345   0.309   1.000
   88SOL     OW 1704   1.600   1.659   0.334
   88SOL    HW1 1705   1.689   1.693   0.324
   88SOL    HW2 1706   1.582   1.614   0.251
   89SOL     OW 1707   0.767   0.638   1.451
   89SOL    HW1 1708   0.757   0.598   1.538
   89SOL    HW2 1709   0.757   0.565   1.390
   90SOL     OW 1710   1.415   0.504   1.679
   90SOL    HW1 1711   1.425   0.539   1.768
   90SOL    HW2 1712   1.454   0.417   1.684
   91SOL     OW 1713   0.950   0.880   1.591
   91SOL    HW1 1714   0.997   0.805   1.555
   91SOL    HW2 1715   0.897   0.912   1.518
   92SOL     OW 1716   0.999   0.416   1.212
   92SOL    HW1 1717   0.910   0.429   1.243
   92SOL    HW2 1718   0.990   0.392   1.120
   93SOL     OW 1719   1.052   0.711   0.413
   93SOL    HW1 1720   1.076   0.713   0.506
   93SOL    HW2 1721   0.970   0.663   0.410
   94SOL     OW 1722   0.102   0.798   0.768
   94SOL    HW1 1723   0.181   0.807   0.822
   94SOL    HW2 1724   0.053   0.879   0.785
   95SOL     OW 1725   0.127   1.800   1.559
   95SOL    HW1 1726   0.135   1.807   1.654
   95SOL    HW2 1727   0.032   1.798   1.543
   96SOL     OW 1728   0.890   0.357   0.212
   96SOL    HW1 1729   0.928   0.430   0.163
   96SOL    HW2 1730   0.860   0.296   0.145
   97SOL     OW 1731   1.701   0.586   1.809
   97SOL    HW1 1732   1.680   0.645   1.736
   97SOL    HW2 1733   1.738   0.508   1.767
   98SOL     OW 1734   1.386   1.171   0.548
   98SOL    HW1 1735   1.459   1.151   0.489
   98SOL    HW2 1736   1.325   1.221   0.494
   99SOL     OW 1737   0.558   0.219   0.937
   99SOL    HW1 1738   0.479   0.243   0.985
   99SOL    HW2 1739   0.576   0.295   0.881
  100SOL     OW 1740   0.995   1.443   0.473
  100SOL    HW1 1741   0.961   1.519   0.425
  100SOL    HW2 1742   0.971   1.459   0.564
  101SOL     OW 1743   0.365   1.825   0.872
  101SOL    HW1 1744   0.409   1.741   0.880
  101SOL    HW2 1745   0.433   1.890   0.890
  102SOL     OW 1746   1.781   1.115   0.863
  102SOL    HW1 1747   1.752   1.051   0.797
  102SOL    HW2 1748   1.725   1.098   0.939
  103SOL     OW 1749   1.224   1.543   1.513
  103SOL    HW1 1750   1.219   1.473   1.578
  103SOL    HW2 1751   1.164   1.515   1.443
  104SOL     OW 1752   0.306   0.954   0.228
  104SOL    HW1 1753   0.398   0.974   0.210
  104SOL    HW2 1754   0.267   0.944   0.141
  105SOL     OW 1755   1.521   0.724   0.734
  105SOL    HW1 1756   1.466   0.680   0.800
  105SOL    HW2 1757   1.482   0.811   0.726
  106SOL     OW 1758   1.117   1.781   0.256
  106SOL    HW1 1759   1.047   1.736   0.302
  106SOL    HW2 1760   1.146   1.719   0.189
  107SOL     OW 1761   0.138   0.286   1.502
  107SOL    HW1 1762   0.135   0.380   1.483
  107SOL    HW2 1763   0.154   0.282   1.597
  108SOL     OW 1764   1.624   1.450   0.103
  108SOL    HW1 1765   1.627   1.473   0.010
  108SOL    HW2 1766   1.574   1.368   0.105
  109SOL     OW 1767   0.450   1.741   0.326
  109SOL    HW1 1768   0.500   1.797   0.386
  109SOL    HW2 1769   0.516   1.698   0.272
  110SOL     OW 1770   1.406   0.114   0.423
  110SOL    HW1 1771   1.394   0.064   0.342
  110SOL    HW2 1772   1.501   0.116   0.437
  111SOL     OW 1773   0.236   1.788   1.222
  111SOL    HW1 1774   0.291   1.713   1.246
  111SOL    HW2 1775   0.200   1.764   1.136
  112SOL     OW 1776   0.940   1.700   0.895
  112SOL    HW1 1777   1.019   1.650   0.917
  112SOL    HW2 1778   0.899   1.651   0.824
  113SOL     OW 1779   0.402   0.690   0.476
  113SOL    HW1 1780   0.428   0.598   0.485
  113SOL    HW2 1781   0.311   0.692   0.506
  114SOL     OW 1782   1.505   0.244   1.727
  114SOL    HW1 1783   1.518   0.259   1.821
  114SOL    HW2 1784   1.514   0.150   1.716
  115SOL     OW 1785   0.605   0.093   0.103
  115SOL    HW1 1786   0.677   0.087   0.166
  115SOL    HW2 1787   0.624   0.027   0.038
  116SOL     OW 1788   0.749   0.295   1.777
  116SOL    HW1 1789   0.790   0.209   1.765
  116SOL    HW2 1790   0.692   0.282   1.853
  117SOL     OW 1791   0.872   1.524   1.198
  117SOL    HW1 1792   0.859   1.486   1.111
  117SOL    HW2 1793   0.946   1.474   1.234
  118SOL     OW 1794   1.335   0.597   1.433
  118SOL    HW1 1795   1.376   0.571   1.515
  118SOL    HW2 1796   1.371   0.684   1.415
  119SOL     OW 1797   0.819   1.389   0.949
  119SOL    HW1 1798   0.904   1.375   0.906
  119SOL    HW2 1799   0.757   1.396   0.877
  120SOL     OW 1800   0.901   0.495   0.899
  120SOL    HW1 1801   0.885   0.500   0.805
  120SOL    HW2 1802   0.958   0.419   0.910
  121SOL     OW 1803   0.574   0.024   0.428
  121SOL    HW1 1804   0.500  -0.015   0.474
  121SOL    HW2 1805   0.552   0.117   0.420
  122SOL     OW 1806   1.467   1.226   0.063
  122SOL    HW1 1807   1.489   1.146   0.110
  122SOL    HW2 1808   1.373   1.220   0.048
  123SOL     OW 1809   0.348   0.013   0.181
  123SOL    HW1 1810   0.434   0.047   0.156
  123SOL    HW2 1811   0.360  -0.017   0.271
  124SOL     OW 1812   0.952   0.254   0.465
  124SOL    HW1 1813   0.921   0.279   0.378
  124SOL    HW2 1814   1.046   0.275   0.463
  125SOL     OW 1815   1.071   0.662   1.476
  125SOL    HW1 1816   1.018   0.583   1.484
  125SOL    HW2 1817   1.159   0.630   1.460
  126SOL     OW 1818   1.221   1.574   0.796
  126SOL    HW1 1819   1.233   1.640   0.728
  126SOL    HW2 1820   1.289   1.594   0.860
  127SOL     OW 1821   0.473   1.161   0.727
  127SOL    HW1 1822   0.410   1.138   0.795
  127SOL    HW2 1823   0.427   1.144   0.645
  128SOL     OW 1824   1.262   1.794   0.617
  128SOL    HW1 1825   1.309   1.855   0.561
  128SOL    HW2 1826   1.189   1.845   0.653
  129SOL     OW 1827   1.018   0.565   0.095
  129SOL    HW1 1828   1.026   0.632   0.027
  129SOL    HW2 1829   1.096   0.575   0.148
  130SOL     OW 1830   0.115   0.554   1.399
  130SOL    HW1 1831   0.201   0.557   1.357
  130SOL    HW2 1832   0.111   0.632   1.454
  131SOL     OW 1833   0.550   0.245   1.233
  131SOL    HW1 1834   0.601   0.169   1.262
  131SOL    HW2 1835   0.459   0.218   1.245
  132SOL     OW 1836   0.849   0.459   0.633
  132SOL    HW1 1837   0.830   0.516   0.558
  132SOL    HW2 1838   0.872   0.375   0.594
  133SOL     OW 1839   0.980   0.030   0.808
  133SOL    HW1 1840   0.931   0.038   0.726
  133SOL    HW2 1841   1.009  -0.061   0.810
  134SOL     OW 1842   1.440   1.181   0.839
  134SOL    HW1 1843   1.406   1.092   0.848
  134SOL    HW2 1844   1.430   1.201   0.746
  135SOL     OW 1845   1.445   0.605   0.989
  135SOL    HW1 1846   1.398   0.523   0.979
  135SOL    HW2 1847   1.510   0.589   1.058
  136SOL     OW 1848   1.811   0.804   0.436
  136SOL    HW1 1849   1.867   0.740   0.479
  136SOL    HW2 1850   1.774   0.757   0.361
  137SOL     OW 1851   0.493   1.399   0.178
  137SOL    HW1 1852   0.431   1.342   0.224
  137SOL    HW2 1853   0.442   1.437   0.106
  138SOL     OW 1854   1.710   1.285   0.644
  138SOL    HW1 1855   1.721   1.246   0.730
  138SOL    HW2 1856   1.661   1.366   0.660
  139SOL     OW 1857   1.400   0.554   0.083
  139SOL    HW1 1858   1.346   0.553   0.162
  139SOL    HW2 1859   1.449   0.472   0.087
  140SOL     OW 1860   0.505   0.265   0.310
  140SOL    HW1 1861   0.543   0.215   0.238
  140SOL    HW2 1862   0.488   0.352   0.272
  141SOL     OW 1863   1.757   1.230   1.573
  141SOL    HW1 1864   1.828   1.184   1.619
  141SOL    HW2 1865   1.775   1.323   1.587
  142SOL     OW 1866   1.058   1.376   1.351
  142SOL    HW1 1867   0.981   1.333   1.388
  142SOL    HW2 1868   1.131   1.320   1.376
  143SOL     OW 1869   1.600   1.616   1.652
  143SOL    HW1 1870   1.599   1.661   1.568
  143SOL    HW2 1871   1.683   1.569   1.654
  144SOL     OW 1872   1.142   1.225   1.101
  144SOL    HW1 1873   1.059   1.221   1.148
  144SOL    HW2 1874   1.118   1.245   1.010
  145SOL     OW 1875   1.624   1.098   1.083
  145SOL    HW1 1876   1.623   1.165   1.151
  145SOL    HW2 1877   1.536   1.101   1.045
  146SOL     OW 1878   0.919   0.118   1.410
  146SOL    HW1 1879   0.931   0.109   1.315
  146SOL    HW2 1880   1.008   0.123   1.445
  147SOL     OW 1881   0.986   1.116   1.718
  147SOL    HW1 1882   0.895   1.133   1.740
  147SOL    HW2 1883   0.983   1.036   1.666
  148SOL     OW 1884   0.715   1.070   0.377
  148SOL    HW1 1885   0.700   1.046   0.469
  148SOL    HW2 1886   0.792   1.020   0.351
  149SOL     OW 1887   0.427   0.827   1.254
  149SOL    HW1 1888   0.493   0.837   1.322
  149SOL    HW2 1889   0.403   0.735   1.257
  150SOL     OW 1890   1.259   0.376   1.289
  150SOL    HW1 1891   1.290   0.460   1.324
  150SOL    HW2 1892   1.173   0.396   1.254
  151SOL     OW 1893   0.073   1.568   1.344
  151SOL    HW1 1894   0.071   1.662   1.329
  151SOL    HW2 1895   0.166   1.547   1.355
  152SOL     OW 1896   0.332   1.107   0.495
  152SOL    HW1 1897   0.320   1.175   0.428
  152SOL    HW2 1898   0.348   1.027   0.444
  153SOL     OW 1899   0.574   0.516   0.847
  153SOL    HW1 1900   0.578   0.584   0.779
  153SOL    HW2 1901   0.651   0.533   0.902
  154SOL     OW 1902   1.242   1.357   0.388
  154SOL    HW1 1903   1.297   1.427   0.424
  154SOL    HW2 1904   1.155   1.376   0.422
  155SOL     OW 1905   1.291   1.460   1.144
  155SOL    HW1 1906   1.339   1.457   1.227
  155SOL    HW2 1907   1.236   1.381   1.146
  156SOL     OW 1908   1.561   0.622   0.479
  156SOL    HW1 1909   1.539   0.653   0.567
  156SOL    HW2 1910   1.549   0.699   0.423
  157SOL     OW 1911   0.347   1.518   1.317
  157SOL    HW1 1912   0.334   1.478   1.231
  157SOL    HW2 1913   0.440   1.541   1.319
  158SOL     OW 1914   0.426   0.744   1.614
  158SOL    HW1 1915   0.485   0.784   1.551
  158SOL    HW2 1916   0.472   0.666   1.644
  159SOL     OW 1917   1.619   0.837   1.726
  159SOL    HW1 1918   1.530   0.863   1.702
  159SOL    HW2 1919   1.673   0.866   1.653
  160SOL     OW 1920   1.049   0.070   1.744
  160SOL    HW1 1921   1.071   0.162   1.730
  160SOL    HW2 1922   0.955   0.065   1.728
  161SOL     OW 1923   0.505   0.036   1.738
  161SOL    HW1 1924   0.476  -0.027   1.671
  161SOL    HW2 1925   0.431   0.096   1.748
  162SOL     OW 1926   0.582   0.884   1.028
  162SOL    HW1 1927   0.628   0.967   1.044
  162SOL    HW2 1928   0.530   0.870   1.107
  163SOL     OW 1929   1.349   0.860   1.018
  163SOL    HW1 1930   1.291   0.862   0.941
  163SOL    HW2 1931   1.387   0.772   1.017
  164SOL     OW 1932   1.219   0.539   0.284
  164SOL    HW1 1933   1.228   0.461   0.339
  164SOL    HW2 1934   1.165   0.598   0.336
  165SOL     OW 1935   0.290   0.170   1.295
  165SOL    HW1 1936   0.232   0.227   1.346
  165SOL    HW2 1937   0.271   0.193   1.203
  166SOL     OW 1938   0.017   1.297   1.298
  166SOL    HW1 1939   0.076   1.246   1.354
  166SOL    HW2 1940   0.042   1.388   1.313
  167SOL     OW 1941   0.731   0.638   1.064
  167SOL    HW1 1942   0.804   0.617   1.006
  167SOL    HW2 1943   0.697   0.722   1.031
  168SOL     OW 1944   0.397   0.089   0.672
  168SOL    HW1 1945   0.346   0.167   0.693
  168SOL    HW2 1946   0.336   0.031   0.628
  169SOL     OW 1947   1.638   0.388   0.360
  169SOL    HW1 1948   1.647   0.309   0.413
  169SOL    HW2 1949   1.599   0.452   0.419
  170SOL     OW 1950   0.981   0.788   0.961
  170SOL    HW1 1951   1.026   0.769   1.043
  170SOL    HW2 1952   1.027   0.736   0.896
  171SOL     OW 1953   0.976   1.559   1.721
  171SOL    HW1 1954   0.962   1.606   1.638
  171SOL    HW2 1955   1.026   1.481   1.696
  172SOL     OW 1956   1.845   1.489   1.603
  172SOL    HW1 1957   1.874   1.531   1.522
  172SOL    HW2 1958   1.917   1.502   1.664
  173SOL     OW 1959   0.403   0.970   1.774
  173SOL    HW1 1960   0.450   0.948   1.855
  173SOL    HW2 1961   0.405   0.889   1.723
  174SOL     OW 1962   1.490   0.297   0.147
  174SOL    HW1 1963   1.496   0.202   0.157
  174SOL    HW2 1964   1.547   0.331   0.216
  175SOL     OW 1965   1.293   0.807   0.055
  175SOL    HW1 1966   1.339   0.723   0.050
  175SOL    HW2 1967   1.339   0.864  -0.007
  176SOL     OW 1968   1.067   1.337   0.851
  176SOL    HW1 1969   1.075   1.263   0.791
  176SOL    HW2 1970   1.127   1.403   0.816
  177SOL     OW 1971   0.320   0.822   0.936
  177SOL    HW1 1972   0.414   0.844   0.933
  177SOL    HW2 1973   0.317   0.733   0.971
  178SOL     OW 1974   0.370   0.567   1.016
  178SOL    HW1 1975   0.320   0.485   1.014
  178SOL    HW2 1976   0.442   0.553   0.956
  179SOL     OW 1977   1.174   0.369   1.709
  179SOL    HW1 1978   1.104   0.423   1.748
  179SOL    HW2 1979   1.243   0.431   1.688
  180SOL     OW 1980   1.168   0.214   1.483
  180SOL    HW1 1981   1.178   0.268   1.561
  180SOL    HW2 1982   1.200   0.268   1.412
  181SOL     OW 1983   8.000   1.313   0.221
  181SOL    HW1 1984   7.909   1.331   0.244
  181SOL    HW2 1985   8.012   1.219   0.238
  182SOL     OW 1986   0.124   1.751   0.971
  182SOL    HW1 1987   0.095   1.690   0.903
  182SOL    HW2 1988   0.201   1.794   0.933
  183SOL     OW 1989   0.493   1.576   0.909
  183SOL    HW1 1990   0.562   1.637   0.932
  183SOL    HW2 1991   0.533   1.515   0.847
  184SOL     OW 1992   0.975   0.807   1.259
  184SOL    HW1 1993   1.018   0.760   1.330
  184SOL    HW2 1994   0.903   0.750   1.232
  185SOL     OW 1995   0.054   0.533   1.127
  185SOL    HW1 1996   0.106   0.456   1.102
  185SOL    HW2 1997   0.063   0.537   1.222
  186SOL     OW 1998   0.209   0.526   1.702
  186SOL    HW1 1999   0.285   0.498   1.651
  186SOL    HW2 2000   0.176   0.603   1.655
  187SOL     OW 2001   1.375   0.932   1.653
  187SOL    HW1 2002   1.393   1.026   1.645
  187SOL    HW2 2003   1.374   0.900   1.563
  188SOL     OW 2004   0.815   0.574   0.376
  188SOL    HW1 2005   0.826   0.497   0.321
  188SOL    HW2 2006   0.741   0.622   0.338
  189SOL     OW 2007   1.645   0.604   1.188
  189SOL    HW1 2008   1.642   0.543   1.261
  189SOL    HW2 2009   1.729   0.588   1.146
  190SOL     OW 2010   0.329   1.527   1.766
  190SOL    HW1 2011   0.286   1.605   1.801
  190SOL    HW2 2012   0.258   1.479   1.723
  191SOL     OW 2013   0.727   0.451   1.262
  191SOL    HW1 2014   0.662   0.382   1.249
  191SOL    HW2 2015   0.714   0.511   1.188
  192SOL     OW 2016   0.904   1.679   1.479
  192SOL    HW1 2017   0.898   1.636   1.394
  192SOL    HW2 2018   0.906   1.772   1.459
  193SOL     OW 2019   0.463   0.498   0.189
  193SOL    HW1 2020   0.522   0.570   0.212
  193SOL    HW2 2021   0.395   0.538   0.135
  194SOL     OW 2022   0.178   1.128   1.456
  194SOL    HW1 2023   0.144   1.084   1.535
  194SOL    HW2 2024   0.179   1.060   1.389
  195SOL     OW 2025   1.323   1.046   1.212
  195SOL    HW1 2026   1.334   0.976   1.147
  195SOL    HW2 2027   1.259   1.105   1.172
  196SOL     OW 2028   1.305   0.859   0.326
  196SOL    HW1 2029   1.237   0.819   0.381
  196SOL    HW2 2030   1.288   0.824   0.238
  197SOL     OW 2031   1.234   1.727   1.102
  197SOL    HW1 2032   1.313   1.751   1.053
  197SOL    HW2 2033   1.246   1.635   1.123
  198SOL     OW 2034   0.054   1.196   1.039
  198SOL    HW1 2035   0.038   1.237   1.124
  198SOL    HW2 2036  -0.014   1.233   0.982
  199SOL     OW 2037   0.679   1.656   1.731
  199SOL    HW1 2038   0.626   1.735   1.722
  199SOL    HW2 2039   0.755   1.671   1.675
  200SOL     OW 2040   0.928   0.106   0.056
  200SOL    HW1 2041   1.017   0.132   0.078
  200SOL    HW2 2042   0.889   0.078   0.139
  201SOL     OW 2043   1.681   0.122   0.477
  201SOL    HW1 2044   1.774   0.130   0.457
  201SOL    HW2 2045   1.678   0.093   0.568
  202SOL     OW 2046   1.391   1.569   0.498
  202SOL    HW1 2047   1.454   1.603   0.435
  202SOL    HW2 2048   1.340   1.646   0.524
  203SOL     OW 2049   0.185   1.750   1.834
  203SOL    HW1 2050   0.120   1.702   1.885
  203SOL    HW2 2051   0.228   1.807   1.898
  204SOL     OW 2052   1.362   0.948   0.717
  204SOL    HW1 2053   1.296   0.879   0.706
  204SOL    HW2 2054   1.346   1.009   0.645
  205SOL     OW 2055   0.804   1.284   1.416
  205SOL    HW1 2056   0.766   1.315   1.498
  205SOL    HW2 2057   0.735   1.295   1.352
  206SOL     OW 2058   0.659   1.611   0.192
  206SOL    HW1 2059   0.711   1.612   0.111
  206SOL    HW2 2060   0.611   1.528   0.189
  207SOL     OW 2061   1.629   1.742   1.404
  207SOL    HW1 2062   1.723   1.756   1.412
  207SOL    HW2 2063   1.591   1.830   1.411
  208SOL     OW 2064   1.854   0.177   0.950
  208SOL    HW1 2065   1.883   0.102   0.898
  208SOL    HW2 2066   1.765   0.195   0.918
  209SOL     OW 2067   0.254   0.321   0.716
  209SOL    HW1 2068   0.167   0.353   0.691
  209SOL    HW2 2069   0.253   0.319   0.811
  210SOL     OW 2070   1.172   1.613   0.047
  210SOL    HW1 2071   1.181   1.520   0.066
  210SOL    HW2 2072   1.082   1.624   0.018
  211SOL     OW 2073   0.819   1.007   1.383
  211SOL    HW1 2074   0.874   0.971   1.314
  211SOL    HW2 2075   0.831   1.102   1.377
  212SOL     OW 2076   0.930   0.933   0.293
  212SOL    HW1 2077   0.990   0.952   0.221
  212SOL    HW2 2078   0.968   0.857   0.336
  213SOL     OW 2079   1.435   1.647  12.453
  213SOL    HW1 2080   1.372   1.631  12.523
  213SOL    HW2 2081   1.514   1.677  12.497
  214SOL     OW 2082   0.378   1.308   1.515
  214SOL    HW1 2083   0.368   1.386   1.460
  214SOL    HW2 2084   0.312   1.247   1.481
  215SOL     OW 2085   1.621   1.300   1.279
  215SOL    HW1 2086   1.664   1.269   1.358
  215SOL    HW2 2087   1.555   1.362   1.310
  216SOL     OW 2088   1.062   1.101   0.714
  216SOL    HW1 2089   0.984   1.067   0.757
  216SOL    HW2 2090   1.105   1.024   0.676
  217SOL     OW 2091   1.046   0.262   0.951
  217SOL    HW1 2092   1.024   0.202   0.879
  217SOL    HW2 2093   1.046   0.206   1.029
  218SOL     OW 2094   0.610   1.484   0.480
  218SOL    HW1 2095   0.651   1.437   0.407
  218SOL    HW2 2096   0.522   1.504   0.448
  219SOL     OW 2097   1.731   0.416   1.394
  219SOL    HW1 2098   1.806   0.475   1.394
  219SOL    HW2 2099   1.756   0.346   1.333
  220SOL     OW 2100   0.272   1.299   0.305
  220SOL    HW1 2101   0.184   1.312   0.269
  220SOL    HW2 2102   0.276   1.360   0.379
  221SOL     OW 2103   0.113   1.001   1.699
  221SOL    HW1 2104   0.032   1.033   1.740
  221SOL    HW2 2105   0.171   0.983   1.773
  222SOL     OW 2106   0.680   0.236   1.508
  222SOL    HW1 2107   0.750   0.178   1.477
  222SOL    HW2 2108   0.702   0.253   1.599
  223SOL     OW 2109   0.106   0.371   0.011
  223SOL    HW1 2110   0.028   0.376   0.067
  223SOL    HW2 2111   0.077   0.410  -0.072
  224SOL     OW 2112   1.423   0.860   1.395
  224SOL    HW1 2113   1.374   0.918   1.336
  224SOL    HW2 2114   1.512   0.859   1.358
  225SOL     OW 2115   0.084   0.185   0.308
  225SOL    HW1 2116   0.152   0.250   0.291
  225SOL    HW2 2117   0.111   0.143   0.390
  226SOL     OW 2118   1.191   1.350   0.109
  226SOL    HW1 2119   1.096   1.335   0.103
  226SOL    HW2 2120   1.211   1.339   0.202
  227SOL     OW 2121   0.612   0.849   1.447
  227SOL    HW1 2122   0.673   0.919   1.426
  227SOL    HW2 2123   0.666   0.770   1.449
  228SOL     OW 2124   1.467   1.787   0.963
  228SOL    HW1 2125   1.488   1.833   0.881
  228SOL    HW2 2126   1.519   1.833   1.030
  229SOL     OW 2127   0.704   0.565   1.708
  229SOL    HW1 2128   0.760   0.619   1.763
  229SOL    HW2 2129   0.725   0.475   1.734
  230SOL     OW 2130   1.472   1.193   1.628
  230SOL    HW1 2131   1.457   1.206   1.721
  230SOL    HW2 2132   1.565   1.213   1.615
  231SOL     OW 2133   0.388   1.728   1.570
  231SOL    HW1 2134   0.299   1.755   1.547
  231SOL    HW2 2135   0.377   1.648   1.622
  232SOL     OW 2136   1.666   0.875   1.260
  232SOL    HW1 2137   1.661   0.787   1.223
  232SOL    HW2 2138   1.655   0.934   1.185
  233SOL     OW 2139   1.226   0.319   0.449
  233SOL    HW1 2140   1.285   0.244   0.440
  233SOL    HW2 2141   1.255   0.363   0.529
  234SOL     OW 2142   0.581   0.738   0.681
  234SOL    HW1 2143   0.627   0.820   0.664
  234SOL    HW2 2144   0.522   0.727   0.607
  235SOL     OW 2145   1.748   0.354   1.670
  235SOL    HW1 2146   1.756   0.370   1.576
  235SOL    HW2 2147   1.665   0.309   1.680
  236SOL     OW 2148   1.745   0.946   1.513
  236SOL    HW1 2149   1.741   1.042   1.508
  236SOL    HW2 2150   1.728   0.917   1.424
  237SOL     OW 2151   0.916   1.373   0.061
  237SOL    HW1 2152   0.858   1.351   0.134
  237SOL    HW2 2153   0.896   1.464   0.040
  238SOL     OW 2154   0.667   1.782   0.942
  238SOL    HW1 2155   0.650   1.874   0.922
  238SOL    HW2 2156   0.761   1.772   0.930
  239SOL     OW 2157   0.853   0.995   0.852
  239SOL    HW1 2158   0.895   0.915   0.882
  239SOL    HW2 2159   0.813   1.033   0.931
  240SOL     OW 2160   1.086   0.987   0.065
  240SOL    HW1 2161   1.128   1.055   0.012
  240SOL    HW2 2162   1.154   0.922   0.079
  241SOL     OW 2163   1.845   1.536   0.827
  241SOL    HW1 2164   1.756   1.531   0.790
  241SOL    HW2 2165   1.849   1.464   0.890
  242SOL     OW 2166   0.220   1.248   1.871
  242SOL    HW1 2167   0.127   1.265   1.857
  242SOL    HW2 2168   0.235   1.272   1.963
  243SOL     OW 2169   0.138   1.262   0.660
  243SOL    HW1 2170   0.062   1.216   0.696
  243SOL    HW2 2171   0.197   1.193   0.630
  244SOL     OW 2172   0.642   1.381   1.631
  244SOL    HW1 2173   0.563   1.395   1.581
  244SOL    HW2 2174   0.660   1.466   1.672
  245SOL     OW 2175   1.821   0.225   1.228
  245SOL    HW1 2176   1.863   0.144   1.257
  245SOL    HW2 2177   1.828   0.222   1.133
  246SOL     OW 2178   0.434   0.428   0.529
  246SOL    HW1 2179   0.455   0.359   0.466
  246SOL    HW2 2180   0.376   0.386   0.592
  247SOL     OW 2181   1.717   1.523   1.114
  247SOL    HW1 2182   1.641   1.516   1.055
  247SOL    HW2 2183   1.710   1.446   1.170
  248SOL     OW 2184   0.359   0.565   1.293
  248SOL    HW1 2185   0.406   0.495   1.340
  248SOL    HW2 2186   0.371   0.544   1.201
  249SOL     OW 2187   0.830   1.580   0.677
  249SOL    HW1 2188   0.805   1.642   0.608
  249SOL    HW2 2189   0.757   1.518   0.680
  250SOL     OW 2190   1.433   0.224   1.124
  250SOL    HW1 2191   1.490   0.160   1.166
  250SOL    HW2 2192   1.382   0.262   1.196
  251SOL     OW 2193   1.013   0.077   1.147
  251SOL    HW1 2194   0.926   0.066   1.107
  251SOL    HW2 2195   1.044  -0.012   1.161
  252SOL     OW 2196   0.790   1.327   0.307
  252SOL    HW1 2197   0.754   1.240   0.325
  252SOL    HW2 2198   0.863   1.336   0.368
  253SOL     OW 2199   0.619   1.561   1.294
  253SOL    HW1 2200   0.620   1.648   1.333
  253SOL    HW2 2201   0.707   1.552   1.256
  254SOL     OW 2202   1.362   0.016   0.165
  254SOL    HW1 2203   1.408   0.015   0.081
  254SOL    HW2 2204   1.290   0.077   0.152
  255SOL     OW 2205   1.321   0.451   0.674
  255SOL    HW1 2206   1.273   0.533   0.673
  255SOL    HW2 2207   1.310   0.418   0.763
  256SOL     OW 2208   1.607   0.218   0.860
  256SOL    HW1 2209   1.530   0.211   0.916
  256SOL    HW2 2210   1.597   0.303   0.816
  257SOL     OW 2211   0.046   1.058   0.286
  257SOL    HW1 2212   0.135   1.029   0.270
  257SOL    HW2 2213   0.027   1.031   0.376
  258SOL     OW 2214   0.882   1.664   0.354
  258SOL    HW1 2215   0.800   1.640   0.310
  258SOL    HW2 2216   0.858   1.739   0.408
  259SOL     OW 2217   0.242   0.707   1.942
  259SOL    HW1 2218   0.211   0.651   2.013
  259SOL    HW2 2219   0.241   0.651   1.865
  260SOL     OW 2220   0.269   0.269   2.840
  260SOL    HW1 2221   0.284   0.237   2.929
  260SOL    HW2 2222   0.178   0.247   2.822
  261SOL     OW 2223   7.999   0.394   2.460
  261SOL    HW1 2224   7.916   0.385   2.506
  261SOL    HW2 2225   7.995   0.328   2.391
  262SOL     OW 2226   0.579   1.301   3.052
  262SOL    HW1 2227   0.489   1.301   3.019
  262SOL    HW2 2228   0.591   1.389   3.088
  263SOL     OW 2229   1.575   1.490   2.596
  263SOL    HW1 2230   1.553   1.477   2.688
  263SOL    HW2 2231   1.493   1.479   2.549
  264SOL     OW 2232   1.128   0.704   2.555
  264SOL    HW1 2233   1.180   0.784   2.546
  264SOL    HW2 2234   1.084   0.713   2.639
  265SOL     OW 2235   1.750   0.601   2.082
  265SOL    HW1 2236   1.777   0.557   2.001
  265SOL    HW2 2237   1.744   0.531   2.147
  266SOL     OW 2238   0.747   1.140   2.909
  266SOL    HW1 2239   0.683   1.175   2.971
  266SOL    HW2 2240   0.786   1.218   2.869
  267SOL     OW 2241   0.878   0.756   3.684
  267SOL    HW1 2242   0.880   0.825   3.750
  267SOL    HW2 2243   0.897   0.801   3.601
  268SOL     OW 2244   0.684   1.001   2.508
  268SOL    HW1 2245   0.752   0.992   2.575
  268SOL    HW2 2246   0.616   1.053   2.551
  269SOL     OW 2247   0.716   1.155   3.673
  269SOL    HW1 2248   0.761   1.233   3.705
  269SOL    HW2 2249   0.634   1.188   3.636
  270SOL     OW 2250   0.342   1.407   2.932
  270SOL    HW1 2251   0.255   1.392   2.895
  270SOL    HW2 2252   0.383   1.470   2.873
  271SOL     OW 2253   1.466   1.505   3.247
  271SOL    HW1 2254   1.532   1.552   3.298
  271SOL    HW2 2255   1.388   1.505   3.303
  272SOL     OW 2256   0.442   0.372   3.371
  272SOL    HW1 2257   0.531   0.336   3.365
  272SOL    HW2 2258   0.405   0.331   3.449
  273SOL     OW 2259   1.604   0.452   2.604
  273SOL    HW1 2260   1.523   0.486   2.565
  273SOL    HW2 2261   1.628   0.517   2.669
  274SOL     OW 2262   0.257   1.687   2.350
  274SOL    HW1 2263   0.250   1.771   2.395
  274SOL    HW2 2264   0.319   1.703   2.279
  275SOL     OW 2265   1.135   1.344   3.554
  275SOL    HW1 2266   1.183   1.336   3.637
  275SOL    HW2 2267   1.081   1.265   3.549
  276SOL     OW 2268   0.218   1.427   2.392
  276SOL    HW1 2269   0.238   1.521   2.389
  276SOL    HW2 2270   0.219   1.405   2.485
  277SOL     OW 2271   0.248   1.100   2.748
  277SOL    HW1 2272   0.268   1.012   2.778
  277SOL    HW2 2273   0.194   1.138   2.817
  278SOL     OW 2274   0.624   1.781   3.300
  278SOL    HW1 2275   0.539   1.762   3.340
  278SOL    HW2 2276   0.639   1.873   3.318
  279SOL     OW 2277   0.571   0.997   2.007
  279SOL    HW1 2278   0.619   1.042   1.938
  279SOL    HW2 2279   0.614   1.024   2.088
  280SOL     OW 2280   1.575   0.162   3.306
  280SOL    HW1 2281   1.624   0.233   3.265
  280SOL    HW2 2282   1.614   0.153   3.393
  281SOL     OW 2283   0.134   0.634   2.406
  281SOL    HW1 2284   0.094   0.551   2.432
  281SOL    HW2 2285   0.117   0.692   2.481
  282SOL     OW 2286   1.835   1.750   2.219
  282SOL    HW1 2287   1.918   1.725   2.259
  282SOL    HW2 2288   1.849   1.840   2.189
  283SOL     OW 2289   0.030   1.588   1.992
  283SOL    HW1 2290   0.009   1.495   1.984
  283SOL    HW2 2291   0.012   1.609   2.084
  284SOL     OW 2292   1.694   0.900   2.514
  284SOL    HW1 2293   1.783   0.874   2.538
  284SOL    HW2 2294   1.705   0.950   2.433
  285SOL     OW 2295   1.653   1.107   2.275
  285SOL    HW1 2296   1.741   1.102   2.238
  285SOL    HW2 2297   1.663   1.163   2.352
  286SOL     OW 2298   0.152   0.774   3.437
  286SOL    HW1 2299   0.247   0.770   3.434
  286SOL    HW2 2300   0.134   0.853   3.488
  287SOL     OW 2301   0.622   1.392   2.598
  287SOL    HW1 2302   0.577   1.309   2.609
  287SOL    HW2 2303   0.603   1.418   2.507
  288SOL     OW 2304   1.293   1.247   3.272
  288SOL    HW1 2305   1.323   1.175   3.216
  288SOL    HW2 2306   1.345   1.239   3.352
  289SOL     OW 2307   0.846   0.013   2.400
  289SOL    HW1 2308   0.882   0.100   2.381
  289SOL    HW2 2309   0.751   0.027   2.403
  290SOL     OW 2310   0.172   0.946   3.110
  290SOL    HW1 2311   0.266   0.934   3.103
  290SOL    HW2 2312   0.136   0.858   3.110
  291SOL     OW 2313   1.547   0.954   2.069
  291SOL    HW1 2314   1.464   0.927   2.108
  291SOL    HW2 2315   1.588   1.009   2.135
  292SOL     OW 2316   1.150   1.860   3.517
  292SOL    HW1 2317   1.182   1.903   3.437
  292SOL    HW2 2318   1.166   1.767   3.501
  293SOL     OW 2319   0.331   0.286   3.616
  293SOL    HW1 2320   0.403   0.278   3.679
  293SOL    HW2 2321   0.253   0.266   3.667
  294SOL     OW 2322   1.454   1.407   2.821
  294SOL    HW1 2323   1.391   1.414   2.894
  294SOL    HW2 2324   1.442   1.318   2.788
  295SOL     OW 2325   1.651   1.721   2.438
  295SOL    HW1 2326   1.729   1.720   2.383
  295SOL    HW2 2327   1.672   1.662   2.510
  296SOL     OW 2328   0.591   0.715   2.133
  296SOL    HW1 2329   0.599   0.803   2.097
  296SOL    HW2 2330   0.531   0.724   2.207
  297SOL     OW 2331   1.284   0.368   2.792
  297SOL    HW1 2332   1.196   0.332   2.805
  297SOL    HW2 2333   1.339   0.318   2.853
  298SOL     OW 2334   1.561   1.680   2.151
  298SOL    HW1 2335   1.655   1.692   2.157
  298SOL    HW2 2336   1.546   1.653   2.060
  299SOL     OW 2337   0.793   0.623   3.307
  299SOL    HW1 2338   0.762   0.600   3.395
  299SOL    HW2 2339   0.748   0.563   3.249
  300SOL     OW 2340   1.401   0.495   3.536
  300SOL    HW1 2341   1.411   0.539   3.620
  300SOL    HW2 2342   1.454   0.416   3.543
  301SOL     OW 2343   0.951   0.886   3.449
  301SOL    HW1 2344   1.008   0.821   3.408
  301SOL    HW2 2345   0.897   0.919   3.378
  302SOL     OW 2346   0.995   0.420   3.084
  302SOL    HW1 2347   0.905   0.442   3.107
  302SOL    HW2 2348   0.994   0.416   2.988
  303SOL     OW 2349   1.050   0.704   2.288
  303SOL    HW1 2350   1.070   0.698   2.381
  303SOL    HW2 2351   0.967   0.657   2.278
  304SOL     OW 2352   0.100   0.786   2.643
  304SOL    HW1 2353   0.191   0.794   2.672
  304SOL    HW2 2354   0.049   0.831   2.710
  305SOL     OW 2355   0.129   1.799   3.423
  305SOL    HW1 2356   0.143   1.777   3.515
  305SOL    HW2 2357   0.055   1.860   3.423
  306SOL     OW 2358   0.900   0.357   2.060
  306SOL    HW1 2359   0.938   0.417   1.995
  306SOL    HW2 2360   0.913   0.270   2.024
  307SOL     OW 2361   1.691   0.566   3.696
  307SOL    HW1 2362   1.660   0.642   3.647
  307SOL    HW2 2363   1.732   0.510   3.629
  308SOL     OW 2364   1.390   1.137   2.400
  308SOL    HW1 2365   1.473   1.127   2.353
  308SOL    HW2 2366   1.330   1.173   2.335
  309SOL     OW 2367   0.600   0.221   2.816
  309SOL    HW1 2368   0.511   0.239   2.848
  309SOL    HW2 2369   0.613   0.285   2.746
  310SOL     OW 2370   0.994   1.448   2.329
  310SOL    HW1 2371   0.967   1.525   2.278
  310SOL    HW2 2372   0.966   1.467   2.418
  311SOL     OW 2373   0.351   1.819   2.718
  311SOL    HW1 2374   0.395   1.737   2.742
  311SOL    HW2 2375   0.406   1.888   2.755
  312SOL     OW 2376   1.792   1.056   2.746
  312SOL    HW1 2377   1.735   1.041   2.670
  312SOL    HW2 2378   1.732   1.065   2.820
  313SOL     OW 2379   1.224   1.538   3.370
  313SOL    HW1 2380   1.211   1.469   3.436
  313SOL    HW2 2381   1.139   1.549   3.329
  314SOL     OW 2382   0.301   0.941   2.094
  314SOL    HW1 2383   0.391   0.963   2.071
  314SOL    HW2 2384   0.284   0.859   2.047
  315SOL     OW 2385   1.480   0.744   2.582
  315SOL    HW1 2386   1.478   0.709   2.671
  315SOL    HW2 2387   1.559   0.798   2.580
  316SOL     OW 2388   0.467   1.262   3.597
  316SOL    HW1 2389   0.442   1.268   3.505
  316SOL    HW2 2390   0.384   1.254   3.644
  317SOL     OW 2391   1.142   1.761   2.105
  317SOL    HW1 2392   1.058   1.733   2.140
  317SOL    HW2 2393   1.158   1.703   2.031
  318SOL     OW 2394   0.150   0.270   3.373
  318SOL    HW1 2395   0.169   0.364   3.365
  318SOL    HW2 2396   0.192   0.244   3.455
  319SOL     OW 2397   1.618   1.370   1.942
  319SOL    HW1 2398   1.580   1.457   1.928
  319SOL    HW2 2399   1.546   1.309   1.927
  320SOL     OW 2400   0.467   1.736   2.171
  320SOL    HW1 2401   0.506   1.794   2.236
  320SOL    HW2 2402   0.540   1.705   2.118
  321SOL     OW 2403   0.268   1.788   3.076
  321SOL    HW1 2404   0.305   1.718   3.129
  321SOL    HW2 2405   0.180   1.757   3.053
  322SOL     OW 2406   0.943   1.689   2.760
  322SOL    HW1 2407   0.967   1.617   2.819
  322SOL    HW2 2408   0.903   1.646   2.685
  323SOL     OW 2409   0.406   0.697   2.342
  323SOL    HW1 2410   0.429   0.605   2.356
  323SOL    HW2 2411   0.313   0.701   2.363
  324SOL     OW 2412   1.528   0.260   3.594
  324SOL    HW1 2413   1.535   0.279   3.688
  324SOL    HW2 2414   1.538   0.165   3.587
  325SOL     OW 2415   0.624   0.129   1.967
  325SOL    HW1 2416   0.695   0.066   1.979
  325SOL    HW2 2417   0.572   0.093   1.895
  326SOL     OW 2418   0.716   0.308   3.627
  326SOL    HW1 2419   0.806   0.280   3.615
  326SOL    HW2 2420   0.684   0.257   3.701
  327SOL     OW 2421   0.885   1.530   3.043
  327SOL    HW1 2422   0.857   1.476   2.969
  327SOL    HW2 2423   0.942   1.472   3.094
  328SOL     OW 2424   1.339   0.596   3.291
  328SOL    HW1 2425   1.372   0.565   3.376
  328SOL    HW2 2426   1.376   0.683   3.281
  329SOL     OW 2427   0.827   1.389   2.806
  329SOL    HW1 2428   0.908   1.377   2.757
  329SOL    HW2 2429   0.759   1.395   2.740
  330SOL     OW 2430   0.932   0.519   2.752
  330SOL    HW1 2431   0.903   0.515   2.661
  330SOL    HW2 2432   0.960   0.429   2.772
  331SOL     OW 2433   0.578   0.027   2.280
  331SOL    HW1 2434   0.505  -0.013   2.327
  331SOL    HW2 2435   0.553   0.119   2.270
  332SOL     OW 2436   1.418   1.188   1.901
  332SOL    HW1 2437   1.440   1.110   1.953
  332SOL    HW2 2438   1.333   1.216   1.936
  333SOL     OW 2439   0.305   0.034   2.049
  333SOL    HW1 2440   0.345   0.121   2.057
  333SOL    HW2 2441   0.313  -0.003   2.137
  334SOL     OW 2442   0.952   0.250   2.314
  334SOL    HW1 2443   0.923   0.294   2.234
  334SOL    HW2 2444   1.044   0.273   2.321
  335SOL     OW 2445   1.083   0.690   3.314
  335SOL    HW1 2446   1.021   0.620   3.333
  335SOL    HW2 2447   1.169   0.647   3.313
  336SOL     OW 2448   1.272   1.546   2.613
  336SOL    HW1 2449   1.253   1.638   2.593
  336SOL    HW2 2450   1.315   1.549   2.699
  337SOL     OW 2451   0.467   1.160   2.588
  337SOL    HW1 2452   0.406   1.141   2.659
  337SOL    HW2 2453   0.418   1.140   2.508
  338SOL     OW 2454   1.267   1.821   2.482
  338SOL    HW1 2455   1.301   1.906   2.455
  338SOL    HW2 2456   1.184   1.839   2.524
  339SOL     OW 2457   1.028   0.531   1.885
  339SOL    HW1 2458   0.981   0.612   1.866
  339SOL    HW2 2459   1.087   0.553   1.958
  340SOL     OW 2460   0.080   0.599   3.245
  340SOL    HW1 2461   0.163   0.559   3.219
  340SOL    HW2 2462   0.104   0.665   3.310
  341SOL     OW 2463   0.568   0.208   3.111
  341SOL    HW1 2464   0.586   0.201   3.205
  341SOL    HW2 2465   0.473   0.198   3.104
  342SOL     OW 2466   0.864   0.465   2.493
  342SOL    HW1 2467   0.827   0.517   2.422
  342SOL    HW2 2468   0.874   0.377   2.457
  343SOL     OW 2469   1.008   0.037   2.627
  343SOL    HW1 2470   0.949   0.025   2.553
  343SOL    HW2 2471   1.003  -0.045   2.676
  344SOL     OW 2472   1.423   1.159   2.713
  344SOL    HW1 2473   1.372   1.080   2.730
  344SOL    HW2 2474   1.441   1.157   2.619
  345SOL     OW 2475   1.464   0.616   2.831
  345SOL    HW1 2476   1.411   0.537   2.837
  345SOL    HW2 2477   1.525   0.610   2.904
  346SOL     OW 2478   1.830   0.813   2.234
  346SOL    HW1 2479   1.885   0.778   2.304
  346SOL    HW2 2480   1.814   0.739   2.176
  347SOL     OW 2481   0.471   1.428   1.986
  347SOL    HW1 2482   0.403   1.397   2.046
  347SOL    HW2 2483   0.423   1.464   1.912
  348SOL     OW 2484   1.688   1.255   2.493
  348SOL    HW1 2485   1.781   1.244   2.513
  348SOL    HW2 2486   1.664   1.338   2.533
  349SOL     OW 2487   1.414   0.581   1.948
  349SOL    HW1 2488   1.338   0.569   2.005
  349SOL    HW2 2489   1.477   0.516   1.979
  350SOL     OW 2490   0.506   0.268   2.165
  350SOL    HW1 2491   0.557   0.219   2.101
  350SOL    HW2 2492   0.490   0.353   2.123
  351SOL     OW 2493   1.746   1.255   3.418
  351SOL    HW1 2494   1.831   1.212   3.410
  351SOL    HW2 2495   1.766   1.343   3.449
  352SOL     OW 2496   1.044   1.347   3.188
  352SOL    HW1 2497   0.970   1.318   3.242
  352SOL    HW2 2498   1.121   1.316   3.235
  353SOL     OW 2499   1.598   1.624   3.504
  353SOL    HW1 2500   1.616   1.696   3.445
  353SOL    HW2 2501   1.681   1.577   3.512
  354SOL     OW 2502   1.142   1.227   2.959
  354SOL    HW1 2503   1.082   1.251   3.030
  354SOL    HW2 2504   1.092   1.246   2.879
  355SOL     OW 2505   1.615   1.096   2.945
  355SOL    HW1 2506   1.614   1.150   3.024
  355SOL    HW2 2507   1.528   1.108   2.907
  356SOL     OW 2508   0.894   0.115   3.223
  356SOL    HW1 2509   0.933   0.034   3.191
  356SOL    HW2 2510   0.963   0.158   3.272
  357SOL     OW 2511   0.981   1.120   3.579
  357SOL    HW1 2512   0.890   1.134   3.606
  357SOL    HW2 2513   0.979   1.038   3.529
  358SOL     OW 2514   0.710   1.064   2.237
  358SOL    HW1 2515   0.697   1.044   2.329
  358SOL    HW2 2516   0.785   1.010   2.211
  359SOL     OW 2517   1.266   0.380   3.139
  359SOL    HW1 2518   1.300   0.455   3.187
  359SOL    HW2 2519   1.174   0.401   3.124
  360SOL     OW 2520   0.058   1.616   3.198
  360SOL    HW1 2521   0.042   1.675   3.272
  360SOL    HW2 2522   0.143   1.576   3.218
  361SOL     OW 2523   0.316   1.112   2.354
  361SOL    HW1 2524   0.338   1.177   2.286
  361SOL    HW2 2525   0.328   1.027   2.311
  362SOL     OW 2526   0.558   0.513   2.712
  362SOL    HW1 2527   0.573   0.578   2.643
  362SOL    HW2 2528   0.608   0.546   2.787
  363SOL     OW 2529   1.232   1.340   2.244
  363SOL    HW1 2530   1.294   1.381   2.305
  363SOL    HW2 2531   1.146   1.364   2.278
  364SOL     OW 2532   1.294   1.462   3.030
  364SOL    HW1 2533   1.320   1.445   3.120
  364SOL    HW2 2534   1.224   1.400   3.012
  365SOL     OW 2535   1.568   0.632   2.336
  365SOL    HW1 2536   1.518   0.664   2.411
  365SOL    HW2 2537   1.642   0.693   2.330
  366SOL     OW 2538   0.341   1.532   3.176
  366SOL    HW1 2539   0.330   1.480   3.096
  366SOL    HW2 2540   0.436   1.542   3.186
  367SOL     OW 2541   0.420   0.729   3.476
  367SOL    HW1 2542   0.471   0.785   3.416
  367SOL    HW2 2543   0.482   0.662   3.505
  368SOL     OW 2544   1.603   0.780   3.558
  368SOL    HW1 2545   1.517   0.822   3.554
  368SOL    HW2 2546   1.654   0.822   3.489
  369SOL     OW 2547   1.039   0.064   3.593
  369SOL    HW1 2548   1.058   0.158   3.600
  369SOL    HW2 2549   0.943   0.060   3.586
  370SOL     OW 2550   0.494   0.016   3.598
  370SOL    HW1 2551   0.489  -0.035   3.517
  370SOL    HW2 2552   0.406   0.051   3.609
  371SOL     OW 2553   0.610   0.882   2.877
  371SOL    HW1 2554   0.638   0.969   2.905
  371SOL    HW2 2555   0.552   0.852   2.948
  372SOL     OW 2556   1.336   0.866   2.867
  372SOL    HW1 2557   1.247   0.835   2.849
  372SOL    HW2 2558   1.389   0.787   2.868
  373SOL     OW 2559   1.193   0.549   2.111
  373SOL    HW1 2560   1.193   0.463   2.153
  373SOL    HW2 2561   1.151   0.606   2.175
  374SOL     OW 2562   0.298   0.197   3.103
  374SOL    HW1 2563   0.272   0.266   3.164
  374SOL    HW2 2564   0.228   0.132   3.109
  375SOL     OW 2565   0.065   1.321   3.143
  375SOL    HW1 2566   0.087   1.255   3.209
  375SOL    HW2 2567   0.060   1.403   3.192
  376SOL     OW 2568   0.716   0.624   2.905
  376SOL    HW1 2569   0.794   0.620   2.850
  376SOL    HW2 2570   0.685   0.714   2.898
  377SOL     OW 2571   1.738   0.964   3.722
  377SOL    HW1 2572   1.695   0.894   3.673
  377SOL    HW2 2573   1.679   0.981   3.796
  378SOL     OW 2574   0.397   0.096   2.523
  378SOL    HW1 2575   0.346   0.176   2.539
  378SOL    HW2 2576   0.332   0.029   2.505
  379SOL     OW 2577   1.578   0.372   2.243
  379SOL    HW1 2578   1.633   0.323   2.304
  379SOL    HW2 2579   1.569   0.459   2.284
  380SOL     OW 2580   1.033   0.762   2.820
  380SOL    HW1 2581   1.019   0.778   2.914
  380SOL    HW2 2582   1.004   0.672   2.806
  381SOL     OW 2583   0.994   1.579   3.580
  381SOL    HW1 2584   0.965   1.613   3.496
  381SOL    HW2 2585   1.020   1.489   3.563
  382SOL     OW 2586   1.845   1.510   3.459
  382SOL    HW1 2587   1.878   1.542   3.375
  382SOL    HW2 2588   1.920   1.520   3.518
  383SOL     OW 2589   0.365   0.942   3.667
  383SOL    HW1 2590   0.454   0.966   3.692
  383SOL    HW2 2591   0.375   0.862   3.616
  384SOL     OW 2592   1.540   0.275   1.994
  384SOL    HW1 2593   1.592   0.195   2.002
  384SOL    HW2 2594   1.553   0.321   2.077
  385SOL     OW 2595   1.286   0.825   1.888
  385SOL    HW1 2596   1.325   0.738   1.892
  385SOL    HW2 2597   1.312   0.859   1.802
  386SOL     OW 2598   1.069   1.348   2.694
  386SOL    HW1 2599   1.074   1.267   2.644
  386SOL    HW2 2600   1.139   1.403   2.658
  387SOL     OW 2601   0.336   0.835   2.777
  387SOL    HW1 2602   0.430   0.850   2.779
  387SOL    HW2 2603   0.320   0.772   2.847
  388SOL     OW 2604   0.301   0.537   2.821
  388SOL    HW1 2605   0.292   0.443   2.839
  388SOL    HW2 2606   0.389   0.546   2.784
  389SOL     OW 2607   1.172   0.350   3.592
  389SOL    HW1 2608   1.112   0.410   3.637
  389SOL    HW2 2609   1.246   0.406   3.567
  390SOL     OW 2610   1.130   0.229   3.333
  390SOL    HW1 2611   1.173   0.238   3.419
  390SOL    HW2 2612   1.199   0.253   3.270
  391SOL     OW 2613   7.983   1.307   2.048
  391SOL    HW1 2614   7.899   1.331   2.086
  391SOL    HW2 2615   7.994   1.214   2.071
  392SOL     OW 2616   0.077   1.738   2.781
  392SOL    HW1 2617   0.123   1.672   2.729
  392SOL    HW2 2618   0.142   1.806   2.796
  393SOL     OW 2619   0.488   1.575   2.764
  393SOL    HW1 2620   0.553   1.641   2.785
  393SOL    HW2 2621   0.535   1.510   2.711
  394SOL     OW 2622   0.969   0.785   3.082
  394SOL    HW1 2623   1.030   0.764   3.153
  394SOL    HW2 2624   0.882   0.767   3.118
  395SOL     OW 2625   0.067   0.545   2.979
  395SOL    HW1 2626   0.161   0.549   2.960
  395SOL    HW2 2627   0.062   0.559   3.073
  396SOL     OW 2628   0.175   0.525   3.554
  396SOL    HW1 2629   0.266   0.504   3.537
  396SOL    HW2 2630   0.164   0.612   3.515
  397SOL     OW 2631   1.378   0.934   3.518
  397SOL    HW1 2632   1.404   1.026   3.515
  397SOL    HW2 2633   1.379   0.906   3.427
  398SOL     OW 2634   0.816   0.571   2.229
  398SOL    HW1 2635   0.826   0.496   2.170
  398SOL    HW2 2636   0.739   0.617   2.197
  399SOL     OW 2637   1.643   0.603   3.035
  399SOL    HW1 2638   1.634   0.550   3.114
  399SOL    HW2 2639   1.732   0.587   3.005
  400SOL     OW 2640   0.296   1.531   3.592
  400SOL    HW1 2641   0.257   1.606   3.638
  400SOL    HW2 2642   0.277   1.456   3.649
  401SOL     OW 2643   0.719   0.446   3.110
  401SOL    HW1 2644   0.643   0.388   3.110
  401SOL    HW2 2645   0.700   0.512   3.044
  402SOL     OW 2646   0.940   1.678   3.323
  402SOL    HW1 2647   0.886   1.642   3.253
  402SOL    HW2 2648   0.929   1.773   3.316
  403SOL     OW 2649   0.457   0.494   2.027
  403SOL    HW1 2650   0.511   0.570   2.049
  403SOL    HW2 2651   0.372   0.513   2.066
  404SOL     OW 2652   0.161   1.125   3.317
  404SOL    HW1 2653   0.139   1.076   3.397
  404SOL    HW2 2654   0.165   1.059   3.248
  405SOL     OW 2655   1.322   1.048   3.071
  405SOL    HW1 2656   1.335   0.981   3.004
  405SOL    HW2 2657   1.258   1.108   3.033
  406SOL     OW 2658   1.309   0.874   2.166
  406SOL    HW1 2659   1.249   0.834   2.229
  406SOL    HW2 2660   1.275   0.849   2.080
  407SOL     OW 2661   1.756   1.742   2.979
  407SOL    HW1 2662   1.832   1.772   2.929
  407SOL    HW2 2663   1.761   1.647   2.976
  408SOL     OW 2664   0.049   1.251   2.882
  408SOL    HW1 2665   0.065   1.264   2.976
  408SOL    HW2 2666  -0.036   1.292   2.867
  409SOL     OW 2667   0.670   1.682   3.598
  409SOL    HW1 2668   0.606   1.753   3.607
  409SOL    HW2 2669   0.712   1.699   3.514
  410SOL     OW 2670   1.676   0.127   2.379
  410SOL    HW1 2671   1.771   0.134   2.368
  410SOL    HW2 2672   1.663   0.099   2.469
  411SOL     OW 2673   0.177   1.752   3.689
  411SOL    HW1 2674   0.110   1.711   3.744
  411SOL    HW2 2675   0.225   1.810   3.748
  412SOL     OW 2676   1.281   0.926   2.529
  412SOL    HW1 2677   1.353   0.865   2.547
  412SOL    HW2 2678   1.321   0.997   2.479
  413SOL     OW 2679   0.792   1.280   3.283
  413SOL    HW1 2680   0.768   1.322   3.365
  413SOL    HW2 2681   0.713   1.284   3.229
  414SOL     OW 2682   0.670   1.617   2.012
  414SOL    HW1 2683   0.684   1.633   1.919
  414SOL    HW2 2684   0.613   1.540   2.015
  415SOL     OW 2685   1.603   1.754   3.212
  415SOL    HW1 2686   1.684   1.766   3.162
  415SOL    HW2 2687   1.592   1.836   3.260
  416SOL     OW 2688   1.839   0.177   2.818
  416SOL    HW1 2689   1.853   0.086   2.845
  416SOL    HW2 2690   1.756   0.175   2.770
  417SOL     OW 2691   0.262   0.330   2.565
  417SOL    HW1 2692   0.171   0.355   2.545
  417SOL    HW2 2693   0.265   0.327   2.660
  418SOL     OW 2694   1.201   1.597   1.893
  418SOL    HW1 2695   1.192   1.505   1.918
  418SOL    HW2 2696   1.134   1.611   1.826
  419SOL     OW 2697   0.828   1.010   3.235
  419SOL    HW1 2698   0.865   1.009   3.147
  419SOL    HW2 2699   0.819   1.104   3.255
  420SOL     OW 2700   0.915   0.913   2.148
  420SOL    HW1 2701   0.978   0.946   2.085
  420SOL    HW2 2702   0.962   0.846   2.198
  421SOL     OW 2703   1.482   1.614   1.896
  421SOL    HW1 2704   1.387   1.612   1.880
  421SOL    HW2 2705   1.520   1.622   1.808
  422SOL     OW 2706   0.373   1.300   3.347
  422SOL    HW1 2707   0.343   1.384   3.312
  422SOL    HW2 2708   0.299   1.240   3.335
  423SOL     OW 2709   1.593   1.262   3.161
  423SOL    HW1 2710   1.664   1.251   3.225
  423SOL    HW2 2711   1.540   1.334   3.197
  424SOL     OW 2712   1.068   1.108   2.570
  424SOL    HW1 2713   0.995   1.061   2.610
  424SOL    HW2 2714   1.134   1.041   2.552
  425SOL     OW 2715   1.012   0.259   2.802
  425SOL    HW1 2716   1.007   0.213   2.718
  425SOL    HW2 2717   1.011   0.190   2.868
  426SOL     OW 2718   0.597   1.482   2.341
  426SOL    HW1 2719   0.649   1.436   2.276
  426SOL    HW2 2720   0.536   1.535   2.290
  427SOL     OW 2721   1.727   0.416   3.245
  427SOL    HW1 2722   1.799   0.478   3.253
  427SOL    HW2 2723   1.759   0.349   3.185
  428SOL     OW 2724   0.246   1.344   2.136
  428SOL    HW1 2725   0.153   1.347   2.114
  428SOL    HW2 2726   0.251   1.374   2.226
  429SOL     OW 2727   0.104   1.002   3.572
  429SOL    HW1 2728   0.059   1.084   3.594
  429SOL    HW2 2729   0.184   1.003   3.624
  430SOL     OW 2730   0.667   0.211   3.362
  430SOL    HW1 2731   0.747   0.170   3.331
  430SOL    HW2 2732   0.687   0.238   3.451
  431SOL     OW 2733   0.077   0.346   1.859
  431SOL    HW1 2734   0.021   0.389   1.924
  431SOL    HW2 2735   0.113   0.418   1.807
  432SOL     OW 2736   1.422   0.861   3.256
  432SOL    HW1 2737   1.380   0.927   3.200
  432SOL    HW2 2738   1.515   0.864   3.231
  433SOL     OW 2739   0.127   0.256   2.195
  433SOL    HW1 2740   0.083   0.208   2.125
  433SOL    HW2 2741   0.131   0.194   2.268
  434SOL     OW 2742   1.174   1.328   1.975
  434SOL    HW1 2743   1.084   1.297   1.975
  434SOL    HW2 2744   1.199   1.331   2.068
  435SOL     OW 2745   0.637   0.851   3.362
  435SOL    HW1 2746   0.678   0.921   3.312
  435SOL    HW2 2747   0.687   0.772   3.338
  436SOL     OW 2748   1.514   1.775   2.855
  436SOL    HW1 2749   1.498   1.854   2.803
  436SOL    HW2 2750   1.606   1.780   2.878
  437SOL     OW 2751   0.695   0.575   3.559
  437SOL    HW1 2752   0.753   0.627   3.614
  437SOL    HW2 2753   0.710   0.485   3.587
  438SOL     OW 2754   1.471   1.199   3.486
  438SOL    HW1 2755   1.461   1.209   3.581
  438SOL    HW2 2756   1.565   1.213   3.471
  439SOL     OW 2757   0.391   1.728   3.423
  439SOL    HW1 2758   0.303   1.760   3.402
  439SOL    HW2 2759   0.376   1.648   3.473
  440SOL     OW 2760   1.666   0.875   3.114
  440SOL    HW1 2761   1.666   0.789   3.073
  440SOL    HW2 2762   1.661   0.937   3.041
  441SOL     OW 2763   1.217   0.339   2.311
  441SOL    HW1 2764   1.304   0.314   2.282
  441SOL    HW2 2765   1.231   0.384   2.395
  442SOL     OW 2766   0.602   0.727   2.537
  442SOL    HW1 2767   0.638   0.816   2.531
  442SOL    HW2 2768   0.532   0.725   2.472
  443SOL     OW 2769   1.761   0.368   3.515
  443SOL    HW1 2770   1.750   0.389   3.423
  443SOL    HW2 2771   1.678   0.328   3.541
  444SOL     OW 2772   1.720   0.933   3.374
  444SOL    HW1 2773   1.760   1.019   3.387
  444SOL    HW2 2774   1.720   0.920   3.280
  445SOL     OW 2775   0.869   1.361   1.914
  445SOL    HW1 2776   0.832   1.385   1.999
  445SOL    HW2 2777   0.885   1.444   1.870
  446SOL     OW 2778   0.662   1.784   2.779
  446SOL    HW1 2779   0.632   1.875   2.773
  446SOL    HW2 2780   0.755   1.790   2.801
  447SOL     OW 2781   0.875   0.976   2.713
  447SOL    HW1 2782   0.920   0.901   2.750
  447SOL    HW2 2783   0.827   1.015   2.787
  448SOL     OW 2784   1.079   0.993   1.948
  448SOL    HW1 2785   1.058   1.042   1.868
  448SOL    HW2 2786   1.151   0.935   1.923
  449SOL     OW 2787   1.854   1.536   2.713
  449SOL    HW1 2788   1.775   1.504   2.669
  449SOL    HW2 2789   1.886   1.461   2.763
  450SOL     OW 2790   0.219   1.296   3.722
  450SOL    HW1 2791   0.125   1.287   3.704
  450SOL    HW2 2792   0.224   1.305   3.817
  451SOL     OW 2793   0.096   1.182   2.538
  451SOL    HW1 2794   0.145   1.156   2.616
  451SOL    HW2 2795   0.157   1.172   2.466
  452SOL     OW 2796   0.681   1.416   3.493
  452SOL    HW1 2797   0.602   1.370   3.522
  452SOL    HW2 2798   0.676   1.501   3.537
  453SOL     OW 2799   1.827   0.223   3.097
  453SOL    HW1 2800   1.891   0.158   3.127
  453SOL    HW2 2801   1.838   0.224   3.002
  454SOL     OW 2802   0.446   0.434   2.389
  454SOL    HW1 2803   0.454   0.365   2.323
  454SOL    HW2 2804   0.382   0.401   2.451
  455SOL     OW 2805   1.677   1.481   2.987
  455SOL    HW1 2806   1.634   1.419   2.929
  455SOL    HW2 2807   1.738   1.428   3.038
  456SOL     OW 2808   0.312   0.494   3.166
  456SOL    HW1 2809   0.373   0.463   3.232
  456SOL    HW2 2810   0.352   0.574   3.132
  457SOL     OW 2811   0.833   1.580   2.532
  457SOL    HW1 2812   0.799   1.654   2.481
  457SOL    HW2 2813   0.758   1.523   2.545
  458SOL     OW 2814   1.440   0.236   2.972
  458SOL    HW1 2815   1.498   0.172   3.012
  458SOL    HW2 2816   1.395   0.277   3.047
  459SOL     OW 2817   1.000   0.045   2.966
  459SOL    HW1 2818   0.980  -0.042   2.999
  459SOL    HW2 2819   1.092   0.058   2.988
  460SOL     OW 2820   0.774   1.334   2.184
  460SOL    HW1 2821   0.750   1.242   2.198
  460SOL    HW2 2822   0.853   1.346   2.237
  461SOL     OW 2823   0.625   1.557   3.144
  461SOL    HW1 2824   0.623   1.636   3.198
  461SOL    HW2 2825   0.712   1.557   3.105
  462SOL     OW 2826   1.370   7.997   2.061
  462SOL    HW1 2827   1.391   7.911   2.024
  462SOL    HW2 2828   1.282   8.016   2.029
  463SOL     OW 2829   1.285   0.469   2.539
  463SOL    HW1 2830   1.233   0.549   2.548
  463SOL    HW2 2831   1.287   0.432   2.627
  464SOL     OW 2832   1.596   0.196   2.697
  464SOL    HW1 2833   1.534   0.190   2.770
  464SOL    HW2 2834   1.591   0.287   2.669
  465SOL     OW 2835   0.048   1.054   2.141
  465SOL    HW1 2836   0.137   1.023   2.122
  465SOL    HW2 2837   0.042   1.050   2.237
  466SOL     OW 2838   0.892   1.664   2.190
  466SOL    HW1 2839   0.815   1.646   2.136
  466SOL    HW2 2840   0.863   1.732   2.251
  467SOL     OW 2841   0.251   0.673   3.796
  467SOL    HW1 2842   0.207   0.643   3.876
  467SOL    HW2 2843   0.209   0.622   3.726
  468SOL     OW 2844   0.250   0.283   4.697
  468SOL    HW1 2845   0.273   0.260   4.787
  468SOL    HW2 2846   0.155   0.269   4.693
  469SOL     OW 2847   7.996   0.391   4.312
  469SOL    HW1 2848   7.919   0.388   4.369
  469SOL    HW2 2849   7.998   0.306   4.270
  470SOL     OW 2850   0.571   1.296   4.913
  470SOL    HW1 2851   0.482   1.296   4.877
  470SOL    HW2 2852   0.582   1.383   4.949
  471SOL     OW 2853   1.573   1.515   4.434
  471SOL    HW1 2854   1.529   1.486   4.514
  471SOL    HW2 2855   1.504   1.515   4.367
  472SOL     OW 2856   1.129   0.703   4.412
  472SOL    HW1 2857   1.179   0.785   4.407
  472SOL    HW2 2858   1.080   0.711   4.494
  473SOL     OW 2859   1.778   0.599   3.947
  473SOL    HW1 2860   1.748   0.590   3.857
  473SOL    HW2 2861   1.742   0.522   3.992
  474SOL     OW 2862   0.762   1.148   4.797
  474SOL    HW1 2863   0.683   1.185   4.836
  474SOL    HW2 2864   0.797   1.219   4.743
  475SOL     OW 2865   0.876   0.760   5.558
  475SOL    HW1 2866   0.854   0.824   5.626
  475SOL    HW2 2867   0.895   0.812   5.481
  476SOL     OW 2868   0.686   0.993   4.379
  476SOL    HW1 2869   0.754   0.992   4.447
  476SOL    HW2 2870   0.619   1.052   4.414
  477SOL     OW 2871   0.717   1.147   5.537
  477SOL    HW1 2872   0.760   1.227   5.568
  477SOL    HW2 2873   0.633   1.178   5.503
  478SOL     OW 2874   0.338   1.402   4.792
  478SOL    HW1 2875   0.255   1.371   4.755
  478SOL    HW2 2876   0.370   1.465   4.728
  479SOL     OW 2877   1.462   1.506   5.089
  479SOL    HW1 2878   1.519   1.582   5.096
  479SOL    HW2 2879   1.396   1.519   5.156
  480SOL     OW 2880   0.441   0.385   5.215
  480SOL    HW1 2881   0.527   0.342   5.213
  480SOL    HW2 2882   0.379   0.313   5.229
  481SOL     OW 2883   1.603   0.453   4.450
  481SOL    HW1 2884   1.535   0.486   4.390
  481SOL    HW2 2885   1.634   0.532   4.496
  482SOL     OW 2886   0.250   1.673   4.226
  482SOL    HW1 2887   0.175   1.729   4.245
  482SOL    HW2 2888   0.304   1.724   4.166
  483SOL     OW 2889   1.132   1.341   5.412
  483SOL    HW1 2890   1.177   1.336   5.496
  483SOL    HW2 2891   1.081   1.259   5.407
  484SOL     OW 2892   0.303   1.410   4.240
  484SOL    HW1 2893   0.283   1.503   4.249
  484SOL    HW2 2894   0.247   1.368   4.305
  485SOL     OW 2895   0.272   1.091   4.618
  485SOL    HW1 2896   0.264   1.011   4.670
  485SOL    HW2 2897   0.215   1.154   4.661
  486SOL     OW 2898   0.626   1.780   5.162
  486SOL    HW1 2899   0.540   1.763   5.201
  486SOL    HW2 2900   0.642   1.872   5.179
  487SOL     OW 2901   0.598   0.984   3.852
  487SOL    HW1 2902   0.643   1.028   3.781
  487SOL    HW2 2903   0.637   1.019   3.932
  488SOL     OW 2904   1.659   0.123   5.198
  488SOL    HW1 2905   1.612   0.111   5.116
  488SOL    HW2 2906   1.596   0.164   5.256
  489SOL     OW 2907   0.138   0.631   4.270
  489SOL    HW1 2908   0.093   0.550   4.294
  489SOL    HW2 2909   0.119   0.692   4.342
  490SOL     OW 2910   1.843   1.753   4.065
  490SOL    HW1 2911   1.917   1.724   4.118
  490SOL    HW2 2912   1.862   1.844   4.043
  491SOL     OW 2913   0.029   1.584   3.851
  491SOL    HW1 2914   0.004   1.493   3.863
  491SOL    HW2 2915   0.016   1.624   3.937
  492SOL     OW 2916   1.692   0.914   4.376
  492SOL    HW1 2917   1.778   0.874   4.369
  492SOL    HW2 2918   1.680   0.960   4.293
  493SOL     OW 2919   1.652   1.103   4.155
  493SOL    HW1 2920   1.739   1.100   4.115
  493SOL    HW2 2921   1.662   1.164   4.229
  494SOL     OW 2922   0.141   0.771   5.292
  494SOL    HW1 2923   0.233   0.765   5.319
  494SOL    HW2 2924   0.133   0.858   5.253
  495SOL     OW 2925   0.622   1.392   4.459
  495SOL    HW1 2926   0.573   1.310   4.470
  495SOL    HW2 2927   0.602   1.421   4.370
  496SOL     OW 2928   1.285   1.231   5.146
  496SOL    HW1 2929   1.320   1.168   5.083
  496SOL    HW2 2930   1.347   1.229   5.219
  497SOL     OW 2931   0.846   0.029   4.284
  497SOL    HW1 2932   0.876   0.113   4.251
  497SOL    HW2 2933   0.751   0.032   4.276
  498SOL     OW 2934   0.207   0.967   4.889
  498SOL    HW1 2935   0.287   0.918   4.910
  498SOL    HW2 2936   0.179   1.005   4.972
  499SOL     OW 2937   1.529   1.006   3.925
  499SOL    HW1 2938   1.461   0.948   3.960
  499SOL    HW2 2939   1.576   1.036   4.003
  500SOL     OW 2940   1.178   1.823   5.358
  500SOL    HW1 2941   1.186   1.887   5.287
  500SOL    HW2 2942   1.204   1.740   5.319
  501SOL     OW 2943   0.324   0.249   5.504
  501SOL    HW1 2944   0.379   0.320   5.538
  501SOL    HW2 2945   0.240   0.260   5.548
  502SOL     OW 2946   1.456   1.421   4.667
  502SOL    HW1 2947   1.395   1.433   4.740
  502SOL    HW2 2948   1.447   1.329   4.643
  503SOL     OW 2949   1.644   1.761   4.309
  503SOL    HW1 2950   1.640   1.731   4.218
  503SOL    HW2 2951   1.636   1.681   4.361
  504SOL     OW 2952   1.293   0.375   4.653
  504SOL    HW1 2953   1.204   0.340   4.660
  504SOL    HW2 2954   1.343   0.323   4.717
  505SOL     OW 2955   1.579   1.674   4.034
  505SOL    HW1 2956   1.672   1.697   4.031
  505SOL    HW2 2957   1.556   1.655   3.943
  506SOL     OW 2958   0.764   0.654   5.179
  506SOL    HW1 2959   0.756   0.613   5.265
  506SOL    HW2 2960   0.753   0.582   5.117
  507SOL     OW 2961   1.412   0.498   5.402
  507SOL    HW1 2962   1.411   0.537   5.490
  507SOL    HW2 2963   1.503   0.472   5.389
  508SOL     OW 2964   0.939   0.873   5.301
  508SOL    HW1 2965   1.020   0.825   5.283
  508SOL    HW2 2966   0.873   0.826   5.250
  509SOL     OW 2967   1.002   0.422   4.930
  509SOL    HW1 2968   0.916   0.436   4.970
  509SOL    HW2 2969   0.986   0.360   4.859
  510SOL     OW 2970   1.043   0.691   4.147
  510SOL    HW1 2971   1.067   0.688   4.239
  510SOL    HW2 2972   0.958   0.648   4.142
  511SOL     OW 2973   0.098   0.791   4.494
  511SOL    HW1 2974   0.181   0.797   4.540
  511SOL    HW2 2975   0.040   0.852   4.541
  512SOL     OW 2976   0.142   1.814   5.293
  512SOL    HW1 2977   0.135   1.807   5.388
  512SOL    HW2 2978   0.052   1.821   5.262
  513SOL     OW 2979   0.892   0.351   3.933
  513SOL    HW1 2980   0.939   0.393   3.861
  513SOL    HW2 2981   0.882   0.260   3.905
  514SOL     OW 2982   1.690   0.564   5.558
  514SOL    HW1 2983   1.665   0.641   5.507
  514SOL    HW2 2984   1.725   0.503   5.494
  515SOL     OW 2985   1.380   1.138   4.257
  515SOL    HW1 2986   1.463   1.129   4.210
  515SOL    HW2 2987   1.331   1.203   4.207
  516SOL     OW 2988   0.583   0.249   4.649
  516SOL    HW1 2989   0.538   0.256   4.733
  516SOL    HW2 2990   0.575   0.336   4.610
  517SOL     OW 2991   0.991   1.447   4.191
  517SOL    HW1 2992   0.969   1.525   4.139
  517SOL    HW2 2993   0.964   1.470   4.280
  518SOL     OW 2994   0.358   1.823   4.581
  518SOL    HW1 2995   0.401   1.739   4.593
  518SOL    HW2 2996   0.426   1.888   4.600
  519SOL     OW 2997   1.798   1.051   4.609
  519SOL    HW1 2998   1.750   1.035   4.528
  519SOL    HW2 2999   1.731   1.055   4.677
  520SOL     OW 3000   1.228   1.548   5.241
  520SOL    HW1 3001   1.213   1.470   5.294
  520SOL    HW2 3002   1.145   1.561   5.193
  521SOL     OW 3003   0.335   0.927   3.964
  521SOL    HW1 3004   0.373   0.973   3.890
  521SOL    HW2 3005   0.278   0.861   3.925
  522SOL     OW 3006   1.479   0.758   4.454
  522SOL    HW1 3007   1.482   0.713   4.538
  522SOL    HW2 3008   1.560   0.809   4.451
  523SOL     OW 3009   0.475   1.250   5.450
  523SOL    HW1 3010   0.441   1.251   5.361
  523SOL    HW2 3011   0.397   1.243   5.506
  524SOL     OW 3012   1.111   1.791   3.914
  524SOL    HW1 3013   1.044   1.756   3.972
  524SOL    HW2 3014   1.143   1.715   3.866
  525SOL     OW 3015   0.173   0.262   5.224
  525SOL    HW1 3016   0.150   0.352   5.201
  525SOL    HW2 3017   0.173   0.261   5.320
  526SOL     OW 3018   1.620   1.380   3.812
  526SOL    HW1 3019   1.580   1.466   3.798
  526SOL    HW2 3020   1.552   1.317   3.788
  527SOL     OW 3021   0.471   1.744   4.041
  527SOL    HW1 3022   0.510   1.805   4.104
  527SOL    HW2 3023   0.545   1.712   3.990
  528SOL     OW 3024   1.415   0.100   4.166
  528SOL    HW1 3025   1.390   0.058   4.248
  528SOL    HW2 3026   1.506   0.125   4.178
  529SOL     OW 3027   0.226   1.782   4.964
  529SOL    HW1 3028   0.277   1.703   4.985
  529SOL    HW2 3029   0.197   1.768   4.874
  530SOL     OW 3030   0.948   1.699   4.619
  530SOL    HW1 3031   1.031   1.654   4.632
  530SOL    HW2 3032   0.903   1.648   4.552
  531SOL     OW 3033   0.404   0.704   4.209
  531SOL    HW1 3034   0.425   0.612   4.222
  531SOL    HW2 3035   0.310   0.710   4.228
  532SOL     OW 3036   1.530   0.193   5.435
  532SOL    HW1 3037   1.472   0.240   5.495
  532SOL    HW2 3038   1.487   0.108   5.422
  533SOL     OW 3039   0.604   0.152   3.816
  533SOL    HW1 3040   0.671   0.105   3.867
  533SOL    HW2 3041   0.566   0.085   3.758
  534SOL     OW 3042   0.761   0.286   5.509
  534SOL    HW1 3043   0.793   0.197   5.494
  534SOL    HW2 3044   0.693   0.276   5.576
  535SOL     OW 3045   0.875   1.521   4.914
  535SOL    HW1 3046   0.855   1.486   4.827
  535SOL    HW2 3047   0.951   1.470   4.943
  536SOL     OW 3048   1.335   0.603   5.157
  536SOL    HW1 3049   1.371   0.573   5.240
  536SOL    HW2 3050   1.375   0.688   5.142
  537SOL     OW 3051   0.824   1.383   4.669
  537SOL    HW1 3052   0.909   1.374   4.625
  537SOL    HW2 3053   0.761   1.396   4.598
  538SOL     OW 3054   0.926   0.521   4.618
  538SOL    HW1 3055   0.898   0.508   4.527
  538SOL    HW2 3056   0.962   0.436   4.644
  539SOL     OW 3057   0.585   0.023   4.142
  539SOL    HW1 3058   0.511  -0.024   4.181
  539SOL    HW2 3059   0.575   0.113   4.171
  540SOL     OW 3060   1.422   1.198   3.758
  540SOL    HW1 3061   1.457   1.126   3.811
  540SOL    HW2 3062   1.339   1.221   3.801
  541SOL     OW 3063   0.302   0.044   3.910
  541SOL    HW1 3064   0.334   0.125   3.950
  541SOL    HW2 3065   0.322  -0.024   3.974
  542SOL     OW 3066   0.955   0.267   4.192
  542SOL    HW1 3067   0.924   0.291   4.104
  542SOL    HW2 3068   1.050   0.278   4.187
  543SOL     OW 3069   1.071   0.668   5.165
  543SOL    HW1 3070   1.023   0.587   5.184
  543SOL    HW2 3071   1.163   0.641   5.159
  544SOL     OW 3072   1.209   1.572   4.521
  544SOL    HW1 3073   1.225   1.637   4.452
  544SOL    HW2 3074   1.284   1.579   4.579
  545SOL     OW 3075   0.479   1.151   4.455
  545SOL    HW1 3076   0.411   1.133   4.519
  545SOL    HW2 3077   0.438   1.134   4.371
  546SOL     OW 3078   1.263   1.792   4.338
  546SOL    HW1 3079   1.312   1.855   4.285
  546SOL    HW2 3080   1.191   1.843   4.375
  547SOL     OW 3081   1.027   0.524   3.752
  547SOL    HW1 3082   0.983   0.607   3.731
  547SOL    HW2 3083   1.089   0.548   3.822
  548SOL     OW 3084   0.100   0.514   5.158
  548SOL    HW1 3085   0.086   0.508   5.064
  548SOL    HW2 3086   0.126   0.605   5.173
  549SOL     OW 3087   0.553   0.238   4.930
  549SOL    HW1 3088   0.596   0.169   4.981
  549SOL    HW2 3089   0.460   0.225   4.945
  550SOL     OW 3090   0.859   0.467   4.362
  550SOL    HW1 3091   0.815   0.517   4.293
  550SOL    HW2 3092   0.887   0.386   4.319
  551SOL     OW 3093   0.984   8.029   4.516
  551SOL    HW1 3094   0.938   8.030   4.432
  551SOL    HW2 3095   0.997   7.937   4.536
  552SOL     OW 3096   1.444   1.161   4.578
  552SOL    HW1 3097   1.374   1.097   4.560
  552SOL    HW2 3098   1.489   1.171   4.495
  553SOL     OW 3099   1.463   0.614   4.693
  553SOL    HW1 3100   1.415   0.532   4.688
  553SOL    HW2 3101   1.523   0.602   4.766
  554SOL     OW 3102   1.826   0.811   4.109
  554SOL    HW1 3103   1.887   0.766   4.168
  554SOL    HW2 3104   1.811   0.748   4.039
  555SOL     OW 3105   0.494   1.419   3.878
  555SOL    HW1 3106   0.414   1.398   3.926
  555SOL    HW2 3107   0.480   1.383   3.790
  556SOL     OW 3108   1.679   1.257   4.376
  556SOL    HW1 3109   1.774   1.250   4.387
  556SOL    HW2 3110   1.660   1.350   4.389
  557SOL     OW 3111   1.397   0.581   3.797
  557SOL    HW1 3112   1.338   0.556   3.868
  557SOL    HW2 3113   1.485   0.564   3.832
  558SOL     OW 3114   0.499   0.292   4.028
  558SOL    HW1 3115   0.544   0.240   3.961
  558SOL    HW2 3116   0.503   0.381   3.995
  559SOL     OW 3117   1.748   1.244   5.289
  559SOL    HW1 3118   1.834   1.208   5.268
  559SOL    HW2 3119   1.765   1.334   5.316
  560SOL     OW 3120   1.064   1.349   5.047
  560SOL    HW1 3121   0.989   1.338   5.105
  560SOL    HW2 3122   1.138   1.314   5.097
  561SOL     OW 3123   1.607   1.627   5.379
  561SOL    HW1 3124   1.602   1.665   5.292
  561SOL    HW2 3125   1.690   1.579   5.379
  562SOL     OW 3126   1.067   1.174   4.841
  562SOL    HW1 3127   1.075   1.249   4.900
  562SOL    HW2 3128   1.075   1.211   4.753
  563SOL     OW 3129   1.610   1.089   4.802
  563SOL    HW1 3130   1.602   1.152   4.874
  563SOL    HW2 3131   1.539   1.113   4.741
  564SOL     OW 3132   0.926   0.132   5.137
  564SOL    HW1 3133   0.923   0.089   5.051
  564SOL    HW2 3134   1.018   0.128   5.163
  565SOL     OW 3135   0.978   1.110   5.436
  565SOL    HW1 3136   0.889   1.127   5.468
  565SOL    HW2 3137   0.969   1.032   5.381
  566SOL     OW 3138   0.690   1.007   4.108
  566SOL    HW1 3139   0.692   1.018   4.203
  566SOL    HW2 3140   0.779   0.981   4.085
  567SOL     OW 3141   0.441   0.834   4.957
  567SOL    HW1 3142   0.496   0.861   5.030
  567SOL    HW2 3143   0.414   0.745   4.978
  568SOL     OW 3144   1.258   0.381   5.017
  568SOL    HW1 3145   1.290   0.463   5.053
  568SOL    HW2 3146   1.172   0.402   4.981
  569SOL     OW 3147   0.051   1.587   5.070
  569SOL    HW1 3148   0.087   1.668   5.033
  569SOL    HW2 3149   0.124   1.550   5.120
  570SOL     OW 3150   0.378   1.100   4.201
  570SOL    HW1 3151   0.343   1.189   4.189
  570SOL    HW2 3152   0.345   1.052   4.125
  571SOL     OW 3153   0.574   0.514   4.573
  571SOL    HW1 3154   0.589   0.575   4.501
  571SOL    HW2 3155   0.623   0.551   4.647
  572SOL     OW 3156   1.244   1.354   4.116
  572SOL    HW1 3157   1.300   1.423   4.149
  572SOL    HW2 3158   1.157   1.374   4.152
  573SOL     OW 3159   1.291   1.462   4.885
  573SOL    HW1 3160   1.358   1.474   4.951
  573SOL    HW2 3161   1.219   1.419   4.931
  574SOL     OW 3162   1.575   0.635   4.211
  574SOL    HW1 3163   1.527   0.690   4.273
  574SOL    HW2 3164   1.637   0.694   4.169
  575SOL     OW 3165   0.341   1.537   5.029
  575SOL    HW1 3166   0.328   1.482   4.952
  575SOL    HW2 3167   0.436   1.537   5.043
  576SOL     OW 3168   0.414   0.731   5.334
  576SOL    HW1 3169   0.438   0.771   5.250
  576SOL    HW2 3170   0.468   0.652   5.339
  577SOL     OW 3171   1.606   0.779   5.416
  577SOL    HW1 3172   1.522   0.823   5.409
  577SOL    HW2 3173   1.660   0.819   5.348
  578SOL     OW 3174   1.052   0.077   5.481
  578SOL    HW1 3175   1.070   0.169   5.460
  578SOL    HW2 3176   0.959   0.066   5.461
  579SOL     OW 3177   0.508   0.037   5.454
  579SOL    HW1 3178   0.481  -0.025   5.387
  579SOL    HW2 3179   0.433   0.096   5.464
  580SOL     OW 3180   0.592   0.879   4.741
  580SOL    HW1 3181   0.582   0.973   4.728
  580SOL    HW2 3182   0.539   0.860   4.819
  581SOL     OW 3183   1.338   0.855   4.744
  581SOL    HW1 3184   1.272   0.845   4.675
  581SOL    HW2 3185   1.390   0.775   4.741
  582SOL     OW 3186   1.196   0.530   3.982
  582SOL    HW1 3187   1.209   0.451   4.035
  582SOL    HW2 3188   1.151   0.590   4.041
  583SOL     OW 3189   0.282   0.197   4.967
  583SOL    HW1 3190   0.236   0.242   5.038
  583SOL    HW2 3191   0.215   0.144   4.924
  584SOL     OW 3192   0.046   1.292   4.995
  584SOL    HW1 3193   0.063   1.220   5.056
  584SOL    HW2 3194   0.046   1.371   5.050
  585SOL     OW 3195   0.725   0.636   4.779
  585SOL    HW1 3196   0.797   0.617   4.718
  585SOL    HW2 3197   0.694   0.723   4.753
  586SOL     OW 3198   1.745   0.954   5.588
  586SOL    HW1 3199   1.696   0.892   5.534
  586SOL    HW2 3200   1.685   0.976   5.659
  587SOL     OW 3201   0.414   0.093   4.405
  587SOL    HW1 3202   0.354   0.167   4.413
  587SOL    HW2 3203   0.361   0.024   4.366
  588SOL     OW 3204   1.624   0.399   4.084
  588SOL    HW1 3205   1.651   0.330   4.145
  588SOL    HW2 3206   1.601   0.473   4.139
  589SOL     OW 3207   1.022   0.764   4.683
  589SOL    HW1 3208   1.044   0.768   4.777
  589SOL    HW2 3209   0.994   0.674   4.669
  590SOL     OW 3210   0.985   1.568   5.449
  590SOL    HW1 3211   0.964   1.611   5.366
  590SOL    HW2 3212   1.025   1.485   5.424
  591SOL     OW 3213   1.849   1.501   5.325
  591SOL    HW1 3214   1.874   1.529   5.237
  591SOL    HW2 3215   1.928   1.516   5.377
  592SOL     OW 3216   0.379   0.940   5.534
  592SOL    HW1 3217   0.459   0.937   5.586
  592SOL    HW2 3218   0.384   0.863   5.477
  593SOL     OW 3219   1.547   0.272   3.861
  593SOL    HW1 3220   1.586   0.186   3.879
  593SOL    HW2 3221   1.572   0.326   3.936
  594SOL     OW 3222   1.279   0.825   3.750
  594SOL    HW1 3223   1.324   0.740   3.756
  594SOL    HW2 3224   1.314   0.864   3.669
  595SOL     OW 3225   1.081   1.330   4.593
  595SOL    HW1 3226   1.082   1.263   4.525
  595SOL    HW2 3227   1.130   1.403   4.556
  596SOL     OW 3228   0.326   0.790   4.645
  596SOL    HW1 3229   0.416   0.818   4.662
  596SOL    HW2 3230   0.315   0.709   4.695
  597SOL     OW 3231   0.357   0.534   4.745
  597SOL    HW1 3232   0.291   0.466   4.734
  597SOL    HW2 3233   0.420   0.519   4.676
  598SOL     OW 3234   1.172   0.361   5.448
  598SOL    HW1 3235   1.105   0.419   5.486
  598SOL    HW2 3236   1.242   0.421   5.420
  599SOL     OW 3237   1.182   0.211   5.213
  599SOL    HW1 3238   1.175   0.266   5.290
  599SOL    HW2 3239   1.207   0.271   5.143
  600SOL     OW 3240   7.976   1.302   3.911
  600SOL    HW1 3241   7.893   1.333   3.948
  600SOL    HW2 3242   7.977   1.208   3.930
  601SOL     OW 3243   0.128   1.763   4.713
  601SOL    HW1 3244   0.054   1.749   4.653
  601SOL    HW2 3245   0.202   1.784   4.656
  602SOL     OW 3246   0.489   1.577   4.628
  602SOL    HW1 3247   0.557   1.640   4.651
  602SOL    HW2 3248   0.534   1.514   4.571
  603SOL     OW 3249   0.932   0.837   4.988
  603SOL    HW1 3250   0.993   0.789   5.045
  603SOL    HW2 3251   0.861   0.775   4.972
  604SOL     OW 3252   0.192   0.534   5.444
  604SOL    HW1 3253   0.264   0.514   5.384
  604SOL    HW2 3254   0.146   0.607   5.402
  605SOL     OW 3255   1.382   0.934   5.376
  605SOL    HW1 3256   1.406   1.027   5.375
  605SOL    HW2 3257   1.384   0.907   5.284
  606SOL     OW 3258   0.793   0.555   4.091
  606SOL    HW1 3259   0.833   0.490   4.034
  606SOL    HW2 3260   0.699   0.540   4.082
  607SOL     OW 3261   1.641   0.604   4.902
  607SOL    HW1 3262   1.633   0.547   4.978
  607SOL    HW2 3263   1.729   0.588   4.868
  608SOL     OW 3264   0.346   1.538   5.492
  608SOL    HW1 3265   0.284   1.605   5.520
  608SOL    HW2 3266   0.291   1.464   5.466
  609SOL     OW 3267   0.728   0.458   4.987
  609SOL    HW1 3268   0.665   0.386   4.976
  609SOL    HW2 3269   0.710   0.517   4.914
  610SOL     OW 3270   0.940   1.668   5.187
  610SOL    HW1 3271   0.891   1.634   5.112
  610SOL    HW2 3272   0.933   1.763   5.180
  611SOL     OW 3273   0.483   0.560   3.939
  611SOL    HW1 3274   0.467   0.586   3.849
  611SOL    HW2 3275   0.396   0.545   3.975
  612SOL     OW 3276   1.302   1.039   4.939
  612SOL    HW1 3277   1.330   0.977   4.872
  612SOL    HW2 3278   1.227   1.085   4.901
  613SOL     OW 3279   1.315   0.861   4.024
  613SOL    HW1 3280   1.245   0.822   4.076
  613SOL    HW2 3281   1.288   0.844   3.933
  614SOL     OW 3282   1.755   1.742   4.856
  614SOL    HW1 3283   1.832   1.762   4.803
  614SOL    HW2 3284   1.742   1.648   4.846
  615SOL     OW 3285   1.245   1.733   4.820
  615SOL    HW1 3286   1.331   1.761   4.790
  615SOL    HW2 3287   1.256   1.642   4.846
  616SOL     OW 3288   0.091   1.262   4.731
  616SOL    HW1 3289   0.076   1.272   4.825
  616SOL    HW2 3290   0.013   1.218   4.699
  617SOL     OW 3291   0.681   1.673   5.454
  617SOL    HW1 3292   0.609   1.736   5.459
  617SOL    HW2 3293   0.726   1.695   5.372
  618SOL     OW 3294   1.683   0.140   4.204
  618SOL    HW1 3295   1.770   0.146   4.163
  618SOL    HW2 3296   1.700   0.106   4.291
  619SOL     OW 3297   1.393   1.569   4.216
  619SOL    HW1 3298   1.454   1.603   4.150
  619SOL    HW2 3299   1.346   1.646   4.247
  620SOL     OW 3300   0.174   1.736   5.567
  620SOL    HW1 3301   0.105   1.692   5.617
  620SOL    HW2 3302   0.208   1.802   5.626
  621SOL     OW 3303   1.278   0.935   4.405
  621SOL    HW1 3304   1.351   0.874   4.415
  621SOL    HW2 3305   1.312   1.002   4.345
  622SOL     OW 3306   0.797   1.247   5.122
  622SOL    HW1 3307   0.782   1.279   5.211
  622SOL    HW2 3308   0.720   1.275   5.073
  623SOL     OW 3309   0.676   1.626   3.875
  623SOL    HW1 3310   0.680   1.641   3.781
  623SOL    HW2 3311   0.618   1.550   3.885
  624SOL     OW 3312   1.617   1.732   5.110
  624SOL    HW1 3313   1.669   1.737   5.030
  624SOL    HW2 3314   1.604   1.824   5.136
  625SOL     OW 3315   1.847   0.175   4.684
  625SOL    HW1 3316   1.861   0.080   4.683
  625SOL    HW2 3317   1.766   0.188   4.634
  626SOL     OW 3318   0.256   0.320   4.428
  626SOL    HW1 3319   0.175   0.367   4.411
  626SOL    HW2 3320   0.262   0.316   4.523
  627SOL     OW 3321   1.208   1.591   3.753
  627SOL    HW1 3322   1.203   1.502   3.788
  627SOL    HW2 3323   1.135   1.597   3.692
  628SOL     OW 3324   0.921   0.911   4.023
  628SOL    HW1 3325   0.976   0.942   3.951
  628SOL    HW2 3326   0.972   0.840   4.063
  629SOL     OW 3327   1.485   1.631   3.766
  629SOL    HW1 3328   1.392   1.617   3.751
  629SOL    HW2 3329   1.523   1.634   3.678
  630SOL     OW 3330   0.367   1.272   5.205
  630SOL    HW1 3331   0.318   1.352   5.187
  630SOL    HW2 3332   0.303   1.201   5.193
  631SOL     OW 3333   1.593   1.276   5.003
  631SOL    HW1 3334   1.672   1.270   5.056
  631SOL    HW2 3335   1.543   1.348   5.041
  632SOL     OW 3336   1.060   1.112   4.434
  632SOL    HW1 3337   0.989   1.061   4.474
  632SOL    HW2 3338   1.127   1.047   4.412
  633SOL     OW 3339   1.034   0.263   4.668
  633SOL    HW1 3340   1.018   0.208   4.591
  633SOL    HW2 3341   1.039   0.202   4.741
  634SOL     OW 3342   0.605   1.494   4.205
  634SOL    HW1 3343   0.633   1.454   4.123
  634SOL    HW2 3344   0.518   1.529   4.187
  635SOL     OW 3345   1.723   0.424   5.113
  635SOL    HW1 3346   1.802   0.479   5.115
  635SOL    HW2 3347   1.747   0.350   5.057
  636SOL     OW 3348   0.243   1.336   3.992
  636SOL    HW1 3349   0.149   1.352   3.986
  636SOL    HW2 3350   0.268   1.370   4.078
  637SOL     OW 3351   0.091   0.970   5.540
  637SOL    HW1 3352   0.090   0.969   5.444
  637SOL    HW2 3353   0.184   0.977   5.563
  638SOL     OW 3354   0.678   0.232   5.224
  638SOL    HW1 3355   0.752   0.183   5.187
  638SOL    HW2 3356   0.692   0.228   5.319
  639SOL     OW 3357   0.053   0.335   3.716
  639SOL    HW1 3358   0.011   0.388   3.783
  639SOL    HW2 3359   0.089   0.398   3.654
  640SOL     OW 3360   1.423   0.863   5.117
  640SOL    HW1 3361   1.374   0.924   5.061
  640SOL    HW2 3362   1.512   0.865   5.083
  641SOL     OW 3363   0.135   0.253   4.050
  641SOL    HW1 3364   0.072   0.210   3.991
  641SOL    HW2 3365   0.132   0.201   4.130
  642SOL     OW 3366   1.178   1.332   3.846
  642SOL    HW1 3367   1.087   1.302   3.848
  642SOL    HW2 3368   1.204   1.334   3.938
  643SOL     OW 3369   0.619   0.875   5.158
  643SOL    HW1 3370   0.625   0.915   5.245
  643SOL    HW2 3371   0.669   0.794   5.165
  644SOL     OW 3372   1.502   1.781   4.721
  644SOL    HW1 3373   1.528   1.762   4.630
  644SOL    HW2 3374   1.582   1.765   4.772
  645SOL     OW 3375   0.729   0.554   5.426
  645SOL    HW1 3376   0.767   0.613   5.491
  645SOL    HW2 3377   0.745   0.466   5.460
  646SOL     OW 3378   1.475   1.194   5.350
  646SOL    HW1 3379   1.466   1.209   5.445
  646SOL    HW2 3380   1.567   1.213   5.332
  647SOL     OW 3381   0.398   1.729   5.293
  647SOL    HW1 3382   0.309   1.758   5.272
  647SOL    HW2 3383   0.385   1.648   5.342
  648SOL     OW 3384   1.661   0.878   4.980
  648SOL    HW1 3385   1.662   0.792   4.937
  648SOL    HW2 3386   1.653   0.940   4.908
  649SOL     OW 3387   1.226   0.320   4.166
  649SOL    HW1 3388   1.291   0.251   4.156
  649SOL    HW2 3389   1.252   0.367   4.245
  650SOL     OW 3390   0.614   0.724   4.395
  650SOL    HW1 3391   0.642   0.815   4.396
  650SOL    HW2 3392   0.528   0.726   4.352
  651SOL     OW 3393   1.749   0.364   5.383
  651SOL    HW1 3394   1.747   0.381   5.288
  651SOL    HW2 3395   1.687   0.293   5.396
  652SOL     OW 3396   1.741   0.928   5.238
  652SOL    HW1 3397   1.747   1.023   5.250
  652SOL    HW2 3398   1.728   0.916   5.144
  653SOL     OW 3399   0.861   1.367   3.768
  653SOL    HW1 3400   0.830   1.371   3.859
  653SOL    HW2 3401   0.868   1.459   3.741
  654SOL     OW 3402   0.667   1.780   4.653
  654SOL    HW1 3403   0.641   1.872   4.642
  654SOL    HW2 3404   0.763   1.783   4.656
  655SOL     OW 3405   0.870   0.976   4.583
  655SOL    HW1 3406   0.918   0.900   4.617
  655SOL    HW2 3407   0.828   1.013   4.661
  656SOL     OW 3408   1.064   0.981   3.806
  656SOL    HW1 3409   1.050   1.038   3.730
  656SOL    HW2 3410   1.141   0.929   3.783
  657SOL     OW 3411   1.855   1.551   4.567
  657SOL    HW1 3412   1.775   1.531   4.519
  657SOL    HW2 3413   1.865   1.478   4.628
  658SOL     OW 3414   0.217   1.276   5.574
  658SOL    HW1 3415   0.145   1.241   5.522
  658SOL    HW2 3416   0.180   1.291   5.660
  659SOL     OW 3417   0.147   1.237   4.381
  659SOL    HW1 3418   0.056   1.221   4.407
  659SOL    HW2 3419   0.198   1.176   4.433
  660SOL     OW 3420   0.695   1.395   5.352
  660SOL    HW1 3421   0.613   1.353   5.376
  660SOL    HW2 3422   0.686   1.486   5.380
  661SOL     OW 3423   1.829   0.232   4.953
  661SOL    HW1 3424   1.788   0.148   4.973
  661SOL    HW2 3425   1.841   0.230   4.858
  662SOL     OW 3426   0.440   0.443   4.257
  662SOL    HW1 3427   0.460   0.374   4.194
  662SOL    HW2 3428   0.379   0.403   4.319
  663SOL     OW 3429   1.693   1.484   4.819
  663SOL    HW1 3430   1.614   1.455   4.772
  663SOL    HW2 3431   1.711   1.413   4.880
  664SOL     OW 3432   0.383   0.583   5.026
  664SOL    HW1 3433   0.397   0.505   5.080
  664SOL    HW2 3434   0.359   0.548   4.940
  665SOL     OW 3435   0.836   1.580   4.397
  665SOL    HW1 3436   0.809   1.654   4.342
  665SOL    HW2 3437   0.758   1.524   4.401
  666SOL     OW 3438   1.434   0.245   4.845
  666SOL    HW1 3439   1.487   0.175   4.883
  666SOL    HW2 3440   1.383   0.279   4.918
  667SOL     OW 3441   1.024   0.075   4.859
  667SOL    HW1 3442   0.938   0.040   4.836
  667SOL    HW2 3443   1.077  -0.002   4.878
  668SOL     OW 3444   0.790   1.331   4.032
  668SOL    HW1 3445   0.756   1.247   4.062
  668SOL    HW2 3446   0.859   1.353   4.094
  669SOL     OW 3447   0.624   1.546   5.017
  669SOL    HW1 3448   0.622   1.629   5.066
  669SOL    HW2 3449   0.709   1.546   4.974
  670SOL     OW 3450   1.286   0.462   4.392
  670SOL    HW1 3451   1.236   0.543   4.399
  670SOL    HW2 3452   1.294   0.430   4.482
  671SOL     OW 3453   1.607   0.205   4.564
  671SOL    HW1 3454   1.534   0.190   4.623
  671SOL    HW2 3455   1.592   0.294   4.529
  672SOL     OW 3456   0.026   1.031   4.014
  672SOL    HW1 3457   0.118   1.050   4.034
  672SOL    HW2 3458  -0.021   1.055   4.095
  673SOL     OW 3459   0.896   1.667   4.053
  673SOL    HW1 3460   0.818   1.650   3.999
  673SOL    HW2 3461   0.867   1.735   4.115
  674SOL     OW 3462   0.253   0.699   5.678
  674SOL    HW1 3463   0.199   0.657   5.745
  674SOL    HW2 3464   0.239   0.645   5.600
  675SOL     OW 3465   0.231   0.285   6.570
  675SOL    HW1 3466   0.275   0.204   6.594
  675SOL    HW2 3467   0.140   0.260   6.555
  676SOL     OW 3468   8.001   0.362   6.204
  676SOL    HW1 3469   7.906   0.360   6.216
  676SOL    HW2 3470   8.014   0.332   6.114
  677SOL     OW 3471   0.571   1.285   6.779
  677SOL    HW1 3472   0.488   1.262   6.737
  677SOL    HW2 3473   0.568   1.380   6.787
  678SOL     OW 3474   1.546   1.491   6.259
  678SOL    HW1 3475   1.506   1.485   6.346
  678SOL    HW2 3476   1.473   1.508   6.200
  679SOL     OW 3477   1.136   0.701   6.277
  679SOL    HW1 3478   1.185   0.783   6.268
  679SOL    HW2 3479   1.086   0.711   6.358
  680SOL     OW 3480   1.797   0.593   5.801
  680SOL    HW1 3481   1.758   0.588   5.714
  680SOL    HW2 3482   1.752   0.526   5.852
  681SOL     OW 3483   0.771   1.147   6.646
  681SOL    HW1 3484   0.696   1.171   6.701
  681SOL    HW2 3485   0.797   1.229   6.603
  682SOL     OW 3486   0.880   0.756   7.406
  682SOL    HW1 3487   0.868   0.829   7.466
  682SOL    HW2 3488   0.902   0.797   7.322
  683SOL     OW 3489   0.688   1.003   6.230
  683SOL    HW1 3490   0.753   0.996   6.300
  683SOL    HW2 3491   0.617   1.054   6.269
  684SOL     OW 3492   0.716   1.161   7.415
  684SOL    HW1 3493   0.763   1.241   7.438
  684SOL    HW2 3494   0.636   1.191   7.372
  685SOL     OW 3495   0.326   1.421   6.652
  685SOL    HW1 3496   0.294   1.341   6.608
  685SOL    HW2 3497   0.371   1.469   6.583
  686SOL     OW 3498   1.444   1.517   6.942
  686SOL    HW1 3499   1.513   1.584   6.941
  686SOL    HW2 3500   1.473   1.456   7.010
  687SOL     OW 3501   0.444   0.384   7.080
  687SOL    HW1 3502   0.534   0.352   7.073
  687SOL    HW2 3503   0.393   0.305   7.098
  688SOL     OW 3504   1.600   0.457   6.311
  688SOL    HW1 3505   1.517   0.475   6.267
  688SOL    HW2 3506   1.618   0.536   6.362
  689SOL     OW 3507   0.216   1.693   6.064
  689SOL    HW1 3508   0.194   1.777   6.103
  689SOL    HW2 3509   0.282   1.714   5.998
  690SOL     OW 3510   1.134   1.346   7.287
  690SOL    HW1 3511   1.186   1.329   7.365
  690SOL    HW2 3512   1.086   1.265   7.272
  691SOL     OW 3513   0.312   1.448   6.132
  691SOL    HW1 3514   0.272   1.535   6.125
  691SOL    HW2 3515   0.247   1.395   6.178
  692SOL     OW 3516   0.637   1.787   7.041
  692SOL    HW1 3517   0.547   1.770   7.068
  692SOL    HW2 3518   0.648   1.881   7.049
  693SOL     OW 3519   0.593   0.979   5.723
  693SOL    HW1 3520   0.636   1.032   5.656
  693SOL    HW2 3521   0.624   1.016   5.806
  694SOL     OW 3522   1.638   0.143   7.070
  694SOL    HW1 3523   1.630   0.207   7.000
  694SOL    HW2 3524   1.584   0.179   7.141
  695SOL     OW 3525   0.142   0.624   6.139
  695SOL    HW1 3526   0.088   0.551   6.169
  695SOL    HW2 3527   0.114   0.698   6.193
  696SOL     OW 3528   1.842   1.753   5.924
  696SOL    HW1 3529   1.916   1.727   5.979
  696SOL    HW2 3530   1.861   1.843   5.898
  697SOL     OW 3531   0.010   1.590   5.729
  697SOL    HW1 3532   0.010   1.495   5.715
  697SOL    HW2 3533  -0.010   1.601   5.822
  698SOL     OW 3534   1.674   0.887   6.201
  698SOL    HW1 3535   1.765   0.887   6.230
  698SOL    HW2 3536   1.669   0.956   6.135
  699SOL     OW 3537   1.654   1.109   6.023
  699SOL    HW1 3538   1.741   1.109   5.981
  699SOL    HW2 3539   1.665   1.166   6.100
  700SOL     OW 3540   0.153   0.772   7.187
  700SOL    HW1 3541   0.248   0.778   7.174
  700SOL    HW2 3542   0.130   0.852   7.233
  701SOL     OW 3543   0.616   1.392   6.318
  701SOL    HW1 3544   0.574   1.308   6.332
  701SOL    HW2 3545   0.586   1.421   6.232
  702SOL     OW 3546   1.284   1.239   7.011
  702SOL    HW1 3547   1.310   1.175   6.946
  702SOL    HW2 3548   1.348   1.230   7.081
  703SOL     OW 3549   0.841   0.033   6.151
  703SOL    HW1 3550   0.876   0.114   6.113
  703SOL    HW2 3551   0.748   0.034   6.129
  704SOL     OW 3552   0.175   0.924   6.887
  704SOL    HW1 3553   0.264   0.898   6.863
  704SOL    HW2 3554   0.128   0.931   6.804
  705SOL     OW 3555   1.532   1.003   5.791
  705SOL    HW1 3556   1.464   0.945   5.826
  705SOL    HW2 3557   1.577   1.037   5.868
  706SOL     OW 3558   0.323   0.251   7.352
  706SOL    HW1 3559   0.385   0.311   7.393
  706SOL    HW2 3560   0.242   0.263   7.401
  707SOL     OW 3561   1.405   1.440   6.493
  707SOL    HW1 3562   1.381   1.453   6.585
  707SOL    HW2 3563   1.430   1.348   6.487
  708SOL     OW 3564   1.647   1.755   6.172
  708SOL    HW1 3565   1.642   1.715   6.085
  708SOL    HW2 3566   1.658   1.681   6.232
  709SOL     OW 3567   0.597   0.723   5.857
  709SOL    HW1 3568   0.593   0.807   5.810
  709SOL    HW2 3569   0.532   0.732   5.927
  710SOL     OW 3570   1.293   0.372   6.518
  710SOL    HW1 3571   1.203   0.341   6.524
  710SOL    HW2 3572   1.341   0.318   6.581
  711SOL     OW 3573   1.577   1.673   5.896
  711SOL    HW1 3574   1.669   1.698   5.895
  711SOL    HW2 3575   1.556   1.654   5.804
  712SOL     OW 3576   0.776   0.640   7.035
  712SOL    HW1 3577   0.762   0.604   7.122
  712SOL    HW2 3578   0.761   0.567   6.975
  713SOL     OW 3579   1.410   0.490   7.260
  713SOL    HW1 3580   1.418   0.536   7.344
  713SOL    HW2 3581   1.463   0.411   7.270
  714SOL     OW 3582   0.950   0.884   7.171
  714SOL    HW1 3583   1.002   0.813   7.132
  714SOL    HW2 3584   0.901   0.920   7.097
  715SOL     OW 3585   1.000   0.411   6.805
  715SOL    HW1 3586   0.910   0.432   6.831
  715SOL    HW2 3587   0.991   0.370   6.719
  716SOL     OW 3588   1.057   0.701   6.007
  716SOL    HW1 3589   1.076   0.695   6.101
  716SOL    HW2 3590   0.972   0.658   5.997
  717SOL     OW 3591   0.075   0.810   6.340
  717SOL    HW1 3592   0.153   0.806   6.396
  717SOL    HW2 3593   0.055   0.903   6.333
  718SOL     OW 3594   0.132   1.825   7.151
  718SOL    HW1 3595   0.079   1.865   7.220
  718SOL    HW2 3596   0.069   1.779   7.095
  719SOL     OW 3597   0.887   0.354   5.793
  719SOL    HW1 3598   0.927   0.402   5.721
  719SOL    HW2 3599   0.858   0.271   5.754
  720SOL     OW 3600   1.704   0.577   7.420
  720SOL    HW1 3601   1.671   0.651   7.369
  720SOL    HW2 3602   1.730   0.513   7.355
  721SOL     OW 3603   1.380   1.137   6.112
  721SOL    HW1 3604   1.467   1.132   6.072
  721SOL    HW2 3605   1.333   1.201   6.058
  722SOL     OW 3606   0.541   0.210   6.523
  722SOL    HW1 3607   0.538   0.285   6.583
  722SOL    HW2 3608   0.569   0.248   6.439
  723SOL     OW 3609   1.007   1.439   6.077
  723SOL    HW1 3610   1.007   1.533   6.094
  723SOL    HW2 3611   0.989   1.400   6.163
  724SOL     OW 3612   0.358   1.821   6.454
  724SOL    HW1 3613   0.403   1.737   6.461
  724SOL    HW2 3614   0.426   1.887   6.465
  725SOL     OW 3615   1.786   1.014   6.453
  725SOL    HW1 3616   1.764   1.083   6.390
  725SOL    HW2 3617   1.751   1.046   6.536
  726SOL     OW 3618   1.205   1.546   7.096
  726SOL    HW1 3619   1.202   1.487   7.172
  726SOL    HW2 3620   1.219   1.488   7.021
  727SOL     OW 3621   0.303   0.939   5.826
  727SOL    HW1 3622   0.373   0.981   5.776
  727SOL    HW2 3623   0.284   0.858   5.778
  728SOL     OW 3624   1.472   0.742   6.304
  728SOL    HW1 3625   1.480   0.713   6.395
  728SOL    HW2 3626   1.551   0.795   6.290
  729SOL     OW 3627   0.463   1.263   7.333
  729SOL    HW1 3628   0.439   1.273   7.241
  729SOL    HW2 3629   0.381   1.239   7.376
  730SOL     OW 3630   1.052   1.710   5.841
  730SOL    HW1 3631   1.123   1.735   5.902
  730SOL    HW2 3632   1.098   1.681   5.762
  731SOL     OW 3633   0.161   0.273   7.091
  731SOL    HW1 3634   0.154   0.369   7.088
  731SOL    HW2 3635   0.189   0.254   7.181
  732SOL     OW 3636   1.624   1.381   5.680
  732SOL    HW1 3637   1.585   1.467   5.660
  732SOL    HW2 3638   1.556   1.318   5.655
  733SOL     OW 3639   0.441   1.754   5.896
  733SOL    HW1 3640   0.494   1.803   5.959
  733SOL    HW2 3641   0.504   1.715   5.836
  734SOL     OW 3642   1.411   0.124   6.000
  734SOL    HW1 3643   1.382   0.033   6.009
  734SOL    HW2 3644   1.496   0.125   6.044
  735SOL     OW 3645   0.234   1.787   6.812
  735SOL    HW1 3646   0.293   1.713   6.828
  735SOL    HW2 3647   0.200   1.772   6.724
  736SOL     OW 3648   0.952   1.698   6.476
  736SOL    HW1 3649   1.037   1.654   6.473
  736SOL    HW2 3650   0.898   1.651   6.413
  737SOL     OW 3651   0.414   0.690   6.070
  737SOL    HW1 3652   0.435   0.598   6.084
  737SOL    HW2 3653   0.319   0.696   6.083
  738SOL     OW 3654   1.526   0.230   7.306
  738SOL    HW1 3655   1.539   0.245   7.400
  738SOL    HW2 3656   1.474   0.149   7.302
  739SOL     OW 3657   0.600   0.143   5.687
  739SOL    HW1 3658   0.671   0.092   5.725
  739SOL    HW2 3659   0.571   0.092   5.612
  740SOL     OW 3660   0.734   0.299   7.361
  740SOL    HW1 3661   0.808   0.239   7.360
  740SOL    HW2 3662   0.679   0.267   7.433
  741SOL     OW 3663   0.878   1.527   6.790
  741SOL    HW1 3664   0.861   1.495   6.702
  741SOL    HW2 3665   0.943   1.467   6.825
  742SOL     OW 3666   1.337   0.598   7.017
  742SOL    HW1 3667   1.377   0.569   7.099
  742SOL    HW2 3668   1.374   0.685   7.002
  743SOL     OW 3669   0.815   1.398   6.539
  743SOL    HW1 3670   0.900   1.383   6.497
  743SOL    HW2 3671   0.752   1.394   6.467
  744SOL     OW 3672   0.927   0.520   6.479
  744SOL    HW1 3673   0.900   0.512   6.388
  744SOL    HW2 3674   0.962   0.433   6.501
  745SOL     OW 3675   0.592   0.040   6.022
  745SOL    HW1 3676   0.520  -0.011   6.059
  745SOL    HW2 3677   0.553   0.125   6.001
  746SOL     OW 3678   1.426   1.198   5.623
  746SOL    HW1 3679   1.459   1.126   5.677
  746SOL    HW2 3680   1.341   1.220   5.661
  747SOL     OW 3681   0.293   0.048   5.774
  747SOL    HW1 3682   0.358   0.116   5.759
  747SOL    HW2 3683   0.328  -0.002   5.848
  748SOL     OW 3684   0.951   0.262   6.047
  748SOL    HW1 3685   0.921   0.292   5.961
  748SOL    HW2 3686   1.045   0.280   6.048
  749SOL     OW 3687   1.077   0.677   7.049
  749SOL    HW1 3688   1.022   0.599   7.057
  749SOL    HW2 3689   1.166   0.642   7.037
  750SOL     OW 3690   1.200   1.587   6.388
  750SOL    HW1 3691   1.234   1.649   6.323
  750SOL    HW2 3692   1.278   1.547   6.426
  751SOL     OW 3693   0.473   1.155   6.320
  751SOL    HW1 3694   0.410   1.139   6.391
  751SOL    HW2 3695   0.424   1.137   6.240
  752SOL     OW 3696   1.259   1.799   6.192
  752SOL    HW1 3697   1.316   1.858   6.142
  752SOL    HW2 3698   1.206   1.858   6.246
  753SOL     OW 3699   1.025   0.531   5.615
  753SOL    HW1 3700   0.979   0.612   5.596
  753SOL    HW2 3701   1.084   0.553   5.687
  754SOL     OW 3702   0.090   0.588   6.990
  754SOL    HW1 3703   0.178   0.574   6.955
  754SOL    HW2 3704   0.098   0.665   7.045
  755SOL     OW 3705   0.562   0.245   6.806
  755SOL    HW1 3706   0.606   0.177   6.856
  755SOL    HW2 3707   0.469   0.228   6.816
  756SOL     OW 3708   0.869   0.472   6.219
  756SOL    HW1 3709   0.830   0.525   6.149
  756SOL    HW2 3710   0.883   0.387   6.179
  757SOL     OW 3711   0.970   0.034   6.387
  757SOL    HW1 3712   0.924   0.039   6.303
  757SOL    HW2 3713   0.996  -0.058   6.394
  758SOL     OW 3714   1.457   1.170   6.448
  758SOL    HW1 3715   1.394   1.103   6.423
  758SOL    HW2 3716   1.513   1.181   6.371
  759SOL     OW 3717   1.464   0.613   6.553
  759SOL    HW1 3718   1.411   0.533   6.552
  759SOL    HW2 3719   1.522   0.603   6.628
  760SOL     OW 3720   1.848   0.809   5.959
  760SOL    HW1 3721   1.901   0.764   6.024
  760SOL    HW2 3722   1.828   0.742   5.893
  761SOL     OW 3723   0.483   1.425   5.732
  761SOL    HW1 3724   0.416   1.380   5.784
  761SOL    HW2 3725   0.446   1.430   5.644
  762SOL     OW 3726   1.680   1.247   6.259
  762SOL    HW1 3727   1.776   1.250   6.263
  762SOL    HW2 3728   1.652   1.338   6.264
  763SOL     OW 3729   1.395   0.587   5.660
  763SOL    HW1 3730   1.334   0.564   5.730
  763SOL    HW2 3731   1.479   0.599   5.706
  764SOL     OW 3732   0.499   0.272   5.897
  764SOL    HW1 3733   0.544   0.224   5.828
  764SOL    HW2 3734   0.484   0.359   5.860
  765SOL     OW 3735   1.750   1.245   7.173
  765SOL    HW1 3736   1.834   1.208   7.146
  765SOL    HW2 3737   1.768   1.337   7.190
  766SOL     OW 3738   1.046   1.350   6.924
  766SOL    HW1 3739   0.971   1.316   6.972
  766SOL    HW2 3740   1.121   1.305   6.962
  767SOL     OW 3741   1.600   1.627   7.239
  767SOL    HW1 3742   1.596   1.666   7.152
  767SOL    HW2 3743   1.683   1.580   7.241
  768SOL     OW 3744   1.141   1.223   6.687
  768SOL    HW1 3745   1.068   1.245   6.745
  768SOL    HW2 3746   1.109   1.248   6.600
  769SOL     OW 3747   1.617   1.086   6.669
  769SOL    HW1 3748   1.599   1.145   6.743
  769SOL    HW2 3749   1.555   1.114   6.601
  770SOL     OW 3750   0.912   0.123   6.982
  770SOL    HW1 3751   0.926   0.106   6.888
  770SOL    HW2 3752   1.001   0.128   7.018
  771SOL     OW 3753   0.981   1.115   7.309
  771SOL    HW1 3754   0.888   1.128   7.330
  771SOL    HW2 3755   0.982   1.038   7.252
  772SOL     OW 3756   0.715   1.071   5.957
  772SOL    HW1 3757   0.697   1.048   6.048
  772SOL    HW2 3758   0.788   1.015   5.932
  773SOL     OW 3759   0.421   0.813   6.835
  773SOL    HW1 3760   0.489   0.831   6.900
  773SOL    HW2 3761   0.393   0.724   6.853
  774SOL     OW 3762   1.262   0.376   6.877
  774SOL    HW1 3763   1.295   0.459   6.913
  774SOL    HW2 3764   1.175   0.398   6.843
  775SOL     OW 3765   0.083   1.573   6.946
  775SOL    HW1 3766   0.069   1.649   6.890
  775SOL    HW2 3767   0.177   1.557   6.942
  776SOL     OW 3768   0.338   1.109   6.074
  776SOL    HW1 3769   0.330   1.179   6.010
  776SOL    HW2 3770   0.343   1.029   6.022
  777SOL     OW 3771   0.557   0.536   6.447
  777SOL    HW1 3772   0.569   0.594   6.371
  777SOL    HW2 3773   0.627   0.561   6.507
  778SOL     OW 3774   1.245   1.348   5.966
  778SOL    HW1 3775   1.300   1.422   5.992
  778SOL    HW2 3776   1.160   1.366   6.006
  779SOL     OW 3777   1.276   1.469   6.737
  779SOL    HW1 3778   1.339   1.469   6.810
  779SOL    HW2 3779   1.237   1.381   6.740
  780SOL     OW 3780   1.579   0.636   6.052
  780SOL    HW1 3781   1.523   0.670   6.122
  780SOL    HW2 3782   1.642   0.707   6.036
  781SOL     OW 3783   0.346   1.525   6.894
  781SOL    HW1 3784   0.333   1.484   6.808
  781SOL    HW2 3785   0.440   1.542   6.899
  782SOL     OW 3786   0.432   0.730   7.193
  782SOL    HW1 3787   0.482   0.782   7.131
  782SOL    HW2 3788   0.490   0.659   7.218
  783SOL     OW 3789   1.610   0.787   7.277
  783SOL    HW1 3790   1.524   0.828   7.267
  783SOL    HW2 3791   1.663   0.825   7.207
  784SOL     OW 3792   1.046   0.081   7.343
  784SOL    HW1 3793   1.067   0.164   7.302
  784SOL    HW2 3794   0.955   0.063   7.319
  785SOL     OW 3795   0.504   0.033   7.323
  785SOL    HW1 3796   0.481  -0.030   7.255
  785SOL    HW2 3797   0.431   0.094   7.325
  786SOL     OW 3798   0.604   0.871   6.633
  786SOL    HW1 3799   0.593   0.959   6.595
  786SOL    HW2 3800   0.532   0.863   6.696
  787SOL     OW 3801   1.338   0.855   6.612
  787SOL    HW1 3802   1.256   0.840   6.565
  787SOL    HW2 3803   1.389   0.775   6.598
  788SOL     OW 3804   1.202   0.530   5.846
  788SOL    HW1 3805   1.207   0.453   5.902
  788SOL    HW2 3806   1.159   0.596   5.901
  789SOL     OW 3807   0.299   0.195   6.856
  789SOL    HW1 3808   0.249   0.226   6.931
  789SOL    HW2 3809   0.237   0.138   6.809
  790SOL     OW 3810   0.023   1.307   6.877
  790SOL    HW1 3811   0.069   1.244   6.932
  790SOL    HW2 3812   0.062   1.391   6.899
  791SOL     OW 3813   0.727   0.628   6.645
  791SOL    HW1 3814   0.801   0.619   6.585
  791SOL    HW2 3815   0.697   0.718   6.632
  792SOL     OW 3816   1.747   0.952   7.454
  792SOL    HW1 3817   1.703   0.891   7.395
  792SOL    HW2 3818   1.681   0.974   7.520
  793SOL     OW 3819   0.403   0.092   6.254
  793SOL    HW1 3820   0.348   0.169   6.268
  793SOL    HW2 3821   0.347   0.033   6.203
  794SOL     OW 3822   1.607   0.390   5.943
  794SOL    HW1 3823   1.651   0.339   6.011
  794SOL    HW2 3824   1.590   0.475   5.985
  795SOL     OW 3825   1.029   0.764   6.542
  795SOL    HW1 3826   1.020   0.778   6.636
  795SOL    HW2 3827   1.000   0.673   6.528
  796SOL     OW 3828   0.983   1.570   7.298
  796SOL    HW1 3829   0.974   1.612   7.213
  796SOL    HW2 3830   1.026   1.486   7.279
  797SOL     OW 3831   1.843   1.508   7.187
  797SOL    HW1 3832   1.870   1.532   7.098
  797SOL    HW2 3833   1.923   1.519   7.239
  798SOL     OW 3834   0.395   0.888   7.420
  798SOL    HW1 3835   0.486   0.909   7.440
  798SOL    HW2 3836   0.399   0.834   7.340
  799SOL     OW 3837   1.277   0.830   5.606
  799SOL    HW1 3838   1.321   0.745   5.613
  799SOL    HW2 3839   1.314   0.869   5.526
  800SOL     OW 3840   1.058   1.340   6.440
  800SOL    HW1 3841   1.071   1.265   6.382
  800SOL    HW2 3842   1.123   1.404   6.410
  801SOL     OW 3843   0.282   0.780   6.513
  801SOL    HW1 3844   0.315   0.868   6.526
  801SOL    HW2 3845   0.350   0.723   6.550
  802SOL     OW 3846   0.369   0.505   6.629
  802SOL    HW1 3847   0.329   0.422   6.602
  802SOL    HW2 3848   0.434   0.522   6.562
  803SOL     OW 3849   1.169   0.365   7.299
  803SOL    HW1 3850   1.102   0.423   7.335
  803SOL    HW2 3851   1.243   0.422   7.280
  804SOL     OW 3852   1.160   0.217   7.070
  804SOL    HW1 3853   1.175   0.270   7.148
  804SOL    HW2 3854   1.196   0.268   6.998
  805SOL     OW 3855   8.004   1.311   5.799
  805SOL    HW1 3856   7.911   1.327   5.810
  805SOL    HW2 3857   8.014   1.216   5.811
  806SOL     OW 3858   0.121   1.753   6.569
  806SOL    HW1 3859   0.091   1.678   6.518
  806SOL    HW2 3860   0.194   1.789   6.518
  807SOL     OW 3861   0.494   1.579   6.492
  807SOL    HW1 3862   0.565   1.638   6.518
  807SOL    HW2 3863   0.535   1.517   6.432
  808SOL     OW 3864   0.971   0.783   6.810
  808SOL    HW1 3865   1.029   0.762   6.884
  808SOL    HW2 3866   0.886   0.747   6.836
  809SOL     OW 3867   0.085   0.517   6.711
  809SOL    HW1 3868   0.158   0.468   6.672
  809SOL    HW2 3869   0.126   0.592   6.754
  810SOL     OW 3870   0.194   0.523   7.278
  810SOL    HW1 3871   0.282   0.508   7.244
  810SOL    HW2 3872   0.169   0.609   7.243
  811SOL     OW 3873   1.381   0.937   7.241
  811SOL    HW1 3874   1.405   1.030   7.235
  811SOL    HW2 3875   1.377   0.907   7.150
  812SOL     OW 3876   0.818   0.577   5.956
  812SOL    HW1 3877   0.823   0.501   5.899
  812SOL    HW2 3878   0.743   0.627   5.923
  813SOL     OW 3879   1.638   0.599   6.764
  813SOL    HW1 3880   1.631   0.543   6.842
  813SOL    HW2 3881   1.726   0.583   6.731
  814SOL     OW 3882   0.336   1.556   7.331
  814SOL    HW1 3883   0.264   1.605   7.370
  814SOL    HW2 3884   0.293   1.485   7.283
  815SOL     OW 3885   0.729   0.453   6.849
  815SOL    HW1 3886   0.667   0.382   6.834
  815SOL    HW2 3887   0.716   0.513   6.776
  816SOL     OW 3888   0.962   1.710   7.026
  816SOL    HW1 3889   0.922   1.646   6.967
  816SOL    HW2 3890   0.907   1.788   7.018
  817SOL     OW 3891   0.469   0.498   5.755
  817SOL    HW1 3892   0.519   0.578   5.772
  817SOL    HW2 3893   0.380   0.518   5.785
  818SOL     OW 3894   0.162   1.142   7.052
  818SOL    HW1 3895   0.131   1.107   7.135
  818SOL    HW2 3896   0.170   1.065   6.995
  819SOL     OW 3897   1.310   1.044   6.807
  819SOL    HW1 3898   1.333   0.979   6.740
  819SOL    HW2 3899   1.251   1.105   6.762
  820SOL     OW 3900   1.318   0.854   5.883
  820SOL    HW1 3901   1.244   0.826   5.938
  820SOL    HW2 3902   1.284   0.847   5.794
  821SOL     OW 3903   1.790   1.737   6.755
  821SOL    HW1 3904   1.846   1.762   6.683
  821SOL    HW2 3905   1.753   1.652   6.729
  822SOL     OW 3906   1.255   1.741   6.755
  822SOL    HW1 3907   1.325   1.774   6.699
  822SOL    HW2 3908   1.253   1.646   6.738
  823SOL     OW 3909   0.007   1.302   6.601
  823SOL    HW1 3910   0.020   1.294   6.695
  823SOL    HW2 3911   0.075   1.247   6.562
  824SOL     OW 3912   0.674   1.680   7.330
  824SOL    HW1 3913   0.604   1.746   7.335
  824SOL    HW2 3914   0.716   1.697   7.246
  825SOL     OW 3915   1.667   0.134   6.083
  825SOL    HW1 3916   1.758   0.135   6.052
  825SOL    HW2 3917   1.672   0.096   6.170
  826SOL     OW 3918   1.369   1.579   6.055
  826SOL    HW1 3919   1.442   1.608   6.000
  826SOL    HW2 3920   1.338   1.658   6.098
  827SOL     OW 3921   0.129   1.675   7.482
  827SOL    HW1 3922   0.058   1.739   7.483
  827SOL    HW2 3923   0.202   1.720   7.525
  828SOL     OW 3924   1.280   0.933   6.258
  828SOL    HW1 3925   1.352   0.871   6.268
  828SOL    HW2 3926   1.315   1.001   6.201
  829SOL     OW 3927   0.792   1.279   7.008
  829SOL    HW1 3928   0.762   1.323   7.088
  829SOL    HW2 3929   0.721   1.292   6.945
  830SOL     OW 3930   0.674   1.612   5.723
  830SOL    HW1 3931   0.676   1.632   5.629
  830SOL    HW2 3932   0.610   1.542   5.731
  831SOL     OW 3933   1.616   1.732   6.977
  831SOL    HW1 3934   1.677   1.732   6.903
  831SOL    HW2 3935   1.602   1.824   6.997
  832SOL     OW 3936   1.849   0.181   6.548
  832SOL    HW1 3937   1.851   0.089   6.573
  832SOL    HW2 3938   1.766   0.191   6.500
  833SOL     OW 3939   0.262   0.324   6.294
  833SOL    HW1 3940   0.174   0.349   6.266
  833SOL    HW2 3941   0.260   0.329   6.390
  834SOL     OW 3942   1.198   1.612   5.628
  834SOL    HW1 3943   1.197   1.518   5.647
  834SOL    HW2 3944   1.138   1.622   5.554
  835SOL     OW 3945   0.824   1.010   6.961
  835SOL    HW1 3946   0.857   0.998   6.872
  835SOL    HW2 3947   0.819   1.105   6.972
  836SOL     OW 3948   0.919   0.915   5.877
  836SOL    HW1 3949   0.979   0.949   5.811
  836SOL    HW2 3950   0.969   0.847   5.922
  837SOL     OW 3951   1.487   1.634   5.628
  837SOL    HW1 3952   1.394   1.623   5.608
  837SOL    HW2 3953   1.529   1.638   5.543
  838SOL     OW 3954   0.374   1.314   7.087
  838SOL    HW1 3955   0.369   1.379   7.016
  838SOL    HW2 3956   0.309   1.248   7.064
  839SOL     OW 3957   1.590   1.261   6.882
  839SOL    HW1 3958   1.683   1.265   6.905
  839SOL    HW2 3959   1.572   1.345   6.841
  840SOL     OW 3960   1.064   1.114   6.296
  840SOL    HW1 3961   0.992   1.062   6.333
  840SOL    HW2 3962   1.131   1.050   6.273
  841SOL     OW 3963   1.032   0.266   6.535
  841SOL    HW1 3964   1.011   0.212   6.459
  841SOL    HW2 3965   1.037   0.204   6.608
  842SOL     OW 3966   0.631   1.538   6.039
  842SOL    HW1 3967   0.667   1.463   5.991
  842SOL    HW2 3968   0.537   1.531   6.027
  843SOL     OW 3969   1.726   0.417   6.974
  843SOL    HW1 3970   1.798   0.480   6.981
  843SOL    HW2 3971   1.758   0.350   6.914
  844SOL     OW 3972   0.274   1.324   5.891
  844SOL    HW1 3973   0.181   1.331   5.869
  844SOL    HW2 3974   0.284   1.376   5.971
  845SOL     OW 3975   0.675   0.226   7.089
  845SOL    HW1 3976   0.748   0.173   7.056
  845SOL    HW2 3977   0.699   0.245   7.180
  846SOL     OW 3978   0.073   0.338   5.593
  846SOL    HW1 3979   0.015   0.380   5.657
  846SOL    HW2 3980   0.107   0.410   5.540
  847SOL     OW 3981   1.422   0.861   6.982
  847SOL    HW1 3982   1.372   0.922   6.928
  847SOL    HW2 3983   1.510   0.862   6.944
  848SOL     OW 3984   0.093   0.263   5.942
  848SOL    HW1 3985   0.062   0.231   5.858
  848SOL    HW2 3986   0.124   0.185   5.988
  849SOL     OW 3987   1.175   1.340   5.696
  849SOL    HW1 3988   1.082   1.316   5.695
  849SOL    HW2 3989   1.200   1.335   5.788
  850SOL     OW 3990   0.612   0.847   7.024
  850SOL    HW1 3991   0.670   0.921   7.005
  850SOL    HW2 3992   0.670   0.771   7.029
  851SOL     OW 3993   1.475   1.798   6.587
  851SOL    HW1 3994   1.502   1.859   6.519
  851SOL    HW2 3995   1.541   1.730   6.586
  852SOL     OW 3996   0.697   0.568   7.288
  852SOL    HW1 3997   0.756   0.621   7.343
  852SOL    HW2 3998   0.714   0.478   7.315
  853SOL     OW 3999   1.476   1.199   7.214
  853SOL    HW1 4000   1.470   1.210   7.309
  853SOL    HW2 4001   1.568   1.213   7.193
  854SOL     OW 4002   0.391   1.745   7.143
  854SOL    HW1 4003   0.302   1.776   7.130
  854SOL    HW2 4004   0.382   1.666   7.196
  855SOL     OW 4005   1.660   0.875   6.843
  855SOL    HW1 4006   1.659   0.792   6.797
  855SOL    HW2 4007   1.652   0.941   6.775
  856SOL     OW 4008   1.223   0.326   6.036
  856SOL    HW1 4009   1.285   0.254   6.032
  856SOL    HW2 4010   1.248   0.374   6.114
  857SOL     OW 4011   0.601   0.737   6.265
  857SOL    HW1 4012   0.639   0.824   6.248
  857SOL    HW2 4013   0.535   0.727   6.196
  858SOL     OW 4014   1.755   0.372   7.247
  858SOL    HW1 4015   1.751   0.388   7.153
  858SOL    HW2 4016   1.679   0.316   7.265
  859SOL     OW 4017   1.753   0.929   7.097
  859SOL    HW1 4018   1.746   1.024   7.107
  859SOL    HW2 4019   1.733   0.913   7.005
  860SOL     OW 4020   0.877   1.364   5.633
  860SOL    HW1 4021   0.819   1.389   5.705
  860SOL    HW2 4022   0.878   1.440   5.576
  861SOL     OW 4023   0.671   1.785   6.534
  861SOL    HW1 4024   0.647   1.873   6.507
  861SOL    HW2 4025   0.765   1.779   6.516
  862SOL     OW 4026   0.870   0.977   6.441
  862SOL    HW1 4027   0.918   0.902   6.475
  862SOL    HW2 4028   0.835   1.020   6.520
  863SOL     OW 4029   1.076   0.998   5.674
  863SOL    HW1 4030   1.053   1.047   5.594
  863SOL    HW2 4031   1.148   0.941   5.646
  864SOL     OW 4032   0.203   1.264   7.454
  864SOL    HW1 4033   0.158   1.193   7.407
  864SOL    HW2 4034   0.226   1.226   7.539
  865SOL     OW 4035   0.130   1.263   6.222
  865SOL    HW1 4036   0.058   1.220   6.269
  865SOL    HW2 4037   0.190   1.192   6.201
  866SOL     OW 4038   0.683   1.413   7.225
  866SOL    HW1 4039   0.598   1.372   7.245
  866SOL    HW2 4040   0.677   1.500   7.264
  867SOL     OW 4041   1.832   0.228   6.821
  867SOL    HW1 4042   1.782   0.146   6.828
  867SOL    HW2 4043   1.846   0.239   6.727
  868SOL     OW 4044   0.456   0.427   6.126
  868SOL    HW1 4045   0.455   0.368   6.050
  868SOL    HW2 4046   0.385   0.395   6.181
  869SOL     OW 4047   1.670   1.482   6.726
  869SOL    HW1 4048   1.696   1.485   6.634
  869SOL    HW2 4049   1.738   1.430   6.768
  870SOL     OW 4050   0.339   0.555   6.892
  870SOL    HW1 4051   0.389   0.496   6.948
  870SOL    HW2 4052   0.363   0.529   6.803
  871SOL     OW 4053   0.811   1.587   6.269
  871SOL    HW1 4054   0.767   1.629   6.195
  871SOL    HW2 4055   0.755   1.511   6.290
  872SOL     OW 4056   1.433   0.231   6.705
  872SOL    HW1 4057   1.491   0.167   6.746
  872SOL    HW2 4058   1.383   0.269   6.778
  873SOL     OW 4059   1.037   0.075   6.723
  873SOL    HW1 4060   0.967   0.013   6.704
  873SOL    HW2 4061   1.113   0.021   6.742
  874SOL     OW 4062   0.777   1.343   5.913
  874SOL    HW1 4063   0.745   1.253   5.915
  874SOL    HW2 4064   0.863   1.339   5.956
  875SOL     OW 4065   0.618   1.562   6.877
  875SOL    HW1 4066   0.628   1.640   6.931
  875SOL    HW2 4067   0.704   1.547   6.838
  876SOL     OW 4068   1.346   7.987   5.707
  876SOL    HW1 4069   1.407   7.916   5.722
  876SOL    HW2 4070   1.265   7.960   5.751
  877SOL     OW 4071   1.297   0.465   6.259
  877SOL    HW1 4072   1.247   0.547   6.262
  877SOL    HW2 4073   1.296   0.433   6.349
  878SOL     OW 4074   1.607   0.214   6.436
  878SOL    HW1 4075   1.533   0.206   6.496
  878SOL    HW2 4076   1.595   0.299   6.394
  879SOL     OW 4077   0.053   1.051   5.872
  879SOL    HW1 4078   0.140   1.019   5.848
  879SOL    HW2 4079   0.044   1.028   5.965
  880SOL     OW 4080   0.245   0.626   7.541
  880SOL    HW1 4081   0.164   0.653   7.584
  880SOL    HW2 4082   0.219   0.608   7.450
  881SOL     OW 4083   0.217   0.298   8.446
  881SOL    HW1 4084   0.243   0.243   8.519
  881SOL    HW2 4085   0.132   0.263   8.418
  882SOL     OW 4086   8.005   0.384   8.046
  882SOL    HW1 4087   7.914   0.371   8.073
  882SOL    HW2 4088   8.012   0.334   7.964
  883SOL     OW 4089   0.566   1.304   8.625
  883SOL    HW1 4090   0.479   1.315   8.585
  883SOL    HW2 4091   0.584   1.387   8.668
  884SOL     OW 4092   1.577   1.512   8.153
  884SOL    HW1 4093   1.530   1.493   8.235
  884SOL    HW2 4094   1.508   1.518   8.087
  885SOL     OW 4095   1.135   0.702   8.145
  885SOL    HW1 4096   1.183   0.783   8.131
  885SOL    HW2 4097   1.088   0.715   8.228
  886SOL     OW 4098   1.767   0.603   7.678
  886SOL    HW1 4099   1.745   0.601   7.585
  886SOL    HW2 4100   1.737   0.518   7.711
  887SOL     OW 4101   0.738   1.148   8.481
  887SOL    HW1 4102   0.678   1.191   8.542
  887SOL    HW2 4103   0.772   1.220   8.427
  888SOL     OW 4104   0.879   0.757   9.272
  888SOL    HW1 4105   0.873   0.825   9.340
  888SOL    HW2 4106   0.901   0.804   9.192
  889SOL     OW 4107   0.695   1.062   8.102
  889SOL    HW1 4108   0.762   1.027   8.160
  889SOL    HW2 4109   0.613   1.051   8.150
  890SOL     OW 4110   0.710   1.149   9.269
  890SOL    HW1 4111   0.759   1.226   9.299
  890SOL    HW2 4112   0.633   1.185   9.225
  891SOL     OW 4113   0.331   1.411   8.513
  891SOL    HW1 4114   0.261   1.371   8.462
  891SOL    HW2 4115   0.376   1.469   8.451
  892SOL     OW 4116   1.461   1.505   8.812
  892SOL    HW1 4117   1.517   1.582   8.818
  892SOL    HW2 4118   1.396   1.517   8.882
  893SOL     OW 4119   0.450   0.398   8.931
  893SOL    HW1 4120   0.532   0.347   8.931
  893SOL    HW2 4121   0.382   0.334   8.952
  894SOL     OW 4122   1.618   0.455   8.174
  894SOL    HW1 4123   1.553   0.477   8.107
  894SOL    HW2 4124   1.630   0.536   8.224
  895SOL     OW 4125   0.227   1.688   7.917
  895SOL    HW1 4126   0.205   1.771   7.958
  895SOL    HW2 4127   0.300   1.708   7.858
  896SOL     OW 4128   1.137   1.342   9.144
  896SOL    HW1 4129   1.184   1.332   9.227
  896SOL    HW2 4130   1.086   1.261   9.136
  897SOL     OW 4131   0.298   1.432   7.986
  897SOL    HW1 4132   0.265   1.522   7.982
  897SOL    HW2 4133   0.239   1.387   8.046
  898SOL     OW 4134   0.278   1.069   8.372
  898SOL    HW1 4135   0.259   0.984   8.412
  898SOL    HW2 4136   0.206   1.126   8.399
  899SOL     OW 4137   0.598   1.801   8.855
  899SOL    HW1 4138   0.523   1.778   8.912
  899SOL    HW2 4139   0.629   1.885   8.889
  900SOL     OW 4140   0.600   0.987   7.594
  900SOL    HW1 4141   0.642   1.040   7.527
  900SOL    HW2 4142   0.640   1.015   7.677
  901SOL     OW 4143   1.672   0.115   8.946
  901SOL    HW1 4144   1.621   0.129   8.867
  901SOL    HW2 4145   1.610   0.127   9.017
  902SOL     OW 4146   0.128   0.647   8.020
  902SOL    HW1 4147   0.099   0.557   8.029
  902SOL    HW2 4148   0.067   0.698   8.074
  903SOL     OW 4149   1.844   1.753   7.789
  903SOL    HW1 4150   1.920   1.728   7.842
  903SOL    HW2 4151   1.863   1.843   7.761
  904SOL     OW 4152   1.687   0.914   8.088
  904SOL    HW1 4153   1.768   0.872   8.058
  904SOL    HW2 4154   1.663   0.972   8.016
  905SOL     OW 4155   1.648   1.104   7.883
  905SOL    HW1 4156   1.733   1.102   7.840
  905SOL    HW2 4157   1.658   1.167   7.955
  906SOL     OW 4158   0.156   0.767   9.023
  906SOL    HW1 4159   0.252   0.765   9.028
  906SOL    HW2 4160   0.132   0.848   9.068
  907SOL     OW 4161   1.284   1.233   8.868
  907SOL    HW1 4162   1.314   1.166   8.808
  907SOL    HW2 4163   1.347   1.230   8.941
  908SOL     OW 4164   0.840   0.034   8.014
  908SOL    HW1 4165   0.876   0.113   7.975
  908SOL    HW2 4166   0.747   0.035   7.990
  909SOL     OW 4167   0.260   0.933   8.692
  909SOL    HW1 4168   0.276   1.026   8.678
  909SOL    HW2 4169   0.182   0.914   8.640
  910SOL     OW 4170   1.530   1.001   7.651
  910SOL    HW1 4171   1.462   0.943   7.684
  910SOL    HW2 4172   1.574   1.035   7.729
  911SOL     OW 4173   1.167   1.811   9.073
  911SOL    HW1 4174   1.186   1.877   9.006
  911SOL    HW2 4175   1.198   1.729   9.034
  912SOL     OW 4176   0.348   0.283   9.242
  912SOL    HW1 4177   0.390   0.346   9.301
  912SOL    HW2 4178   0.260   0.272   9.278
  913SOL     OW 4179   1.460   1.422   8.388
  913SOL    HW1 4180   1.398   1.436   8.461
  913SOL    HW2 4181   1.450   1.330   8.365
  914SOL     OW 4182   1.648   1.762   8.028
  914SOL    HW1 4183   1.645   1.728   7.938
  914SOL    HW2 4184   1.636   1.685   8.083
  915SOL     OW 4185   0.595   0.728   7.724
  915SOL    HW1 4186   0.596   0.806   7.669
  915SOL    HW2 4187   0.520   0.739   7.782
  916SOL     OW 4188   1.296   0.370   8.385
  916SOL    HW1 4189   1.204   0.343   8.384
  916SOL    HW2 4190   1.337   0.313   8.450
  917SOL     OW 4191   1.580   1.669   7.758
  917SOL    HW1 4192   1.672   1.695   7.753
  917SOL    HW2 4193   1.555   1.653   7.668
  918SOL     OW 4194   0.762   0.646   8.893
  918SOL    HW1 4195   0.757   0.613   8.983
  918SOL    HW2 4196   0.760   0.568   8.838
  919SOL     OW 4197   1.412   0.492   9.129
  919SOL    HW1 4198   1.403   0.531   9.215
  919SOL    HW2 4199   1.503   0.462   9.125
  920SOL     OW 4200   0.948   0.881   9.033
  920SOL    HW1 4201   0.997   0.808   8.995
  920SOL    HW2 4202   0.894   0.913   8.961
  921SOL     OW 4203   1.006   0.414   8.658
  921SOL    HW1 4204   0.921   0.432   8.697
  921SOL    HW2 4205   0.986   0.365   8.578
  922SOL     OW 4206   1.054   0.697   7.875
  922SOL    HW1 4207   1.073   0.688   7.968
  922SOL    HW2 4208   0.970   0.653   7.863
  923SOL     OW 4209   0.051   0.827   8.233
  923SOL    HW1 4210   0.144   0.840   8.246
  923SOL    HW2 4211   0.018   0.912   8.204
  924SOL     OW 4212   0.134   1.839   9.012
  924SOL    HW1 4213   0.131   1.828   9.107
  924SOL    HW2 4214   0.050   1.806   8.981
  925SOL     OW 4215   0.895   0.357   7.660
  925SOL    HW1 4216   0.935   0.408   7.590
  925SOL    HW2 4217   0.883   0.270   7.622
  926SOL     OW 4218   1.705   0.571   9.281
  926SOL    HW1 4219   1.672   0.649   9.234
  926SOL    HW2 4220   1.724   0.508   9.211
  927SOL     OW 4221   1.379   1.138   7.979
  927SOL    HW1 4222   1.462   1.127   7.932
  927SOL    HW2 4223   1.331   1.203   7.928
  928SOL     OW 4224   0.553   0.191   8.385
  928SOL    HW1 4225   0.524   0.265   8.439
  928SOL    HW2 4226   0.573   0.231   8.300
  929SOL     OW 4227   1.003   1.443   7.908
  929SOL    HW1 4228   0.970   1.522   7.865
  929SOL    HW2 4229   1.001   1.465   8.002
  930SOL     OW 4230   0.366   1.821   8.312
  930SOL    HW1 4231   0.418   1.742   8.319
  930SOL    HW2 4232   0.428   1.893   8.327
  931SOL     OW 4233   1.799   1.034   8.331
  931SOL    HW1 4234   1.752   1.033   8.248
  931SOL    HW2 4235   1.731   1.046   8.397
  932SOL     OW 4236   1.224   1.541   8.964
  932SOL    HW1 4237   1.214   1.468   9.025
  932SOL    HW2 4238   1.165   1.521   8.892
  933SOL     OW 4239   0.321   0.952   7.685
  933SOL    HW1 4240   0.402   0.981   7.645
  933SOL    HW2 4241   0.290   0.881   7.628
  934SOL     OW 4242   1.476   0.761   8.175
  934SOL    HW1 4243   1.482   0.716   8.260
  934SOL    HW2 4244   1.558   0.810   8.168
  935SOL     OW 4245   0.460   1.275   9.194
  935SOL    HW1 4246   0.435   1.279   9.102
  935SOL    HW2 4247   0.380   1.251   9.240
  936SOL     OW 4248   1.123   1.774   7.669
  936SOL    HW1 4249   1.050   1.734   7.716
  936SOL    HW2 4250   1.148   1.709   7.603
  937SOL     OW 4251   0.194   0.279   8.954
  937SOL    HW1 4252   0.143   0.353   8.986
  937SOL    HW2 4253   0.198   0.218   9.027
  938SOL     OW 4254   1.622   1.385   7.554
  938SOL    HW1 4255   1.586   1.470   7.526
  938SOL    HW2 4256   1.558   1.321   7.523
  939SOL     OW 4257   0.467   1.736   7.769
  939SOL    HW1 4258   0.511   1.799   7.826
  939SOL    HW2 4259   0.536   1.707   7.708
  940SOL     OW 4260   1.423   0.117   7.851
  940SOL    HW1 4261   1.403   0.084   7.763
  940SOL    HW2 4262   1.510   0.157   7.843
  941SOL     OW 4263   0.226   1.786   8.677
  941SOL    HW1 4264   0.285   1.714   8.702
  941SOL    HW2 4265   0.201   1.766   8.587
  942SOL     OW 4266   0.947   1.700   8.343
  942SOL    HW1 4267   1.035   1.661   8.344
  942SOL    HW2 4268   0.898   1.644   8.282
  943SOL     OW 4269   0.399   0.699   7.949
  943SOL    HW1 4270   0.426   0.607   7.946
  943SOL    HW2 4271   0.303   0.695   7.956
  944SOL     OW 4272   1.571   0.168   9.195
  944SOL    HW1 4273   1.577   0.218   9.277
  944SOL    HW2 4274   1.478   0.151   9.184
  945SOL     OW 4275   0.597   0.140   7.551
  945SOL    HW1 4276   0.670   0.092   7.589
  945SOL    HW2 4277   0.572   0.089   7.475
  946SOL     OW 4278   0.749   0.282   9.222
  946SOL    HW1 4279   0.767   0.188   9.218
  946SOL    HW2 4280   0.696   0.293   9.301
  947SOL     OW 4281   0.873   1.518   8.649
  947SOL    HW1 4282   0.872   1.496   8.556
  947SOL    HW2 4283   0.946   1.469   8.685
  948SOL     OW 4284   1.335   0.597   8.883
  948SOL    HW1 4285   1.372   0.570   8.967
  948SOL    HW2 4286   1.372   0.684   8.868
  949SOL     OW 4287   0.814   1.402   8.356
  949SOL    HW1 4288   0.905   1.376   8.346
  949SOL    HW2 4289   0.796   1.457   8.279
  950SOL     OW 4290   0.921   0.516   8.342
  950SOL    HW1 4291   0.897   0.510   8.249
  950SOL    HW2 4292   0.960   0.432   8.362
  951SOL     OW 4293   0.590   0.045   7.888
  951SOL    HW1 4294   0.517  -0.005   7.923
  951SOL    HW2 4295   0.553   0.130   7.864
  952SOL     OW 4296   1.430   1.200   7.486
  952SOL    HW1 4297   1.462   1.125   7.536
  952SOL    HW2 4298   1.344   1.220   7.523
  953SOL     OW 4299   0.287   0.053   7.636
  953SOL    HW1 4300   0.360   0.109   7.608
  953SOL    HW2 4301   0.327  -0.009   7.698
  954SOL     OW 4302   0.951   0.263   7.914
  954SOL    HW1 4303   0.921   0.293   7.828
  954SOL    HW2 4304   1.046   0.275   7.913
  955SOL     OW 4305   1.071   0.665   8.912
  955SOL    HW1 4306   1.021   0.585   8.925
  955SOL    HW2 4307   1.162   0.636   8.903
  956SOL     OW 4308   1.203   1.585   8.246
  956SOL    HW1 4309   1.225   1.645   8.175
  956SOL    HW2 4310   1.278   1.591   8.306
  957SOL     OW 4311   0.443   1.152   8.170
  957SOL    HW1 4312   0.392   1.134   8.249
  957SOL    HW2 4313   0.383   1.135   8.098
  958SOL     OW 4314   1.260   1.795   8.061
  958SOL    HW1 4315   1.315   1.850   8.006
  958SOL    HW2 4316   1.202   1.855   8.106
  959SOL     OW 4317   1.022   0.526   7.478
  959SOL    HW1 4318   0.979   0.608   7.453
  959SOL    HW2 4319   1.088   0.551   7.542
  960SOL     OW 4320   0.114   0.589   8.827
  960SOL    HW1 4321   0.206   0.574   8.804
  960SOL    HW2 4322   0.117   0.651   8.900
  961SOL     OW 4323   0.558   0.254   8.667
  961SOL    HW1 4324   0.598   0.183   8.716
  961SOL    HW2 4325   0.464   0.239   8.675
  962SOL     OW 4326   0.861   0.477   8.078
  962SOL    HW1 4327   0.831   0.521   7.999
  962SOL    HW2 4328   0.881   0.388   8.051
  963SOL     OW 4329   0.963   0.033   8.251
  963SOL    HW1 4330   0.920   0.040   8.166
  963SOL    HW2 4331   0.995  -0.057   8.255
  964SOL     OW 4332   1.448   1.161   8.302
  964SOL    HW1 4333   1.379   1.099   8.279
  964SOL    HW2 4334   1.496   1.174   8.220
  965SOL     OW 4335   1.464   0.613   8.413
  965SOL    HW1 4336   1.412   0.532   8.411
  965SOL    HW2 4337   1.522   0.602   8.489
  966SOL     OW 4338   1.840   0.810   7.838
  966SOL    HW1 4339   1.901   0.759   7.892
  966SOL    HW2 4340   1.814   0.750   7.768
  967SOL     OW 4341   0.494   1.414   7.592
  967SOL    HW1 4342   0.416   1.385   7.639
  967SOL    HW2 4343   0.480   1.386   7.502
  968SOL     OW 4344   1.674   1.252   8.110
  968SOL    HW1 4345   1.769   1.247   8.117
  968SOL    HW2 4346   1.654   1.346   8.118
  969SOL     OW 4347   1.400   0.581   7.518
  969SOL    HW1 4348   1.336   0.553   7.584
  969SOL    HW2 4349   1.484   0.549   7.550
  970SOL     OW 4350   0.504   0.280   7.762
  970SOL    HW1 4351   0.546   0.232   7.691
  970SOL    HW2 4352   0.481   0.364   7.723
  971SOL     OW 4353   1.748   1.242   9.015
  971SOL    HW1 4354   1.835   1.208   8.994
  971SOL    HW2 4355   1.764   1.333   9.040
  972SOL     OW 4356   1.057   1.351   8.779
  972SOL    HW1 4357   0.981   1.321   8.829
  972SOL    HW2 4358   1.132   1.309   8.821
  973SOL     OW 4359   1.607   1.621   9.103
  973SOL    HW1 4360   1.601   1.664   9.018
  973SOL    HW2 4361   1.692   1.577   9.101
  974SOL     OW 4362   1.128   1.203   8.554
  974SOL    HW1 4363   1.078   1.252   8.619
  974SOL    HW2 4364   1.108   1.245   8.470
  975SOL     OW 4365   1.613   1.090   8.524
  975SOL    HW1 4366   1.605   1.155   8.593
  975SOL    HW2 4367   1.542   1.111   8.463
  976SOL     OW 4368   0.925   0.122   8.861
  976SOL    HW1 4369   0.929   0.101   8.768
  976SOL    HW2 4370   1.017   0.126   8.889
  977SOL     OW 4371   0.982   1.114   9.170
  977SOL    HW1 4372   0.891   1.129   9.194
  977SOL    HW2 4373   0.980   1.035   9.115
  978SOL     OW 4374   0.716   1.053   7.832
  978SOL    HW1 4375   0.717   1.036   7.927
  978SOL    HW2 4376   0.792   1.005   7.799
  979SOL     OW 4377   1.265   0.379   8.732
  979SOL    HW1 4378   1.295   0.461   8.773
  979SOL    HW2 4379   1.177   0.400   8.699
  980SOL     OW 4380   0.041   1.596   8.779
  980SOL    HW1 4381   0.096   1.666   8.744
  980SOL    HW2 4382   0.092   1.557   8.850
  981SOL     OW 4383   0.382   1.127   7.898
  981SOL    HW1 4384   0.335   1.187   7.840
  981SOL    HW2 4385   0.371   1.041   7.858
  982SOL     OW 4386   0.551   0.536   8.307
  982SOL    HW1 4387   0.567   0.578   8.223
  982SOL    HW2 4388   0.626   0.562   8.361
  983SOL     OW 4389   1.252   1.348   7.839
  983SOL    HW1 4390   1.308   1.420   7.869
  983SOL    HW2 4391   1.164   1.372   7.868
  984SOL     OW 4392   1.295   1.460   8.602
  984SOL    HW1 4393   1.355   1.473   8.675
  984SOL    HW2 4394   1.242   1.384   8.628
  985SOL     OW 4395   1.579   0.622   7.936
  985SOL    HW1 4396   1.525   0.683   7.987
  985SOL    HW2 4397   1.626   0.679   7.874
  986SOL     OW 4398   0.343   1.532   8.758
  986SOL    HW1 4399   0.328   1.485   8.676
  986SOL    HW2 4400   0.438   1.542   8.763
  987SOL     OW 4401   0.430   0.731   9.055
  987SOL    HW1 4402   0.484   0.779   8.992
  987SOL    HW2 4403   0.483   0.657   9.082
  988SOL     OW 4404   1.611   0.782   9.139
  988SOL    HW1 4405   1.525   0.824   9.132
  988SOL    HW2 4406   1.663   0.823   9.069
  989SOL     OW 4407   1.044   0.081   9.203
  989SOL    HW1 4408   1.061   0.171   9.176
  989SOL    HW2 4409   0.951   0.067   9.186
  990SOL     OW 4410   0.506   0.047   9.173
  990SOL    HW1 4411   0.475  -0.013   9.105
  990SOL    HW2 4412   0.435   0.109   9.185
  991SOL     OW 4413   0.595   0.911   8.532
  991SOL    HW1 4414   0.652   0.987   8.523
  991SOL    HW2 4415   0.533   0.919   8.459
  992SOL     OW 4416   1.345   0.856   8.472
  992SOL    HW1 4417   1.267   0.848   8.416
  992SOL    HW2 4418   1.392   0.773   8.459
  993SOL     OW 4419   1.199   0.533   7.704
  993SOL    HW1 4420   1.207   0.448   7.748
  993SOL    HW2 4421   1.156   0.589   7.768
  994SOL     OW 4422   0.294   0.207   8.702
  994SOL    HW1 4423   0.252   0.233   8.784
  994SOL    HW2 4424   0.269   0.115   8.691
  995SOL     OW 4425   0.044   1.303   8.723
  995SOL    HW1 4426   0.069   1.244   8.794
  995SOL    HW2 4427   0.048   1.390   8.761
  996SOL     OW 4428   0.725   0.634   8.498
  996SOL    HW1 4429   0.802   0.604   8.450
  996SOL    HW2 4430   0.729   0.730   8.492
  997SOL     OW 4431   1.744   0.955   9.314
  997SOL    HW1 4432   1.699   0.892   9.258
  997SOL    HW2 4433   1.680   0.977   9.382
  998SOL     OW 4434   0.397   0.096   8.120
  998SOL    HW1 4435   0.348   0.177   8.137
  998SOL    HW2 4436   0.336   0.041   8.071
  999SOL     OW 4437   1.625   0.385   7.810
  999SOL    HW1 4438   1.663   0.324   7.873
  999SOL    HW2 4439   1.600   0.461   7.861
 1000SOL     OW 4440   1.021   0.762   8.407
 1000SOL    HW1 4441   1.018   0.775   8.502
 1000SOL    HW2 4442   0.998   0.670   8.394
 1001SOL     OW 4443   0.975   1.560   9.173
 1001SOL    HW1 4444   0.963   1.608   9.091
 1001SOL    HW2 4445   1.025   1.482   9.148
 1002SOL     OW 4446   1.852   1.500   9.048
 1002SOL    HW1 4447   1.872   1.530   8.960
 1002SOL    HW2 4448   1.932   1.517   9.098
 1003SOL     OW 4449   0.370   0.944   9.235
 1003SOL    HW1 4450   0.437   0.954   9.303
 1003SOL    HW2 4451   0.394   0.863   9.190
 1004SOL     OW 4452   1.562   0.279   7.567
 1004SOL    HW1 4453   1.467   0.273   7.579
 1004SOL    HW2 4454   1.595   0.313   7.650
 1005SOL     OW 4455   1.288   0.830   7.477
 1005SOL    HW1 4456   1.331   0.745   7.481
 1005SOL    HW2 4457   1.319   0.869   7.395
 1006SOL     OW 4458   1.072   1.338   8.316
 1006SOL    HW1 4459   1.078   1.266   8.254
 1006SOL    HW2 4460   1.130   1.406   8.280
 1007SOL     OW 4461   0.357   0.790   8.424
 1007SOL    HW1 4462   0.404   0.783   8.341
 1007SOL    HW2 4463   0.325   0.702   8.442
 1008SOL     OW 4464   0.351   0.523   8.475
 1008SOL    HW1 4465   0.302   0.444   8.457
 1008SOL    HW2 4466   0.422   0.523   8.411
 1009SOL     OW 4467   1.164   0.364   9.159
 1009SOL    HW1 4468   1.101   0.423   9.200
 1009SOL    HW2 4469   1.241   0.419   9.142
 1010SOL     OW 4470   1.178   0.213   8.929
 1010SOL    HW1 4471   1.175   0.269   9.007
 1010SOL    HW2 4472   1.206   0.271   8.859
 1011SOL     OW 4473   7.993   1.345   7.667
 1011SOL    HW1 4474   7.900   1.352   7.686
 1011SOL    HW2 4475   8.014   1.252   7.677
 1012SOL     OW 4476   0.131   1.749   8.421
 1012SOL    HW1 4477   0.085   1.705   8.349
 1012SOL    HW2 4478   0.209   1.786   8.380
 1013SOL     OW 4479   0.516   1.566   8.373
 1013SOL    HW1 4480   0.571   1.644   8.384
 1013SOL    HW2 4481   0.578   1.493   8.371
 1014SOL     OW 4482   0.963   0.782   8.679
 1014SOL    HW1 4483   1.031   0.760   8.743
 1014SOL    HW2 4484   0.883   0.745   8.716
 1015SOL     OW 4485   0.061   0.536   8.568
 1015SOL    HW1 4486   0.118   0.460   8.556
 1015SOL    HW2 4487   0.065   0.553   8.662
 1016SOL     OW 4488   0.184   0.521   9.149
 1016SOL    HW1 4489   0.270   0.497   9.117
 1016SOL    HW2 4490   0.164   0.603   9.104
 1017SOL     OW 4491   1.384   0.932   9.103
 1017SOL    HW1 4492   1.406   1.025   9.099
 1017SOL    HW2 4493   1.380   0.905   9.011
 1018SOL     OW 4494   0.812   0.576   7.822
 1018SOL    HW1 4495   0.824   0.501   7.763
 1018SOL    HW2 4496   0.739   0.624   7.785
 1019SOL     OW 4497   1.640   0.601   8.623
 1019SOL    HW1 4498   1.633   0.546   8.701
 1019SOL    HW2 4499   1.728   0.583   8.590
 1020SOL     OW 4500   0.282   1.537   9.176
 1020SOL    HW1 4501   0.245   1.612   9.222
 1020SOL    HW2 4502   0.281   1.466   9.240
 1021SOL     OW 4503   0.734   0.455   8.705
 1021SOL    HW1 4504   0.670   0.384   8.696
 1021SOL    HW2 4505   0.717   0.512   8.629
 1022SOL     OW 4506   0.906   1.682   8.930
 1022SOL    HW1 4507   0.890   1.643   8.844
 1022SOL    HW2 4508   0.914   1.775   8.912
 1023SOL     OW 4509   0.480   0.501   7.606
 1023SOL    HW1 4510   0.533   0.576   7.633
 1023SOL    HW2 4511   0.392   0.538   7.593
 1024SOL     OW 4512   0.159   1.114   8.900
 1024SOL    HW1 4513   0.135   1.088   8.988
 1024SOL    HW2 4514   0.182   1.031   8.856
 1025SOL     OW 4515   1.313   1.038   8.669
 1025SOL    HW1 4516   1.337   0.976   8.600
 1025SOL    HW2 4517   1.247   1.095   8.628
 1026SOL     OW 4518   1.315   0.854   7.752
 1026SOL    HW1 4519   1.241   0.815   7.798
 1026SOL    HW2 4520   1.294   0.843   7.659
 1027SOL     OW 4521   1.773   1.732   8.601
 1027SOL    HW1 4522   1.837   1.762   8.536
 1027SOL    HW2 4523   1.752   1.642   8.575
 1028SOL     OW 4524   1.239   1.728   8.544
 1028SOL    HW1 4525   1.322   1.758   8.508
 1028SOL    HW2 4526   1.255   1.637   8.569
 1029SOL     OW 4527   0.078   1.230   8.466
 1029SOL    HW1 4528   0.067   1.256   8.557
 1029SOL    HW2 4529  -0.008   1.246   8.426
 1030SOL     OW 4530   0.687   1.673   9.188
 1030SOL    HW1 4531   0.630   1.748   9.168
 1030SOL    HW2 4532   0.764   1.685   9.132
 1031SOL     OW 4533   1.723   0.164   7.950
 1031SOL    HW1 4534   1.746   0.130   7.864
 1031SOL    HW2 4535   1.678   0.091   7.993
 1032SOL     OW 4536   1.393   1.569   7.939
 1032SOL    HW1 4537   1.455   1.599   7.873
 1032SOL    HW2 4538   1.347   1.647   7.967
 1033SOL     OW 4539   0.166   1.755   9.291
 1033SOL    HW1 4540   0.105   1.705   9.346
 1033SOL    HW2 4541   0.222   1.801   9.354
 1034SOL     OW 4542   1.276   0.937   8.126
 1034SOL    HW1 4543   1.349   0.876   8.138
 1034SOL    HW2 4544   1.310   1.003   8.065
 1035SOL     OW 4545   0.807   1.277   8.874
 1035SOL    HW1 4546   0.779   1.317   8.956
 1035SOL    HW2 4547   0.740   1.302   8.810
 1036SOL     OW 4548   0.675   1.615   7.603
 1036SOL    HW1 4549   0.682   1.640   7.511
 1036SOL    HW2 4550   0.612   1.543   7.603
 1037SOL     OW 4551   1.616   1.728   8.836
 1037SOL    HW1 4552   1.672   1.734   8.759
 1037SOL    HW2 4553   1.600   1.819   8.861
 1038SOL     OW 4554   1.853   0.182   8.405
 1038SOL    HW1 4555   1.854   0.087   8.415
 1038SOL    HW2 4556   1.767   0.202   8.367
 1039SOL     OW 4557   0.262   0.337   8.164
 1039SOL    HW1 4558   0.175   0.352   8.126
 1039SOL    HW2 4559   0.245   0.327   8.258
 1040SOL     OW 4560   1.200   1.595   7.477
 1040SOL    HW1 4561   1.201   1.505   7.507
 1040SOL    HW2 4562   1.130   1.598   7.412
 1041SOL     OW 4563   0.815   1.006   8.823
 1041SOL    HW1 4564   0.874   0.994   8.749
 1041SOL    HW2 4565   0.818   1.100   8.841
 1042SOL     OW 4566   0.928   0.919   7.750
 1042SOL    HW1 4567   0.982   0.948   7.676
 1042SOL    HW2 4568   0.976   0.844   7.787
 1043SOL     OW 4569   1.484   1.637   7.491
 1043SOL    HW1 4570   1.392   1.620   7.471
 1043SOL    HW2 4571   1.527   1.640   7.405
 1044SOL     OW 4572   0.365   1.299   8.942
 1044SOL    HW1 4573   0.349   1.379   8.892
 1044SOL    HW2 4574   0.291   1.242   8.922
 1045SOL     OW 4575   1.599   1.284   8.718
 1045SOL    HW1 4576   1.679   1.279   8.771
 1045SOL    HW2 4577   1.546   1.351   8.761
 1046SOL     OW 4578   1.061   1.114   8.165
 1046SOL    HW1 4579   0.991   1.057   8.198
 1046SOL    HW2 4580   1.130   1.054   8.137
 1047SOL     OW 4581   1.036   0.264   8.395
 1047SOL    HW1 4582   1.012   0.209   8.321
 1047SOL    HW2 4583   1.042   0.204   8.469
 1048SOL     OW 4584   0.601   1.487   7.955
 1048SOL    HW1 4585   0.655   1.463   7.880
 1048SOL    HW2 4586   0.529   1.537   7.918
 1049SOL     OW 4587   1.724   0.421   8.830
 1049SOL    HW1 4588   1.800   0.480   8.837
 1049SOL    HW2 4589   1.754   0.349   8.774
 1050SOL     OW 4590   0.273   1.331   7.740
 1050SOL    HW1 4591   0.179   1.334   7.721
 1050SOL    HW2 4592   0.282   1.377   7.823
 1051SOL     OW 4593   0.116   1.002   9.149
 1051SOL    HW1 4594   0.050   1.024   9.215
 1051SOL    HW2 4595   0.197   0.993   9.197
 1052SOL     OW 4596   0.683   0.239   8.946
 1052SOL    HW1 4597   0.752   0.179   8.919
 1052SOL    HW2 4598   0.691   0.242   9.042
 1053SOL     OW 4599   0.076   0.344   7.445
 1053SOL    HW1 4600   0.019   0.389   7.508
 1053SOL    HW2 4601   0.108   0.413   7.387
 1054SOL     OW 4602   1.424   0.857   8.843
 1054SOL    HW1 4603   1.374   0.918   8.789
 1054SOL    HW2 4604   1.513   0.861   8.806
 1055SOL     OW 4605   0.084   0.258   7.789
 1055SOL    HW1 4606   0.055   0.223   7.705
 1055SOL    HW2 4607   0.133   0.186   7.829
 1056SOL     OW 4608   1.183   1.333   7.569
 1056SOL    HW1 4609   1.092   1.302   7.571
 1056SOL    HW2 4610   1.210   1.331   7.661
 1057SOL     OW 4611   0.592   0.842   8.852
 1057SOL    HW1 4612   0.649   0.918   8.847
 1057SOL    HW2 4613   0.652   0.769   8.870
 1058SOL     OW 4614   1.486   1.786   8.429
 1058SOL    HW1 4615   1.506   1.858   8.370
 1058SOL    HW2 4616   1.569   1.766   8.471
 1059SOL     OW 4617   0.709   0.566   9.150
 1059SOL    HW1 4618   0.760   0.623   9.207
 1059SOL    HW2 4619   0.733   0.477   9.177
 1060SOL     OW 4620   1.475   1.192   9.074
 1060SOL    HW1 4621   1.465   1.209   9.167
 1060SOL    HW2 4622   1.567   1.214   9.055
 1061SOL     OW 4623   0.388   1.740   9.016
 1061SOL    HW1 4624   0.301   1.774   8.994
 1061SOL    HW2 4625   0.371   1.654   9.055
 1062SOL     OW 4626   1.662   0.879   8.703
 1062SOL    HW1 4627   1.659   0.795   8.657
 1062SOL    HW2 4628   1.650   0.944   8.634
 1063SOL     OW 4629   1.221   0.314   7.904
 1063SOL    HW1 4630   1.288   0.247   7.891
 1063SOL    HW2 4631   1.252   0.365   7.978
 1064SOL     OW 4632   0.567   0.778   8.146
 1064SOL    HW1 4633   0.650   0.787   8.099
 1064SOL    HW2 4634   0.504   0.754   8.078
 1065SOL     OW 4635   1.730   0.378   9.096
 1065SOL    HW1 4636   1.729   0.391   9.002
 1065SOL    HW2 4637   1.687   0.294   9.110
 1066SOL     OW 4638   1.750   0.932   8.960
 1066SOL    HW1 4639   1.740   1.026   8.974
 1066SOL    HW2 4640   1.731   0.919   8.867
 1067SOL     OW 4641   0.861   1.387   7.498
 1067SOL    HW1 4642   0.810   1.443   7.556
 1067SOL    HW2 4643   0.889   1.445   7.427
 1068SOL     OW 4644   0.669   1.787   8.384
 1068SOL    HW1 4645   0.643   1.877   8.366
 1068SOL    HW2 4646   0.764   1.787   8.381
 1069SOL     OW 4647   0.866   0.967   8.298
 1069SOL    HW1 4648   0.920   0.896   8.335
 1069SOL    HW2 4649   0.837   1.016   8.375
 1070SOL     OW 4650   1.075   0.991   7.536
 1070SOL    HW1 4651   1.053   1.040   7.457
 1070SOL    HW2 4652   1.150   0.937   7.511
 1071SOL     OW 4653   1.848   1.549   8.286
 1071SOL    HW1 4654   1.770   1.542   8.231
 1071SOL    HW2 4655   1.826   1.499   8.364
 1072SOL     OW 4656   0.198   1.296   9.310
 1072SOL    HW1 4657   0.136   1.264   9.244
 1072SOL    HW2 4658   0.143   1.311   9.387
 1073SOL     OW 4659   0.141   1.239   8.107
 1073SOL    HW1 4660   0.063   1.204   8.151
 1073SOL    HW2 4661   0.150   1.186   8.029
 1074SOL     OW 4662   0.681   1.408   9.077
 1074SOL    HW1 4663   0.599   1.372   9.112
 1074SOL    HW2 4664   0.686   1.496   9.115
 1075SOL     OW 4665   1.832   0.228   8.680
 1075SOL    HW1 4666   1.768   0.157   8.682
 1075SOL    HW2 4667   1.853   0.238   8.587
 1076SOL     OW 4668   0.469   0.435   8.001
 1076SOL    HW1 4669   0.458   0.391   7.917
 1076SOL    HW2 4670   0.392   0.408   8.052
 1077SOL     OW 4671   1.699   1.479   8.524
 1077SOL    HW1 4672   1.616   1.464   8.479
 1077SOL    HW2 4673   1.701   1.412   8.594
 1078SOL     OW 4674   0.377   0.577   8.741
 1078SOL    HW1 4675   0.410   0.511   8.803
 1078SOL    HW2 4676   0.371   0.531   8.658
 1079SOL     OW 4677   0.801   1.581   8.129
 1079SOL    HW1 4678   0.824   1.661   8.082
 1079SOL    HW2 4679   0.725   1.547   8.083
 1080SOL     OW 4680   1.425   0.216   8.572
 1080SOL    HW1 4681   1.490   0.167   8.623
 1080SOL    HW2 4682   1.374   0.264   8.637
 1081SOL     OW 4683   1.012   0.078   8.591
 1081SOL    HW1 4684   0.926   0.066   8.552
 1081SOL    HW2 4685   1.041  -0.011   8.612
 1082SOL     OW 4686   0.761   1.324   7.815
 1082SOL    HW1 4687   0.763   1.237   7.776
 1082SOL    HW2 4688   0.853   1.347   7.827
 1083SOL     OW 4689   0.618   1.554   8.735
 1083SOL    HW1 4690   0.616   1.641   8.777
 1083SOL    HW2 4691   0.708   1.546   8.703
 1084SOL     OW 4692   1.354   7.997   7.588
 1084SOL    HW1 4693   1.413   7.922   7.594
 1084SOL    HW2 4694   1.269   7.962   7.615
 1085SOL     OW 4695   1.295   0.463   8.122
 1085SOL    HW1 4696   1.245   0.545   8.127
 1085SOL    HW2 4697   1.299   0.433   8.213
 1086SOL     OW 4698   1.602   0.223   8.317
 1086SOL    HW1 4699   1.521   0.231   8.368
 1086SOL    HW2 4700   1.602   0.301   8.261
 1087SOL     OW 4701   0.080   1.093   7.745
 1087SOL    HW1 4702   0.156   1.039   7.720
 1087SOL    HW2 4703   0.008   1.030   7.755
 1088SOL     OW 4704   0.883   1.659   7.792
 1088SOL    HW1 4705   0.813   1.650   7.728
 1088SOL    HW2 4706   0.859   1.735   7.844
 1089SOL     OW 4707   0.226   0.693   9.392
 1089SOL    HW1 4708   0.217   0.631   9.464
 1089SOL    HW2 4709   0.215   0.639   9.313
 1090SOL     OW 4710   0.233   0.301  10.294
 1090SOL    HW1 4711   0.253   0.252  10.373
 1090SOL    HW2 4712   0.141   0.283  10.276
 1091SOL     OW 4713   8.031   0.394   9.899
 1091SOL    HW1 4714   7.948   0.392   9.947
 1091SOL    HW2 4715   8.018   0.332   9.827
 1092SOL     OW 4716   0.569   1.300  10.497
 1092SOL    HW1 4717   0.482   1.310  10.459
 1092SOL    HW2 4718   0.590   1.387  10.531
 1093SOL     OW 4719   1.560   1.508  10.015
 1093SOL    HW1 4720   1.513   1.492  10.097
 1093SOL    HW2 4721   1.492   1.516   9.949
 1094SOL     OW 4722   1.149   0.694  10.003
 1094SOL    HW1 4723   1.176   0.785   9.994
 1094SOL    HW2 4724   1.092   0.693  10.080
 1095SOL     OW 4725   1.783   0.599   9.535
 1095SOL    HW1 4726   1.751   0.594   9.445
 1095SOL    HW2 4727   1.742   0.523   9.578
 1096SOL     OW 4728   0.735   1.136  10.357
 1096SOL    HW1 4729   0.673   1.176  10.418
 1096SOL    HW2 4730   0.782   1.209  10.318
 1097SOL     OW 4731   0.878   0.762  11.123
 1097SOL    HW1 4732   0.863   0.836  11.181
 1097SOL    HW2 4733   0.903   0.801  11.039
 1098SOL     OW 4734   0.689   1.016   9.962
 1098SOL    HW1 4735   0.755   0.999  10.029
 1098SOL    HW2 4736   0.621   1.065  10.007
 1099SOL     OW 4737   0.682   1.157  11.146
 1099SOL    HW1 4738   0.740   1.230  11.166
 1099SOL    HW2 4739   0.608   1.196  11.099
 1100SOL     OW 4740   0.337   1.406  10.378
 1100SOL    HW1 4741   0.258   1.375  10.333
 1100SOL    HW2 4742   0.376   1.469  10.317
 1101SOL     OW 4743   1.476   1.520  10.657
 1101SOL    HW1 4744   1.527   1.598  10.679
 1101SOL    HW2 4745   1.400   1.522  10.714
 1102SOL     OW 4746   0.446   0.384  10.791
 1102SOL    HW1 4747   0.534   0.347  10.786
 1102SOL    HW2 4748   0.394   0.316  10.834
 1103SOL     OW 4749   1.562   0.505  10.086
 1103SOL    HW1 4750   1.481   0.503  10.036
 1103SOL    HW2 4751   1.625   0.548  10.028
 1104SOL     OW 4752   0.237   1.707   9.781
 1104SOL    HW1 4753   0.245   1.785   9.837
 1104SOL    HW2 4754   0.310   1.714   9.720
 1105SOL     OW 4755   0.252   1.440   9.821
 1105SOL    HW1 4756   0.248   1.534   9.807
 1105SOL    HW2 4757   0.267   1.430   9.915
 1106SOL     OW 4758   0.258   1.084  10.179
 1106SOL    HW1 4759   0.269   0.999  10.222
 1106SOL    HW2 4760   0.205   1.136  10.241
 1107SOL     OW 4761   0.616   1.786  10.726
 1107SOL    HW1 4762   0.536   1.767  10.774
 1107SOL    HW2 4763   0.637   1.877  10.749
 1108SOL     OW 4764   0.569   0.994   9.455
 1108SOL    HW1 4765   0.623   1.034   9.387
 1108SOL    HW2 4766   0.613   1.018   9.537
 1109SOL     OW 4767   1.653   0.142  10.789
 1109SOL    HW1 4768   1.584   0.121  10.727
 1109SOL    HW2 4769   1.607   0.162  10.871
 1110SOL     OW 4770   0.118   0.648   9.850
 1110SOL    HW1 4771   0.091   0.560   9.877
 1110SOL    HW2 4772   0.103   0.703   9.926
 1111SOL     OW 4773   1.845   1.754   9.641
 1111SOL    HW1 4774   1.918   1.731   9.699
 1111SOL    HW2 4775   1.861   1.846   9.618
 1112SOL     OW 4776   0.023   1.595   9.459
 1112SOL    HW1 4777   0.013   1.501   9.443
 1112SOL    HW2 4778   0.005   1.606   9.552
 1113SOL     OW 4779   1.706   0.932   9.958
 1113SOL    HW1 4780   1.778   0.880   9.923
 1113SOL    HW2 4781   1.676   0.986   9.885
 1114SOL     OW 4782   1.650   1.105   9.742
 1114SOL    HW1 4783   1.736   1.105   9.699
 1114SOL    HW2 4784   1.658   1.171   9.811
 1115SOL     OW 4785   0.148   0.766  10.882
 1115SOL    HW1 4786   0.243   0.765  10.879
 1115SOL    HW2 4787   0.127   0.845  10.933
 1116SOL     OW 4788   0.622   1.397  10.044
 1116SOL    HW1 4789   0.577   1.313  10.055
 1116SOL    HW2 4790   0.605   1.422   9.953
 1117SOL     OW 4791   1.321   1.266  10.687
 1117SOL    HW1 4792   1.345   1.173  10.682
 1117SOL    HW2 4793   1.291   1.279  10.777
 1118SOL     OW 4794   0.820   0.040   9.843
 1118SOL    HW1 4795   0.871   0.115   9.814
 1118SOL    HW2 4796   0.744   0.078   9.887
 1119SOL     OW 4797   0.177   0.920  10.556
 1119SOL    HW1 4798   0.272   0.916  10.566
 1119SOL    HW2 4799   0.155   0.842  10.504
 1120SOL     OW 4800   1.530   1.000   9.513
 1120SOL    HW1 4801   1.461   0.942   9.546
 1120SOL    HW2 4802   1.572   1.034   9.591
 1121SOL     OW 4803   1.200   1.832  10.939
 1121SOL    HW1 4804   1.193   1.894  10.866
 1121SOL    HW2 4805   1.216   1.747  10.897
 1122SOL     OW 4806   0.329   0.267  11.078
 1122SOL    HW1 4807   0.391   0.312  11.137
 1122SOL    HW2 4808   0.246   0.267  11.126
 1123SOL     OW 4809   1.470   1.409  10.265
 1123SOL    HW1 4810   1.399   1.431  10.325
 1123SOL    HW2 4811   1.447   1.322  10.232
 1124SOL     OW 4812   1.672   1.739   9.896
 1124SOL    HW1 4813   1.650   1.724   9.804
 1124SOL    HW2 4814   1.629   1.669   9.943
 1125SOL     OW 4815   0.587   0.712   9.575
 1125SOL    HW1 4816   0.598   0.800   9.540
 1125SOL    HW2 4817   0.556   0.725   9.665
 1126SOL     OW 4818   1.298   0.348  10.249
 1126SOL    HW1 4819   1.204   0.334  10.239
 1126SOL    HW2 4820   1.324   0.288  10.318
 1127SOL     OW 4821   1.581   1.669   9.622
 1127SOL    HW1 4822   1.672   1.700   9.613
 1127SOL    HW2 4823   1.552   1.656   9.531
 1128SOL     OW 4824   0.774   0.633  10.758
 1128SOL    HW1 4825   0.757   0.597  10.845
 1128SOL    HW2 4826   0.754   0.561  10.698
 1129SOL     OW 4827   1.409   0.488  10.985
 1129SOL    HW1 4828   1.410   0.531  11.071
 1129SOL    HW2 4829   1.477   0.421  10.991
 1130SOL     OW 4830   0.954   0.879  10.882
 1130SOL    HW1 4831   0.999   0.807  10.838
 1130SOL    HW2 4832   0.904   0.922  10.813
 1131SOL     OW 4833   0.998   0.414  10.520
 1131SOL    HW1 4834   0.919   0.434  10.569
 1131SOL    HW2 4835   0.969   0.404  10.429
 1132SOL     OW 4836   1.059   0.703   9.732
 1132SOL    HW1 4837   1.071   0.689   9.826
 1132SOL    HW2 4838   0.976   0.660   9.712
 1133SOL     OW 4839   0.104   0.807  10.082
 1133SOL    HW1 4840   0.188   0.810  10.127
 1133SOL    HW2 4841   0.049   0.869  10.131
 1134SOL     OW 4842   0.138   1.824  10.877
 1134SOL    HW1 4843   0.131   1.815  10.972
 1134SOL    HW2 4844   0.048   1.816  10.846
 1135SOL     OW 4845   0.890   0.349   9.495
 1135SOL    HW1 4846   0.932   0.417   9.442
 1135SOL    HW2 4847   0.903   0.268   9.445
 1136SOL     OW 4848   1.711   0.573  11.145
 1136SOL    HW1 4849   1.675   0.648  11.098
 1136SOL    HW2 4850   1.734   0.510  11.075
 1137SOL     OW 4851   1.384   1.150   9.848
 1137SOL    HW1 4852   1.461   1.137   9.794
 1137SOL    HW2 4853   1.331   1.213   9.799
 1138SOL     OW 4854   0.553   0.218  10.239
 1138SOL    HW1 4855   0.522   0.230  10.329
 1138SOL    HW2 4856   0.569   0.306  10.207
 1139SOL     OW 4857   0.996   1.442   9.775
 1139SOL    HW1 4858   0.968   1.520   9.727
 1139SOL    HW2 4859   0.974   1.461   9.866
 1140SOL     OW 4860   0.350   1.821  10.164
 1140SOL    HW1 4861   0.389   1.737  10.187
 1140SOL    HW2 4862   0.412   1.886  10.198
 1141SOL     OW 4863   1.791   1.079  10.197
 1141SOL    HW1 4864   1.774   1.068  10.103
 1141SOL    HW2 4865   1.710   1.051  10.239
 1142SOL     OW 4866   1.232   1.585  10.791
 1142SOL    HW1 4867   1.226   1.508  10.847
 1142SOL    HW2 4868   1.142   1.601  10.763
 1143SOL     OW 4869   0.301   0.934   9.531
 1143SOL    HW1 4870   0.392   0.950   9.508
 1143SOL    HW2 4871   0.279   0.851   9.487
 1144SOL     OW 4872   1.483   0.783  10.015
 1144SOL    HW1 4873   1.471   0.764  10.108
 1144SOL    HW2 4874   1.563   0.836  10.012
 1145SOL     OW 4875   0.456   1.276  11.051
 1145SOL    HW1 4876   0.435   1.274  10.958
 1145SOL    HW2 4877   0.371   1.266  11.095
 1146SOL     OW 4878   1.117   1.778   9.533
 1146SOL    HW1 4879   1.044   1.736   9.578
 1146SOL    HW2 4880   1.146   1.714   9.468
 1147SOL     OW 4881   0.166   0.265  10.812
 1147SOL    HW1 4882   0.152   0.359  10.805
 1147SOL    HW2 4883   0.187   0.251  10.904
 1148SOL     OW 4884   1.630   1.378   9.408
 1148SOL    HW1 4885   1.592   1.465   9.390
 1148SOL    HW2 4886   1.562   1.317   9.381
 1149SOL     OW 4887   0.465   1.739   9.625
 1149SOL    HW1 4888   0.510   1.793   9.689
 1149SOL    HW2 4889   0.534   1.707   9.567
 1150SOL     OW 4890   1.412   0.134   9.712
 1150SOL    HW1 4891   1.415   0.095   9.625
 1150SOL    HW2 4892   1.503   0.135   9.742
 1151SOL     OW 4893   0.224   1.757  10.515
 1151SOL    HW1 4894   0.292   1.723  10.574
 1151SOL    HW2 4895   0.232   1.852  10.522
 1152SOL     OW 4896   0.936   1.702  10.207
 1152SOL    HW1 4897   1.000   1.646  10.251
 1152SOL    HW2 4898   0.904   1.649  10.135
 1153SOL     OW 4899   0.370   0.717   9.775
 1153SOL    HW1 4900   0.408   0.631   9.793
 1153SOL    HW2 4901   0.281   0.711   9.808
 1154SOL     OW 4902   1.538   0.220  11.031
 1154SOL    HW1 4903   1.550   0.244  11.123
 1154SOL    HW2 4904   1.448   0.186  11.027
 1155SOL     OW 4905   0.656   0.074   9.442
 1155SOL    HW1 4906   0.705   0.040   9.367
 1155SOL    HW2 4907   0.564   0.062   9.419
 1156SOL     OW 4908   0.756   0.286  11.091
 1156SOL    HW1 4909   0.790   0.198  11.077
 1156SOL    HW2 4910   0.689   0.275  11.159
 1157SOL     OW 4911   0.881   1.525  10.495
 1157SOL    HW1 4912   0.857   1.479  10.415
 1157SOL    HW2 4913   0.943   1.466  10.538
 1158SOL     OW 4914   1.337   0.592  10.742
 1158SOL    HW1 4915   1.373   0.563  10.826
 1158SOL    HW2 4916   1.369   0.681  10.731
 1159SOL     OW 4917   0.823   1.384  10.258
 1159SOL    HW1 4918   0.908   1.375  10.216
 1159SOL    HW2 4919   0.761   1.394  10.186
 1160SOL     OW 4920   0.974   0.510  10.202
 1160SOL    HW1 4921   0.920   0.513  10.122
 1160SOL    HW2 4922   0.989   0.416  10.217
 1161SOL     OW 4923   0.543   0.037   9.742
 1161SOL    HW1 4924   0.481   0.000   9.805
 1161SOL    HW2 4925   0.523   0.131   9.742
 1162SOL     OW 4926   1.428   1.200   9.346
 1162SOL    HW1 4927   1.456   1.126   9.400
 1162SOL    HW2 4928   1.345   1.226   9.385
 1163SOL     OW 4929   0.312   0.051   9.493
 1163SOL    HW1 4930   0.327   0.132   9.543
 1163SOL    HW2 4931   0.336  -0.019   9.553
 1164SOL     OW 4932   0.953   0.251   9.749
 1164SOL    HW1 4933   0.924   0.297   9.670
 1164SOL    HW2 4934   1.043   0.279   9.762
 1165SOL     OW 4935   1.069   0.666  10.754
 1165SOL    HW1 4936   1.010   0.593  10.775
 1165SOL    HW2 4937   1.157   0.627  10.758
 1166SOL     OW 4938   1.236   1.567  10.097
 1166SOL    HW1 4939   1.243   1.634  10.030
 1166SOL    HW2 4940   1.272   1.608  10.176
 1167SOL     OW 4941   0.467   1.169  10.031
 1167SOL    HW1 4942   0.406   1.140  10.100
 1167SOL    HW2 4943   0.424   1.145   9.949
 1168SOL     OW 4944   1.267   1.793   9.923
 1168SOL    HW1 4945   1.317   1.855   9.871
 1168SOL    HW2 4946   1.198   1.845   9.964
 1169SOL     OW 4947   1.027   0.531   9.337
 1169SOL    HW1 4948   0.980   0.613   9.317
 1169SOL    HW2 4949   1.085   0.554   9.409
 1170SOL     OW 4950   0.108   0.557  10.706
 1170SOL    HW1 4951   0.196   0.557  10.669
 1170SOL    HW2 4952   0.107   0.632  10.766
 1171SOL     OW 4953   0.551   0.233  10.519
 1171SOL    HW1 4954   0.590   0.189  10.594
 1171SOL    HW2 4955   0.457   0.219  10.529
 1172SOL     OW 4956   0.883   0.477   9.940
 1172SOL    HW1 4957   0.797   0.519   9.947
 1172SOL    HW2 4958   0.865   0.393   9.897
 1173SOL     OW 4959   1.004   8.023  10.068
 1173SOL    HW1 4960   0.946   8.028   9.993
 1173SOL    HW2 4961   0.982   7.939  10.109
 1174SOL     OW 4962   1.441   1.152  10.165
 1174SOL    HW1 4963   1.358   1.104  10.159
 1174SOL    HW2 4964   1.467   1.165  10.074
 1175SOL     OW 4965   1.836   0.808   9.701
 1175SOL    HW1 4966   1.895   0.758   9.756
 1175SOL    HW2 4967   1.814   0.749   9.629
 1176SOL     OW 4968   0.498   1.419   9.436
 1176SOL    HW1 4969   0.464   1.347   9.491
 1176SOL    HW2 4970   0.497   1.383   9.347
 1177SOL     OW 4971   1.683   1.263   9.958
 1177SOL    HW1 4972   1.777   1.270   9.971
 1177SOL    HW2 4973   1.650   1.351   9.974
 1178SOL     OW 4974   1.394   0.581   9.384
 1178SOL    HW1 4975   1.329   0.558   9.451
 1178SOL    HW2 4976   1.478   0.564   9.426
 1179SOL     OW 4977   0.517   0.275   9.610
 1179SOL    HW1 4978   0.583   0.226   9.561
 1179SOL    HW2 4979   0.501   0.354   9.559
 1180SOL     OW 4980   1.755   1.245  10.860
 1180SOL    HW1 4981   1.838   1.200  10.873
 1180SOL    HW2 4982   1.772   1.334  10.891
 1181SOL     OW 4983   1.043   1.339  10.624
 1181SOL    HW1 4984   0.965   1.317  10.675
 1181SOL    HW2 4985   1.115   1.330  10.687
 1182SOL     OW 4986   1.619   1.637  10.973
 1182SOL    HW1 4987   1.608   1.669  10.884
 1182SOL    HW2 4988   1.695   1.579  10.968
 1183SOL     OW 4989   1.138   1.198  10.408
 1183SOL    HW1 4990   1.090   1.237  10.481
 1183SOL    HW2 4991   1.105   1.243  10.330
 1184SOL     OW 4992   1.604   1.113  10.398
 1184SOL    HW1 4993   1.575   1.156  10.478
 1184SOL    HW2 4994   1.529   1.119  10.339
 1185SOL     OW 4995   0.933   0.121  10.717
 1185SOL    HW1 4996   0.944   0.113  10.622
 1185SOL    HW2 4997   1.022   0.118  10.752
 1186SOL     OW 4998   0.957   1.055  11.094
 1186SOL    HW1 4999   0.902   1.131  11.076
 1186SOL    HW2 5000   0.970   1.014  11.009
 1187SOL     OW 5001   0.699   1.063   9.692
 1187SOL    HW1 5002   0.697   1.046   9.786
 1187SOL    HW2 5003   0.773   1.012   9.659
 1188SOL     OW 5004   0.431   0.824  10.568
 1188SOL    HW1 5005   0.496   0.837  10.637
 1188SOL    HW2 5006   0.405   0.732  10.577
 1189SOL     OW 5007   1.257   0.383  10.590
 1189SOL    HW1 5008   1.284   0.462  10.636
 1189SOL    HW2 5009   1.167   0.400  10.561
 1190SOL     OW 5010   0.045   1.578  10.628
 1190SOL    HW1 5011   0.107   1.640  10.591
 1190SOL    HW2 5012   0.083   1.553  10.712
 1191SOL     OW 5013   0.379   1.112   9.758
 1191SOL    HW1 5014   0.473   1.118   9.744
 1191SOL    HW2 5015   0.357   1.021   9.734
 1192SOL     OW 5016   1.247   1.353   9.702
 1192SOL    HW1 5017   1.302   1.426   9.732
 1192SOL    HW2 5018   1.160   1.373   9.735
 1193SOL     OW 5019   1.288   1.462  10.460
 1193SOL    HW1 5020   1.347   1.469  10.535
 1193SOL    HW2 5021   1.225   1.395  10.486
 1194SOL     OW 5022   1.589   0.623   9.810
 1194SOL    HW1 5023   1.528   0.675   9.861
 1194SOL    HW2 5024   1.632   0.685   9.752
 1195SOL     OW 5025   0.354   1.506  10.634
 1195SOL    HW1 5026   0.335   1.474  10.545
 1195SOL    HW2 5027   0.446   1.529  10.632
 1196SOL     OW 5028   0.425   0.730  10.917
 1196SOL    HW1 5029   0.483   0.783  10.862
 1196SOL    HW2 5030   0.481   0.659  10.949
 1197SOL     OW 5031   1.617   0.782  11.000
 1197SOL    HW1 5032   1.529   0.819  10.993
 1197SOL    HW2 5033   1.666   0.824  10.929
 1198SOL     OW 5034   1.048   0.077  11.054
 1198SOL    HW1 5035   1.060   0.170  11.038
 1198SOL    HW2 5036   0.954   0.063  11.044
 1199SOL     OW 5037   0.507   0.037  11.035
 1199SOL    HW1 5038   0.486  -0.031  10.972
 1199SOL    HW2 5039   0.425   0.086  11.046
 1200SOL     OW 5040   0.575   0.894  10.345
 1200SOL    HW1 5041   0.623   0.977  10.356
 1200SOL    HW2 5042   0.528   0.883  10.427
 1201SOL     OW 5043   1.328   0.828  10.321
 1201SOL    HW1 5044   1.243   0.826  10.277
 1201SOL    HW2 5045   1.318   0.771  10.397
 1202SOL     OW 5046   1.196   0.531   9.568
 1202SOL    HW1 5047   1.205   0.453   9.624
 1202SOL    HW2 5048   1.153   0.596   9.624
 1203SOL     OW 5049   0.281   0.201  10.555
 1203SOL    HW1 5050   0.242   0.222  10.640
 1203SOL    HW2 5051   0.235   0.122  10.527
 1204SOL     OW 5052   0.035   1.301  10.575
 1204SOL    HW1 5053   0.063   1.248  10.649
 1204SOL    HW2 5054   0.045   1.392  10.604
 1205SOL     OW 5055   0.739   0.668  10.382
 1205SOL    HW1 5056   0.726   0.613  10.304
 1205SOL    HW2 5057   0.685   0.745  10.366
 1206SOL     OW 5058   1.746   0.962  11.169
 1206SOL    HW1 5059   1.698   0.897  11.118
 1206SOL    HW2 5060   1.686   0.986  11.240
 1207SOL     OW 5061   0.395   0.068   9.990
 1207SOL    HW1 5062   0.349   0.152   9.994
 1207SOL    HW2 5063   0.325   0.003   9.983
 1208SOL     OW 5064   1.639   0.392   9.672
 1208SOL    HW1 5065   1.650   0.316   9.730
 1208SOL    HW2 5066   1.613   0.463   9.731
 1209SOL     OW 5067   1.048   0.762  10.269
 1209SOL    HW1 5068   1.026   0.782  10.360
 1209SOL    HW2 5069   1.014   0.674  10.256
 1210SOL     OW 5070   0.984   1.551  11.028
 1210SOL    HW1 5071   0.968   1.594  10.945
 1210SOL    HW2 5072   1.036   1.473  11.006
 1211SOL     OW 5073   1.854   1.499  10.908
 1211SOL    HW1 5074   1.874   1.524  10.818
 1211SOL    HW2 5075   1.936   1.515  10.956
 1212SOL     OW 5076   0.362   0.943  11.101
 1212SOL    HW1 5077   0.437   0.960  11.158
 1212SOL    HW2 5078   0.386   0.863  11.055
 1213SOL     OW 5079   1.586   0.287   9.430
 1213SOL    HW1 5080   1.490   0.284   9.427
 1213SOL    HW2 5081   1.606   0.319   9.518
 1214SOL     OW 5082   1.285   0.831   9.337
 1214SOL    HW1 5083   1.327   0.745   9.343
 1214SOL    HW2 5084   1.318   0.868   9.255
 1215SOL     OW 5085   1.074   1.346  10.166
 1215SOL    HW1 5086   1.076   1.273  10.104
 1215SOL    HW2 5087   1.134   1.410  10.130
 1216SOL     OW 5088   0.321   0.812  10.253
 1216SOL    HW1 5089   0.413   0.837  10.264
 1216SOL    HW2 5090   0.319   0.719  10.277
 1217SOL     OW 5091   0.360   0.537  10.321
 1217SOL    HW1 5092   0.318   0.454  10.300
 1217SOL    HW2 5093   0.439   0.538  10.267
 1218SOL     OW 5094   1.163   0.362  11.022
 1218SOL    HW1 5095   1.096   0.420  11.059
 1218SOL    HW2 5096   1.237   0.420  11.003
 1219SOL     OW 5097   1.186   0.212  10.790
 1219SOL    HW1 5098   1.170   0.267  10.867
 1219SOL    HW2 5099   1.203   0.273  10.719
 1220SOL     OW 5100   8.001   1.308   9.516
 1220SOL    HW1 5101   7.910   1.331   9.537
 1220SOL    HW2 5102   8.005   1.213   9.527
 1221SOL     OW 5103   0.081   1.725  10.213
 1221SOL    HW1 5104   0.107   1.697  10.301
 1221SOL    HW2 5105   0.156   1.777  10.182
 1222SOL     OW 5106   0.483   1.574  10.210
 1222SOL    HW1 5107   0.548   1.639  10.236
 1222SOL    HW2 5108   0.532   1.511  10.157
 1223SOL     OW 5109   0.973   0.791  10.526
 1223SOL    HW1 5110   1.007   0.755  10.608
 1223SOL    HW2 5111   0.889   0.746  10.514
 1224SOL     OW 5112   0.090   0.591  10.429
 1224SOL    HW1 5113   0.176   0.555  10.410
 1224SOL    HW2 5114   0.071   0.563  10.519
 1225SOL     OW 5115   0.192   0.526  11.007
 1225SOL    HW1 5116   0.279   0.506  10.971
 1225SOL    HW2 5117   0.168   0.609  10.968
 1226SOL     OW 5118   1.382   0.916  10.967
 1226SOL    HW1 5119   1.409   1.008  10.965
 1226SOL    HW2 5120   1.359   0.896  10.876
 1227SOL     OW 5121   0.835   0.591   9.634
 1227SOL    HW1 5122   0.820   0.503   9.600
 1227SOL    HW2 5123   0.749   0.632   9.633
 1228SOL     OW 5124   1.625   0.570  10.461
 1228SOL    HW1 5125   1.622   0.538  10.551
 1228SOL    HW2 5126   1.718   0.575  10.441
 1229SOL     OW 5127   0.287   1.535  11.026
 1229SOL    HW1 5128   0.253   1.610  11.075
 1229SOL    HW2 5129   0.283   1.463  11.088
 1230SOL     OW 5130   0.719   0.455  10.562
 1230SOL    HW1 5131   0.658   0.386  10.536
 1230SOL    HW2 5132   0.712   0.521  10.493
 1231SOL     OW 5133   0.953   1.672  10.768
 1231SOL    HW1 5134   0.900   1.633  10.699
 1231SOL    HW2 5135   0.934   1.766  10.763
 1232SOL     OW 5136   0.454   0.493   9.466
 1232SOL    HW1 5137   0.508   0.569   9.490
 1232SOL    HW2 5138   0.372   0.505   9.514
 1233SOL     OW 5139   0.144   1.119  10.756
 1233SOL    HW1 5140   0.131   1.073  10.839
 1233SOL    HW2 5141   0.153   1.049  10.691
 1234SOL     OW 5142   1.337   1.034  10.508
 1234SOL    HW1 5143   1.336   0.974  10.434
 1234SOL    HW2 5144   1.268   1.097  10.489
 1235SOL     OW 5145   1.317   0.852   9.615
 1235SOL    HW1 5146   1.242   0.823   9.668
 1235SOL    HW2 5147   1.287   0.844   9.524
 1236SOL     OW 5148   1.769   1.736  10.458
 1236SOL    HW1 5149   1.835   1.764  10.394
 1236SOL    HW2 5150   1.748   1.646  10.434
 1237SOL     OW 5151   1.240   1.727  10.395
 1237SOL    HW1 5152   1.327   1.752  10.365
 1237SOL    HW2 5153   1.250   1.639  10.430
 1238SOL     OW 5154   0.088   1.244  10.319
 1238SOL    HW1 5155   0.073   1.264  10.411
 1238SOL    HW2 5156   0.003   1.213  10.287
 1239SOL     OW 5157   0.678   1.670  11.062
 1239SOL    HW1 5158   0.614   1.742  11.061
 1239SOL    HW2 5159   0.751   1.702  11.010
 1240SOL     OW 5160   1.674   0.135   9.800
 1240SOL    HW1 5161   1.766   0.135   9.774
 1240SOL    HW2 5162   1.671   0.078   9.878
 1241SOL     OW 5163   1.393   1.570   9.798
 1241SOL    HW1 5164   1.453   1.604   9.731
 1241SOL    HW2 5165   1.344   1.648   9.827
 1242SOL     OW 5166   0.175   1.742  11.156
 1242SOL    HW1 5167   0.106   1.701  11.207
 1242SOL    HW2 5168   0.217   1.804  11.216
 1243SOL     OW 5169   1.268   0.942   9.974
 1243SOL    HW1 5170   1.341   0.880   9.979
 1243SOL    HW2 5171   1.301   1.014   9.921
 1244SOL     OW 5172   0.795   1.281  10.730
 1244SOL    HW1 5173   0.776   1.323  10.814
 1244SOL    HW2 5174   0.715   1.294  10.678
 1245SOL     OW 5175   0.666   1.631   9.464
 1245SOL    HW1 5176   0.685   1.648   9.372
 1245SOL    HW2 5177   0.612   1.551   9.462
 1246SOL     OW 5178   1.635   1.738  10.706
 1246SOL    HW1 5179   1.676   1.746  10.619
 1246SOL    HW2 5180   1.615   1.828  10.731
 1247SOL     OW 5181   1.838   0.182  10.267
 1247SOL    HW1 5182   1.845   0.089  10.289
 1247SOL    HW2 5183   1.750   0.192  10.231
 1248SOL     OW 5184   0.273   0.315  10.018
 1248SOL    HW1 5185   0.189   0.349   9.988
 1248SOL    HW2 5186   0.268   0.320  10.113
 1249SOL     OW 5187   1.208   1.600   9.345
 1249SOL    HW1 5188   1.197   1.507   9.368
 1249SOL    HW2 5189   1.144   1.614   9.275
 1250SOL     OW 5190   0.821   1.012  10.683
 1250SOL    HW1 5191   0.870   1.003  10.601
 1250SOL    HW2 5192   0.819   1.107  10.699
 1251SOL     OW 5193   0.905   0.919   9.597
 1251SOL    HW1 5194   0.970   0.948   9.533
 1251SOL    HW2 5195   0.948   0.847   9.643
 1252SOL     OW 5196   1.492   1.622   9.355
 1252SOL    HW1 5197   1.397   1.617   9.340
 1252SOL    HW2 5198   1.530   1.630   9.268
 1253SOL     OW 5199   0.364   1.285  10.801
 1253SOL    HW1 5200   0.357   1.365  10.749
 1253SOL    HW2 5201   0.286   1.235  10.779
 1254SOL     OW 5202   1.626   1.287  10.612
 1254SOL    HW1 5203   1.665   1.265  10.696
 1254SOL    HW2 5204   1.551   1.342  10.634
 1255SOL     OW 5205   1.058   1.116  10.024
 1255SOL    HW1 5206   0.987   1.066  10.065
 1255SOL    HW2 5207   1.122   1.049   9.998
 1256SOL     OW 5208   1.045   0.247  10.242
 1256SOL    HW1 5209   1.022   0.186  10.172
 1256SOL    HW2 5210   1.039   0.195  10.322
 1257SOL     OW 5211   0.598   1.481   9.787
 1257SOL    HW1 5212   0.656   1.434   9.728
 1257SOL    HW2 5213   0.536   1.526   9.730
 1258SOL     OW 5214   1.717   0.437  10.689
 1258SOL    HW1 5215   1.798   0.488  10.695
 1258SOL    HW2 5216   1.743   0.358  10.642
 1259SOL     OW 5217   0.106   0.999  11.016
 1259SOL    HW1 5218   0.069   1.081  11.046
 1259SOL    HW2 5219   0.191   0.993  11.060
 1260SOL     OW 5220   0.679   0.226  10.803
 1260SOL    HW1 5221   0.752   0.170  10.775
 1260SOL    HW2 5222   0.682   0.223  10.898
 1261SOL     OW 5223   0.070   0.333   9.313
 1261SOL    HW1 5224   0.017   0.381   9.376
 1261SOL    HW2 5225   0.102   0.399   9.252
 1262SOL     OW 5226   1.421   0.851  10.695
 1262SOL    HW1 5227   1.377   0.917  10.642
 1262SOL    HW2 5228   1.514   0.861  10.673
 1263SOL     OW 5229   0.140   0.248   9.642
 1263SOL    HW1 5230   0.078   0.205   9.584
 1263SOL    HW2 5231   0.147   0.190   9.717
 1264SOL     OW 5232   1.183   1.329   9.430
 1264SOL    HW1 5233   1.096   1.290   9.435
 1264SOL    HW2 5234   1.210   1.336   9.522
 1265SOL     OW 5235   0.618   0.846  10.757
 1265SOL    HW1 5236   0.675   0.920  10.740
 1265SOL    HW2 5237   0.676   0.770  10.759
 1266SOL     OW 5238   1.493   1.785  10.292
 1266SOL    HW1 5239   1.500   1.851  10.223
 1266SOL    HW2 5240   1.575   1.791  10.340
 1267SOL     OW 5241   0.713   0.557  11.011
 1267SOL    HW1 5242   0.760   0.622  11.063
 1267SOL    HW2 5243   0.736   0.473  11.049
 1268SOL     OW 5244   1.493   1.161  10.931
 1268SOL    HW1 5245   1.442   1.206  10.999
 1268SOL    HW2 5246   1.577   1.206  10.930
 1269SOL     OW 5247   0.389   1.732  10.860
 1269SOL    HW1 5248   0.302   1.771  10.849
 1269SOL    HW2 5249   0.373   1.647  10.900
 1270SOL     OW 5250   1.668   0.884  10.557
 1270SOL    HW1 5251   1.660   0.801  10.510
 1270SOL    HW2 5252   1.644   0.951  10.493
 1271SOL     OW 5253   1.220   0.328   9.760
 1271SOL    HW1 5254   1.284   0.257   9.749
 1271SOL    HW2 5255   1.249   0.374   9.839
 1272SOL     OW 5256   0.654   0.750   9.868
 1272SOL    HW1 5257   0.665   0.836   9.909
 1272SOL    HW2 5258   0.612   0.696   9.935
 1273SOL     OW 5259   1.753   0.382  10.956
 1273SOL    HW1 5260   1.738   0.401  10.863
 1273SOL    HW2 5261   1.694   0.309  10.975
 1274SOL     OW 5262   1.749   0.937  10.816
 1274SOL    HW1 5263   1.719   1.025  10.835
 1274SOL    HW2 5264   1.729   0.924  10.723
 1275SOL     OW 5265   0.852   1.367   9.350
 1275SOL    HW1 5266   0.827   1.400   9.436
 1275SOL    HW2 5267   0.880   1.444   9.301
 1276SOL     OW 5268   0.661   1.776  10.235
 1276SOL    HW1 5269   0.642   1.869  10.225
 1276SOL    HW2 5270   0.757   1.772  10.240
 1277SOL     OW 5271   0.871   0.973  10.167
 1277SOL    HW1 5272   0.916   0.896  10.202
 1277SOL    HW2 5273   0.828   1.012  10.243
 1278SOL     OW 5274   1.074   0.990   9.399
 1278SOL    HW1 5275   1.053   1.040   9.320
 1278SOL    HW2 5276   1.149   0.936   9.374
 1279SOL     OW 5277   1.841   1.540  10.159
 1279SOL    HW1 5278   1.781   1.554  10.085
 1279SOL    HW2 5279   1.783   1.516  10.232
 1280SOL     OW 5280   0.210   1.299  11.168
 1280SOL    HW1 5281   0.118   1.285  11.149
 1280SOL    HW2 5282   0.216   1.299  11.263
 1281SOL     OW 5283   0.131   1.203   9.959
 1281SOL    HW1 5284   0.042   1.197   9.993
 1281SOL    HW2 5285   0.185   1.160  10.025
 1282SOL     OW 5286   0.674   1.417  10.936
 1282SOL    HW1 5287   0.595   1.376  10.971
 1282SOL    HW2 5288   0.679   1.502  10.980
 1283SOL     OW 5289   1.829   0.240  10.544
 1283SOL    HW1 5290   1.807   0.153  10.578
 1283SOL    HW2 5291   1.843   0.226  10.450
 1284SOL     OW 5292   0.417   0.451   9.816
 1284SOL    HW1 5293   0.466   0.381   9.772
 1284SOL    HW2 5294   0.384   0.411   9.896
 1285SOL     OW 5295   1.699   1.460  10.394
 1285SOL    HW1 5296   1.616   1.455  10.348
 1285SOL    HW2 5297   1.678   1.443  10.486
 1286SOL     OW 5298   0.355   0.560  10.600
 1286SOL    HW1 5299   0.399   0.497  10.656
 1286SOL    HW2 5300   0.377   0.533  10.511
 1287SOL     OW 5301   0.838   1.574   9.984
 1287SOL    HW1 5302   0.808   1.640   9.923
 1287SOL    HW2 5303   0.762   1.517   9.999
 1288SOL     OW 5304   1.460   0.256  10.458
 1288SOL    HW1 5305   1.497   0.175  10.493
 1288SOL    HW2 5306   1.394   0.282  10.522
 1289SOL     OW 5307   1.013   0.070  10.450
 1289SOL    HW1 5308   0.925   0.067  10.413
 1289SOL    HW2 5309   1.032  -0.021  10.474
 1290SOL     OW 5310   0.773   1.333   9.638
 1290SOL    HW1 5311   0.755   1.239   9.648
 1290SOL    HW2 5312   0.856   1.346   9.683
 1291SOL     OW 5313   0.625   1.554  10.589
 1291SOL    HW1 5314   0.622   1.636  10.638
 1291SOL    HW2 5315   0.714   1.550  10.554
 1292SOL     OW 5316   1.339   7.975   9.449
 1292SOL    HW1 5317   1.394   7.897   9.453
 1292SOL    HW2 5318   1.266   7.955   9.508
 1293SOL     OW 5319   1.304   0.467   9.991
 1293SOL    HW1 5320   1.247   0.543   9.985
 1293SOL    HW2 5321   1.281   0.426  10.075
 1294SOL     OW 5322   1.586   0.232  10.178
 1294SOL    HW1 5323   1.537   0.154  10.206
 1294SOL    HW2 5324   1.543   0.259  10.097
 1295SOL     OW 5325   0.078   1.061   9.615
 1295SOL    HW1 5326   0.153   1.015   9.578
 1295SOL    HW2 5327   0.016   0.991   9.638
 1296SOL     OW 5328   0.887   1.660   9.647
 1296SOL    HW1 5329   0.811   1.650   9.589
 1296SOL    HW2 5330   0.864   1.734   9.704
 1297SOL     OW 5331   0.233   0.693  11.250
 1297SOL    HW1 5332   0.203   0.643  11.326
 1297SOL    HW2 5333   0.228   0.631  11.177
 1298SOL     OW 5334   0.234   0.288  12.155
 1298SOL    HW1 5335   0.271   0.240  12.229
 1298SOL    HW2 5336   0.149   0.245  12.138
 1299SOL     OW 5337   7.997   0.385  11.773
 1299SOL    HW1 5338   7.911   0.366  11.810
 1299SOL    HW2 5339   8.007   0.323  11.701
 1300SOL     OW 5340   0.548   1.249  12.326
 1300SOL    HW1 5341   0.464   1.280  12.292
 1300SOL    HW2 5342   0.574   1.316  12.390
 1301SOL     OW 5343   1.565   1.518  11.871
 1301SOL    HW1 5344   1.518   1.501  11.953
 1301SOL    HW2 5345   1.496   1.529  11.806
 1302SOL     OW 5346   1.161   0.685  11.893
 1302SOL    HW1 5347   1.183   0.774  11.866
 1302SOL    HW2 5348   1.087   0.696  11.952
 1303SOL     OW 5349   1.759   0.598  11.408
 1303SOL    HW1 5350   1.743   0.596  11.314
 1303SOL    HW2 5351   1.734   0.510  11.438
 1304SOL     OW 5352   0.776   1.141  12.236
 1304SOL    HW1 5353   0.691   1.163  12.274
 1304SOL    HW2 5354   0.799   1.217  12.182
 1305SOL     OW 5355   0.690   0.995  11.820
 1305SOL    HW1 5356   0.753   0.989  11.891
 1305SOL    HW2 5357   0.621   1.052  11.854
 1306SOL     OW 5358   0.334   1.413  12.228
 1306SOL    HW1 5359   0.269   1.359  12.182
 1306SOL    HW2 5360   0.377   1.463  12.159
 1307SOL     OW 5361   1.559   0.477  11.890
 1307SOL    HW1 5362   1.577   0.521  11.807
 1307SOL    HW2 5363   1.630   0.506  11.948
 1308SOL     OW 5364   0.230   1.699  11.644
 1308SOL    HW1 5365   0.239   1.786  11.682
 1308SOL    HW2 5366   0.296   1.696  11.574
 1309SOL     OW 5367   0.286   1.433  11.687
 1309SOL    HW1 5368   0.265   1.525  11.701
 1309SOL    HW2 5369   0.234   1.386  11.752
 1310SOL     OW 5370   0.285   1.087  12.074
 1310SOL    HW1 5371   0.277   0.995  12.097
 1310SOL    HW2 5372   0.208   1.129  12.113
 1311SOL     OW 5373   0.568   0.985  11.321
 1311SOL    HW1 5374   0.612   1.035  11.252
 1311SOL    HW2 5375   0.611   1.014  11.402
 1312SOL     OW 5376   0.135   0.624  11.716
 1312SOL    HW1 5377   0.091   0.542  11.740
 1312SOL    HW2 5378   0.118   0.683  11.789
 1313SOL     OW 5379   1.841   1.799  11.521
 1313SOL    HW1 5380   1.798   1.761  11.598
 1313SOL    HW2 5381   1.933   1.773  11.530
 1314SOL     OW 5382   0.010   1.588  11.316
 1314SOL    HW1 5383   0.002   1.493  11.307
 1314SOL    HW2 5384  -0.005   1.605  11.409
 1315SOL     OW 5385   1.660   0.880  11.789
 1315SOL    HW1 5386   1.753   0.874  11.811
 1315SOL    HW2 5387   1.655   0.950  11.724
 1316SOL     OW 5388   1.654   1.100  11.612
 1316SOL    HW1 5389   1.742   1.107  11.574
 1316SOL    HW2 5390   1.655   1.162  11.685
 1317SOL     OW 5391   0.155   0.728   0.290
 1317SOL    HW1 5392   0.149   0.693   0.378
 1317SOL    HW2 5393   0.220   0.798   0.296
 1318SOL     OW 5394   0.602   1.394  11.907
 1318SOL    HW1 5395   0.561   1.307  11.909
 1318SOL    HW2 5396   0.594   1.423  11.817
 1319SOL     OW 5397   0.843   0.023  11.729
 1319SOL    HW1 5398   0.870   0.109  11.696
 1319SOL    HW2 5399   0.748   0.023  11.720
 1320SOL     OW 5400   0.198   0.940  12.448
 1320SOL    HW1 5401   0.287   0.912  12.426
 1320SOL    HW2 5402   0.146   0.921  12.370
 1321SOL     OW 5403   1.540   0.995  11.378
 1321SOL    HW1 5404   1.470   0.938  11.411
 1321SOL    HW2 5405   1.580   1.031  11.457
 1322SOL     OW 5406   1.427   1.419  12.098
 1322SOL    HW1 5407   1.385   1.400  12.182
 1322SOL    HW2 5408   1.446   1.333  12.060
 1323SOL     OW 5409   1.681   1.731  11.734
 1323SOL    HW1 5410   1.611   1.728  11.668
 1323SOL    HW2 5411   1.658   1.662  11.796
 1324SOL     OW 5412   0.591   0.720  11.440
 1324SOL    HW1 5413   0.591   0.804  11.395
 1324SOL    HW2 5414   0.530   0.731  11.513
 1325SOL     OW 5415   1.288   0.361  12.078
 1325SOL    HW1 5416   1.199   0.328  12.080
 1325SOL    HW2 5417   1.335   0.309  12.144
 1326SOL     OW 5418   1.573   1.669  11.473
 1326SOL    HW1 5419   1.640   1.735  11.456
 1326SOL    HW2 5420   1.538   1.647  11.387
 1327SOL     OW 5421   0.991   0.387  12.360
 1327SOL    HW1 5422   0.918   0.428  12.405
 1327SOL    HW2 5423   0.957   0.302  12.331
 1328SOL     OW 5424   1.051   0.688  11.601
 1328SOL    HW1 5425   1.063   0.671  11.694
 1328SOL    HW2 5426   0.967   0.648  11.580
 1329SOL     OW 5427   0.095   0.777  11.946
 1329SOL    HW1 5428   0.174   0.793  11.997
 1329SOL    HW2 5429   0.043   0.856  11.957
 1330SOL     OW 5430   0.058   1.774   0.260
 1330SOL    HW1 5431   0.101   1.768   0.346
 1330SOL    HW2 5432  -0.035   1.784   0.281
 1331SOL     OW 5433   0.882   0.357  11.375
 1331SOL    HW1 5434   0.922   0.403  11.301
 1331SOL    HW2 5435   0.854   0.273  11.339
 1332SOL     OW 5436   1.377   1.131  11.706
 1332SOL    HW1 5437   1.458   1.128  11.655
 1332SOL    HW2 5438   1.325   1.199  11.664
 1333SOL     OW 5439   0.558   0.258  12.095
 1333SOL    HW1 5440   0.548   0.273  12.189
 1333SOL    HW2 5441   0.555   0.345  12.056
 1334SOL     OW 5442   1.004   1.462  11.656
 1334SOL    HW1 5443   0.975   1.525  11.590
 1334SOL    HW2 5444   0.951   1.480  11.733
 1335SOL     OW 5445   0.349   1.827  12.040
 1335SOL    HW1 5446   0.388   1.739  12.051
 1335SOL    HW2 5447   0.416   1.886  12.074
 1336SOL     OW 5448   1.815   1.025  12.059
 1336SOL    HW1 5449   1.829   1.096  11.996
 1336SOL    HW2 5450   1.747   1.059  12.118
 1337SOL     OW 5451   0.299   0.940  11.406
 1337SOL    HW1 5452   0.386   0.968  11.377
 1337SOL    HW2 5453   0.279   0.864  11.351
 1338SOL     OW 5454   1.470   0.757  11.930
 1338SOL    HW1 5455   1.494   0.765  12.022
 1338SOL    HW2 5456   1.540   0.802  11.882
 1339SOL     OW 5457   1.135   1.760  11.412
 1339SOL    HW1 5458   1.049   1.730  11.442
 1339SOL    HW2 5459   1.156   1.702  11.338
 1340SOL     OW 5460   1.633   1.389  11.254
 1340SOL    HW1 5461   1.585   1.472  11.241
 1340SOL    HW2 5462   1.568   1.321  11.235
 1341SOL     OW 5463   0.464   1.736  11.488
 1341SOL    HW1 5464   0.516   1.796  11.541
 1341SOL    HW2 5465   0.526   1.701  11.423
 1342SOL     OW 5466   1.412   0.134  11.567
 1342SOL    HW1 5467   1.411   0.085  11.485
 1342SOL    HW2 5468   1.503   0.129  11.598
 1343SOL     OW 5469   0.278   1.782  12.390
 1343SOL    HW1 5470   0.259   1.742  12.475
 1343SOL    HW2 5471   0.242   1.721  12.326
 1344SOL     OW 5472   0.947   1.688  12.072
 1344SOL    HW1 5473   1.033   1.645  12.071
 1344SOL    HW2 5474   0.896   1.641  12.006
 1345SOL     OW 5475   0.410   0.694  11.657
 1345SOL    HW1 5476   0.430   0.601  11.670
 1345SOL    HW2 5477   0.315   0.699  11.668
 1346SOL     OW 5478   0.598   0.149  11.270
 1346SOL    HW1 5479   0.667   0.097  11.311
 1346SOL    HW2 5480   0.564   0.093  11.200
 1347SOL     OW 5481   0.808   1.370  12.098
 1347SOL    HW1 5482   0.893   1.376  12.055
 1347SOL    HW2 5483   0.744   1.385  12.027
 1348SOL     OW 5484   0.933   0.524  12.061
 1348SOL    HW1 5485   0.908   0.510  11.970
 1348SOL    HW2 5486   0.960   0.437  12.092
 1349SOL     OW 5487   0.588   0.029  11.594
 1349SOL    HW1 5488   0.518  -0.021  11.635
 1349SOL    HW2 5489   0.561   0.121  11.603
 1350SOL     OW 5490   1.439   1.210  11.209
 1350SOL    HW1 5491   1.444   1.130  11.262
 1350SOL    HW2 5492   1.352   1.246  11.229
 1351SOL     OW 5493   0.296   0.046  11.359
 1351SOL    HW1 5494   0.354   0.120  11.377
 1351SOL    HW2 5495   0.314  -0.016  11.430
 1352SOL     OW 5496   0.946   0.258  11.627
 1352SOL    HW1 5497   0.905   0.289  11.546
 1352SOL    HW2 5498   1.040   0.272  11.613
 1353SOL     OW 5499   1.240   1.631  12.025
 1353SOL    HW1 5500   1.246   1.694  11.953
 1353SOL    HW2 5501   1.293   1.556  11.996
 1354SOL     OW 5502   0.475   1.152  11.894
 1354SOL    HW1 5503   0.413   1.131  11.964
 1354SOL    HW2 5504   0.428   1.135  11.813
 1355SOL     OW 5505   1.272   1.807  11.807
 1355SOL    HW1 5506   1.337   1.843  11.747
 1355SOL    HW2 5507   1.203   1.873  11.810
 1356SOL     OW 5508   1.022   0.533  11.193
 1356SOL    HW1 5509   0.978   0.615  11.171
 1356SOL    HW2 5510   1.082   0.556  11.264
 1357SOL     OW 5511   0.569   0.259  12.371
 1357SOL    HW1 5512   0.606   0.202  12.439
 1357SOL    HW2 5513   0.474   0.251  12.382
 1358SOL     OW 5514   0.883   0.479  11.798
 1358SOL    HW1 5515   0.834   0.525  11.730
 1358SOL    HW2 5516   0.881   0.387  11.772
 1359SOL     OW 5517   1.034   0.021  11.920
 1359SOL    HW1 5518   0.968   0.020  11.851
 1359SOL    HW2 5519   0.999  -0.037  11.988
 1360SOL     OW 5520   1.450   1.158  12.020
 1360SOL    HW1 5521   1.379   1.104  11.986
 1360SOL    HW2 5522   1.509   1.171  11.945
 1361SOL     OW 5523   1.436   0.591  12.174
 1361SOL    HW1 5524   1.400   0.508  12.203
 1361SOL    HW2 5525   1.516   0.602  12.226
 1362SOL     OW 5526   1.855   0.811  11.544
 1362SOL    HW1 5527   1.907   0.762  11.608
 1362SOL    HW2 5528   1.819   0.744  11.486
 1363SOL     OW 5529   0.487   1.417  11.315
 1363SOL    HW1 5530   0.409   1.383  11.359
 1363SOL    HW2 5531   0.491   1.368  11.232
 1364SOL     OW 5532   1.642   1.256  11.839
 1364SOL    HW1 5533   1.738   1.252  11.847
 1364SOL    HW2 5534   1.622   1.349  11.838
 1365SOL     OW 5535   1.401   0.575  11.243
 1365SOL    HW1 5536   1.333   0.554  11.307
 1365SOL    HW2 5537   1.483   0.563  11.290
 1366SOL     OW 5538   0.496   0.279  11.483
 1366SOL    HW1 5539   0.543   0.226  11.418
 1366SOL    HW2 5540   0.483   0.363  11.440
 1367SOL     OW 5541   1.090   1.232  12.279
 1367SOL    HW1 5542   1.004   1.240  12.320
 1367SOL    HW2 5543   1.075   1.258  12.188
 1368SOL     OW 5544   1.610   1.095  12.245
 1368SOL    HW1 5545   1.578   1.140  12.323
 1368SOL    HW2 5546   1.544   1.112  12.178
 1369SOL     OW 5547   0.705   1.055  11.548
 1369SOL    HW1 5548   0.695   1.036  11.641
 1369SOL    HW2 5549   0.782   1.005  11.521
 1370SOL     OW 5550   0.440   0.810  12.440
 1370SOL    HW1 5551   0.494   0.829  12.517
 1370SOL    HW2 5552   0.390   0.732  12.464
 1371SOL     OW 5553   1.251   0.371  12.429
 1371SOL    HW1 5554   1.275   0.452  12.473
 1371SOL    HW2 5555   1.160   0.384  12.403
 1372SOL     OW 5556   0.330   1.107  11.661
 1372SOL    HW1 5557   0.344   1.179  11.600
 1372SOL    HW2 5558   0.336   1.028  11.606
 1373SOL     OW 5559   0.553   0.528  12.035
 1373SOL    HW1 5560   0.568   0.589  11.963
 1373SOL    HW2 5561   0.616   0.556  12.102
 1374SOL     OW 5562   1.242   1.343  11.597
 1374SOL    HW1 5563   1.299   1.419  11.608
 1374SOL    HW2 5564   1.154   1.375  11.618
 1375SOL     OW 5565   1.286   1.414  12.327
 1375SOL    HW1 5566   1.309   1.402  12.419
 1375SOL    HW2 5567   1.214   1.352  12.313
 1376SOL     OW 5568   1.595   0.624  11.662
 1376SOL    HW1 5569   1.574   0.711  11.697
 1376SOL    HW2 5570   1.647   0.643  11.584
 1377SOL     OW 5571   0.375   1.522  12.472
 1377SOL    HW1 5572   0.341   1.474  12.397
 1377SOL    HW2 5573   0.426   1.594  12.434
 1378SOL     OW 5574   0.580   0.874  12.209
 1378SOL    HW1 5575   0.594   0.968  12.212
 1378SOL    HW2 5576   0.532   0.854  12.290
 1379SOL     OW 5577   1.326   0.848  12.195
 1379SOL    HW1 5578   1.238   0.833  12.158
 1379SOL    HW2 5579   1.363   0.760  12.202
 1380SOL     OW 5580   1.199   0.530  11.425
 1380SOL    HW1 5581   1.204   0.451  11.478
 1380SOL    HW2 5582   1.157   0.594  11.482
 1381SOL     OW 5583   0.308   0.210  12.412
 1381SOL    HW1 5584   0.241   0.261  12.457
 1381SOL    HW2 5585   0.295   0.121  12.444
 1382SOL     OW 5586   0.073   1.338  12.431
 1382SOL    HW1 5587   0.062   1.277  12.504
 1382SOL    HW2 5588   0.076   1.425  12.472
 1383SOL     OW 5589   0.724   0.634  12.223
 1383SOL    HW1 5590   0.797   0.620  12.163
 1383SOL    HW2 5591   0.692   0.722  12.202
 1384SOL     OW 5592   0.410   0.101  11.829
 1384SOL    HW1 5593   0.350   0.173  11.848
 1384SOL    HW2 5594   0.355   0.034  11.788
 1385SOL     OW 5595   1.631   0.383  11.528
 1385SOL    HW1 5596   1.643   0.305  11.583
 1385SOL    HW2 5597   1.599   0.450  11.589
 1386SOL     OW 5598   1.034   0.759  12.146
 1386SOL    HW1 5599   1.022   0.767  12.241
 1386SOL    HW2 5600   1.001   0.671  12.126
 1387SOL     OW 5601   1.581   0.257  11.295
 1387SOL    HW1 5602   1.486   0.260  11.293
 1387SOL    HW2 5603   1.605   0.301  11.377
 1388SOL     OW 5604   1.296   0.827  11.208
 1388SOL    HW1 5605   1.336   0.739  11.207
 1388SOL    HW2 5606   1.320   0.864  11.123
 1389SOL     OW 5607   1.071   1.340  12.019
 1389SOL    HW1 5608   1.064   1.257  11.972
 1389SOL    HW2 5609   1.122   1.397  11.961
 1390SOL     OW 5610   0.316   0.810  12.112
 1390SOL    HW1 5611   0.410   0.830  12.114
 1390SOL    HW2 5612   0.310   0.719  12.140
 1391SOL     OW 5613   0.321   0.541  12.171
 1391SOL    HW1 5614   0.290   0.450  12.167
 1391SOL    HW2 5615   0.404   0.540  12.122
 1392SOL     OW 5616   1.172   0.203   0.135
 1392SOL    HW1 5617   1.157   0.261   0.210
 1392SOL    HW2 5618   1.202   0.262   0.066
 1393SOL     OW 5619   7.982   1.307  11.382
 1393SOL    HW1 5620   7.891   1.324  11.404
 1393SOL    HW2 5621   7.992   1.213  11.392
 1394SOL     OW 5622   0.489   1.586  12.069
 1394SOL    HW1 5623   0.562   1.642  12.097
 1394SOL    HW2 5624   0.530   1.520  12.013
 1395SOL     OW 5625   0.977   0.781  12.411
 1395SOL    HW1 5626   1.006   0.855  12.465
 1395SOL    HW2 5627   0.885   0.770  12.434
 1396SOL     OW 5628   0.086   0.562  12.307
 1396SOL    HW1 5629   0.176   0.558  12.274
 1396SOL    HW2 5630   0.083   0.640  12.361
 1397SOL     OW 5631   0.813   0.576  11.537
 1397SOL    HW1 5632   0.821   0.500  11.480
 1397SOL    HW2 5633   0.738   0.624  11.502
 1398SOL     OW 5634   1.657   0.617  12.328
 1398SOL    HW1 5635   1.647   0.566  12.408
 1398SOL    HW2 5636   1.750   0.610  12.306
 1399SOL     OW 5637   0.738   0.465  12.436
 1399SOL    HW1 5638   0.670   0.400  12.422
 1399SOL    HW2 5639   0.725   0.530  12.368
 1400SOL     OW 5640   0.894   1.660   0.028
 1400SOL    HW1 5641   0.907   1.715  -0.049
 1400SOL    HW2 5642   0.893   1.721   0.102
 1401SOL     OW 5643   0.459   0.499  11.334
 1401SOL    HW1 5644   0.512   0.576  11.355
 1401SOL    HW2 5645   0.373   0.518  11.371
 1402SOL     OW 5646   1.289   1.057  12.370
 1402SOL    HW1 5647   1.313   0.990  12.306
 1402SOL    HW2 5648   1.227   1.113  12.324
 1403SOL     OW 5649   1.327   0.844  11.482
 1403SOL    HW1 5650   1.243   0.840  11.528
 1403SOL    HW2 5651   1.304   0.840  11.389
 1404SOL     OW 5652   1.756   1.758  12.302
 1404SOL    HW1 5653   1.833   1.765  12.245
 1404SOL    HW2 5654   1.741   1.664  12.311
 1405SOL     OW 5655   0.076   1.219  12.190
 1405SOL    HW1 5656   0.075   1.263  12.275
 1405SOL    HW2 5657  -0.009   1.240  12.151
 1406SOL     OW 5658   1.677   0.138  11.650
 1406SOL    HW1 5659   1.766   0.136  11.613
 1406SOL    HW2 5660   1.688   0.104  11.739
 1407SOL     OW 5661   1.392   1.573  11.664
 1407SOL    HW1 5662   1.448   1.597  11.590
 1407SOL    HW2 5663   1.332   1.647  11.673
 1408SOL     OW 5664   1.269   0.929  11.841
 1408SOL    HW1 5665   1.346   0.876  11.863
 1408SOL    HW2 5666   1.304   0.997  11.783
 1409SOL     OW 5667   0.672   1.612  11.335
 1409SOL    HW1 5668   0.682   1.639  11.243
 1409SOL    HW2 5669   0.612   1.537  11.331
 1410SOL     OW 5670   1.651   1.768   0.057
 1410SOL    HW1 5671   1.703   1.774  -0.024
 1410SOL    HW2 5672   1.669   1.850   0.103
 1411SOL     OW 5673   1.844   0.184  12.127
 1411SOL    HW1 5674   1.850   0.089  12.142
 1411SOL    HW2 5675   1.761   0.196  12.082
 1412SOL     OW 5676   0.256   0.325  11.882
 1412SOL    HW1 5677   0.167   0.355  11.860
 1412SOL    HW2 5678   0.257   0.320  11.977
 1413SOL     OW 5679   1.212   1.596  11.204
 1413SOL    HW1 5680   1.214   1.503  11.229
 1413SOL    HW2 5681   1.146   1.601  11.135
 1414SOL     OW 5682   0.791   1.022  12.493
 1414SOL    HW1 5683   0.803   1.060  12.407
 1414SOL    HW2 5684   0.873   1.042  12.539
 1415SOL     OW 5685   0.921   0.912  11.481
 1415SOL    HW1 5686   0.984   0.947  11.418
 1415SOL    HW2 5687   0.965   0.836  11.519
 1416SOL     OW 5688   1.487   1.629  11.216
 1416SOL    HW1 5689   1.394   1.614  11.201
 1416SOL    HW2 5690   1.524   1.637  11.128
 1417SOL     OW 5691   1.058   1.108  11.894
 1417SOL    HW1 5692   0.985   1.054  11.925
 1417SOL    HW2 5693   1.119   1.045  11.856
 1418SOL     OW 5694   1.040   0.255  12.080
 1418SOL    HW1 5695   1.021   0.195  12.008
 1418SOL    HW2 5696   1.046   0.198  12.157
 1419SOL     OW 5697   0.613   1.502  11.659
 1419SOL    HW1 5698   0.664   1.445  11.601
 1419SOL    HW2 5699   0.543   1.535  11.604
 1420SOL     OW 5700   1.731   0.448   0.036
 1420SOL    HW1 5701   1.765   0.421   0.121
 1420SOL    HW2 5702   1.752   0.377  -0.024
 1421SOL     OW 5703   0.251   1.330  11.443
 1421SOL    HW1 5704   0.156   1.335  11.437
 1421SOL    HW2 5705   0.272   1.371  11.527
 1422SOL     OW 5706   0.070   0.345  11.168
 1422SOL    HW1 5707   0.018   0.392  11.235
 1422SOL    HW2 5708   0.104   0.414  11.112
 1423SOL     OW 5709   0.116   0.261  11.510
 1423SOL    HW1 5710   0.082   0.215  11.433
 1423SOL    HW2 5711   0.128   0.193  11.576
 1424SOL     OW 5712   1.208   1.338  11.306
 1424SOL    HW1 5713   1.137   1.291  11.262
 1424SOL    HW2 5714   1.198   1.315  11.398
 1425SOL     OW 5715   1.515   1.768  12.148
 1425SOL    HW1 5716   1.518   1.838  12.083
 1425SOL    HW2 5717   1.597   1.778  12.196
 1426SOL     OW 5718   1.704   0.880  12.407
 1426SOL    HW1 5719   1.675   0.795  12.374
 1426SOL    HW2 5720   1.672   0.943  12.342
 1427SOL     OW 5721   1.218   0.318  11.613
 1427SOL    HW1 5722   1.284   0.252  11.590
 1427SOL    HW2 5723   1.211   0.312  11.708
 1428SOL     OW 5724   0.595   0.734  11.857
 1428SOL    HW1 5725   0.635   0.819  11.840
 1428SOL    HW2 5726   0.531   0.723  11.787
 1429SOL     OW 5727   1.795   0.931   0.157
 1429SOL    HW1 5728   1.712   0.970   0.185
 1429SOL    HW2 5729   1.778   0.904   0.066
 1430SOL     OW 5730   0.840   1.373  11.205
 1430SOL    HW1 5731   0.813   1.428  11.279
 1430SOL    HW2 5732   0.881   1.435  11.144
 1431SOL     OW 5733   0.664   1.798  12.124
 1431SOL    HW1 5734   0.647   1.884  12.086
 1431SOL    HW2 5735   0.757   1.782  12.108
 1432SOL     OW 5736   0.869   0.966  12.033
 1432SOL    HW1 5737   0.918   0.893  12.072
 1432SOL    HW2 5738   0.834   1.014  12.109
 1433SOL     OW 5739   1.105   0.994  11.304
 1433SOL    HW1 5740   1.053   1.026  11.231
 1433SOL    HW2 5741   1.173   0.940  11.263
 1434SOL     OW 5742   1.852   1.549  12.031
 1434SOL    HW1 5743   1.816   1.519  11.947
 1434SOL    HW2 5744   1.880   1.469  12.075
 1435SOL     OW 5745   0.133   1.261  11.828
 1435SOL    HW1 5746   0.059   1.217  11.868
 1435SOL    HW2 5747   0.192   1.190  11.802
 1436SOL     OW 5748   1.850   0.252  12.394
 1436SOL    HW1 5749   1.836   0.171  12.442
 1436SOL    HW2 5750   1.844   0.227  12.302
 1437SOL     OW 5751   0.444   0.431  11.709
 1437SOL    HW1 5752   0.451   0.369  11.637
 1437SOL    HW2 5753   0.377   0.394  11.767
 1438SOL     OW 5754   1.699   1.489  12.321
 1438SOL    HW1 5755   1.686   1.466  12.229
 1438SOL    HW2 5756   1.771   1.432  12.349
 1439SOL     OW 5757   0.826   1.596  11.841
 1439SOL    HW1 5758   0.825   1.672  11.784
 1439SOL    HW2 5759   0.749   1.545  11.815
 1440SOL     OW 5760   1.446   0.251  12.278
 1440SOL    HW1 5761   1.504   0.191  12.325
 1440SOL    HW2 5762   1.384   0.281  12.344
 1441SOL     OW 5763   1.046   0.072  12.276
 1441SOL    HW1 5764   0.951   0.064  12.283
 1441SOL    HW2 5765   1.080   0.002  12.332
 1442SOL     OW 5766   0.764   1.329  11.518
 1442SOL    HW1 5767   0.737   1.237  11.510
 1442SOL    HW2 5768   0.859   1.324  11.527
 1443SOL     OW 5769   1.342   7.982  11.325
 1443SOL    HW1 5770   1.394   7.902  11.319
 1443SOL    HW2 5771   1.261   7.956  11.369
 1444SOL     OW 5772   1.605   0.230  12.018
 1444SOL    HW1 5773   1.541   0.193  12.080
 1444SOL    HW2 5774   1.558   0.301  11.975
 1445SOL     OW 5775   0.043   1.043  11.449
 1445SOL    HW1 5776   0.133   1.020  11.428
 1445SOL    HW2 5777   0.040   1.045  11.544
 1446SOL     OW 5778   0.887   1.661  11.506
 1446SOL    HW1 5779   0.814   1.644  11.447
 1446SOL    HW2 5780   0.858   1.735  11.559
 1447SOL     OW 5781   0.263   2.486   0.065
 1447SOL    HW1 5782   0.219   2.523   0.141
 1447SOL    HW2 5783   0.221   2.402   0.050
 1448SOL     OW 5784   0.238   2.132   0.972
 1448SOL    HW1 5785   0.266   2.096   1.056
 1448SOL    HW2 5786   0.155   2.089   0.954
 1449SOL     OW 5787   8.004   2.255   0.608
 1449SOL    HW1 5788   7.916   2.246   0.644
 1449SOL    HW2 5789   8.007   2.191   0.536
 1450SOL     OW 5790   0.567   3.155   1.188
 1450SOL    HW1 5791   0.484   3.168   1.143
 1450SOL    HW2 5792   0.588   3.241   1.225
 1451SOL     OW 5793   1.551   3.378   0.715
 1451SOL    HW1 5794   1.514   3.361   0.802
 1451SOL    HW2 5795   1.474   3.381   0.657
 1452SOL     OW 5796   1.136   2.557   0.693
 1452SOL    HW1 5797   1.185   2.638   0.679
 1452SOL    HW2 5798   1.087   2.573   0.774
 1453SOL     OW 5799   1.725   2.433   0.179
 1453SOL    HW1 5800   1.741   2.527   0.178
 1453SOL    HW2 5801   1.699   2.414   0.270
 1454SOL     OW 5802   0.745   2.994   1.056
 1454SOL    HW1 5803   0.676   3.036   1.109
 1454SOL    HW2 5804   0.787   3.066   1.009
 1455SOL     OW 5805   0.866   2.622   1.825
 1455SOL    HW1 5806   0.859   2.679   1.902
 1455SOL    HW2 5807   0.886   2.682   1.754
 1456SOL     OW 5808   0.684   2.854   0.647
 1456SOL    HW1 5809   0.752   2.851   0.715
 1456SOL    HW2 5810   0.618   2.913   0.683
 1457SOL     OW 5811   0.709   3.016   1.813
 1457SOL    HW1 5812   0.751   3.096   1.844
 1457SOL    HW2 5813   0.626   3.046   1.776
 1458SOL     OW 5814   0.345   3.272   1.066
 1458SOL    HW1 5815   0.261   3.257   1.022
 1458SOL    HW2 5816   0.391   3.333   1.008
 1459SOL     OW 5817   1.462   3.363   1.364
 1459SOL    HW1 5818   1.518   3.440   1.369
 1459SOL    HW2 5819   1.396   3.377   1.431
 1460SOL     OW 5820   0.432   2.204   1.494
 1460SOL    HW1 5821   0.515   2.160   1.477
 1460SOL    HW2 5822   0.411   2.185   1.585
 1461SOL     OW 5823   1.601   2.306   0.746
 1461SOL    HW1 5824   1.521   2.325   0.697
 1461SOL    HW2 5825   1.611   2.380   0.806
 1462SOL     OW 5826   0.265   3.558   0.510
 1462SOL    HW1 5827   0.259   3.644   0.552
 1462SOL    HW2 5828   0.314   3.574   0.430
 1463SOL     OW 5829   1.139   3.202   1.694
 1463SOL    HW1 5830   1.189   3.193   1.775
 1463SOL    HW2 5831   1.087   3.121   1.689
 1464SOL     OW 5832   0.244   3.297   0.533
 1464SOL    HW1 5833   0.263   3.391   0.541
 1464SOL    HW2 5834   0.235   3.266   0.623
 1465SOL     OW 5835   0.253   2.951   0.881
 1465SOL    HW1 5836   0.262   2.862   0.915
 1465SOL    HW2 5837   0.185   2.991   0.935
 1466SOL     OW 5838   0.608   3.655   1.421
 1466SOL    HW1 5839   0.528   3.636   1.470
 1466SOL    HW2 5840   0.631   3.744   1.448
 1467SOL     OW 5841   0.589   2.833   0.158
 1467SOL    HW1 5842   0.651   2.852   0.087
 1467SOL    HW2 5843   0.624   2.878   0.234
 1468SOL     OW 5844   1.574   2.009   1.451
 1468SOL    HW1 5845   1.625   2.086   1.425
 1468SOL    HW2 5846   1.556   2.023   1.544
 1469SOL     OW 5847   0.129   2.508   0.549
 1469SOL    HW1 5848   0.099   2.420   0.573
 1469SOL    HW2 5849   0.115   2.560   0.628
 1470SOL     OW 5850   1.866   3.610   0.322
 1470SOL    HW1 5851   1.934   3.585   0.385
 1470SOL    HW2 5852   1.878   3.704   0.310
 1471SOL     OW 5853   0.021   3.389   0.130
 1471SOL    HW1 5854  -0.001   3.348   0.214
 1471SOL    HW2 5855   0.055   3.475   0.153
 1472SOL     OW 5856   1.667   2.791   0.652
 1472SOL    HW1 5857   1.745   2.749   0.616
 1472SOL    HW2 5858   1.639   2.853   0.585
 1473SOL     OW 5859   1.646   2.978   0.434
 1473SOL    HW1 5860   1.730   2.985   0.388
 1473SOL    HW2 5861   1.654   3.039   0.507
 1474SOL     OW 5862   0.163   2.635   1.556
 1474SOL    HW1 5863   0.257   2.652   1.559
 1474SOL    HW2 5864   0.123   2.710   1.601
 1475SOL     OW 5865   0.605   3.252   0.728
 1475SOL    HW1 5866   0.565   3.165   0.738
 1475SOL    HW2 5867   0.591   3.274   0.636
 1476SOL     OW 5868   1.283   3.088   1.428
 1476SOL    HW1 5869   1.320   3.028   1.363
 1476SOL    HW2 5870   1.347   3.089   1.499
 1477SOL     OW 5871   0.825   1.872   0.525
 1477SOL    HW1 5872   0.864   1.955   0.497
 1477SOL    HW2 5873   0.731   1.888   0.525
 1478SOL     OW 5874   0.176   2.793   1.268
 1478SOL    HW1 5875   0.267   2.764   1.259
 1478SOL    HW2 5876   0.138   2.780   1.182
 1479SOL     OW 5877   1.503   2.869   0.226
 1479SOL    HW1 5878   1.440   2.808   0.265
 1479SOL    HW2 5879   1.553   2.903   0.300
 1480SOL     OW 5880   1.176   3.674   1.626
 1480SOL    HW1 5881   1.187   3.736   1.554
 1480SOL    HW2 5882   1.204   3.590   1.589
 1481SOL     OW 5883   0.352   2.139   1.775
 1481SOL    HW1 5884   0.398   2.196   1.836
 1481SOL    HW2 5885   0.261   2.140   1.805
 1482SOL     OW 5886   1.478   3.279   0.964
 1482SOL    HW1 5887   1.400   3.307   1.013
 1482SOL    HW2 5888   1.457   3.191   0.933
 1483SOL     OW 5889   1.647   3.611   0.585
 1483SOL    HW1 5890   1.625   3.577   0.498
 1483SOL    HW2 5891   1.622   3.542   0.646
 1484SOL     OW 5892   0.596   2.579   0.277
 1484SOL    HW1 5893   0.606   2.667   0.239
 1484SOL    HW2 5894   0.529   2.589   0.345
 1485SOL     OW 5895   1.284   2.222   0.939
 1485SOL    HW1 5896   1.194   2.189   0.944
 1485SOL    HW2 5897   1.333   2.167   1.000
 1486SOL     OW 5898   1.606   3.538   0.314
 1486SOL    HW1 5899   1.700   3.554   0.327
 1486SOL    HW2 5900   1.588   3.567   0.225
 1487SOL     OW 5901   1.387   2.334   1.678
 1487SOL    HW1 5902   1.396   2.382   1.760
 1487SOL    HW2 5903   1.454   2.266   1.684
 1488SOL     OW 5904   0.941   2.745   1.573
 1488SOL    HW1 5905   1.020   2.693   1.557
 1488SOL    HW2 5906   0.924   2.789   1.490
 1489SOL     OW 5907   0.987   2.260   1.223
 1489SOL    HW1 5908   0.893   2.278   1.223
 1489SOL    HW2 5909   1.002   2.215   1.139
 1490SOL     OW 5910   1.054   2.565   0.425
 1490SOL    HW1 5911   1.072   2.559   0.519
 1490SOL    HW2 5912   0.968   2.523   0.415
 1491SOL     OW 5913   0.094   2.653   0.777
 1491SOL    HW1 5914   0.175   2.666   0.827
 1491SOL    HW2 5915   0.043   2.732   0.794
 1492SOL     OW 5916   0.121   3.646   1.563
 1492SOL    HW1 5917   0.134   3.649   1.658
 1492SOL    HW2 5918   0.033   3.682   1.549
 1493SOL     OW 5919   0.884   2.223   0.219
 1493SOL    HW1 5920   0.917   2.287   0.157
 1493SOL    HW2 5921   0.867   2.145   0.167
 1494SOL     OW 5922   1.678   2.431   1.836
 1494SOL    HW1 5923   1.655   2.504   1.778
 1494SOL    HW2 5924   1.724   2.369   1.779
 1495SOL     OW 5925   1.375   2.996   0.532
 1495SOL    HW1 5926   1.458   3.003   0.485
 1495SOL    HW2 5927   1.319   3.062   0.491
 1496SOL     OW 5928   0.560   2.039   0.903
 1496SOL    HW1 5929   0.565   2.081   0.988
 1496SOL    HW2 5930   0.553   2.111   0.840
 1497SOL     OW 5931   1.003   3.301   0.486
 1497SOL    HW1 5932   0.955   3.376   0.453
 1497SOL    HW2 5933   1.043   3.331   0.568
 1498SOL     OW 5934   0.362   3.687   0.871
 1498SOL    HW1 5935   0.408   3.604   0.882
 1498SOL    HW2 5936   0.427   3.754   0.892
 1499SOL     OW 5937   1.796   2.899   0.881
 1499SOL    HW1 5938   1.741   2.890   0.803
 1499SOL    HW2 5939   1.734   2.913   0.952
 1500SOL     OW 5940   1.229   3.404   1.516
 1500SOL    HW1 5941   1.216   3.329   1.574
 1500SOL    HW2 5942   1.160   3.396   1.451
 1501SOL     OW 5943   0.326   2.807   0.230
 1501SOL    HW1 5944   0.416   2.824   0.203
 1501SOL    HW2 5945   0.276   2.805   0.149
 1502SOL     OW 5946   1.483   2.599   0.716
 1502SOL    HW1 5947   1.480   2.569   0.807
 1502SOL    HW2 5948   1.552   2.665   0.715
 1503SOL     OW 5949   0.450   3.118   1.757
 1503SOL    HW1 5950   0.427   3.140   1.666
 1503SOL    HW2 5951   0.386   3.052   1.782
 1504SOL     OW 5952   1.080   3.632   0.238
 1504SOL    HW1 5953   1.093   3.627   0.332
 1504SOL    HW2 5954   1.143   3.571   0.201
 1505SOL     OW 5955   1.568   3.324   0.032
 1505SOL    HW1 5956   1.640   3.328   0.095
 1505SOL    HW2 5957   1.531   3.237   0.043
 1506SOL     OW 5958   0.457   3.605   0.314
 1506SOL    HW1 5959   0.500   3.667   0.373
 1506SOL    HW2 5960   0.527   3.572   0.258
 1507SOL     OW 5961   1.404   1.962   0.443
 1507SOL    HW1 5962   1.401   1.928   0.353
 1507SOL    HW2 5963   1.497   1.976   0.460
 1508SOL     OW 5964   0.248   3.656   1.219
 1508SOL    HW1 5965   0.291   3.579   1.257
 1508SOL    HW2 5966   0.200   3.622   1.143
 1509SOL     OW 5967   0.946   3.560   0.902
 1509SOL    HW1 5968   1.034   3.523   0.885
 1509SOL    HW2 5969   0.891   3.519   0.836
 1510SOL     OW 5970   0.403   2.555   0.477
 1510SOL    HW1 5971   0.426   2.462   0.485
 1510SOL    HW2 5972   0.313   2.560   0.507
 1511SOL     OW 5973   1.523   2.078   1.719
 1511SOL    HW1 5974   1.541   2.105   1.810
 1511SOL    HW2 5975   1.452   2.015   1.726
 1512SOL     OW 5976   0.632   1.986   0.117
 1512SOL    HW1 5977   0.723   1.956   0.122
 1512SOL    HW2 5978   0.625   2.028   0.032
 1513SOL     OW 5979   0.766   2.143   1.754
 1513SOL    HW1 5980   0.846   2.091   1.753
 1513SOL    HW2 5981   0.725   2.123   1.838
 1514SOL     OW 5982   0.871   3.374   1.202
 1514SOL    HW1 5983   0.860   3.353   1.109
 1514SOL    HW2 5984   0.951   3.329   1.228
 1515SOL     OW 5985   1.331   2.465   1.433
 1515SOL    HW1 5986   1.369   2.433   1.515
 1515SOL    HW2 5987   1.373   2.550   1.419
 1516SOL     OW 5988   0.820   3.239   0.946
 1516SOL    HW1 5989   0.907   3.230   0.909
 1516SOL    HW2 5990   0.765   3.267   0.873
 1517SOL     OW 5991   0.925   2.366   0.901
 1517SOL    HW1 5992   0.898   2.360   0.809
 1517SOL    HW2 5993   0.955   2.277   0.923
 1518SOL     OW 5994   0.559   1.924   0.501
 1518SOL    HW1 5995   0.478   1.923   0.552
 1518SOL    HW2 5996   0.550   2.000   0.444
 1519SOL     OW 5997   1.445   3.090   0.072
 1519SOL    HW1 5998   1.469   3.007   0.113
 1519SOL    HW2 5999   1.350   3.097   0.086
 1520SOL     OW 6000   0.303   1.947   0.193
 1520SOL    HW1 6001   0.383   1.998   0.184
 1520SOL    HW2 6002   0.331   1.864   0.232
 1521SOL     OW 6003   0.945   2.113   0.463
 1521SOL    HW1 6004   0.917   2.151   0.380
 1521SOL    HW2 6005   1.040   2.127   0.465
 1522SOL     OW 6006   1.064   2.467   1.488
 1522SOL    HW1 6007   1.080   2.409   1.562
 1522SOL    HW2 6008   1.150   2.482   1.450
 1523SOL     OW 6009   0.466   3.009   0.717
 1523SOL    HW1 6010   0.402   2.991   0.786
 1523SOL    HW2 6011   0.420   2.989   0.636
 1524SOL     OW 6012   1.262   3.642   0.532
 1524SOL    HW1 6013   1.272   3.729   0.570
 1524SOL    HW2 6014   1.230   3.588   0.604
 1525SOL     OW 6015   1.025   2.401   0.056
 1525SOL    HW1 6016   1.007   2.484   0.013
 1525SOL    HW2 6017   1.089   2.422   0.124
 1526SOL     OW 6018   0.100   2.398   1.415
 1526SOL    HW1 6019   0.189   2.415   1.384
 1526SOL    HW2 6020   0.071   2.481   1.453
 1527SOL     OW 6021   0.577   2.104   1.181
 1527SOL    HW1 6022   0.618   2.022   1.210
 1527SOL    HW2 6023   0.484   2.091   1.199
 1528SOL     OW 6024   0.863   2.318   0.640
 1528SOL    HW1 6025   0.823   2.377   0.576
 1528SOL    HW2 6026   0.886   2.240   0.590
 1529SOL     OW 6027   1.019   1.917   0.746
 1529SOL    HW1 6028   0.959   1.913   0.671
 1529SOL    HW2 6029   0.995   1.842   0.800
 1530SOL     OW 6030   1.445   3.024   0.859
 1530SOL    HW1 6031   1.361   2.983   0.842
 1530SOL    HW2 6032   1.482   3.041   0.772
 1531SOL     OW 6033   1.464   2.470   0.965
 1531SOL    HW1 6034   1.407   2.393   0.973
 1531SOL    HW2 6035   1.524   2.463   1.039
 1532SOL     OW 6036   1.810   2.687   0.436
 1532SOL    HW1 6037   1.873   2.620   0.463
 1532SOL    HW2 6038   1.808   2.682   0.341
 1533SOL     OW 6039   0.497   3.255   0.157
 1533SOL    HW1 6040   0.442   3.205   0.217
 1533SOL    HW2 6041   0.435   3.299   0.098
 1534SOL     OW 6042   1.668   3.128   0.653
 1534SOL    HW1 6043   1.762   3.127   0.671
 1534SOL    HW2 6044   1.640   3.217   0.673
 1535SOL     OW 6045   1.400   2.421   0.089
 1535SOL    HW1 6046   1.337   2.415   0.161
 1535SOL    HW2 6047   1.485   2.408   0.131
 1536SOL     OW 6048   0.523   2.122   0.321
 1536SOL    HW1 6049   0.572   2.074   0.254
 1536SOL    HW2 6050   0.501   2.206   0.280
 1537SOL     OW 6051   1.747   3.111   1.580
 1537SOL    HW1 6052   1.828   3.065   1.605
 1537SOL    HW2 6053   1.763   3.202   1.604
 1538SOL     OW 6054   1.060   3.205   1.329
 1538SOL    HW1 6055   0.984   3.181   1.381
 1538SOL    HW2 6056   1.134   3.166   1.375
 1539SOL     OW 6057   1.605   3.494   1.656
 1539SOL    HW1 6058   1.598   3.526   1.566
 1539SOL    HW2 6059   1.689   3.448   1.659
 1540SOL     OW 6060   1.105   3.040   1.109
 1540SOL    HW1 6061   1.075   3.103   1.173
 1540SOL    HW2 6062   1.097   3.085   1.025
 1541SOL     OW 6063   1.616   2.958   1.077
 1541SOL    HW1 6064   1.609   3.021   1.148
 1541SOL    HW2 6065   1.547   2.982   1.016
 1542SOL     OW 6066   0.920   1.955   1.392
 1542SOL    HW1 6067   0.942   1.934   1.301
 1542SOL    HW2 6068   1.001   1.993   1.427
 1543SOL     OW 6069   0.976   2.977   1.721
 1543SOL    HW1 6070   0.886   2.999   1.747
 1543SOL    HW2 6071   0.965   2.899   1.665
 1544SOL     OW 6072   0.714   2.927   0.382
 1544SOL    HW1 6073   0.702   2.905   0.474
 1544SOL    HW2 6074   0.791   2.876   0.355
 1545SOL     OW 6075   0.426   2.673   1.250
 1545SOL    HW1 6076   0.490   2.691   1.320
 1545SOL    HW2 6077   0.395   2.585   1.269
 1546SOL     OW 6078   1.260   2.244   1.283
 1546SOL    HW1 6079   1.294   2.322   1.326
 1546SOL    HW2 6080   1.169   2.265   1.262
 1547SOL     OW 6081   0.066   3.439   1.351
 1547SOL    HW1 6082   0.057   3.527   1.387
 1547SOL    HW2 6083   0.160   3.423   1.349
 1548SOL     OW 6084   0.331   2.961   0.470
 1548SOL    HW1 6085   0.363   3.036   0.420
 1548SOL    HW2 6086   0.340   2.887   0.410
 1549SOL     OW 6087   0.547   2.394   0.864
 1549SOL    HW1 6088   0.560   2.451   0.788
 1549SOL    HW2 6089   0.616   2.420   0.926
 1550SOL     OW 6090   1.240   3.200   0.391
 1550SOL    HW1 6091   1.299   3.271   0.415
 1550SOL    HW2 6092   1.156   3.224   0.432
 1551SOL     OW 6093   1.285   3.328   1.159
 1551SOL    HW1 6094   1.352   3.338   1.227
 1551SOL    HW2 6095   1.222   3.267   1.196
 1552SOL     OW 6096   1.591   2.494   0.472
 1552SOL    HW1 6097   1.528   2.518   0.540
 1552SOL    HW2 6098   1.643   2.574   0.460
 1553SOL     OW 6099   0.341   3.390   1.311
 1553SOL    HW1 6100   0.332   3.342   1.229
 1553SOL    HW2 6101   0.435   3.406   1.319
 1554SOL     OW 6102   0.447   2.570   1.615
 1554SOL    HW1 6103   0.490   2.631   1.555
 1554SOL    HW2 6104   0.518   2.537   1.671
 1555SOL     OW 6105   1.594   2.633   1.677
 1555SOL    HW1 6106   1.514   2.684   1.678
 1555SOL    HW2 6107   1.653   2.681   1.618
 1556SOL     OW 6108   0.997   1.997   1.747
 1556SOL    HW1 6109   1.061   2.066   1.732
 1556SOL    HW2 6110   1.041   1.917   1.720
 1557SOL     OW 6111   0.502   1.901   1.745
 1557SOL    HW1 6112   0.454   1.844   1.685
 1557SOL    HW2 6113   0.447   1.979   1.753
 1558SOL     OW 6114   0.595   2.738   1.034
 1558SOL    HW1 6115   0.628   2.828   1.033
 1558SOL    HW2 6116   0.532   2.736   1.107
 1559SOL     OW 6117   1.340   2.713   1.024
 1559SOL    HW1 6118   1.265   2.708   0.965
 1559SOL    HW2 6119   1.389   2.631   1.008
 1560SOL     OW 6120   1.204   2.388   0.278
 1560SOL    HW1 6121   1.217   2.316   0.340
 1560SOL    HW2 6122   1.161   2.457   0.330
 1561SOL     OW 6123   0.314   2.048   1.225
 1561SOL    HW1 6124   0.253   2.091   1.285
 1561SOL    HW2 6125   0.292   1.956   1.230
 1562SOL     OW 6126   0.080   3.171   1.272
 1562SOL    HW1 6127   0.093   3.118   1.350
 1562SOL    HW2 6128   0.061   3.258   1.305
 1563SOL     OW 6129   0.717   2.491   1.058
 1563SOL    HW1 6130   0.796   2.482   1.005
 1563SOL    HW2 6131   0.688   2.581   1.043
 1564SOL     OW 6132   1.713   2.834   1.847
 1564SOL    HW1 6133   1.681   2.749   1.815
 1564SOL    HW2 6134   1.667   2.846   1.930
 1565SOL     OW 6135   0.317   1.928   0.625
 1565SOL    HW1 6136   0.286   2.018   0.639
 1565SOL    HW2 6137   0.322   1.890   0.712
 1566SOL     OW 6138   1.594   2.234   0.374
 1566SOL    HW1 6139   1.635   2.176   0.438
 1566SOL    HW2 6140   1.584   2.318   0.421
 1567SOL     OW 6141   1.023   2.613   0.954
 1567SOL    HW1 6142   1.016   2.624   1.049
 1567SOL    HW2 6143   0.996   2.523   0.939
 1568SOL     OW 6144   0.979   3.420   1.726
 1568SOL    HW1 6145   0.962   3.468   1.645
 1568SOL    HW2 6146   1.030   3.344   1.699
 1569SOL     OW 6147   1.859   3.390   1.617
 1569SOL    HW1 6148   1.891   3.395   1.527
 1569SOL    HW2 6149   1.939   3.381   1.670
 1570SOL     OW 6150   0.383   2.814   1.797
 1570SOL    HW1 6151   0.448   2.823   1.867
 1570SOL    HW2 6152   0.357   2.722   1.800
 1571SOL     OW 6153   1.554   2.096   0.141
 1571SOL    HW1 6154   1.482   2.034   0.155
 1571SOL    HW2 6155   1.558   2.146   0.222
 1572SOL     OW 6156   1.287   2.677   0.051
 1572SOL    HW1 6157   1.339   2.598   0.034
 1572SOL    HW2 6158   1.319   2.741  -0.012
 1573SOL     OW 6159   1.073   3.170   0.869
 1573SOL    HW1 6160   1.072   3.108   0.796
 1573SOL    HW2 6161   1.114   3.248   0.833
 1574SOL     OW 6162   0.322   2.673   0.934
 1574SOL    HW1 6163   0.416   2.691   0.927
 1574SOL    HW2 6164   0.317   2.589   0.979
 1575SOL     OW 6165   0.335   2.380   1.025
 1575SOL    HW1 6166   0.297   2.296   1.000
 1575SOL    HW2 6167   0.410   2.391   0.967
 1576SOL     OW 6168   1.125   2.268   1.670
 1576SOL    HW1 6169   1.087   2.306   1.750
 1576SOL    HW2 6170   1.218   2.289   1.676
 1577SOL     OW 6171   1.158   2.068   1.475
 1577SOL    HW1 6172   1.148   2.136   1.541
 1577SOL    HW2 6173   1.207   2.110   1.404
 1578SOL     OW 6174   7.975   3.106   0.221
 1578SOL    HW1 6175   7.889   3.143   0.242
 1578SOL    HW2 6176   7.984   3.117   0.127
 1579SOL     OW 6177   0.113   3.604   0.947
 1579SOL    HW1 6178   0.083   3.574   0.861
 1579SOL    HW2 6179   0.194   3.651   0.929
 1580SOL     OW 6180   0.494   3.437   0.906
 1580SOL    HW1 6181   0.561   3.501   0.929
 1580SOL    HW2 6182   0.537   3.378   0.844
 1581SOL     OW 6183   0.970   2.631   1.230
 1581SOL    HW1 6184   1.047   2.617   1.284
 1581SOL    HW2 6185   0.935   2.715   1.259
 1582SOL     OW 6186   0.076   2.407   1.129
 1582SOL    HW1 6187   0.170   2.408   1.108
 1582SOL    HW2 6188   0.073   2.399   1.224
 1583SOL     OW 6189   0.218   2.417   1.696
 1583SOL    HW1 6190   0.312   2.432   1.682
 1583SOL    HW2 6191   0.175   2.493   1.658
 1584SOL     OW 6192   1.375   2.797   1.650
 1584SOL    HW1 6193   1.403   2.889   1.655
 1584SOL    HW2 6194   1.384   2.774   1.557
 1585SOL     OW 6195   0.815   2.439   0.380
 1585SOL    HW1 6196   0.821   2.363   0.323
 1585SOL    HW2 6197   0.741   2.489   0.345
 1586SOL     OW 6198   1.643   2.452   1.167
 1586SOL    HW1 6199   1.642   2.425   1.259
 1586SOL    HW2 6200   1.733   2.435   1.138
 1587SOL     OW 6201   0.318   3.401   1.764
 1587SOL    HW1 6202   0.275   3.482   1.790
 1587SOL    HW2 6203   0.252   3.355   1.712
 1588SOL     OW 6204   0.719   2.326   1.270
 1588SOL    HW1 6205   0.665   2.251   1.247
 1588SOL    HW2 6206   0.707   2.388   1.198
 1589SOL     OW 6207   0.918   3.535   1.475
 1589SOL    HW1 6208   0.890   3.498   1.392
 1589SOL    HW2 6209   0.916   3.630   1.461
 1590SOL     OW 6210   0.468   2.350   0.194
 1590SOL    HW1 6211   0.528   2.421   0.215
 1590SOL    HW2 6212   0.399   2.391   0.142
 1591SOL     OW 6213   0.168   2.989   1.467
 1591SOL    HW1 6214   0.132   2.950   1.546
 1591SOL    HW2 6215   0.164   2.919   1.401
 1592SOL     OW 6216   1.310   2.898   1.220
 1592SOL    HW1 6217   1.337   2.840   1.149
 1592SOL    HW2 6218   1.240   2.951   1.183
 1593SOL     OW 6219   1.311   2.696   0.324
 1593SOL    HW1 6220   1.228   2.678   0.367
 1593SOL    HW2 6221   1.294   2.682   0.231
 1594SOL     OW 6222   1.777   3.600   1.153
 1594SOL    HW1 6223   1.842   3.625   1.088
 1594SOL    HW2 6224   1.757   3.508   1.133
 1595SOL     OW 6225   1.248   3.604   1.122
 1595SOL    HW1 6226   1.330   3.629   1.079
 1595SOL    HW2 6227   1.250   3.509   1.124
 1596SOL     OW 6228   0.045   3.069   1.027
 1596SOL    HW1 6229   0.066   3.101   1.115
 1596SOL    HW2 6230  -0.030   3.121   1.000
 1597SOL     OW 6231   0.676   3.535   1.734
 1597SOL    HW1 6232   0.617   3.610   1.732
 1597SOL    HW2 6233   0.745   3.557   1.671
 1598SOL     OW 6234   0.904   1.942   0.112
 1598SOL    HW1 6235   0.935   1.969   0.025
 1598SOL    HW2 6236   0.982   1.942   0.166
 1599SOL     OW 6237   1.723   2.015   0.507
 1599SOL    HW1 6238   1.789   1.994   0.441
 1599SOL    HW2 6239   1.704   1.932   0.550
 1600SOL     OW 6240   1.399   3.414   0.453
 1600SOL    HW1 6241   1.467   3.458   0.402
 1600SOL    HW2 6242   1.345   3.485   0.487
 1601SOL     OW 6243   0.181   3.615   1.838
 1601SOL    HW1 6244   0.113   3.573   1.891
 1601SOL    HW2 6245   0.231   3.668   1.900
 1602SOL     OW 6246   1.279   2.784   0.666
 1602SOL    HW1 6247   1.356   2.727   0.674
 1602SOL    HW2 6248   1.310   2.858   0.614
 1603SOL     OW 6249   0.805   3.125   1.429
 1603SOL    HW1 6250   0.774   3.168   1.509
 1603SOL    HW2 6251   0.750   3.162   1.360
 1604SOL     OW 6252   0.663   3.472   0.185
 1604SOL    HW1 6253   0.730   3.477   0.117
 1604SOL    HW2 6254   0.623   3.386   0.173
 1605SOL     OW 6255   1.618   3.588   1.388
 1605SOL    HW1 6256   1.673   3.594   1.310
 1605SOL    HW2 6257   1.602   3.679   1.413
 1606SOL     OW 6258   1.839   2.024   0.971
 1606SOL    HW1 6259   1.867   1.942   0.931
 1606SOL    HW2 6260   1.754   2.042   0.932
 1607SOL     OW 6261   0.258   2.183   0.702
 1607SOL    HW1 6262   0.170   2.217   0.681
 1607SOL    HW2 6263   0.258   2.176   0.797
 1608SOL     OW 6264   1.202   3.444   0.071
 1608SOL    HW1 6265   1.191   3.351   0.092
 1608SOL    HW2 6266   1.129   3.465   0.014
 1609SOL     OW 6267   0.857   2.872   1.334
 1609SOL    HW1 6268   0.855   2.899   1.243
 1609SOL    HW2 6269   0.842   2.953   1.383
 1610SOL     OW 6270   0.922   2.781   0.293
 1610SOL    HW1 6271   0.978   2.808   0.221
 1610SOL    HW2 6272   0.971   2.712   0.338
 1611SOL     OW 6273   0.377   3.167   1.502
 1611SOL    HW1 6274   0.361   3.242   1.445
 1611SOL    HW2 6275   0.303   3.108   1.486
 1612SOL     OW 6276   1.599   3.136   1.285
 1612SOL    HW1 6277   1.672   3.131   1.347
 1612SOL    HW2 6278   1.546   3.209   1.315
 1613SOL     OW 6279   1.057   2.960   0.695
 1613SOL    HW1 6280   0.987   2.911   0.738
 1613SOL    HW2 6281   1.124   2.894   0.676
 1614SOL     OW 6282   1.027   2.101   0.970
 1614SOL    HW1 6283   1.023   2.059   0.884
 1614SOL    HW2 6284   1.020   2.030   1.033
 1615SOL     OW 6285   0.584   3.328   0.469
 1615SOL    HW1 6286   0.647   3.299   0.403
 1615SOL    HW2 6287   0.544   3.406   0.431
 1616SOL     OW 6288   1.734   2.230   1.382
 1616SOL    HW1 6289   1.795   2.303   1.395
 1616SOL    HW2 6290   1.756   2.197   1.294
 1617SOL     OW 6291   0.262   3.180   0.296
 1617SOL    HW1 6292   0.202   3.230   0.240
 1617SOL    HW2 6293   0.273   3.235   0.373
 1618SOL     OW 6294   0.099   2.851   1.701
 1618SOL    HW1 6295   0.017   2.863   1.748
 1618SOL    HW2 6296   0.167   2.863   1.768
 1619SOL     OW 6297   0.686   2.066   1.497
 1619SOL    HW1 6298   0.768   2.032   1.461
 1619SOL    HW2 6299   0.707   2.088   1.587
 1620SOL     OW 6300   0.130   2.251   0.017
 1620SOL    HW1 6301   0.053   2.249   0.073
 1620SOL    HW2 6302   0.097   2.277  -0.069
 1621SOL     OW 6303   1.424   2.721   1.392
 1621SOL    HW1 6304   1.378   2.785   1.337
 1621SOL    HW2 6305   1.515   2.725   1.362
 1622SOL     OW 6306   0.075   2.088   0.350
 1622SOL    HW1 6307   0.037   2.143   0.282
 1622SOL    HW2 6308   0.151   2.048   0.309
 1623SOL     OW 6309   1.178   3.176   0.122
 1623SOL    HW1 6310   1.082   3.175   0.114
 1623SOL    HW2 6311   1.193   3.176   0.217
 1624SOL     OW 6312   0.610   2.733   1.445
 1624SOL    HW1 6313   0.585   2.821   1.472
 1624SOL    HW2 6314   0.700   2.742   1.416
 1625SOL     OW 6315   1.497   3.680   1.021
 1625SOL    HW1 6316   1.514   3.714   0.933
 1625SOL    HW2 6317   1.579   3.639   1.048
 1626SOL     OW 6318   0.759   2.418   1.670
 1626SOL    HW1 6319   0.785   2.485   1.734
 1626SOL    HW2 6320   0.750   2.338   1.721
 1627SOL     OW 6321   1.475   3.054   1.630
 1627SOL    HW1 6322   1.465   3.068   1.724
 1627SOL    HW2 6323   1.567   3.075   1.613
 1628SOL     OW 6324   0.387   3.594   1.564
 1628SOL    HW1 6325   0.296   3.617   1.545
 1628SOL    HW2 6326   0.380   3.512   1.613
 1629SOL     OW 6327   1.661   2.744   1.249
 1629SOL    HW1 6328   1.666   2.665   1.196
 1629SOL    HW2 6329   1.653   2.816   1.186
 1630SOL     OW 6330   1.221   2.176   0.455
 1630SOL    HW1 6331   1.281   2.102   0.450
 1630SOL    HW2 6332   1.247   2.223   0.534
 1631SOL     OW 6333   0.587   2.595   0.680
 1631SOL    HW1 6334   0.628   2.680   0.667
 1631SOL    HW2 6335   0.526   2.585   0.607
 1632SOL     OW 6336   1.755   2.225   1.670
 1632SOL    HW1 6337   1.758   2.229   1.574
 1632SOL    HW2 6338   1.686   2.162   1.690
 1633SOL     OW 6339   1.735   2.796   1.511
 1633SOL    HW1 6340   1.745   2.890   1.529
 1633SOL    HW2 6341   1.724   2.791   1.416
 1634SOL     OW 6342   0.907   3.223   0.060
 1634SOL    HW1 6343   0.855   3.211   0.139
 1634SOL    HW2 6344   0.900   3.316   0.040
 1635SOL     OW 6345   0.666   3.644   0.943
 1635SOL    HW1 6346   0.647   3.735   0.921
 1635SOL    HW2 6347   0.761   3.635   0.932
 1636SOL     OW 6348   0.870   2.830   0.853
 1636SOL    HW1 6349   0.921   2.759   0.891
 1636SOL    HW2 6350   0.836   2.879   0.928
 1637SOL     OW 6351   1.082   2.853   0.078
 1637SOL    HW1 6352   1.116   2.932   0.037
 1637SOL    HW2 6353   1.156   2.792   0.079
 1638SOL     OW 6354   1.845   3.407   0.839
 1638SOL    HW1 6355   1.760   3.403   0.797
 1638SOL    HW2 6356   1.834   3.357   0.920
 1639SOL     OW 6357   0.184   3.124   1.874
 1639SOL    HW1 6358   0.132   3.116   1.794
 1639SOL    HW2 6359   0.119   3.136   1.943
 1640SOL     OW 6360   0.124   3.076   0.668
 1640SOL    HW1 6361   0.042   3.042   0.703
 1640SOL    HW2 6362   0.192   3.038   0.724
 1641SOL     OW 6363   0.677   3.268   1.624
 1641SOL    HW1 6364   0.588   3.242   1.647
 1641SOL    HW2 6365   0.687   3.356   1.662
 1642SOL     OW 6366   1.842   1.938   1.228
 1642SOL    HW1 6367   1.891   1.997   1.287
 1642SOL    HW2 6368   1.838   1.985   1.145
 1643SOL     OW 6369   0.440   2.295   0.527
 1643SOL    HW1 6370   0.466   2.226   0.467
 1643SOL    HW2 6371   0.382   2.252   0.590
 1644SOL     OW 6372   1.713   3.344   1.091
 1644SOL    HW1 6373   1.628   3.321   1.052
 1644SOL    HW2 6374   1.729   3.275   1.156
 1645SOL     OW 6375   0.351   2.410   1.303
 1645SOL    HW1 6376   0.393   2.340   1.354
 1645SOL    HW2 6377   0.366   2.384   1.212
 1646SOL     OW 6378   0.800   3.460   0.697
 1646SOL    HW1 6379   0.819   3.498   0.611
 1646SOL    HW2 6380   0.737   3.390   0.680
 1647SOL     OW 6381   1.433   2.091   1.135
 1647SOL    HW1 6382   1.478   2.036   1.200
 1647SOL    HW2 6383   1.374   2.145   1.188
 1648SOL     OW 6384   1.007   1.875   1.135
 1648SOL    HW1 6385   0.951   1.812   1.089
 1648SOL    HW2 6386   1.093   1.835   1.136
 1649SOL     OW 6387   0.796   3.187   0.313
 1649SOL    HW1 6388   0.764   3.101   0.338
 1649SOL    HW2 6389   0.864   3.208   0.376
 1650SOL     OW 6390   0.618   3.413   1.292
 1650SOL    HW1 6391   0.618   3.499   1.336
 1650SOL    HW2 6392   0.706   3.407   1.254
 1651SOL     OW 6393   1.368   1.897   0.174
 1651SOL    HW1 6394   1.368   1.866   0.083
 1651SOL    HW2 6395   1.275   1.898   0.198
 1652SOL     OW 6396   1.296   2.320   0.678
 1652SOL    HW1 6397   1.245   2.402   0.680
 1652SOL    HW2 6398   1.291   2.287   0.767
 1653SOL     OW 6399   1.584   2.063   0.888
 1653SOL    HW1 6400   1.525   2.087   0.959
 1653SOL    HW2 6401   1.583   2.138   0.829
 1654SOL     OW 6402   0.848   3.502   0.393
 1654SOL    HW1 6403   0.786   3.499   0.321
 1654SOL    HW2 6404   0.846   3.592   0.424
 1655SOL     OW 6405   0.248   2.580   1.940
 1655SOL    HW1 6406   0.181   2.568   2.007
 1655SOL    HW2 6407   0.229   2.512   1.875
 1656SOL     OW 6408   0.237   2.128   2.842
 1656SOL    HW1 6409   0.268   2.104   2.930
 1656SOL    HW2 6410   0.146   2.101   2.840
 1657SOL     OW 6411   8.007   2.269   2.484
 1657SOL    HW1 6412   7.978   2.311   2.565
 1657SOL    HW2 6413   7.937   2.207   2.462
 1658SOL     OW 6414   0.566   3.160   3.046
 1658SOL    HW1 6415   0.478   3.173   3.010
 1658SOL    HW2 6416   0.591   3.247   3.078
 1659SOL     OW 6417   1.571   3.371   2.576
 1659SOL    HW1 6418   1.532   3.354   2.661
 1659SOL    HW2 6419   1.497   3.378   2.516
 1660SOL     OW 6420   1.128   2.565   2.552
 1660SOL    HW1 6421   1.181   2.643   2.540
 1660SOL    HW2 6422   1.086   2.577   2.637
 1661SOL     OW 6423   1.754   2.469   2.093
 1661SOL    HW1 6424   1.736   2.464   1.999
 1661SOL    HW2 6425   1.753   2.378   2.123
 1662SOL     OW 6426   0.734   2.994   2.904
 1662SOL    HW1 6427   0.670   3.034   2.964
 1662SOL    HW2 6428   0.782   3.069   2.868
 1663SOL     OW 6429   0.867   2.634   3.687
 1663SOL    HW1 6430   0.864   2.696   3.760
 1663SOL    HW2 6431   0.895   2.686   3.612
 1664SOL     OW 6432   0.686   2.860   2.505
 1664SOL    HW1 6433   0.754   2.856   2.572
 1664SOL    HW2 6434   0.617   2.913   2.545
 1665SOL     OW 6435   0.717   3.008   3.672
 1665SOL    HW1 6436   0.759   3.086   3.709
 1665SOL    HW2 6437   0.632   3.039   3.640
 1666SOL     OW 6438   0.335   3.290   2.944
 1666SOL    HW1 6439   0.255   3.265   2.897
 1666SOL    HW2 6440   0.383   3.344   2.881
 1667SOL     OW 6441   1.462   3.370   3.221
 1667SOL    HW1 6442   1.519   3.447   3.231
 1667SOL    HW2 6443   1.396   3.380   3.289
 1668SOL     OW 6444   0.458   2.222   3.306
 1668SOL    HW1 6445   0.536   2.178   3.337
 1668SOL    HW2 6446   0.387   2.190   3.362
 1669SOL     OW 6447   1.610   2.299   2.605
 1669SOL    HW1 6448   1.555   2.343   2.540
 1669SOL    HW2 6449   1.625   2.366   2.672
 1670SOL     OW 6450   0.247   3.547   2.344
 1670SOL    HW1 6451   0.230   3.630   2.389
 1670SOL    HW2 6452   0.316   3.567   2.281
 1671SOL     OW 6453   1.135   3.211   3.559
 1671SOL    HW1 6454   1.180   3.205   3.643
 1671SOL    HW2 6455   1.084   3.131   3.552
 1672SOL     OW 6456   0.252   3.285   2.416
 1672SOL    HW1 6457   0.261   3.380   2.406
 1672SOL    HW2 6458   0.161   3.273   2.443
 1673SOL     OW 6459   0.244   2.956   2.749
 1673SOL    HW1 6460   0.261   2.871   2.788
 1673SOL    HW2 6461   0.185   3.000   2.811
 1674SOL     OW 6462   0.608   3.650   3.285
 1674SOL    HW1 6463   0.569   3.665   3.371
 1674SOL    HW2 6464   0.674   3.719   3.276
 1675SOL     OW 6465   0.580   2.852   2.003
 1675SOL    HW1 6466   0.631   2.896   1.936
 1675SOL    HW2 6467   0.619   2.880   2.086
 1676SOL     OW 6468   1.590   1.993   3.332
 1676SOL    HW1 6469   1.642   2.054   3.279
 1676SOL    HW2 6470   1.585   2.036   3.417
 1677SOL     OW 6471   0.142   2.502   2.407
 1677SOL    HW1 6472   0.104   2.418   2.433
 1677SOL    HW2 6473   0.124   2.560   2.481
 1678SOL     OW 6474   1.842   3.621   2.189
 1678SOL    HW1 6475   1.908   3.590   2.251
 1678SOL    HW2 6476   1.858   3.715   2.182
 1679SOL     OW 6477   8.016   3.485   2.009
 1679SOL    HW1 6478   7.969   3.402   2.002
 1679SOL    HW2 6479   7.950   3.548   2.034
 1680SOL     OW 6480   1.683   2.763   2.501
 1680SOL    HW1 6481   1.775   2.740   2.516
 1680SOL    HW2 6482   1.684   2.814   2.420
 1681SOL     OW 6483   1.656   2.970   2.289
 1681SOL    HW1 6484   1.743   2.967   2.249
 1681SOL    HW2 6485   1.666   3.027   2.365
 1682SOL     OW 6486   0.125   2.653   3.423
 1682SOL    HW1 6487   0.215   2.622   3.428
 1682SOL    HW2 6488   0.122   2.729   3.481
 1683SOL     OW 6489   0.616   3.255   2.598
 1683SOL    HW1 6490   0.571   3.171   2.608
 1683SOL    HW2 6491   0.594   3.283   2.509
 1684SOL     OW 6492   1.286   3.096   3.280
 1684SOL    HW1 6493   1.323   3.031   3.221
 1684SOL    HW2 6494   1.342   3.094   3.357
 1685SOL     OW 6495   0.816   1.861   2.368
 1685SOL    HW1 6496   0.859   1.945   2.350
 1685SOL    HW2 6497   0.723   1.883   2.376
 1686SOL     OW 6498   0.181   2.793   3.117
 1686SOL    HW1 6499   0.275   2.776   3.108
 1686SOL    HW2 6500   0.145   2.714   3.155
 1687SOL     OW 6501   1.527   2.865   2.067
 1687SOL    HW1 6502   1.463   2.805   2.104
 1687SOL    HW2 6503   1.576   2.898   2.143
 1688SOL     OW 6504   1.175   3.675   3.483
 1688SOL    HW1 6505   1.190   3.741   3.416
 1688SOL    HW2 6506   1.211   3.594   3.446
 1689SOL     OW 6507   0.351   2.137   3.644
 1689SOL    HW1 6508   0.390   2.218   3.676
 1689SOL    HW2 6509   0.259   2.142   3.671
 1690SOL     OW 6510   1.460   3.280   2.813
 1690SOL    HW1 6511   1.397   3.295   2.883
 1690SOL    HW2 6512   1.448   3.188   2.789
 1691SOL     OW 6513   1.649   3.615   2.440
 1691SOL    HW1 6514   1.628   3.571   2.357
 1691SOL    HW2 6515   1.639   3.546   2.506
 1692SOL     OW 6516   0.591   2.570   2.126
 1692SOL    HW1 6517   0.601   2.660   2.094
 1692SOL    HW2 6518   0.531   2.578   2.201
 1693SOL     OW 6519   1.287   2.221   2.800
 1693SOL    HW1 6520   1.195   2.194   2.808
 1693SOL    HW2 6521   1.334   2.170   2.866
 1694SOL     OW 6522   1.577   3.535   2.173
 1694SOL    HW1 6523   1.668   3.564   2.170
 1694SOL    HW2 6524   1.553   3.518   2.082
 1695SOL     OW 6525   0.804   2.468   3.313
 1695SOL    HW1 6526   0.778   2.444   3.402
 1695SOL    HW2 6527   0.757   2.406   3.257
 1696SOL     OW 6528   1.387   2.317   3.552
 1696SOL    HW1 6529   1.395   2.368   3.632
 1696SOL    HW2 6530   1.462   2.258   3.553
 1697SOL     OW 6531   0.950   2.753   3.447
 1697SOL    HW1 6532   1.012   2.690   3.410
 1697SOL    HW2 6533   0.907   2.792   3.371
 1698SOL     OW 6534   0.997   2.260   3.099
 1698SOL    HW1 6535   0.920   2.292   3.146
 1698SOL    HW2 6536   0.970   2.256   3.008
 1699SOL     OW 6537   1.050   2.560   2.284
 1699SOL    HW1 6538   1.072   2.560   2.377
 1699SOL    HW2 6539   0.967   2.513   2.279
 1700SOL     OW 6540   0.097   2.644   2.650
 1700SOL    HW1 6541   0.186   2.656   2.683
 1700SOL    HW2 6542   0.043   2.698   2.707
 1701SOL     OW 6543   0.164   3.643   3.434
 1701SOL    HW1 6544   0.168   3.651   3.529
 1701SOL    HW2 6545   0.089   3.697   3.408
 1702SOL     OW 6546   0.895   2.211   2.048
 1702SOL    HW1 6547   0.935   2.278   1.993
 1702SOL    HW2 6548   0.940   2.130   2.024
 1703SOL     OW 6549   1.734   2.448   3.637
 1703SOL    HW1 6550   1.779   2.521   3.680
 1703SOL    HW2 6551   1.660   2.488   3.593
 1704SOL     OW 6552   1.383   2.998   2.390
 1704SOL    HW1 6553   1.470   2.997   2.350
 1704SOL    HW2 6554   1.337   3.069   2.346
 1705SOL     OW 6555   0.556   2.039   2.765
 1705SOL    HW1 6556   0.556   2.062   2.858
 1705SOL    HW2 6557   0.553   2.123   2.720
 1706SOL     OW 6558   0.986   3.303   2.322
 1706SOL    HW1 6559   0.967   3.386   2.280
 1706SOL    HW2 6560   0.969   3.318   2.415
 1707SOL     OW 6561   0.362   3.687   2.722
 1707SOL    HW1 6562   0.412   3.607   2.741
 1707SOL    HW2 6563   0.421   3.758   2.747
 1708SOL     OW 6564   1.792   2.906   2.743
 1708SOL    HW1 6565   1.737   2.921   2.666
 1708SOL    HW2 6566   1.732   2.916   2.817
 1709SOL     OW 6567   1.228   3.405   3.373
 1709SOL    HW1 6568   1.218   3.335   3.438
 1709SOL    HW2 6569   1.144   3.408   3.328
 1710SOL     OW 6570   0.319   2.809   2.113
 1710SOL    HW1 6571   0.405   2.829   2.078
 1710SOL    HW2 6572   0.294   2.727   2.070
 1711SOL     OW 6573   1.479   2.604   2.580
 1711SOL    HW1 6574   1.479   2.574   2.671
 1711SOL    HW2 6575   1.555   2.662   2.574
 1712SOL     OW 6576   0.471   3.119   3.601
 1712SOL    HW1 6577   0.445   3.128   3.510
 1712SOL    HW2 6578   0.389   3.103   3.648
 1713SOL     OW 6579   1.124   3.652   2.078
 1713SOL    HW1 6580   1.054   3.614   2.130
 1713SOL    HW2 6581   1.151   3.581   2.019
 1714SOL     OW 6582   0.188   2.112   3.347
 1714SOL    HW1 6583   0.177   2.202   3.380
 1714SOL    HW2 6584   0.164   2.057   3.422
 1715SOL     OW 6585   1.623   3.246   1.940
 1715SOL    HW1 6586   1.579   3.330   1.933
 1715SOL    HW2 6587   1.555   3.181   1.923
 1716SOL     OW 6588   0.477   3.581   2.178
 1716SOL    HW1 6589   0.513   3.646   2.237
 1716SOL    HW2 6590   0.548   3.560   2.118
 1717SOL     OW 6591   1.427   1.975   2.296
 1717SOL    HW1 6592   1.413   1.978   2.202
 1717SOL    HW2 6593   1.512   2.018   2.309
 1718SOL     OW 6594   0.227   3.650   3.086
 1718SOL    HW1 6595   0.289   3.579   3.101
 1718SOL    HW2 6596   0.191   3.632   2.999
 1719SOL     OW 6597   0.943   3.562   2.764
 1719SOL    HW1 6598   1.024   3.520   2.794
 1719SOL    HW2 6599   0.909   3.504   2.696
 1720SOL     OW 6600   0.412   2.555   2.335
 1720SOL    HW1 6601   0.426   2.462   2.354
 1720SOL    HW2 6602   0.320   2.570   2.357
 1721SOL     OW 6603   1.564   2.098   3.585
 1721SOL    HW1 6604   1.582   2.120   3.676
 1721SOL    HW2 6605   1.498   2.029   3.590
 1722SOL     OW 6606   0.646   1.981   1.962
 1722SOL    HW1 6607   0.712   1.914   1.980
 1722SOL    HW2 6608   0.595   1.946   1.889
 1723SOL     OW 6609   0.797   2.101   3.629
 1723SOL    HW1 6610   0.833   2.126   3.715
 1723SOL    HW2 6611   0.703   2.105   3.641
 1724SOL     OW 6612   0.876   3.380   3.054
 1724SOL    HW1 6613   0.859   3.340   2.969
 1724SOL    HW2 6614   0.946   3.326   3.092
 1725SOL     OW 6615   1.341   2.449   3.301
 1725SOL    HW1 6616   1.374   2.424   3.388
 1725SOL    HW2 6617   1.374   2.537   3.287
 1726SOL     OW 6618   0.823   3.244   2.810
 1726SOL    HW1 6619   0.908   3.235   2.768
 1726SOL    HW2 6620   0.762   3.255   2.737
 1727SOL     OW 6621   0.937   2.367   2.767
 1727SOL    HW1 6622   0.906   2.361   2.677
 1727SOL    HW2 6623   0.968   2.278   2.787
 1728SOL     OW 6624   0.548   1.921   2.352
 1728SOL    HW1 6625   0.474   1.922   2.412
 1728SOL    HW2 6626   0.537   2.000   2.299
 1729SOL     OW 6627   1.423   3.059   1.900
 1729SOL    HW1 6628   1.459   2.989   1.955
 1729SOL    HW2 6629   1.345   3.088   1.948
 1730SOL     OW 6630   0.298   1.913   2.035
 1730SOL    HW1 6631   0.345   1.993   2.058
 1730SOL    HW2 6632   0.346   1.843   2.079
 1731SOL     OW 6633   0.939   2.107   2.315
 1731SOL    HW1 6634   0.912   2.158   2.239
 1731SOL    HW2 6635   1.033   2.125   2.324
 1732SOL     OW 6636   1.084   2.557   3.308
 1732SOL    HW1 6637   1.017   2.493   3.332
 1732SOL    HW2 6638   1.167   2.510   3.319
 1733SOL     OW 6639   1.224   3.428   2.651
 1733SOL    HW1 6640   1.236   3.500   2.589
 1733SOL    HW2 6641   1.285   3.448   2.722
 1734SOL     OW 6642   0.469   3.013   2.591
 1734SOL    HW1 6643   0.403   2.998   2.659
 1734SOL    HW2 6644   0.422   2.999   2.509
 1735SOL     OW 6645   1.259   3.652   2.471
 1735SOL    HW1 6646   1.310   3.719   2.426
 1735SOL    HW2 6647   1.192   3.701   2.519
 1736SOL     OW 6648   1.029   2.396   1.892
 1736SOL    HW1 6649   0.988   2.482   1.883
 1736SOL    HW2 6650   1.092   2.407   1.963
 1737SOL     OW 6651   0.090   2.485   3.207
 1737SOL    HW1 6652   0.180   2.455   3.199
 1737SOL    HW2 6653   0.080   2.507   3.300
 1738SOL     OW 6654   0.555   2.083   3.037
 1738SOL    HW1 6655   0.597   2.032   3.106
 1738SOL    HW2 6656   0.464   2.089   3.063
 1739SOL     OW 6657   0.862   2.315   2.509
 1739SOL    HW1 6658   0.810   2.377   2.456
 1739SOL    HW2 6659   0.881   2.243   2.449
 1740SOL     OW 6660   1.031   1.896   2.604
 1740SOL    HW1 6661   0.958   1.907   2.543
 1740SOL    HW2 6662   1.001   1.829   2.665
 1741SOL     OW 6663   1.442   3.018   2.726
 1741SOL    HW1 6664   1.378   2.947   2.729
 1741SOL    HW2 6665   1.465   3.025   2.633
 1742SOL     OW 6666   1.461   2.474   2.830
 1742SOL    HW1 6667   1.406   2.396   2.837
 1742SOL    HW2 6668   1.522   2.468   2.904
 1743SOL     OW 6669   1.836   2.682   2.239
 1743SOL    HW1 6670   1.892   2.636   2.301
 1743SOL    HW2 6671   1.808   2.615   2.177
 1744SOL     OW 6672   1.685   3.118   2.511
 1744SOL    HW1 6673   1.779   3.117   2.524
 1744SOL    HW2 6674   1.659   3.207   2.534
 1745SOL     OW 6675   1.394   2.442   1.929
 1745SOL    HW1 6676   1.345   2.418   2.008
 1745SOL    HW2 6677   1.486   2.433   1.953
 1746SOL     OW 6678   0.505   2.112   2.159
 1746SOL    HW1 6679   0.567   2.073   2.097
 1746SOL    HW2 6680   0.491   2.201   2.127
 1747SOL     OW 6681   1.748   3.101   3.420
 1747SOL    HW1 6682   1.836   3.068   3.399
 1747SOL    HW2 6683   1.762   3.190   3.451
 1748SOL     OW 6684   1.058   3.203   3.179
 1748SOL    HW1 6685   0.982   3.181   3.232
 1748SOL    HW2 6686   1.133   3.170   3.229
 1749SOL     OW 6687   1.590   3.480   3.511
 1749SOL    HW1 6688   1.589   3.525   3.427
 1749SOL    HW2 6689   1.673   3.432   3.511
 1750SOL     OW 6690   1.110   3.048   2.956
 1750SOL    HW1 6691   1.080   3.103   3.028
 1750SOL    HW2 6692   1.099   3.102   2.878
 1751SOL     OW 6693   1.617   2.958   2.944
 1751SOL    HW1 6694   1.612   3.021   3.016
 1751SOL    HW2 6695   1.545   2.981   2.886
 1752SOL     OW 6696   0.929   1.958   3.261
 1752SOL    HW1 6697   0.929   1.967   3.166
 1752SOL    HW2 6698   1.006   2.006   3.290
 1753SOL     OW 6699   0.984   2.984   3.584
 1753SOL    HW1 6700   0.894   2.998   3.613
 1753SOL    HW2 6701   0.981   2.903   3.533
 1754SOL     OW 6702   0.712   2.928   2.233
 1754SOL    HW1 6703   0.696   2.911   2.326
 1754SOL    HW2 6704   0.784   2.870   2.210
 1755SOL     OW 6705   0.432   2.677   3.116
 1755SOL    HW1 6706   0.496   2.692   3.186
 1755SOL    HW2 6707   0.396   2.591   3.135
 1756SOL     OW 6708   1.268   2.239   3.139
 1756SOL    HW1 6709   1.300   2.315   3.187
 1756SOL    HW2 6710   1.176   2.259   3.120
 1757SOL     OW 6711   0.037   3.453   3.191
 1757SOL    HW1 6712   0.076   3.539   3.176
 1757SOL    HW2 6713   0.066   3.428   3.278
 1758SOL     OW 6714   0.333   2.972   2.353
 1758SOL    HW1 6715   0.337   3.052   2.301
 1758SOL    HW2 6716   0.331   2.902   2.289
 1759SOL     OW 6717   0.555   2.380   2.709
 1759SOL    HW1 6718   0.572   2.442   2.638
 1759SOL    HW2 6719   0.613   2.409   2.779
 1760SOL     OW 6720   1.245   3.217   2.252
 1760SOL    HW1 6721   1.300   3.287   2.287
 1760SOL    HW2 6722   1.159   3.233   2.289
 1761SOL     OW 6723   1.287   3.321   3.022
 1761SOL    HW1 6724   1.353   3.335   3.090
 1761SOL    HW2 6725   1.217   3.271   3.066
 1762SOL     OW 6726   1.572   2.473   2.349
 1762SOL    HW1 6727   1.531   2.529   2.415
 1762SOL    HW2 6728   1.631   2.531   2.301
 1763SOL     OW 6729   0.358   3.404   3.191
 1763SOL    HW1 6730   0.324   3.360   3.113
 1763SOL    HW2 6731   0.452   3.408   3.177
 1764SOL     OW 6732   0.392   2.573   3.429
 1764SOL    HW1 6733   0.471   2.623   3.411
 1764SOL    HW2 6734   0.395   2.554   3.522
 1765SOL     OW 6735   1.568   2.596   3.490
 1765SOL    HW1 6736   1.496   2.648   3.526
 1765SOL    HW2 6737   1.627   2.660   3.450
 1766SOL     OW 6738   0.500   1.909   3.603
 1766SOL    HW1 6739   0.447   1.855   3.543
 1766SOL    HW2 6740   0.443   1.983   3.625
 1767SOL     OW 6741   0.588   2.740   2.898
 1767SOL    HW1 6742   0.629   2.827   2.904
 1767SOL    HW2 6743   0.537   2.732   2.979
 1768SOL     OW 6744   1.340   2.727   2.861
 1768SOL    HW1 6745   1.249   2.702   2.846
 1768SOL    HW2 6746   1.387   2.644   2.862
 1769SOL     OW 6747   1.190   2.385   2.121
 1769SOL    HW1 6748   1.205   2.311   2.180
 1769SOL    HW2 6749   1.155   2.454   2.177
 1770SOL     OW 6750   0.290   2.057   3.100
 1770SOL    HW1 6751   0.262   2.084   3.187
 1770SOL    HW2 6752   0.284   1.961   3.102
 1771SOL     OW 6753   0.088   3.173   3.134
 1771SOL    HW1 6754   0.100   3.114   3.209
 1771SOL    HW2 6755   0.057   3.254   3.172
 1772SOL     OW 6756   0.707   2.488   2.907
 1772SOL    HW1 6757   0.795   2.488   2.868
 1772SOL    HW2 6758   0.679   2.579   2.902
 1773SOL     OW 6759   1.764   2.773   3.697
 1773SOL    HW1 6760   1.709   2.794   3.622
 1773SOL    HW2 6761   1.705   2.770   3.771
 1774SOL     OW 6762   0.301   1.926   2.476
 1774SOL    HW1 6763   0.279   2.017   2.496
 1774SOL    HW2 6764   0.311   1.884   2.562
 1775SOL     OW 6765   1.584   2.232   2.226
 1775SOL    HW1 6766   1.639   2.181   2.285
 1775SOL    HW2 6767   1.574   2.316   2.269
 1776SOL     OW 6768   1.033   2.618   2.815
 1776SOL    HW1 6769   1.020   2.637   2.908
 1776SOL    HW2 6770   1.006   2.526   2.806
 1777SOL     OW 6771   0.970   3.431   3.584
 1777SOL    HW1 6772   0.963   3.473   3.498
 1777SOL    HW2 6773   1.016   3.349   3.568
 1778SOL     OW 6774   1.839   3.363   3.462
 1778SOL    HW1 6775   1.872   3.391   3.377
 1778SOL    HW2 6776   1.898   3.402   3.526
 1779SOL     OW 6777   0.358   2.786   3.673
 1779SOL    HW1 6778   0.441   2.803   3.719
 1779SOL    HW2 6779   0.340   2.694   3.692
 1780SOL     OW 6780   1.521   2.132   1.980
 1780SOL    HW1 6781   1.457   2.068   2.011
 1780SOL    HW2 6782   1.552   2.175   2.060
 1781SOL     OW 6783   1.271   2.682   1.876
 1781SOL    HW1 6784   1.322   2.603   1.891
 1781SOL    HW2 6785   1.313   2.725   1.802
 1782SOL     OW 6786   1.072   3.201   2.715
 1782SOL    HW1 6787   1.082   3.131   2.651
 1782SOL    HW2 6788   1.131   3.270   2.684
 1783SOL     OW 6789   0.329   2.676   2.797
 1783SOL    HW1 6790   0.420   2.700   2.809
 1783SOL    HW2 6791   0.319   2.594   2.846
 1784SOL     OW 6792   0.335   2.381   2.866
 1784SOL    HW1 6793   0.302   2.292   2.852
 1784SOL    HW2 6794   0.411   2.388   2.808
 1785SOL     OW 6795   1.134   2.222   3.576
 1785SOL    HW1 6796   1.087   2.290   3.624
 1785SOL    HW2 6797   1.223   2.256   3.567
 1786SOL     OW 6798   1.162   2.078   3.337
 1786SOL    HW1 6799   1.156   2.141   3.409
 1786SOL    HW2 6800   1.207   2.126   3.267
 1787SOL     OW 6801   8.001   3.176   2.074
 1787SOL    HW1 6802   7.909   3.193   2.093
 1787SOL    HW2 6803   8.015   3.085   2.103
 1788SOL     OW 6804   0.108   3.611   2.808
 1788SOL    HW1 6805   0.109   3.549   2.735
 1788SOL    HW2 6806   0.181   3.671   2.790
 1789SOL     OW 6807   0.493   3.437   2.773
 1789SOL    HW1 6808   0.561   3.502   2.791
 1789SOL    HW2 6809   0.535   3.374   2.715
 1790SOL     OW 6810   0.969   2.642   3.076
 1790SOL    HW1 6811   1.031   2.622   3.146
 1790SOL    HW2 6812   0.884   2.646   3.119
 1791SOL     OW 6813   0.071   2.391   2.960
 1791SOL    HW1 6814   0.166   2.397   2.947
 1791SOL    HW2 6815   0.057   2.423   3.049
 1792SOL     OW 6816   0.179   2.356   3.457
 1792SOL    HW1 6817   0.267   2.392   3.459
 1792SOL    HW2 6818   0.138   2.385   3.538
 1793SOL     OW 6819   1.371   2.796   3.499
 1793SOL    HW1 6820   1.401   2.887   3.505
 1793SOL    HW2 6821   1.381   2.774   3.406
 1794SOL     OW 6822   0.815   2.425   2.224
 1794SOL    HW1 6823   0.815   2.354   2.160
 1794SOL    HW2 6824   0.740   2.479   2.200
 1795SOL     OW 6825   1.640   2.454   3.032
 1795SOL    HW1 6826   1.638   2.437   3.126
 1795SOL    HW2 6827   1.729   2.433   3.006
 1796SOL     OW 6828   0.289   3.388   3.629
 1796SOL    HW1 6829   0.265   3.458   3.690
 1796SOL    HW2 6830   0.282   3.307   3.680
 1797SOL     OW 6831   0.714   2.306   3.111
 1797SOL    HW1 6832   0.648   2.240   3.092
 1797SOL    HW2 6833   0.703   2.373   3.043
 1798SOL     OW 6834   0.937   3.531   3.322
 1798SOL    HW1 6835   0.904   3.501   3.237
 1798SOL    HW2 6836   0.935   3.626   3.317
 1799SOL     OW 6837   0.458   2.346   2.022
 1799SOL    HW1 6838   0.511   2.422   2.047
 1799SOL    HW2 6839   0.374   2.360   2.064
 1800SOL     OW 6840   0.159   2.988   3.322
 1800SOL    HW1 6841   0.138   2.946   3.405
 1800SOL    HW2 6842   0.163   2.917   3.259
 1801SOL     OW 6843   1.316   2.904   3.070
 1801SOL    HW1 6844   1.341   2.847   2.998
 1801SOL    HW2 6845   1.243   2.956   3.037
 1802SOL     OW 6846   1.319   2.710   2.159
 1802SOL    HW1 6847   1.249   2.693   2.223
 1802SOL    HW2 6848   1.276   2.700   2.074
 1803SOL     OW 6849   1.739   3.591   2.982
 1803SOL    HW1 6850   1.817   3.623   2.938
 1803SOL    HW2 6851   1.741   3.497   2.970
 1804SOL     OW 6852   1.236   3.584   2.940
 1804SOL    HW1 6853   1.323   3.616   2.914
 1804SOL    HW2 6854   1.253   3.498   2.978
 1805SOL     OW 6855   0.050   3.105   2.881
 1805SOL    HW1 6856   0.075   3.120   2.972
 1805SOL    HW2 6857  -0.039   3.140   2.874
 1806SOL     OW 6858   0.665   3.534   3.589
 1806SOL    HW1 6859   0.614   3.615   3.591
 1806SOL    HW2 6860   0.754   3.562   3.567
 1807SOL     OW 6861   1.708   2.020   2.353
 1807SOL    HW1 6862   1.784   2.018   2.295
 1807SOL    HW2 6863   1.728   1.955   2.421
 1808SOL     OW 6864   1.385   3.432   2.348
 1808SOL    HW1 6865   1.447   3.470   2.286
 1808SOL    HW2 6866   1.340   3.508   2.386
 1809SOL     OW 6867   0.185   3.630   3.705
 1809SOL    HW1 6868   0.113   3.587   3.750
 1809SOL    HW2 6869   0.228   3.684   3.772
 1810SOL     OW 6870   1.278   2.787   2.521
 1810SOL    HW1 6871   1.353   2.731   2.540
 1810SOL    HW2 6872   1.315   2.860   2.471
 1811SOL     OW 6873   0.807   3.139   3.285
 1811SOL    HW1 6874   0.783   3.181   3.368
 1811SOL    HW2 6875   0.733   3.157   3.227
 1812SOL     OW 6876   0.670   3.467   2.006
 1812SOL    HW1 6877   0.674   3.495   1.914
 1812SOL    HW2 6878   0.704   3.378   2.005
 1813SOL     OW 6879   1.628   3.593   3.242
 1813SOL    HW1 6880   1.665   3.595   3.154
 1813SOL    HW2 6881   1.668   3.668   3.286
 1814SOL     OW 6882   1.829   2.031   2.837
 1814SOL    HW1 6883   1.870   1.950   2.808
 1814SOL    HW2 6884   1.747   2.036   2.787
 1815SOL     OW 6885   0.261   2.178   2.568
 1815SOL    HW1 6886   0.175   2.212   2.545
 1815SOL    HW2 6887   0.258   2.166   2.663
 1816SOL     OW 6888   1.210   3.459   1.896
 1816SOL    HW1 6889   1.196   3.369   1.924
 1816SOL    HW2 6890   1.142   3.474   1.830
 1817SOL     OW 6891   0.836   2.873   3.228
 1817SOL    HW1 6892   0.883   2.881   3.145
 1817SOL    HW2 6893   0.825   2.963   3.258
 1818SOL     OW 6894   0.904   2.758   2.139
 1818SOL    HW1 6895   0.968   2.798   2.081
 1818SOL    HW2 6896   0.956   2.701   2.196
 1819SOL     OW 6897   1.487   3.495   1.907
 1819SOL    HW1 6898   1.393   3.484   1.893
 1819SOL    HW2 6899   1.524   3.500   1.818
 1820SOL     OW 6900   0.365   3.165   3.355
 1820SOL    HW1 6901   0.358   3.218   3.276
 1820SOL    HW2 6902   0.297   3.099   3.347
 1821SOL     OW 6903   1.599   3.143   3.144
 1821SOL    HW1 6904   1.667   3.132   3.211
 1821SOL    HW2 6905   1.545   3.214   3.177
 1822SOL     OW 6906   1.064   2.971   2.563
 1822SOL    HW1 6907   0.995   2.924   2.609
 1822SOL    HW2 6908   1.132   2.905   2.547
 1823SOL     OW 6909   1.029   2.106   2.814
 1823SOL    HW1 6910   1.032   2.052   2.734
 1823SOL    HW2 6911   1.008   2.044   2.884
 1824SOL     OW 6912   0.595   3.353   2.343
 1824SOL    HW1 6913   0.646   3.311   2.273
 1824SOL    HW2 6914   0.538   3.415   2.297
 1825SOL     OW 6915   1.757   2.250   3.294
 1825SOL    HW1 6916   1.814   2.324   3.270
 1825SOL    HW2 6917   1.771   2.186   3.223
 1826SOL     OW 6918   0.273   3.223   2.154
 1826SOL    HW1 6919   0.179   3.207   2.140
 1826SOL    HW2 6920   0.279   3.251   2.245
 1827SOL     OW 6921   0.115   2.873   3.569
 1827SOL    HW1 6922   0.064   2.943   3.611
 1827SOL    HW2 6923   0.193   2.864   3.623
 1828SOL     OW 6924   0.686   2.045   3.358
 1828SOL    HW1 6925   0.772   2.030   3.320
 1828SOL    HW2 6926   0.704   2.067   3.450
 1829SOL     OW 6927   0.084   2.213   1.834
 1829SOL    HW1 6928   0.018   2.194   1.901
 1829SOL    HW2 6929   0.113   2.302   1.854
 1830SOL     OW 6930   1.418   2.715   3.241
 1830SOL    HW1 6931   1.373   2.781   3.189
 1830SOL    HW2 6932   1.510   2.724   3.216
 1831SOL     OW 6933   0.118   2.105   2.213
 1831SOL    HW1 6934   0.042   2.109   2.154
 1831SOL    HW2 6935   0.154   2.017   2.199
 1832SOL     OW 6936   1.181   3.192   1.988
 1832SOL    HW1 6937   1.104   3.136   2.000
 1832SOL    HW2 6938   1.214   3.207   2.076
 1833SOL     OW 6939   0.635   2.691   3.295
 1833SOL    HW1 6940   0.692   2.767   3.284
 1833SOL    HW2 6941   0.695   2.618   3.312
 1834SOL     OW 6942   1.493   3.646   2.846
 1834SOL    HW1 6943   1.515   3.722   2.793
 1834SOL    HW2 6944   1.573   3.627   2.895
 1835SOL     OW 6945   0.746   2.416   3.570
 1835SOL    HW1 6946   0.761   2.501   3.610
 1835SOL    HW2 6947   0.778   2.353   3.635
 1836SOL     OW 6948   1.472   3.056   3.489
 1836SOL    HW1 6949   1.459   3.069   3.584
 1836SOL    HW2 6950   1.564   3.078   3.474
 1837SOL     OW 6951   1.665   2.743   3.115
 1837SOL    HW1 6952   1.670   2.665   3.060
 1837SOL    HW2 6953   1.657   2.815   3.053
 1838SOL     OW 6954   1.212   2.177   2.316
 1838SOL    HW1 6955   1.289   2.120   2.310
 1838SOL    HW2 6956   1.227   2.230   2.394
 1839SOL     OW 6957   0.609   2.587   2.528
 1839SOL    HW1 6958   0.642   2.677   2.528
 1839SOL    HW2 6959   0.538   2.587   2.463
 1840SOL     OW 6960   1.715   2.802   3.385
 1840SOL    HW1 6961   1.729   2.896   3.397
 1840SOL    HW2 6962   1.719   2.789   3.290
 1841SOL     OW 6963   0.834   3.243   1.895
 1841SOL    HW1 6964   0.862   3.252   1.986
 1841SOL    HW2 6965   0.882   3.311   1.848
 1842SOL     OW 6966   0.664   3.648   2.782
 1842SOL    HW1 6967   0.644   3.741   2.774
 1842SOL    HW2 6968   0.758   3.644   2.795
 1843SOL     OW 6969   0.873   2.835   2.712
 1843SOL    HW1 6970   0.924   2.765   2.752
 1843SOL    HW2 6971   0.831   2.880   2.786
 1844SOL     OW 6972   1.069   2.848   1.946
 1844SOL    HW1 6973   1.052   2.902   1.869
 1844SOL    HW2 6974   1.144   2.794   1.921
 1845SOL     OW 6975   1.850   3.404   2.697
 1845SOL    HW1 6976   1.762   3.401   2.660
 1845SOL    HW2 6977   1.844   3.354   2.779
 1846SOL     OW 6978   0.217   3.135   3.706
 1846SOL    HW1 6979   0.138   3.124   3.652
 1846SOL    HW2 6980   0.184   3.143   3.796
 1847SOL     OW 6981   0.080   3.048   2.541
 1847SOL    HW1 6982   0.130   3.022   2.619
 1847SOL    HW2 6983   0.144   3.044   2.469
 1848SOL     OW 6984   0.671   3.277   3.479
 1848SOL    HW1 6985   0.607   3.229   3.532
 1848SOL    HW2 6986   0.676   3.363   3.520
 1849SOL     OW 6987   1.783   2.048   3.109
 1849SOL    HW1 6988   1.860   2.000   3.138
 1849SOL    HW2 6989   1.794   2.056   3.014
 1850SOL     OW 6990   0.439   2.293   2.388
 1850SOL    HW1 6991   0.451   2.216   2.331
 1850SOL    HW2 6992   0.388   2.260   2.462
 1851SOL     OW 6993   1.711   3.325   2.936
 1851SOL    HW1 6994   1.622   3.309   2.905
 1851SOL    HW2 6995   1.721   3.266   3.011
 1852SOL     OW 6996   0.345   2.417   3.146
 1852SOL    HW1 6997   0.389   2.358   3.207
 1852SOL    HW2 6998   0.367   2.383   3.060
 1853SOL     OW 6999   0.836   3.437   2.536
 1853SOL    HW1 7000   0.807   3.516   2.491
 1853SOL    HW2 7001   0.757   3.384   2.545
 1854SOL     OW 7002   1.434   2.082   2.988
 1854SOL    HW1 7003   1.510   2.057   3.041
 1854SOL    HW2 7004   1.378   2.131   3.049
 1855SOL     OW 7005   0.987   1.892   2.990
 1855SOL    HW1 7006   0.947   1.811   2.958
 1855SOL    HW2 7007   1.067   1.863   3.034
 1856SOL     OW 7008   0.771   3.203   2.176
 1856SOL    HW1 7009   0.749   3.112   2.195
 1856SOL    HW2 7010   0.845   3.223   2.233
 1857SOL     OW 7011   0.623   3.418   3.143
 1857SOL    HW1 7012   0.622   3.499   3.193
 1857SOL    HW2 7013   0.713   3.409   3.111
 1858SOL     OW 7014   1.354   1.918   2.035
 1858SOL    HW1 7015   1.393   1.851   1.980
 1858SOL    HW2 7016   1.270   1.882   2.062
 1859SOL     OW 7017   1.267   2.316   2.538
 1859SOL    HW1 7018   1.229   2.403   2.546
 1859SOL    HW2 7019   1.284   2.288   2.629
 1860SOL     OW 7020   1.568   2.050   2.733
 1860SOL    HW1 7021   1.518   2.079   2.809
 1860SOL    HW2 7022   1.578   2.129   2.679
 1861SOL     OW 7023   0.071   2.929   2.149
 1861SOL    HW1 7024   0.156   2.886   2.138
 1861SOL    HW2 7025   0.021   2.871   2.206
 1862SOL     OW 7026   0.891   3.528   2.192
 1862SOL    HW1 7027   0.812   3.522   2.138
 1862SOL    HW2 7028   0.870   3.595   2.258
 1863SOL     OW 7029   0.235   2.127   4.699
 1863SOL    HW1 7030   0.263   2.103   4.788
 1863SOL    HW2 7031   0.168   2.062   4.677
 1864SOL     OW 7032   7.994   2.208   4.368
 1864SOL    HW1 7033   7.904   2.237   4.386
 1864SOL    HW2 7034   7.984   2.140   4.302
 1865SOL     OW 7035   0.566   3.154   4.895
 1865SOL    HW1 7036   0.487   3.162   4.841
 1865SOL    HW2 7037   0.612   3.237   4.883
 1866SOL     OW 7038   1.569   3.373   4.433
 1866SOL    HW1 7039   1.526   3.362   4.518
 1866SOL    HW2 7040   1.496   3.381   4.371
 1867SOL     OW 7041   1.142   2.553   4.425
 1867SOL    HW1 7042   1.186   2.634   4.400
 1867SOL    HW2 7043   1.096   2.575   4.506
 1868SOL     OW 7044   1.780   2.432   3.938
 1868SOL    HW1 7045   1.718   2.452   3.868
 1868SOL    HW2 7046   1.729   2.382   4.002
 1869SOL     OW 7047   0.744   2.987   4.773
 1869SOL    HW1 7048   0.679   3.024   4.832
 1869SOL    HW2 7049   0.782   3.062   4.728
 1870SOL     OW 7050   0.878   2.623   5.545
 1870SOL    HW1 7051   0.861   2.695   5.605
 1870SOL    HW2 7052   0.900   2.665   5.462
 1871SOL     OW 7053   0.687   2.852   4.368
 1871SOL    HW1 7054   0.754   2.853   4.436
 1871SOL    HW2 7055   0.618   2.910   4.401
 1872SOL     OW 7056   0.704   3.033   5.546
 1872SOL    HW1 7057   0.731   3.121   5.572
 1872SOL    HW2 7058   0.624   3.046   5.496
 1873SOL     OW 7059   0.340   3.296   4.804
 1873SOL    HW1 7060   0.269   3.257   4.754
 1873SOL    HW2 7061   0.388   3.349   4.741
 1874SOL     OW 7062   1.464   3.366   5.091
 1874SOL    HW1 7063   1.521   3.443   5.092
 1874SOL    HW2 7064   1.401   3.381   5.161
 1875SOL     OW 7065   0.441   2.194   5.313
 1875SOL    HW1 7066   0.518   2.148   5.279
 1875SOL    HW2 7067   0.414   2.252   5.241
 1876SOL     OW 7068   1.613   2.333   4.461
 1876SOL    HW1 7069   1.545   2.349   4.396
 1876SOL    HW2 7070   1.657   2.418   4.470
 1877SOL     OW 7071   0.217   3.551   4.182
 1877SOL    HW1 7072   0.206   3.635   4.227
 1877SOL    HW2 7073   0.295   3.563   4.128
 1878SOL     OW 7074   1.140   3.200   5.422
 1878SOL    HW1 7075   1.203   3.182   5.492
 1878SOL    HW2 7076   1.087   3.121   5.416
 1879SOL     OW 7077   0.300   3.312   4.283
 1879SOL    HW1 7078   0.255   3.395   4.266
 1879SOL    HW2 7079   0.236   3.259   4.331
 1880SOL     OW 7080   0.290   2.951   4.641
 1880SOL    HW1 7081   0.283   2.857   4.655
 1880SOL    HW2 7082   0.206   2.986   4.671
 1881SOL     OW 7083   0.601   3.658   5.135
 1881SOL    HW1 7084   0.523   3.638   5.186
 1881SOL    HW2 7085   0.627   3.745   5.165
 1882SOL     OW 7086   0.587   2.846   3.860
 1882SOL    HW1 7087   0.638   2.890   3.791
 1882SOL    HW2 7088   0.621   2.882   3.942
 1883SOL     OW 7089   1.595   1.993   5.186
 1883SOL    HW1 7090   1.634   2.070   5.144
 1883SOL    HW2 7091   1.574   2.023   5.275
 1884SOL     OW 7092   0.135   2.502   4.287
 1884SOL    HW1 7093   0.102   2.419   4.321
 1884SOL    HW2 7094   0.115   2.566   4.355
 1885SOL     OW 7095   1.848   3.614   4.046
 1885SOL    HW1 7096   1.912   3.589   4.113
 1885SOL    HW2 7097   1.861   3.708   4.033
 1886SOL     OW 7098   0.013   3.483   3.854
 1886SOL    HW1 7099   0.008   3.388   3.866
 1886SOL    HW2 7100  -0.006   3.519   3.940
 1887SOL     OW 7101   1.672   2.744   4.334
 1887SOL    HW1 7102   1.762   2.756   4.363
 1887SOL    HW2 7103   1.657   2.818   4.274
 1888SOL     OW 7104   1.643   2.973   4.185
 1888SOL    HW1 7105   1.715   2.975   4.122
 1888SOL    HW2 7106   1.669   3.034   4.254
 1889SOL     OW 7107   0.141   2.623   5.313
 1889SOL    HW1 7108   0.235   2.628   5.300
 1889SOL    HW2 7109   0.120   2.702   5.363
 1890SOL     OW 7110   0.609   3.251   4.463
 1890SOL    HW1 7111   0.564   3.166   4.464
 1890SOL    HW2 7112   0.600   3.282   4.373
 1891SOL     OW 7113   1.284   3.086   5.152
 1891SOL    HW1 7114   1.316   3.025   5.085
 1891SOL    HW2 7115   1.353   3.087   5.218
 1892SOL     OW 7116   0.830   1.871   4.236
 1892SOL    HW1 7117   0.866   1.952   4.199
 1892SOL    HW2 7118   0.736   1.886   4.241
 1893SOL     OW 7119   0.179   2.781   5.000
 1893SOL    HW1 7120   0.266   2.744   4.990
 1893SOL    HW2 7121   0.143   2.782   4.912
 1894SOL     OW 7122   1.169   3.660   5.364
 1894SOL    HW1 7123   1.179   3.738   5.309
 1894SOL    HW2 7124   1.203   3.588   5.311
 1895SOL     OW 7125   0.354   2.105   5.560
 1895SOL    HW1 7126   0.382   2.155   5.484
 1895SOL    HW2 7127   0.272   2.146   5.587
 1896SOL     OW 7128   1.470   3.279   4.678
 1896SOL    HW1 7129   1.403   3.298   4.744
 1896SOL    HW2 7130   1.453   3.188   4.652
 1897SOL     OW 7131   1.659   3.609   4.300
 1897SOL    HW1 7132   1.636   3.575   4.213
 1897SOL    HW2 7133   1.635   3.538   4.360
 1898SOL     OW 7134   0.603   2.587   4.013
 1898SOL    HW1 7135   0.605   2.669   3.965
 1898SOL    HW2 7136   0.534   2.599   4.079
 1899SOL     OW 7137   1.271   2.187   4.657
 1899SOL    HW1 7138   1.176   2.171   4.651
 1899SOL    HW2 7139   1.297   2.145   4.739
 1900SOL     OW 7140   1.582   3.530   4.035
 1900SOL    HW1 7141   1.673   3.560   4.028
 1900SOL    HW2 7142   1.555   3.517   3.944
 1901SOL     OW 7143   0.801   2.479   5.165
 1901SOL    HW1 7144   0.769   2.457   5.253
 1901SOL    HW2 7145   0.763   2.412   5.108
 1902SOL     OW 7146   1.385   2.333   5.398
 1902SOL    HW1 7147   1.392   2.383   5.479
 1902SOL    HW2 7148   1.452   2.265   5.405
 1903SOL     OW 7149   0.948   2.752   5.311
 1903SOL    HW1 7150   1.006   2.686   5.273
 1903SOL    HW2 7151   0.903   2.791   5.236
 1904SOL     OW 7152   0.999   2.260   4.955
 1904SOL    HW1 7153   0.913   2.281   4.989
 1904SOL    HW2 7154   0.984   2.238   4.863
 1905SOL     OW 7155   1.008   2.569   4.170
 1905SOL    HW1 7156   1.045   2.550   4.256
 1905SOL    HW2 7157   0.952   2.494   4.151
 1906SOL     OW 7158   0.082   2.668   4.501
 1906SOL    HW1 7159   0.159   2.682   4.556
 1906SOL    HW2 7160   0.045   2.756   4.490
 1907SOL     OW 7161   0.158   3.713   5.296
 1907SOL    HW1 7162   0.129   3.709   5.387
 1907SOL    HW2 7163   0.082   3.685   5.245
 1908SOL     OW 7164   0.956   2.147   3.843
 1908SOL    HW1 7165   0.976   2.240   3.837
 1908SOL    HW2 7166   0.945   2.132   3.937
 1909SOL     OW 7167   1.691   2.433   5.560
 1909SOL    HW1 7168   1.662   2.507   5.507
 1909SOL    HW2 7169   1.735   2.375   5.498
 1910SOL     OW 7170   1.372   2.992   4.247
 1910SOL    HW1 7171   1.460   2.988   4.211
 1910SOL    HW2 7172   1.330   3.065   4.200
 1911SOL     OW 7173   0.560   2.034   4.623
 1911SOL    HW1 7174   0.559   2.065   4.714
 1911SOL    HW2 7175   0.547   2.113   4.571
 1912SOL     OW 7176   0.993   3.305   4.189
 1912SOL    HW1 7177   0.968   3.382   4.139
 1912SOL    HW2 7178   0.974   3.328   4.280
 1913SOL     OW 7179   0.364   3.688   4.590
 1913SOL    HW1 7180   0.418   3.610   4.599
 1913SOL    HW2 7181   0.426   3.761   4.600
 1914SOL     OW 7182   1.775   2.875   4.588
 1914SOL    HW1 7183   1.759   2.948   4.527
 1914SOL    HW2 7184   1.730   2.901   4.668
 1915SOL     OW 7185   1.226   3.401   5.242
 1915SOL    HW1 7186   1.213   3.322   5.295
 1915SOL    HW2 7187   1.165   3.391   5.168
 1916SOL     OW 7188   0.348   2.795   3.995
 1916SOL    HW1 7189   0.419   2.822   3.937
 1916SOL    HW2 7190   0.299   2.730   3.943
 1917SOL     OW 7191   1.486   2.598   4.446
 1917SOL    HW1 7192   1.493   2.603   4.542
 1917SOL    HW2 7193   1.555   2.655   4.413
 1918SOL     OW 7194   0.459   3.119   5.445
 1918SOL    HW1 7195   0.428   3.132   5.356
 1918SOL    HW2 7196   0.380   3.101   5.496
 1919SOL     OW 7197   1.122   3.647   3.942
 1919SOL    HW1 7198   1.049   3.609   3.990
 1919SOL    HW2 7199   1.150   3.579   3.881
 1920SOL     OW 7200   0.113   2.156   5.201
 1920SOL    HW1 7201   0.179   2.222   5.177
 1920SOL    HW2 7202   0.159   2.098   5.262
 1921SOL     OW 7203   1.622   3.240   3.795
 1921SOL    HW1 7204   1.578   3.325   3.792
 1921SOL    HW2 7205   1.551   3.176   3.786
 1922SOL     OW 7206   0.458   3.604   4.040
 1922SOL    HW1 7207   0.502   3.657   4.105
 1922SOL    HW2 7208   0.528   3.568   3.986
 1923SOL     OW 7209   1.399   1.970   4.166
 1923SOL    HW1 7210   1.389   1.951   4.073
 1923SOL    HW2 7211   1.493   1.984   4.178
 1924SOL     OW 7212   0.272   3.639   4.931
 1924SOL    HW1 7213   0.358   3.657   4.895
 1924SOL    HW2 7214   0.214   3.634   4.855
 1925SOL     OW 7215   0.950   3.555   4.630
 1925SOL    HW1 7216   1.038   3.519   4.639
 1925SOL    HW2 7217   0.910   3.504   4.559
 1926SOL     OW 7218   0.410   2.551   4.214
 1926SOL    HW1 7219   0.425   2.457   4.226
 1926SOL    HW2 7220   0.315   2.562   4.226
 1927SOL     OW 7221   1.526   2.087   5.444
 1927SOL    HW1 7222   1.538   2.106   5.537
 1927SOL    HW2 7223   1.453   2.025   5.441
 1928SOL     OW 7224   0.639   1.964   3.838
 1928SOL    HW1 7225   0.689   1.883   3.847
 1928SOL    HW2 7226   0.573   1.944   3.771
 1929SOL     OW 7227   0.767   2.147   5.470
 1929SOL    HW1 7228   0.846   2.094   5.485
 1929SOL    HW2 7229   0.719   2.142   5.552
 1930SOL     OW 7230   0.844   3.342   4.924
 1930SOL    HW1 7231   0.843   3.330   4.830
 1930SOL    HW2 7232   0.935   3.326   4.950
 1931SOL     OW 7233   1.336   2.448   5.149
 1931SOL    HW1 7234   1.366   2.421   5.236
 1931SOL    HW2 7235   1.369   2.538   5.139
 1932SOL     OW 7236   0.811   3.236   4.664
 1932SOL    HW1 7237   0.899   3.234   4.627
 1932SOL    HW2 7238   0.753   3.251   4.590
 1933SOL     OW 7239   0.941   2.369   4.627
 1933SOL    HW1 7240   0.914   2.368   4.536
 1933SOL    HW2 7241   0.954   2.276   4.649
 1934SOL     OW 7242   0.566   1.930   4.216
 1934SOL    HW1 7243   0.486   1.930   4.269
 1934SOL    HW2 7244   0.558   2.007   4.160
 1935SOL     OW 7245   1.424   3.049   3.764
 1935SOL    HW1 7246   1.446   2.964   3.802
 1935SOL    HW2 7247   1.343   3.075   3.807
 1936SOL     OW 7248   0.316   1.898   3.869
 1936SOL    HW1 7249   0.271   1.965   3.920
 1936SOL    HW2 7250   0.365   1.847   3.934
 1937SOL     OW 7251   0.938   2.123   4.141
 1937SOL    HW1 7252   0.901   2.212   4.143
 1937SOL    HW2 7253   1.030   2.135   4.164
 1938SOL     OW 7254   1.080   2.551   5.187
 1938SOL    HW1 7255   1.010   2.487   5.182
 1938SOL    HW2 7256   1.160   2.501   5.175
 1939SOL     OW 7257   1.217   3.438   4.520
 1939SOL    HW1 7258   1.231   3.501   4.450
 1939SOL    HW2 7259   1.268   3.473   4.594
 1940SOL     OW 7260   0.475   3.010   4.447
 1940SOL    HW1 7261   0.411   2.994   4.517
 1940SOL    HW2 7262   0.425   2.996   4.366
 1941SOL     OW 7263   1.262   3.651   4.334
 1941SOL    HW1 7264   1.313   3.717   4.287
 1941SOL    HW2 7265   1.195   3.701   4.379
 1942SOL     OW 7266   1.016   2.402   3.745
 1942SOL    HW1 7267   0.976   2.487   3.727
 1942SOL    HW2 7268   1.081   2.421   3.814
 1943SOL     OW 7269   0.051   2.478   5.102
 1943SOL    HW1 7270   0.135   2.435   5.090
 1943SOL    HW2 7271   0.066   2.540   5.174
 1944SOL     OW 7272   0.557   2.089   4.895
 1944SOL    HW1 7273   0.587   2.020   4.954
 1944SOL    HW2 7274   0.464   2.099   4.914
 1945SOL     OW 7275   0.857   2.328   4.371
 1945SOL    HW1 7276   0.796   2.393   4.337
 1945SOL    HW2 7277   0.822   2.244   4.340
 1946SOL     OW 7278   1.020   1.912   4.462
 1946SOL    HW1 7279   0.957   1.906   4.390
 1946SOL    HW2 7280   0.996   1.839   4.520
 1947SOL     OW 7281   1.450   3.021   4.582
 1947SOL    HW1 7282   1.373   2.978   4.546
 1947SOL    HW2 7283   1.505   3.038   4.506
 1948SOL     OW 7284   1.442   2.445   4.735
 1948SOL    HW1 7285   1.365   2.438   4.792
 1948SOL    HW2 7286   1.515   2.461   4.795
 1949SOL     OW 7287   1.868   2.664   4.079
 1949SOL    HW1 7288   1.905   2.620   4.155
 1949SOL    HW2 7289   1.828   2.594   4.027
 1950SOL     OW 7290   0.496   3.277   3.862
 1950SOL    HW1 7291   0.437   3.244   3.929
 1950SOL    HW2 7292   0.489   3.214   3.790
 1951SOL     OW 7293   1.687   3.116   4.418
 1951SOL    HW1 7294   1.782   3.119   4.410
 1951SOL    HW2 7295   1.659   3.208   4.420
 1952SOL     OW 7296   1.416   2.417   3.803
 1952SOL    HW1 7297   1.341   2.404   3.861
 1952SOL    HW2 7298   1.448   2.504   3.825
 1953SOL     OW 7299   0.532   2.125   4.033
 1953SOL    HW1 7300   0.565   2.070   3.962
 1953SOL    HW2 7301   0.514   2.209   3.991
 1954SOL     OW 7302   1.752   3.103   5.302
 1954SOL    HW1 7303   1.837   3.071   5.271
 1954SOL    HW2 7304   1.767   3.196   5.321
 1955SOL     OW 7305   1.068   3.210   5.051
 1955SOL    HW1 7306   0.989   3.183   5.099
 1955SOL    HW2 7307   1.140   3.166   5.096
 1956SOL     OW 7308   1.607   3.478   5.374
 1956SOL    HW1 7309   1.602   3.528   5.292
 1956SOL    HW2 7310   1.694   3.438   5.373
 1957SOL     OW 7311   1.116   3.052   4.822
 1957SOL    HW1 7312   1.080   3.109   4.890
 1957SOL    HW2 7313   1.104   3.101   4.741
 1958SOL     OW 7314   1.617   2.956   4.800
 1958SOL    HW1 7315   1.608   3.022   4.869
 1958SOL    HW2 7316   1.548   2.978   4.737
 1959SOL     OW 7317   0.930   1.945   5.118
 1959SOL    HW1 7318   0.945   1.934   5.024
 1959SOL    HW2 7319   1.008   1.991   5.149
 1960SOL     OW 7320   0.973   2.978   5.462
 1960SOL    HW1 7321   0.880   2.997   5.475
 1960SOL    HW2 7322   0.974   2.905   5.400
 1961SOL     OW 7323   0.713   2.928   4.095
 1961SOL    HW1 7324   0.696   2.905   4.186
 1961SOL    HW2 7325   0.784   2.870   4.068
 1962SOL     OW 7326   0.426   2.658   4.979
 1962SOL    HW1 7327   0.493   2.675   5.046
 1962SOL    HW2 7328   0.399   2.568   4.995
 1963SOL     OW 7329   1.269   2.237   4.992
 1963SOL    HW1 7330   1.297   2.313   5.043
 1963SOL    HW2 7331   1.176   2.252   4.977
 1964SOL     OW 7332   0.154   3.435   5.064
 1964SOL    HW1 7333   0.069   3.464   5.098
 1964SOL    HW2 7334   0.193   3.514   5.026
 1965SOL     OW 7335   0.331   2.966   4.214
 1965SOL    HW1 7336   0.336   3.042   4.156
 1965SOL    HW2 7337   0.335   2.891   4.155
 1966SOL     OW 7338   0.552   2.387   4.587
 1966SOL    HW1 7339   0.570   2.446   4.514
 1966SOL    HW2 7340   0.610   2.417   4.658
 1967SOL     OW 7341   1.246   3.216   4.114
 1967SOL    HW1 7342   1.301   3.287   4.146
 1967SOL    HW2 7343   1.159   3.236   4.149
 1968SOL     OW 7344   1.294   3.320   4.885
 1968SOL    HW1 7345   1.359   3.334   4.954
 1968SOL    HW2 7346   1.227   3.265   4.926
 1969SOL     OW 7347   1.580   2.487   4.198
 1969SOL    HW1 7348   1.524   2.528   4.264
 1969SOL    HW2 7349   1.615   2.560   4.147
 1970SOL     OW 7350   0.422   2.616   5.332
 1970SOL    HW1 7351   0.486   2.659   5.274
 1970SOL    HW2 7352   0.449   2.524   5.332
 1971SOL     OW 7353   1.600   2.637   5.408
 1971SOL    HW1 7354   1.516   2.683   5.403
 1971SOL    HW2 7355   1.655   2.681   5.343
 1972SOL     OW 7356   1.002   1.999   5.508
 1972SOL    HW1 7357   1.052   2.074   5.475
 1972SOL    HW2 7358   1.042   1.923   5.467
 1973SOL     OW 7359   0.499   1.887   5.489
 1973SOL    HW1 7360   0.455   1.842   5.417
 1973SOL    HW2 7361   0.446   1.966   5.504
 1974SOL     OW 7362   0.585   2.730   4.757
 1974SOL    HW1 7363   0.617   2.820   4.755
 1974SOL    HW2 7364   0.528   2.726   4.833
 1975SOL     OW 7365   1.344   2.713   4.743
 1975SOL    HW1 7366   1.260   2.717   4.697
 1975SOL    HW2 7367   1.378   2.626   4.723
 1976SOL     OW 7368   1.187   2.379   3.969
 1976SOL    HW1 7369   1.193   2.322   4.045
 1976SOL    HW2 7370   1.209   2.466   4.003
 1977SOL     OW 7371   0.289   2.047   4.951
 1977SOL    HW1 7372   0.263   2.098   5.028
 1977SOL    HW2 7373   0.268   1.956   4.974
 1978SOL     OW 7374   0.075   3.172   4.992
 1978SOL    HW1 7375   0.079   3.120   5.072
 1978SOL    HW2 7376   0.087   3.262   5.021
 1979SOL     OW 7377   0.721   2.494   4.779
 1979SOL    HW1 7378   0.798   2.492   4.722
 1979SOL    HW2 7379   0.684   2.581   4.766
 1980SOL     OW 7380   1.744   2.809   5.591
 1980SOL    HW1 7381   1.693   2.760   5.528
 1980SOL    HW2 7382   1.681   2.836   5.658
 1981SOL     OW 7383   0.328   1.947   4.335
 1981SOL    HW1 7384   0.299   2.034   4.363
 1981SOL    HW2 7385   0.314   1.891   4.412
 1982SOL     OW 7386   1.617   2.242   4.087
 1982SOL    HW1 7387   1.648   2.185   4.156
 1982SOL    HW2 7388   1.591   2.323   4.132
 1983SOL     OW 7389   1.038   2.618   4.681
 1983SOL    HW1 7390   1.025   2.637   4.773
 1983SOL    HW2 7391   1.007   2.528   4.670
 1984SOL     OW 7392   0.961   3.405   5.444
 1984SOL    HW1 7393   0.955   3.461   5.367
 1984SOL    HW2 7394   1.027   3.339   5.421
 1985SOL     OW 7395   1.854   3.360   5.321
 1985SOL    HW1 7396   1.872   3.397   5.235
 1985SOL    HW2 7397   1.933   3.379   5.372
 1986SOL     OW 7398   0.367   2.807   5.524
 1986SOL    HW1 7399   0.446   2.812   5.578
 1986SOL    HW2 7400   0.381   2.733   5.466
 1987SOL     OW 7401   1.558   2.111   3.852
 1987SOL    HW1 7402   1.480   2.061   3.877
 1987SOL    HW2 7403   1.574   2.169   3.927
 1988SOL     OW 7404   1.250   2.672   3.706
 1988SOL    HW1 7405   1.322   2.679   3.768
 1988SOL    HW2 7406   1.283   2.712   3.625
 1989SOL     OW 7407   1.072   3.206   4.588
 1989SOL    HW1 7408   1.080   3.137   4.523
 1989SOL    HW2 7409   1.128   3.276   4.555
 1990SOL     OW 7410   0.312   2.673   4.661
 1990SOL    HW1 7411   0.407   2.687   4.665
 1990SOL    HW2 7412   0.301   2.580   4.683
 1991SOL     OW 7413   0.301   2.393   4.691
 1991SOL    HW1 7414   0.282   2.299   4.699
 1991SOL    HW2 7415   0.388   2.397   4.652
 1992SOL     OW 7416   1.132   2.227   5.420
 1992SOL    HW1 7417   1.083   2.288   5.475
 1992SOL    HW2 7418   1.219   2.268   5.410
 1993SOL     OW 7419   1.167   2.060   5.199
 1993SOL    HW1 7420   1.153   2.124   5.269
 1993SOL    HW2 7421   1.209   2.110   5.128
 1994SOL     OW 7422   0.118   3.606   4.671
 1994SOL    HW1 7423   0.099   3.550   4.596
 1994SOL    HW2 7424   0.196   3.656   4.645
 1995SOL     OW 7425   0.499   3.436   4.636
 1995SOL    HW1 7426   0.568   3.501   4.650
 1995SOL    HW2 7427   0.535   3.376   4.571
 1996SOL     OW 7428   0.974   2.638   4.943
 1996SOL    HW1 7429   1.031   2.633   5.020
 1996SOL    HW2 7430   0.889   2.609   4.975
 1997SOL     OW 7431   0.066   2.348   4.859
 1997SOL    HW1 7432   0.158   2.356   4.834
 1997SOL    HW2 7433   0.057   2.405   4.935
 1998SOL     OW 7434   0.203   2.382   5.430
 1998SOL    HW1 7435   0.269   2.348   5.369
 1998SOL    HW2 7436   0.169   2.461   5.387
 1999SOL     OW 7437   1.379   2.796   5.377
 1999SOL    HW1 7438   1.407   2.887   5.374
 1999SOL    HW2 7439   1.374   2.769   5.286
 2000SOL     OW 7440   0.800   2.389   4.071
 2000SOL    HW1 7441   0.743   2.336   4.016
 2000SOL    HW2 7442   0.759   2.476   4.070
 2001SOL     OW 7443   1.648   2.447   4.901
 2001SOL    HW1 7444   1.647   2.414   4.991
 2001SOL    HW2 7445   1.738   2.435   4.872
 2002SOL     OW 7446   0.347   3.407   5.486
 2002SOL    HW1 7447   0.299   3.481   5.524
 2002SOL    HW2 7448   0.280   3.345   5.459
 2003SOL     OW 7449   0.723   2.304   4.974
 2003SOL    HW1 7450   0.654   2.239   4.956
 2003SOL    HW2 7451   0.711   2.371   4.907
 2004SOL     OW 7452   0.904   3.543   5.208
 2004SOL    HW1 7453   0.884   3.511   5.120
 2004SOL    HW2 7454   0.917   3.637   5.197
 2005SOL     OW 7455   0.519   2.357   3.897
 2005SOL    HW1 7456   0.550   2.436   3.940
 2005SOL    HW2 7457   0.448   2.387   3.840
 2006SOL     OW 7458   0.166   2.978   5.189
 2006SOL    HW1 7459   0.141   2.931   5.269
 2006SOL    HW2 7460   0.170   2.911   5.122
 2007SOL     OW 7461   1.309   2.898   4.944
 2007SOL    HW1 7462   1.340   2.842   4.873
 2007SOL    HW2 7463   1.242   2.953   4.903
 2008SOL     OW 7464   1.282   2.621   4.046
 2008SOL    HW1 7465   1.229   2.693   4.079
 2008SOL    HW2 7466   1.355   2.663   4.000
 2009SOL     OW 7467   1.761   3.597   4.862
 2009SOL    HW1 7468   1.831   3.630   4.806
 2009SOL    HW2 7469   1.754   3.504   4.840
 2010SOL     OW 7470   1.232   3.571   4.785
 2010SOL    HW1 7471   1.316   3.616   4.770
 2010SOL    HW2 7472   1.256   3.491   4.831
 2011SOL     OW 7473   0.053   3.052   4.752
 2011SOL    HW1 7474   0.060   3.095   4.837
 2011SOL    HW2 7475  -0.010   3.106   4.703
 2012SOL     OW 7476   0.677   3.543   5.438
 2012SOL    HW1 7477   0.627   3.624   5.426
 2012SOL    HW2 7478   0.754   3.554   5.382
 2013SOL     OW 7479   1.724   2.020   4.235
 2013SOL    HW1 7480   1.792   2.004   4.170
 2013SOL    HW2 7481   1.705   1.934   4.272
 2014SOL     OW 7482   1.389   3.432   4.212
 2014SOL    HW1 7483   1.451   3.468   4.148
 2014SOL    HW2 7484   1.342   3.509   4.245
 2015SOL     OW 7485   0.198   3.606   5.576
 2015SOL    HW1 7486   0.122   3.558   5.611
 2015SOL    HW2 7487   0.211   3.678   5.638
 2016SOL     OW 7488   1.280   2.784   4.387
 2016SOL    HW1 7489   1.357   2.728   4.395
 2016SOL    HW2 7490   1.310   2.858   4.334
 2017SOL     OW 7491   0.814   3.139   5.145
 2017SOL    HW1 7492   0.772   3.178   5.222
 2017SOL    HW2 7493   0.775   3.186   5.070
 2018SOL     OW 7494   0.668   3.483   3.882
 2018SOL    HW1 7495   0.676   3.503   3.789
 2018SOL    HW2 7496   0.613   3.405   3.885
 2019SOL     OW 7497   1.617   3.589   5.105
 2019SOL    HW1 7498   1.672   3.598   5.027
 2019SOL    HW2 7499   1.604   3.678   5.136
 2020SOL     OW 7500   1.830   2.017   4.690
 2020SOL    HW1 7501   1.889   1.943   4.675
 2020SOL    HW2 7502   1.750   1.994   4.643
 2021SOL     OW 7503   0.260   2.192   4.430
 2021SOL    HW1 7504   0.169   2.213   4.408
 2021SOL    HW2 7505   0.261   2.186   4.526
 2022SOL     OW 7506   1.207   3.461   3.756
 2022SOL    HW1 7507   1.193   3.371   3.786
 2022SOL    HW2 7508   1.138   3.476   3.692
 2023SOL     OW 7509   0.829   2.872   5.095
 2023SOL    HW1 7510   0.867   2.869   5.007
 2023SOL    HW2 7511   0.822   2.965   5.115
 2024SOL     OW 7512   0.905   2.763   4.005
 2024SOL    HW1 7513   0.973   2.795   3.946
 2024SOL    HW2 7514   0.950   2.700   4.062
 2025SOL     OW 7515   1.485   3.489   3.769
 2025SOL    HW1 7516   1.390   3.482   3.757
 2025SOL    HW2 7517   1.520   3.497   3.680
 2026SOL     OW 7518   0.323   3.198   5.209
 2026SOL    HW1 7519   0.256   3.245   5.259
 2026SOL    HW2 7520   0.284   3.112   5.191
 2027SOL     OW 7521   1.600   3.144   4.996
 2027SOL    HW1 7522   1.687   3.149   5.035
 2027SOL    HW2 7523   1.551   3.214   5.039
 2028SOL     OW 7524   1.067   2.976   4.440
 2028SOL    HW1 7525   0.993   2.927   4.475
 2028SOL    HW2 7526   1.127   2.909   4.406
 2029SOL     OW 7527   1.013   2.098   4.680
 2029SOL    HW1 7528   1.010   2.048   4.599
 2029SOL    HW2 7529   1.006   2.033   4.750
 2030SOL     OW 7530   0.614   3.350   4.209
 2030SOL    HW1 7531   0.654   3.306   4.135
 2030SOL    HW2 7532   0.525   3.369   4.181
 2031SOL     OW 7533   1.732   2.250   5.116
 2031SOL    HW1 7534   1.803   2.315   5.116
 2031SOL    HW2 7535   1.761   2.184   5.052
 2032SOL     OW 7536   0.322   3.188   4.048
 2032SOL    HW1 7537   0.232   3.183   4.016
 2032SOL    HW2 7538   0.317   3.237   4.130
 2033SOL     OW 7539   0.106   2.860   5.443
 2033SOL    HW1 7540   0.071   2.946   5.467
 2033SOL    HW2 7541   0.191   2.855   5.487
 2034SOL     OW 7542   0.685   2.044   5.224
 2034SOL    HW1 7543   0.768   2.028   5.180
 2034SOL    HW2 7544   0.710   2.088   5.306
 2035SOL     OW 7545   0.103   2.236   3.731
 2035SOL    HW1 7546   0.031   2.258   3.790
 2035SOL    HW2 7547   0.160   2.313   3.733
 2036SOL     OW 7548   1.417   2.712   5.116
 2036SOL    HW1 7549   1.368   2.776   5.065
 2036SOL    HW2 7550   1.507   2.722   5.086
 2037SOL     OW 7551   0.141   2.052   4.023
 2037SOL    HW1 7552   0.146   2.146   4.038
 2037SOL    HW2 7553   0.122   2.015   4.109
 2038SOL     OW 7554   1.176   3.197   3.846
 2038SOL    HW1 7555   1.087   3.161   3.853
 2038SOL    HW2 7556   1.207   3.203   3.936
 2039SOL     OW 7557   0.627   2.695   5.162
 2039SOL    HW1 7558   0.683   2.771   5.143
 2039SOL    HW2 7559   0.687   2.621   5.167
 2040SOL     OW 7560   1.492   3.634   4.695
 2040SOL    HW1 7561   1.503   3.712   4.641
 2040SOL    HW2 7562   1.569   3.634   4.753
 2041SOL     OW 7563   0.720   2.427   5.415
 2041SOL    HW1 7564   0.761   2.485   5.478
 2041SOL    HW2 7565   0.737   2.339   5.449
 2042SOL     OW 7566   1.481   3.051   5.346
 2042SOL    HW1 7567   1.471   3.069   5.440
 2042SOL    HW2 7568   1.572   3.074   5.327
 2043SOL     OW 7569   0.382   3.566   5.264
 2043SOL    HW1 7570   0.299   3.614   5.263
 2043SOL    HW2 7571   0.373   3.504   5.336
 2044SOL     OW 7572   1.655   2.747   4.978
 2044SOL    HW1 7573   1.674   2.671   4.922
 2044SOL    HW2 7574   1.648   2.820   4.916
 2045SOL     OW 7575   1.207   2.180   4.187
 2045SOL    HW1 7576   1.273   2.112   4.178
 2045SOL    HW2 7577   1.238   2.233   4.261
 2046SOL     OW 7578   0.613   2.582   4.398
 2046SOL    HW1 7579   0.644   2.673   4.390
 2046SOL    HW2 7580   0.541   2.577   4.335
 2047SOL     OW 7581   1.762   2.215   5.389
 2047SOL    HW1 7582   1.753   2.237   5.296
 2047SOL    HW2 7583   1.683   2.166   5.410
 2048SOL     OW 7584   1.732   2.796   5.240
 2048SOL    HW1 7585   1.746   2.889   5.257
 2048SOL    HW2 7586   1.725   2.790   5.145
 2049SOL     OW 7587   0.848   3.226   3.765
 2049SOL    HW1 7588   0.821   3.239   3.856
 2049SOL    HW2 7589   0.870   3.314   3.734
 2050SOL     OW 7590   0.668   3.644   4.656
 2050SOL    HW1 7591   0.647   3.736   4.643
 2050SOL    HW2 7592   0.762   3.642   4.673
 2051SOL     OW 7593   0.873   2.833   4.577
 2051SOL    HW1 7594   0.926   2.764   4.616
 2051SOL    HW2 7595   0.833   2.877   4.652
 2052SOL     OW 7596   1.072   2.845   3.810
 2052SOL    HW1 7597   1.058   2.904   3.737
 2052SOL    HW2 7598   1.136   2.781   3.778
 2053SOL     OW 7599   1.849   3.399   4.557
 2053SOL    HW1 7600   1.770   3.415   4.506
 2053SOL    HW2 7601   1.817   3.372   4.644
 2054SOL     OW 7602   0.222   3.126   5.583
 2054SOL    HW1 7603   0.133   3.144   5.553
 2054SOL    HW2 7604   0.220   3.146   5.677
 2055SOL     OW 7605   0.143   3.112   4.390
 2055SOL    HW1 7606   0.067   3.062   4.418
 2055SOL    HW2 7607   0.196   3.049   4.340
 2056SOL     OW 7608   0.669   3.270   5.334
 2056SOL    HW1 7609   0.592   3.236   5.380
 2056SOL    HW2 7610   0.674   3.362   5.359
 2057SOL     OW 7611   1.804   2.045   4.959
 2057SOL    HW1 7612   1.838   1.958   4.982
 2057SOL    HW2 7613   1.813   2.050   4.864
 2058SOL     OW 7614   0.460   2.289   4.266
 2058SOL    HW1 7615   0.452   2.232   4.190
 2058SOL    HW2 7616   0.393   2.258   4.327
 2059SOL     OW 7617   1.717   3.332   4.789
 2059SOL    HW1 7618   1.628   3.320   4.756
 2059SOL    HW2 7619   1.719   3.279   4.869
 2060SOL     OW 7620   0.838   3.450   4.394
 2060SOL    HW1 7621   0.828   3.531   4.345
 2060SOL    HW2 7622   0.759   3.400   4.374
 2061SOL     OW 7623   1.464   2.110   4.841
 2061SOL    HW1 7624   1.494   2.028   4.880
 2061SOL    HW2 7625   1.410   2.150   4.910
 2062SOL     OW 7626   1.010   1.877   4.854
 2062SOL    HW1 7627   0.955   1.811   4.811
 2062SOL    HW2 7628   1.098   1.838   4.854
 2063SOL     OW 7629   0.782   3.194   4.036
 2063SOL    HW1 7630   0.755   3.104   4.054
 2063SOL    HW2 7631   0.856   3.209   4.095
 2064SOL     OW 7632   0.598   3.427   5.003
 2064SOL    HW1 7633   0.605   3.513   5.045
 2064SOL    HW2 7634   0.687   3.407   4.974
 2065SOL     OW 7635   1.358   1.911   3.898
 2065SOL    HW1 7636   1.403   1.834   3.862
 2065SOL    HW2 7637   1.268   1.883   3.908
 2066SOL     OW 7638   1.300   2.320   4.410
 2066SOL    HW1 7639   1.257   2.405   4.402
 2066SOL    HW2 7640   1.269   2.284   4.493
 2067SOL     OW 7641   0.023   2.859   4.004
 2067SOL    HW1 7642   0.046   2.945   3.969
 2067SOL    HW2 7643   0.025   2.870   4.099
 2068SOL     OW 7644   0.892   3.524   4.055
 2068SOL    HW1 7645   0.814   3.508   4.001
 2068SOL    HW2 7646   0.865   3.592   4.117
 2069SOL     OW 7647   0.246   2.556   5.668
 2069SOL    HW1 7648   0.179   2.525   5.729
 2069SOL    HW2 7649   0.243   2.494   5.595
 2070SOL     OW 7650   0.238   2.129   6.567
 2070SOL    HW1 7651   0.257   2.100   6.657
 2070SOL    HW2 7652   0.162   2.077   6.541
 2071SOL     OW 7653   8.002   2.237   6.202
 2071SOL    HW1 7654   7.909   2.233   6.222
 2071SOL    HW2 7655   8.012   2.189   6.120
 2072SOL     OW 7656   0.565   3.156   6.769
 2072SOL    HW1 7657   0.482   3.169   6.722
 2072SOL    HW2 7658   0.585   3.241   6.807
 2073SOL     OW 7659   1.536   3.335   6.275
 2073SOL    HW1 7660   1.500   3.359   6.361
 2073SOL    HW2 7661   1.473   3.369   6.212
 2074SOL     OW 7662   1.736   2.463   5.825
 2074SOL    HW1 7663   1.725   2.468   5.731
 2074SOL    HW2 7664   1.745   2.369   5.843
 2075SOL     OW 7665   0.734   3.000   6.622
 2075SOL    HW1 7666   0.670   3.036   6.683
 2075SOL    HW2 7667   0.778   3.077   6.585
 2076SOL     OW 7668   0.876   2.627   7.406
 2076SOL    HW1 7669   0.892   2.697   7.469
 2076SOL    HW2 7670   0.893   2.666   7.321
 2077SOL     OW 7671   0.695   2.863   6.237
 2077SOL    HW1 7672   0.746   2.849   6.318
 2077SOL    HW2 7673   0.620   2.916   6.265
 2078SOL     OW 7674   0.720   3.024   7.412
 2078SOL    HW1 7675   0.762   3.107   7.434
 2078SOL    HW2 7676   0.639   3.050   7.367
 2079SOL     OW 7677   0.341   3.276   6.648
 2079SOL    HW1 7678   0.272   3.242   6.590
 2079SOL    HW2 7679   0.391   3.336   6.592
 2080SOL     OW 7680   1.458   3.368   6.949
 2080SOL    HW1 7681   1.516   3.444   6.952
 2080SOL    HW2 7682   1.394   3.383   7.018
 2081SOL     OW 7683   0.450   2.255   7.090
 2081SOL    HW1 7684   0.527   2.199   7.085
 2081SOL    HW2 7685   0.375   2.195   7.086
 2082SOL     OW 7686   1.618   2.315   6.318
 2082SOL    HW1 7687   1.594   2.360   6.237
 2082SOL    HW2 7688   1.644   2.386   6.377
 2083SOL     OW 7689   0.237   3.561   6.063
 2083SOL    HW1 7690   0.245   3.639   6.117
 2083SOL    HW2 7691   0.228   3.594   5.974
 2084SOL     OW 7692   1.140   3.201   7.278
 2084SOL    HW1 7693   1.193   3.189   7.357
 2084SOL    HW2 7694   1.090   3.120   7.271
 2085SOL     OW 7695   0.281   3.298   6.108
 2085SOL    HW1 7696   0.267   3.392   6.112
 2085SOL    HW2 7697   0.230   3.263   6.182
 2086SOL     OW 7698   0.280   2.945   6.488
 2086SOL    HW1 7699   0.274   2.854   6.516
 2086SOL    HW2 7700   0.203   2.987   6.525
 2087SOL     OW 7701   0.609   3.651   7.009
 2087SOL    HW1 7702   0.529   3.637   7.058
 2087SOL    HW2 7703   0.636   3.740   7.032
 2088SOL     OW 7704   0.584   2.854   5.727
 2088SOL    HW1 7705   0.627   2.905   5.659
 2088SOL    HW2 7706   0.621   2.888   5.809
 2089SOL     OW 7707   1.576   1.994   7.041
 2089SOL    HW1 7708   1.630   2.051   6.987
 2089SOL    HW2 7709   1.573   2.038   7.127
 2090SOL     OW 7710   0.141   2.490   6.146
 2090SOL    HW1 7711   0.093   2.412   6.175
 2090SOL    HW2 7712   0.110   2.559   6.205
 2091SOL     OW 7713   1.843   3.610   5.936
 2091SOL    HW1 7714   1.925   3.591   5.982
 2091SOL    HW2 7715   1.848   3.704   5.916
 2092SOL     OW 7716   0.023   3.438   5.712
 2092SOL    HW1 7717   0.010   3.348   5.740
 2092SOL    HW2 7718  -0.009   3.492   5.785
 2093SOL     OW 7719   1.659   2.736   6.208
 2093SOL    HW1 7720   1.753   2.725   6.224
 2093SOL    HW2 7721   1.654   2.805   6.143
 2094SOL     OW 7722   1.649   2.961   6.030
 2094SOL    HW1 7723   1.733   2.961   5.983
 2094SOL    HW2 7724   1.662   3.022   6.103
 2095SOL     OW 7725   0.140   2.612   7.173
 2095SOL    HW1 7726   0.232   2.624   7.153
 2095SOL    HW2 7727   0.112   2.695   7.210
 2096SOL     OW 7728   0.612   3.251   6.322
 2096SOL    HW1 7729   0.565   3.168   6.325
 2096SOL    HW2 7730   0.600   3.283   6.232
 2097SOL     OW 7731   1.282   3.091   7.016
 2097SOL    HW1 7732   1.314   3.028   6.950
 2097SOL    HW2 7733   1.349   3.089   7.084
 2098SOL     OW 7734   0.820   1.858   6.049
 2098SOL    HW1 7735   0.864   1.943   6.047
 2098SOL    HW2 7736   0.730   1.879   6.074
 2099SOL     OW 7737   0.178   2.781   6.877
 2099SOL    HW1 7738   0.266   2.756   6.851
 2099SOL    HW2 7739   0.129   2.787   6.794
 2100SOL     OW 7740   1.528   2.865   5.791
 2100SOL    HW1 7741   1.466   2.802   5.828
 2100SOL    HW2 7742   1.575   2.900   5.868
 2101SOL     OW 7743   1.170   3.674   7.218
 2101SOL    HW1 7744   1.182   3.745   7.155
 2101SOL    HW2 7745   1.206   3.597   7.174
 2102SOL     OW 7746   0.345   2.109   7.423
 2102SOL    HW1 7747   0.390   2.193   7.421
 2102SOL    HW2 7748   0.252   2.131   7.436
 2103SOL     OW 7749   1.471   3.283   6.553
 2103SOL    HW1 7750   1.399   3.297   6.614
 2103SOL    HW2 7751   1.455   3.195   6.517
 2104SOL     OW 7752   1.731   3.532   6.211
 2104SOL    HW1 7753   1.731   3.581   6.129
 2104SOL    HW2 7754   1.648   3.483   6.210
 2105SOL     OW 7755   0.594   2.595   5.858
 2105SOL    HW1 7756   0.588   2.677   5.807
 2105SOL    HW2 7757   0.527   2.604   5.926
 2106SOL     OW 7758   1.276   2.229   6.521
 2106SOL    HW1 7759   1.188   2.194   6.531
 2106SOL    HW2 7760   1.330   2.174   6.578
 2107SOL     OW 7761   1.577   3.517   5.898
 2107SOL    HW1 7762   1.663   3.558   5.903
 2107SOL    HW2 7763   1.559   3.511   5.804
 2108SOL     OW 7764   0.791   2.478   7.034
 2108SOL    HW1 7765   0.760   2.454   7.121
 2108SOL    HW2 7766   0.756   2.410   6.976
 2109SOL     OW 7767   1.386   2.329   7.262
 2109SOL    HW1 7768   1.393   2.379   7.344
 2109SOL    HW2 7769   1.454   2.262   7.270
 2110SOL     OW 7770   0.943   2.748   7.168
 2110SOL    HW1 7771   1.002   2.683   7.129
 2110SOL    HW2 7772   0.901   2.790   7.093
 2111SOL     OW 7773   0.992   2.256   6.822
 2111SOL    HW1 7774   0.902   2.281   6.845
 2111SOL    HW2 7775   0.987   2.233   6.729
 2112SOL     OW 7776   1.033   2.540   6.015
 2112SOL    HW1 7777   1.047   2.489   6.094
 2112SOL    HW2 7778   0.950   2.506   5.979
 2113SOL     OW 7779   0.078   2.670   6.362
 2113SOL    HW1 7780   0.159   2.683   6.411
 2113SOL    HW2 7781   0.047   2.759   6.344
 2114SOL     OW 7782   0.123   3.649   7.151
 2114SOL    HW1 7783   0.129   3.660   7.246
 2114SOL    HW2 7784   0.030   3.659   7.131
 2115SOL     OW 7785   0.909   2.195   5.769
 2115SOL    HW1 7786   0.939   2.275   5.725
 2115SOL    HW2 7787   0.946   2.124   5.718
 2116SOL     OW 7788   1.691   2.434   7.423
 2116SOL    HW1 7789   1.660   2.509   7.372
 2116SOL    HW2 7790   1.730   2.376   7.358
 2117SOL     OW 7791   1.370   2.994   6.111
 2117SOL    HW1 7792   1.459   2.988   6.075
 2117SOL    HW2 7793   1.331   3.069   6.067
 2118SOL     OW 7794   0.556   2.032   6.476
 2118SOL    HW1 7795   0.556   2.076   6.561
 2118SOL    HW2 7796   0.546   2.103   6.413
 2119SOL     OW 7797   0.995   3.302   6.066
 2119SOL    HW1 7798   0.975   3.375   6.007
 2119SOL    HW2 7799   0.974   3.336   6.153
 2120SOL     OW 7800   0.366   3.692   6.459
 2120SOL    HW1 7801   0.418   3.612   6.468
 2120SOL    HW2 7802   0.429   3.763   6.471
 2121SOL     OW 7803   1.791   2.903   6.465
 2121SOL    HW1 7804   1.756   2.957   6.395
 2121SOL    HW2 7805   1.733   2.919   6.540
 2122SOL     OW 7806   1.227   3.406   7.104
 2122SOL    HW1 7807   1.215   3.326   7.154
 2122SOL    HW2 7808   1.153   3.408   7.043
 2123SOL     OW 7809   0.311   2.802   5.829
 2123SOL    HW1 7810   0.387   2.840   5.785
 2123SOL    HW2 7811   0.290   2.724   5.779
 2124SOL     OW 7812   1.463   2.587   6.322
 2124SOL    HW1 7813   1.474   2.560   6.414
 2124SOL    HW2 7814   1.539   2.642   6.305
 2125SOL     OW 7815   0.467   3.089   7.318
 2125SOL    HW1 7816   0.439   3.110   7.229
 2125SOL    HW2 7817   0.387   3.093   7.370
 2126SOL     OW 7818   1.118   3.634   5.820
 2126SOL    HW1 7819   1.036   3.595   5.850
 2126SOL    HW2 7820   1.148   3.577   5.749
 2127SOL     OW 7821   0.204   2.134   7.074
 2127SOL    HW1 7822   0.145   2.210   7.074
 2127SOL    HW2 7823   0.163   2.071   7.134
 2128SOL     OW 7824   1.625   3.232   5.689
 2128SOL    HW1 7825   1.593   3.320   5.671
 2128SOL    HW2 7826   1.558   3.175   5.650
 2129SOL     OW 7827   0.560   3.595   5.865
 2129SOL    HW1 7828   0.543   3.633   5.951
 2129SOL    HW2 7829   0.591   3.668   5.812
 2130SOL     OW 7830   1.403   1.966   6.026
 2130SOL    HW1 7831   1.400   1.941   5.933
 2130SOL    HW2 7832   1.496   1.978   6.044
 2131SOL     OW 7833   0.228   3.653   6.807
 2131SOL    HW1 7834   0.289   3.583   6.829
 2131SOL    HW2 7835   0.195   3.629   6.720
 2132SOL     OW 7836   0.944   3.561   6.489
 2132SOL    HW1 7837   1.035   3.530   6.496
 2132SOL    HW2 7838   0.907   3.510   6.417
 2133SOL     OW 7839   0.414   2.552   6.077
 2133SOL    HW1 7840   0.434   2.459   6.084
 2133SOL    HW2 7841   0.319   2.557   6.088
 2134SOL     OW 7842   1.541   2.093   7.310
 2134SOL    HW1 7843   1.547   2.117   7.402
 2134SOL    HW2 7844   1.490   2.012   7.309
 2135SOL     OW 7845   0.658   1.936   5.706
 2135SOL    HW1 7846   0.740   1.939   5.656
 2135SOL    HW2 7847   0.591   1.916   5.640
 2136SOL     OW 7848   0.748   2.154   7.344
 2136SOL    HW1 7849   0.831   2.106   7.349
 2136SOL    HW2 7850   0.703   2.135   7.427
 2137SOL     OW 7851   0.865   3.366   6.782
 2137SOL    HW1 7852   0.853   3.342   6.691
 2137SOL    HW2 7853   0.948   3.326   6.808
 2138SOL     OW 7854   1.334   2.450   7.017
 2138SOL    HW1 7855   1.368   2.422   7.102
 2138SOL    HW2 7856   1.373   2.536   7.003
 2139SOL     OW 7857   0.823   3.242   6.525
 2139SOL    HW1 7858   0.910   3.244   6.484
 2139SOL    HW2 7859   0.763   3.263   6.454
 2140SOL     OW 7860   0.933   2.374   6.480
 2140SOL    HW1 7861   0.912   2.368   6.387
 2140SOL    HW2 7862   0.959   2.286   6.504
 2141SOL     OW 7863   0.561   1.921   6.081
 2141SOL    HW1 7864   0.480   1.920   6.132
 2141SOL    HW2 7865   0.553   1.999   6.025
 2142SOL     OW 7866   1.426   3.055   5.615
 2142SOL    HW1 7867   1.457   2.986   5.674
 2142SOL    HW2 7868   1.349   3.091   5.658
 2143SOL     OW 7869   0.272   1.923   5.758
 2143SOL    HW1 7870   0.323   1.985   5.707
 2143SOL    HW2 7871   0.337   1.870   5.804
 2144SOL     OW 7872   0.945   2.106   6.036
 2144SOL    HW1 7873   0.918   2.144   5.952
 2144SOL    HW2 7874   1.038   2.125   6.043
 2145SOL     OW 7875   1.081   2.551   7.041
 2145SOL    HW1 7876   1.019   2.478   7.040
 2145SOL    HW2 7877   1.167   2.510   7.034
 2146SOL     OW 7878   1.217   3.447   6.387
 2146SOL    HW1 7879   1.228   3.506   6.312
 2146SOL    HW2 7880   1.277   3.482   6.453
 2147SOL     OW 7881   0.474   3.009   6.305
 2147SOL    HW1 7882   0.410   2.992   6.375
 2147SOL    HW2 7883   0.424   2.998   6.224
 2148SOL     OW 7884   1.257   3.658   6.202
 2148SOL    HW1 7885   1.313   3.713   6.147
 2148SOL    HW2 7886   1.201   3.720   6.248
 2149SOL     OW 7887   1.020   2.396   5.614
 2149SOL    HW1 7888   0.978   2.478   5.590
 2149SOL    HW2 7889   1.092   2.422   5.672
 2150SOL     OW 7890   0.090   2.396   6.999
 2150SOL    HW1 7891   0.178   2.396   6.961
 2150SOL    HW2 7892   0.084   2.479   7.046
 2151SOL     OW 7893   0.562   2.092   6.751
 2151SOL    HW1 7894   0.602   2.008   6.776
 2151SOL    HW2 7895   0.471   2.085   6.779
 2152SOL     OW 7896   0.884   2.340   6.210
 2152SOL    HW1 7897   0.818   2.383   6.156
 2152SOL    HW2 7898   0.900   2.257   6.166
 2153SOL     OW 7899   1.018   1.930   6.345
 2153SOL    HW1 7900   0.966   1.930   6.265
 2153SOL    HW2 7901   0.996   1.847   6.388
 2154SOL     OW 7902   1.453   3.032   6.441
 2154SOL    HW1 7903   1.386   2.980   6.396
 2154SOL    HW2 7904   1.519   3.050   6.373
 2155SOL     OW 7905   1.457   2.468   6.570
 2155SOL    HW1 7906   1.410   2.385   6.566
 2155SOL    HW2 7907   1.521   2.457   6.641
 2156SOL     OW 7908   1.844   2.674   5.961
 2156SOL    HW1 7909   1.896   2.624   6.024
 2156SOL    HW2 7910   1.806   2.607   5.903
 2157SOL     OW 7911   0.473   3.280   5.719
 2157SOL    HW1 7912   0.405   3.252   5.781
 2157SOL    HW2 7913   0.444   3.246   5.634
 2158SOL     OW 7914   1.675   3.101   6.270
 2158SOL    HW1 7915   1.770   3.113   6.264
 2158SOL    HW2 7916   1.639   3.189   6.266
 2159SOL     OW 7917   1.395   2.439   5.649
 2159SOL    HW1 7918   1.343   2.413   5.725
 2159SOL    HW2 7919   1.486   2.426   5.676
 2160SOL     OW 7920   0.534   2.113   5.894
 2160SOL    HW1 7921   0.576   2.060   5.826
 2160SOL    HW2 7922   0.517   2.197   5.852
 2161SOL     OW 7923   1.741   3.118   7.137
 2161SOL    HW1 7924   1.824   3.075   7.115
 2161SOL    HW2 7925   1.765   3.206   7.166
 2162SOL     OW 7926   1.064   3.203   6.906
 2162SOL    HW1 7927   0.986   3.182   6.957
 2162SOL    HW2 7928   1.136   3.165   6.956
 2163SOL     OW 7929   1.605   3.484   7.240
 2163SOL    HW1 7930   1.600   3.530   7.156
 2163SOL    HW2 7931   1.692   3.443   7.239
 2164SOL     OW 7932   1.107   3.045   6.679
 2164SOL    HW1 7933   1.080   3.100   6.753
 2164SOL    HW2 7934   1.102   3.102   6.603
 2165SOL     OW 7935   1.617   2.964   6.672
 2165SOL    HW1 7936   1.613   3.029   6.742
 2165SOL    HW2 7937   1.545   2.987   6.613
 2166SOL     OW 7938   0.907   1.980   6.965
 2166SOL    HW1 7939   0.927   1.958   6.874
 2166SOL    HW2 7940   0.987   2.021   6.998
 2167SOL     OW 7941   0.981   2.977   7.312
 2167SOL    HW1 7942   0.889   2.994   7.332
 2167SOL    HW2 7943   0.979   2.900   7.254
 2168SOL     OW 7944   0.716   2.932   5.961
 2168SOL    HW1 7945   0.697   2.909   6.052
 2168SOL    HW2 7946   0.793   2.880   5.939
 2169SOL     OW 7947   0.429   2.674   6.835
 2169SOL    HW1 7948   0.495   2.689   6.902
 2169SOL    HW2 7949   0.394   2.587   6.855
 2170SOL     OW 7950   1.259   2.218   6.887
 2170SOL    HW1 7951   1.295   2.299   6.923
 2170SOL    HW2 7952   1.171   2.241   6.859
 2171SOL     OW 7953   0.075   3.431   6.937
 2171SOL    HW1 7954   0.070   3.526   6.930
 2171SOL    HW2 7955   0.169   3.411   6.932
 2172SOL     OW 7956   0.329   2.972   6.070
 2172SOL    HW1 7957   0.330   3.049   6.012
 2172SOL    HW2 7958   0.333   2.898   6.010
 2173SOL     OW 7959   0.546   2.396   6.452
 2173SOL    HW1 7960   0.561   2.449   6.374
 2173SOL    HW2 7961   0.615   2.422   6.513
 2174SOL     OW 7962   1.246   3.215   5.988
 2174SOL    HW1 7963   1.304   3.289   6.008
 2174SOL    HW2 7964   1.160   3.245   6.017
 2175SOL     OW 7965   1.283   3.320   6.749
 2175SOL    HW1 7966   1.350   3.335   6.816
 2175SOL    HW2 7967   1.212   3.276   6.796
 2176SOL     OW 7968   1.597   2.469   6.077
 2176SOL    HW1 7969   1.579   2.554   6.117
 2176SOL    HW2 7970   1.643   2.491   5.996
 2177SOL     OW 7971   0.342   3.380   6.896
 2177SOL    HW1 7972   0.334   3.340   6.809
 2177SOL    HW2 7973   0.436   3.400   6.904
 2178SOL     OW 7974   0.429   2.600   7.193
 2178SOL    HW1 7975   0.485   2.651   7.134
 2178SOL    HW2 7976   0.481   2.523   7.215
 2179SOL     OW 7977   1.599   2.639   7.275
 2179SOL    HW1 7978   1.515   2.685   7.267
 2179SOL    HW2 7979   1.654   2.679   7.207
 2180SOL     OW 7980   0.977   2.012   7.368
 2180SOL    HW1 7981   1.041   2.078   7.341
 2180SOL    HW2 7982   1.015   1.929   7.340
 2181SOL     OW 7983   0.494   1.895   7.344
 2181SOL    HW1 7984   0.455   1.852   7.268
 2181SOL    HW2 7985   0.439   1.972   7.359
 2182SOL     OW 7986   0.599   2.735   6.622
 2182SOL    HW1 7987   0.623   2.828   6.617
 2182SOL    HW2 7988   0.534   2.731   6.692
 2183SOL     OW 7989   1.350   2.716   6.621
 2183SOL    HW1 7990   1.261   2.689   6.597
 2183SOL    HW2 7991   1.403   2.637   6.611
 2184SOL     OW 7992   1.206   2.382   5.846
 2184SOL    HW1 7993   1.212   2.306   5.904
 2184SOL    HW2 7994   1.171   2.452   5.902
 2185SOL     OW 7995   0.306   2.048   6.830
 2185SOL    HW1 7996   0.265   2.082   6.910
 2185SOL    HW2 7997   0.283   1.955   6.829
 2186SOL     OW 7998   0.056   3.165   6.854
 2186SOL    HW1 7999   0.077   3.113   6.931
 2186SOL    HW2 8000   0.057   3.256   6.886
 2187SOL     OW 8001   0.723   2.490   6.641
 2187SOL    HW1 8002   0.799   2.482   6.584
 2187SOL    HW2 8003   0.692   2.579   6.627
 2188SOL     OW 8004   1.742   2.813   7.451
 2188SOL    HW1 8005   1.691   2.758   7.392
 2188SOL    HW2 8006   1.680   2.838   7.520
 2189SOL     OW 8007   0.322   1.929   6.202
 2189SOL    HW1 8008   0.289   2.017   6.221
 2189SOL    HW2 8009   0.315   1.883   6.286
 2190SOL     OW 8010   1.605   2.224   5.949
 2190SOL    HW1 8011   1.645   2.161   6.008
 2190SOL    HW2 8012   1.592   2.303   6.001
 2191SOL     OW 8013   1.052   2.615   6.542
 2191SOL    HW1 8014   1.036   2.628   6.635
 2191SOL    HW2 8015   1.025   2.525   6.525
 2192SOL     OW 8016   0.974   3.414   7.304
 2192SOL    HW1 8017   0.961   3.465   7.225
 2192SOL    HW2 8018   1.032   3.342   7.278
 2193SOL     OW 8019   1.849   3.364   7.182
 2193SOL    HW1 8020   1.871   3.400   7.096
 2193SOL    HW2 8021   1.927   3.380   7.235
 2194SOL     OW 8022   0.354   2.765   7.410
 2194SOL    HW1 8023   0.430   2.823   7.420
 2194SOL    HW2 8024   0.377   2.708   7.337
 2195SOL     OW 8025   1.522   2.127   5.708
 2195SOL    HW1 8026   1.464   2.058   5.741
 2195SOL    HW2 8027   1.557   2.168   5.787
 2196SOL     OW 8028   1.285   2.689   5.611
 2196SOL    HW1 8029   1.330   2.605   5.612
 2196SOL    HW2 8030   1.317   2.732   5.532
 2197SOL     OW 8031   1.084   3.209   6.443
 2197SOL    HW1 8032   1.118   3.143   6.382
 2197SOL    HW2 8033   1.135   3.288   6.423
 2198SOL     OW 8034   0.314   2.667   6.521
 2198SOL    HW1 8035   0.407   2.684   6.507
 2198SOL    HW2 8036   0.310   2.580   6.561
 2199SOL     OW 8037   0.331   2.380   6.610
 2199SOL    HW1 8038   0.296   2.294   6.588
 2199SOL    HW2 8039   0.406   2.390   6.552
 2200SOL     OW 8040   1.136   2.216   7.279
 2200SOL    HW1 8041   1.089   2.280   7.333
 2200SOL    HW2 8042   1.223   2.255   7.266
 2201SOL     OW 8043   1.174   2.021   7.060
 2201SOL    HW1 8044   1.162   2.078   7.137
 2201SOL    HW2 8045   1.215   2.078   6.995
 2202SOL     OW 8046   7.990   3.168   5.797
 2202SOL    HW1 8047   7.899   3.186   5.821
 2202SOL    HW2 8048   7.996   3.073   5.797
 2203SOL     OW 8049   0.130   3.601   6.548
 2203SOL    HW1 8050   0.090   3.572   6.466
 2203SOL    HW2 8051   0.210   3.647   6.521
 2204SOL     OW 8052   0.498   3.437   6.495
 2204SOL    HW1 8053   0.565   3.502   6.514
 2204SOL    HW2 8054   0.539   3.377   6.433
 2205SOL     OW 8055   0.976   2.642   6.800
 2205SOL    HW1 8056   1.037   2.631   6.873
 2205SOL    HW2 8057   0.890   2.624   6.837
 2206SOL     OW 8058   0.073   2.418   6.713
 2206SOL    HW1 8059   0.165   2.412   6.689
 2206SOL    HW2 8060   0.073   2.408   6.809
 2207SOL     OW 8061   0.211   2.378   7.292
 2207SOL    HW1 8062   0.284   2.353   7.236
 2207SOL    HW2 8063   0.176   2.458   7.253
 2208SOL     OW 8064   1.377   2.796   7.241
 2208SOL    HW1 8065   1.405   2.887   7.238
 2208SOL    HW2 8066   1.376   2.768   7.149
 2209SOL     OW 8067   0.801   2.427   5.934
 2209SOL    HW1 8068   0.791   2.352   5.876
 2209SOL    HW2 8069   0.729   2.486   5.909
 2210SOL     OW 8070   1.641   2.450   6.765
 2210SOL    HW1 8071   1.641   2.403   6.848
 2210SOL    HW2 8072   1.729   2.436   6.730
 2211SOL     OW 8073   0.337   3.389   7.354
 2211SOL    HW1 8074   0.291   3.467   7.386
 2211SOL    HW2 8075   0.269   3.338   7.308
 2212SOL     OW 8076   0.711   2.307   6.840
 2212SOL    HW1 8077   0.656   2.234   6.809
 2212SOL    HW2 8078   0.705   2.372   6.769
 2213SOL     OW 8079   0.923   3.535   7.057
 2213SOL    HW1 8080   0.891   3.503   6.973
 2213SOL    HW2 8081   0.926   3.630   7.046
 2214SOL     OW 8082   0.489   2.350   5.781
 2214SOL    HW1 8083   0.526   2.439   5.785
 2214SOL    HW2 8084   0.397   2.362   5.802
 2215SOL     OW 8085   0.151   2.991   7.050
 2215SOL    HW1 8086   0.129   2.947   7.132
 2215SOL    HW2 8087   0.160   2.920   6.986
 2216SOL     OW 8088   1.311   2.907   6.809
 2216SOL    HW1 8089   1.345   2.848   6.742
 2216SOL    HW2 8090   1.242   2.956   6.765
 2217SOL     OW 8091   1.319   2.705   5.885
 2217SOL    HW1 8092   1.234   2.711   5.928
 2217SOL    HW2 8093   1.299   2.701   5.791
 2218SOL     OW 8094   1.750   3.593   6.721
 2218SOL    HW1 8095   1.820   3.636   6.671
 2218SOL    HW2 8096   1.763   3.499   6.704
 2219SOL     OW 8097   1.238   3.587   6.669
 2219SOL    HW1 8098   1.321   3.625   6.642
 2219SOL    HW2 8099   1.261   3.499   6.700
 2220SOL     OW 8100   0.055   3.057   6.609
 2220SOL    HW1 8101   0.058   3.096   6.696
 2220SOL    HW2 8102  -0.014   3.105   6.564
 2221SOL     OW 8103   0.680   3.535   7.329
 2221SOL    HW1 8104   0.618   3.607   7.321
 2221SOL    HW2 8105   0.747   3.553   7.263
 2222SOL     OW 8106   1.718   2.015   6.086
 2222SOL    HW1 8107   1.790   1.999   6.025
 2222SOL    HW2 8108   1.705   1.931   6.130
 2223SOL     OW 8109   1.384   3.438   6.070
 2223SOL    HW1 8110   1.451   3.465   6.007
 2223SOL    HW2 8111   1.339   3.519   6.095
 2224SOL     OW 8112   0.186   3.601   7.426
 2224SOL    HW1 8113   0.114   3.557   7.471
 2224SOL    HW2 8114   0.217   3.665   7.489
 2225SOL     OW 8115   1.278   2.765   6.230
 2225SOL    HW1 8116   1.353   2.707   6.242
 2225SOL    HW2 8117   1.313   2.839   6.181
 2226SOL     OW 8118   0.810   3.144   7.016
 2226SOL    HW1 8119   0.778   3.181   7.098
 2226SOL    HW2 8120   0.753   3.183   6.949
 2227SOL     OW 8121   1.613   3.588   6.968
 2227SOL    HW1 8122   1.666   3.596   6.888
 2227SOL    HW2 8123   1.600   3.678   6.998
 2228SOL     OW 8124   1.836   2.032   6.559
 2228SOL    HW1 8125   1.872   1.946   6.534
 2228SOL    HW2 8126   1.755   2.039   6.510
 2229SOL     OW 8127   0.261   2.180   6.290
 2229SOL    HW1 8128   0.173   2.211   6.266
 2229SOL    HW2 8129   0.259   2.177   6.386
 2230SOL     OW 8130   1.210   3.477   5.616
 2230SOL    HW1 8131   1.197   3.382   5.612
 2230SOL    HW2 8132   1.170   3.510   5.536
 2231SOL     OW 8133   0.826   2.877   6.956
 2231SOL    HW1 8134   0.865   2.880   6.868
 2231SOL    HW2 8135   0.817   2.968   6.982
 2232SOL     OW 8136   0.934   2.787   5.905
 2232SOL    HW1 8137   0.983   2.810   5.826
 2232SOL    HW2 8138   0.972   2.703   5.933
 2233SOL     OW 8139   1.499   3.472   5.628
 2233SOL    HW1 8140   1.405   3.487   5.615
 2233SOL    HW2 8141   1.537   3.484   5.541
 2234SOL     OW 8142   0.367   3.164   7.081
 2234SOL    HW1 8143   0.360   3.237   7.018
 2234SOL    HW2 8144   0.292   3.108   7.061
 2235SOL     OW 8145   1.612   3.153   6.879
 2235SOL    HW1 8146   1.661   3.134   6.959
 2235SOL    HW2 8147   1.552   3.222   6.904
 2236SOL     OW 8148   1.052   2.964   6.283
 2236SOL    HW1 8149   0.962   2.986   6.304
 2236SOL    HW2 8150   1.065   2.998   6.194
 2237SOL     OW 8151   1.021   2.108   6.559
 2237SOL    HW1 8152   1.020   2.062   6.475
 2237SOL    HW2 8153   1.016   2.039   6.625
 2238SOL     OW 8154   0.614   3.354   6.068
 2238SOL    HW1 8155   0.653   3.300   5.999
 2238SOL    HW2 8156   0.541   3.398   6.025
 2239SOL     OW 8157   1.743   2.251   6.976
 2239SOL    HW1 8158   1.812   2.316   6.966
 2239SOL    HW2 8159   1.764   2.183   6.912
 2240SOL     OW 8160   0.255   3.192   5.866
 2240SOL    HW1 8161   0.161   3.198   5.851
 2240SOL    HW2 8162   0.269   3.238   5.949
 2241SOL     OW 8163   0.105   2.854   7.298
 2241SOL    HW1 8164   0.059   2.934   7.324
 2241SOL    HW2 8165   0.184   2.853   7.352
 2242SOL     OW 8166   0.669   2.063   7.089
 2242SOL    HW1 8167   0.751   2.054   7.042
 2242SOL    HW2 8168   0.694   2.097   7.175
 2243SOL     OW 8169   0.112   2.221   5.629
 2243SOL    HW1 8170   0.031   2.254   5.669
 2243SOL    HW2 8171   0.127   2.279   5.554
 2244SOL     OW 8172   1.418   2.715   6.981
 2244SOL    HW1 8173   1.370   2.780   6.930
 2244SOL    HW2 8174   1.508   2.720   6.948
 2245SOL     OW 8175   0.081   2.095   5.949
 2245SOL    HW1 8176   0.028   2.082   5.870
 2245SOL    HW2 8177   0.167   2.060   5.925
 2246SOL     OW 8178   1.199   3.181   5.713
 2246SOL    HW1 8179   1.116   3.134   5.726
 2246SOL    HW2 8180   1.227   3.204   5.801
 2247SOL     OW 8181   0.625   2.696   7.022
 2247SOL    HW1 8182   0.679   2.773   7.005
 2247SOL    HW2 8183   0.688   2.624   7.029
 2248SOL     OW 8184   1.491   3.647   6.563
 2248SOL    HW1 8185   1.503   3.725   6.510
 2248SOL    HW2 8186   1.571   3.641   6.616
 2249SOL     OW 8187   0.704   2.433   7.288
 2249SOL    HW1 8188   0.757   2.493   7.341
 2249SOL    HW2 8189   0.727   2.346   7.319
 2250SOL     OW 8190   1.478   3.051   7.211
 2250SOL    HW1 8191   1.469   3.070   7.304
 2250SOL    HW2 8192   1.569   3.076   7.190
 2251SOL     OW 8193   0.389   3.594   7.156
 2251SOL    HW1 8194   0.298   3.617   7.136
 2251SOL    HW2 8195   0.383   3.512   7.205
 2252SOL     OW 8196   1.654   2.742   6.840
 2252SOL    HW1 8197   1.664   2.662   6.788
 2252SOL    HW2 8198   1.650   2.812   6.775
 2253SOL     OW 8199   1.212   2.174   6.046
 2253SOL    HW1 8200   1.281   2.109   6.038
 2253SOL    HW2 8201   1.237   2.228   6.121
 2254SOL     OW 8202   0.605   2.596   6.267
 2254SOL    HW1 8203   0.639   2.684   6.248
 2254SOL    HW2 8204   0.538   2.581   6.199
 2255SOL     OW 8205   1.772   2.234   7.251
 2255SOL    HW1 8206   1.760   2.251   7.157
 2255SOL    HW2 8207   1.700   2.175   7.273
 2256SOL     OW 8208   1.743   2.776   7.098
 2256SOL    HW1 8209   1.785   2.861   7.112
 2256SOL    HW2 8210   1.726   2.773   7.003
 2257SOL     OW 8211   0.782   3.306   5.625
 2257SOL    HW1 8212   0.831   3.279   5.703
 2257SOL    HW2 8213   0.849   3.338   5.565
 2258SOL     OW 8214   0.667   3.644   6.521
 2258SOL    HW1 8215   0.645   3.735   6.503
 2258SOL    HW2 8216   0.763   3.641   6.521
 2259SOL     OW 8217   0.868   2.821   6.460
 2259SOL    HW1 8218   0.895   2.753   6.522
 2259SOL    HW2 8219   0.823   2.886   6.514
 2260SOL     OW 8220   1.072   2.844   5.681
 2260SOL    HW1 8221   1.046   2.897   5.605
 2260SOL    HW2 8222   1.147   2.794   5.651
 2261SOL     OW 8223   1.854   3.366   6.417
 2261SOL    HW1 8224   1.825   3.414   6.340
 2261SOL    HW2 8225   1.790   3.388   6.485
 2262SOL     OW 8226   0.218   3.108   7.438
 2262SOL    HW1 8227   0.170   3.164   7.377
 2262SOL    HW2 8228   0.202   3.146   7.524
 2263SOL     OW 8229   0.131   3.117   6.256
 2263SOL    HW1 8230   0.059   3.063   6.287
 2263SOL    HW2 8231   0.191   3.056   6.214
 2264SOL     OW 8232   0.683   3.264   7.230
 2264SOL    HW1 8233   0.595   3.233   7.247
 2264SOL    HW2 8234   0.683   3.355   7.260
 2265SOL     OW 8235   1.794   2.030   6.828
 2265SOL    HW1 8236   1.818   1.938   6.835
 2265SOL    HW2 8237   1.809   2.052   6.736
 2266SOL     OW 8238   0.463   2.289   6.128
 2266SOL    HW1 8239   0.467   2.232   6.052
 2266SOL    HW2 8240   0.393   2.251   6.182
 2267SOL     OW 8241   1.721   3.310   6.660
 2267SOL    HW1 8242   1.633   3.312   6.622
 2267SOL    HW2 8243   1.708   3.273   6.747
 2268SOL     OW 8244   0.337   2.413   6.886
 2268SOL    HW1 8245   0.399   2.362   6.938
 2268SOL    HW2 8246   0.357   2.389   6.795
 2269SOL     OW 8247   0.836   3.454   6.257
 2269SOL    HW1 8248   0.831   3.537   6.210
 2269SOL    HW2 8249   0.756   3.408   6.235
 2270SOL     OW 8250   1.428   2.093   6.699
 2270SOL    HW1 8251   1.473   2.017   6.734
 2270SOL    HW2 8252   1.385   2.132   6.775
 2271SOL     OW 8253   1.010   1.871   6.721
 2271SOL    HW1 8254   0.959   1.809   6.669
 2271SOL    HW2 8255   1.099   1.836   6.721
 2272SOL     OW 8256   0.783   3.200   5.906
 2272SOL    HW1 8257   0.756   3.108   5.916
 2272SOL    HW2 8258   0.859   3.210   5.963
 2273SOL     OW 8259   0.617   3.411   6.880
 2273SOL    HW1 8260   0.618   3.496   6.924
 2273SOL    HW2 8261   0.704   3.404   6.840
 2274SOL     OW 8262   1.359   1.901   5.755
 2274SOL    HW1 8263   1.406   1.827   5.717
 2274SOL    HW2 8264   1.275   1.902   5.711
 2275SOL     OW 8265   1.283   2.330   6.261
 2275SOL    HW1 8266   1.345   2.403   6.265
 2275SOL    HW2 8267   1.285   2.292   6.349
 2276SOL     OW 8268   1.580   2.066   6.460
 2276SOL    HW1 8269   1.527   2.095   6.534
 2276SOL    HW2 8270   1.584   2.142   6.402
 2277SOL     OW 8271   0.046   2.896   5.853
 2277SOL    HW1 8272   0.139   2.877   5.843
 2277SOL    HW2 8273   0.032   2.901   5.948
 2278SOL     OW 8274   0.878   3.517   5.938
 2278SOL    HW1 8275   0.787   3.489   5.930
 2278SOL    HW2 8276   0.873   3.599   5.988
 2279SOL     OW 8277   0.241   2.474   7.559
 2279SOL    HW1 8278   0.167   2.529   7.587
 2279SOL    HW2 8279   0.226   2.459   7.466
 2280SOL     OW 8280   0.234   2.128   8.432
 2280SOL    HW1 8281   0.257   2.100   8.520
 2280SOL    HW2 8282   0.155   2.079   8.410
 2281SOL     OW 8283   8.004   2.232   8.072
 2281SOL    HW1 8284   7.909   2.233   8.087
 2281SOL    HW2 8285   8.014   2.185   7.989
 2282SOL     OW 8286   0.565   3.157   8.633
 2282SOL    HW1 8287   0.483   3.167   8.585
 2282SOL    HW2 8288   0.584   3.245   8.667
 2283SOL     OW 8289   1.579   3.366   8.147
 2283SOL    HW1 8290   1.532   3.353   8.229
 2283SOL    HW2 8291   1.510   3.378   8.082
 2284SOL     OW 8292   1.126   2.570   8.143
 2284SOL    HW1 8293   1.180   2.648   8.129
 2284SOL    HW2 8294   1.085   2.584   8.228
 2285SOL     OW 8295   1.764   2.458   7.680
 2285SOL    HW1 8296   1.742   2.459   7.587
 2285SOL    HW2 8297   1.735   2.372   7.711
 2286SOL     OW 8298   0.737   2.996   8.493
 2286SOL    HW1 8299   0.673   3.035   8.552
 2286SOL    HW2 8300   0.779   3.070   8.450
 2287SOL     OW 8301   0.872   2.622   9.269
 2287SOL    HW1 8302   0.852   2.694   9.329
 2287SOL    HW2 8303   0.896   2.665   9.187
 2288SOL     OW 8304   0.663   2.829   8.127
 2288SOL    HW1 8305   0.740   2.829   8.183
 2288SOL    HW2 8306   0.611   2.903   8.157
 2289SOL     OW 8307   0.720   3.013   9.265
 2289SOL    HW1 8308   0.766   3.092   9.293
 2289SOL    HW2 8309   0.640   3.045   9.224
 2290SOL     OW 8310   0.340   3.278   8.508
 2290SOL    HW1 8311   0.270   3.247   8.451
 2290SOL    HW2 8312   0.391   3.338   8.453
 2291SOL     OW 8313   1.460   3.359   8.813
 2291SOL    HW1 8314   1.520   3.433   8.810
 2291SOL    HW2 8315   1.394   3.384   8.878
 2292SOL     OW 8316   0.446   2.266   8.968
 2292SOL    HW1 8317   0.528   2.215   8.963
 2292SOL    HW2 8318   0.377   2.200   8.968
 2293SOL     OW 8319   1.611   2.304   8.191
 2293SOL    HW1 8320   1.561   2.338   8.116
 2293SOL    HW2 8321   1.628   2.381   8.245
 2294SOL     OW 8322   0.229   3.552   7.934
 2294SOL    HW1 8323   0.180   3.631   7.957
 2294SOL    HW2 8324   0.296   3.582   7.873
 2295SOL     OW 8325   1.142   3.201   9.148
 2295SOL    HW1 8326   1.180   3.183   9.234
 2295SOL    HW2 8327   1.090   3.124   9.128
 2296SOL     OW 8328   0.276   3.290   7.978
 2296SOL    HW1 8329   0.267   3.386   7.982
 2296SOL    HW2 8330   0.221   3.258   8.049
 2297SOL     OW 8331   0.277   2.945   8.353
 2297SOL    HW1 8332   0.269   2.855   8.383
 2297SOL    HW2 8333   0.199   2.989   8.388
 2298SOL     OW 8334   0.606   3.652   8.869
 2298SOL    HW1 8335   0.527   3.634   8.920
 2298SOL    HW2 8336   0.638   3.735   8.902
 2299SOL     OW 8337   0.595   2.849   7.580
 2299SOL    HW1 8338   0.638   2.901   7.512
 2299SOL    HW2 8339   0.634   2.881   7.662
 2300SOL     OW 8340   1.587   1.988   8.905
 2300SOL    HW1 8341   1.636   2.055   8.857
 2300SOL    HW2 8342   1.580   2.024   8.994
 2301SOL     OW 8343   0.143   2.499   8.020
 2301SOL    HW1 8344   0.092   2.421   8.044
 2301SOL    HW2 8345   0.107   2.569   8.074
 2302SOL     OW 8346   1.847   3.619   7.795
 2302SOL    HW1 8347   1.925   3.594   7.844
 2302SOL    HW2 8348   1.866   3.707   7.763
 2303SOL     OW 8349   0.011   3.448   7.575
 2303SOL    HW1 8350   0.009   3.355   7.597
 2303SOL    HW2 8351  -0.016   3.492   7.655
 2304SOL     OW 8352   1.681   2.762   8.086
 2304SOL    HW1 8353   1.772   2.735   8.081
 2304SOL    HW2 8354   1.669   2.819   8.010
 2305SOL     OW 8355   1.650   2.965   7.885
 2305SOL    HW1 8356   1.735   2.964   7.841
 2305SOL    HW2 8357   1.661   3.024   7.959
 2306SOL     OW 8358   0.156   2.599   9.059
 2306SOL    HW1 8359   0.248   2.621   9.043
 2306SOL    HW2 8360   0.116   2.680   9.089
 2307SOL     OW 8361   0.610   3.254   8.194
 2307SOL    HW1 8362   0.564   3.170   8.195
 2307SOL    HW2 8363   0.598   3.286   8.105
 2308SOL     OW 8364   1.279   3.086   8.875
 2308SOL    HW1 8365   1.304   3.023   8.807
 2308SOL    HW2 8366   1.352   3.084   8.937
 2309SOL     OW 8367   0.824   1.866   7.973
 2309SOL    HW1 8368   0.867   1.946   7.944
 2309SOL    HW2 8369   0.731   1.886   7.972
 2310SOL     OW 8370   0.174   2.772   8.742
 2310SOL    HW1 8371   0.265   2.753   8.718
 2310SOL    HW2 8372   0.129   2.784   8.659
 2311SOL     OW 8373   1.527   2.867   7.651
 2311SOL    HW1 8374   1.464   2.806   7.689
 2311SOL    HW2 8375   1.575   2.901   7.727
 2312SOL     OW 8376   1.177   3.673   9.076
 2312SOL    HW1 8377   1.186   3.738   9.007
 2312SOL    HW2 8378   1.200   3.590   9.035
 2313SOL     OW 8379   0.351   2.145   9.269
 2313SOL    HW1 8380   0.399   2.203   9.327
 2313SOL    HW2 8381   0.259   2.162   9.287
 2314SOL     OW 8382   1.462   3.287   8.387
 2314SOL    HW1 8383   1.399   3.301   8.458
 2314SOL    HW2 8384   1.451   3.194   8.364
 2315SOL     OW 8385   1.643   3.621   8.028
 2315SOL    HW1 8386   1.651   3.590   7.938
 2315SOL    HW2 8387   1.640   3.541   8.080
 2316SOL     OW 8388   0.585   2.605   7.724
 2316SOL    HW1 8389   0.614   2.669   7.660
 2316SOL    HW2 8390   0.490   2.611   7.724
 2317SOL     OW 8391   1.280   2.232   8.387
 2317SOL    HW1 8392   1.191   2.197   8.396
 2317SOL    HW2 8393   1.334   2.178   8.444
 2318SOL     OW 8394   1.583   3.528   7.756
 2318SOL    HW1 8395   1.674   3.555   7.750
 2318SOL    HW2 8396   1.556   3.514   7.665
 2319SOL     OW 8397   0.778   2.482   8.898
 2319SOL    HW1 8398   0.755   2.451   8.985
 2319SOL    HW2 8399   0.749   2.412   8.839
 2320SOL     OW 8400   1.382   2.337   9.136
 2320SOL    HW1 8401   1.391   2.386   9.218
 2320SOL    HW2 8402   1.466   2.293   9.125
 2321SOL     OW 8403   0.944   2.742   9.032
 2321SOL    HW1 8404   1.000   2.675   8.993
 2321SOL    HW2 8405   0.900   2.782   8.957
 2322SOL     OW 8406   0.990   2.273   8.680
 2322SOL    HW1 8407   0.898   2.287   8.703
 2322SOL    HW2 8408   0.987   2.236   8.592
 2323SOL     OW 8409   1.057   2.558   7.874
 2323SOL    HW1 8410   1.078   2.556   7.967
 2323SOL    HW2 8411   0.974   2.511   7.867
 2324SOL     OW 8412   0.071   2.676   8.230
 2324SOL    HW1 8413   0.152   2.690   8.280
 2324SOL    HW2 8414   0.038   2.764   8.213
 2325SOL     OW 8415   0.130   3.684   9.011
 2325SOL    HW1 8416   0.125   3.686   9.107
 2325SOL    HW2 8417   0.039   3.672   8.982
 2326SOL     OW 8418   0.903   2.215   7.646
 2326SOL    HW1 8419   0.940   2.283   7.589
 2326SOL    HW2 8420   0.928   2.133   7.603
 2327SOL     OW 8421   1.655   2.391   9.185
 2327SOL    HW1 8422   1.634   2.484   9.183
 2327SOL    HW2 8423   1.749   2.387   9.204
 2328SOL     OW 8424   1.376   2.998   7.974
 2328SOL    HW1 8425   1.461   2.991   7.931
 2328SOL    HW2 8426   1.330   3.066   7.925
 2329SOL     OW 8427   0.549   2.033   8.344
 2329SOL    HW1 8428   0.555   2.069   8.432
 2329SOL    HW2 8429   0.543   2.110   8.287
 2330SOL     OW 8430   0.994   3.306   7.911
 2330SOL    HW1 8431   0.968   3.384   7.862
 2330SOL    HW2 8432   0.977   3.328   8.002
 2331SOL     OW 8433   0.354   3.679   8.315
 2331SOL    HW1 8434   0.397   3.594   8.323
 2331SOL    HW2 8435   0.425   3.743   8.322
 2332SOL     OW 8436   1.797   2.905   8.342
 2332SOL    HW1 8437   1.758   2.926   8.258
 2332SOL    HW2 8438   1.725   2.910   8.404
 2333SOL     OW 8439   1.226   3.402   8.966
 2333SOL    HW1 8440   1.212   3.327   9.023
 2333SOL    HW2 8441   1.171   3.384   8.889
 2334SOL     OW 8442   0.355   2.795   7.705
 2334SOL    HW1 8443   0.427   2.832   7.653
 2334SOL    HW2 8444   0.296   2.757   7.640
 2335SOL     OW 8445   1.472   2.617   8.176
 2335SOL    HW1 8446   1.483   2.575   8.262
 2335SOL    HW2 8447   1.552   2.666   8.163
 2336SOL     OW 8448   0.466   3.086   9.177
 2336SOL    HW1 8449   0.437   3.111   9.089
 2336SOL    HW2 8450   0.388   3.094   9.231
 2337SOL     OW 8451   1.122   3.636   7.682
 2337SOL    HW1 8452   1.044   3.594   7.719
 2337SOL    HW2 8453   1.150   3.577   7.611
 2338SOL     OW 8454   0.189   2.157   8.966
 2338SOL    HW1 8455   0.115   2.198   8.923
 2338SOL    HW2 8456   0.157   2.070   8.991
 2339SOL     OW 8457   1.615   3.239   7.550
 2339SOL    HW1 8458   1.585   3.326   7.526
 2339SOL    HW2 8459   1.548   3.180   7.514
 2340SOL     OW 8460   0.465   3.605   7.763
 2340SOL    HW1 8461   0.511   3.662   7.825
 2340SOL    HW2 8462   0.534   3.575   7.704
 2341SOL     OW 8463   1.402   1.966   7.895
 2341SOL    HW1 8464   1.398   1.944   7.802
 2341SOL    HW2 8465   1.495   1.982   7.912
 2342SOL     OW 8466   0.283   3.653   8.676
 2342SOL    HW1 8467   0.313   3.565   8.698
 2342SOL    HW2 8468   0.227   3.642   8.599
 2343SOL     OW 8469   0.948   3.559   8.341
 2343SOL    HW1 8470   1.035   3.520   8.346
 2343SOL    HW2 8471   0.904   3.510   8.271
 2344SOL     OW 8472   0.409   2.559   7.968
 2344SOL    HW1 8473   0.438   2.468   7.975
 2344SOL    HW2 8474   0.314   2.555   7.982
 2345SOL     OW 8475   1.542   2.084   9.164
 2345SOL    HW1 8476   1.552   2.115   9.254
 2345SOL    HW2 8477   1.464   2.029   9.166
 2346SOL     OW 8478   0.639   1.971   7.562
 2346SOL    HW1 8479   0.719   1.919   7.556
 2346SOL    HW2 8480   0.587   1.943   7.486
 2347SOL     OW 8481   0.762   2.143   9.203
 2347SOL    HW1 8482   0.845   2.096   9.198
 2347SOL    HW2 8483   0.722   2.113   9.285
 2348SOL     OW 8484   0.871   3.378   8.646
 2348SOL    HW1 8485   0.859   3.347   8.556
 2348SOL    HW2 8486   0.948   3.331   8.677
 2349SOL     OW 8487   1.337   2.454   8.885
 2349SOL    HW1 8488   1.369   2.423   8.969
 2349SOL    HW2 8489   1.380   2.538   8.872
 2350SOL     OW 8490   0.819   3.245   8.394
 2350SOL    HW1 8491   0.905   3.238   8.353
 2350SOL    HW2 8492   0.758   3.259   8.322
 2351SOL     OW 8493   0.924   2.367   8.346
 2351SOL    HW1 8494   0.902   2.360   8.253
 2351SOL    HW2 8495   0.959   2.280   8.369
 2352SOL     OW 8496   0.559   1.928   7.940
 2352SOL    HW1 8497   0.477   1.926   7.990
 2352SOL    HW2 8498   0.552   2.007   7.887
 2353SOL     OW 8499   1.419   3.059   7.480
 2353SOL    HW1 8500   1.451   2.989   7.537
 2353SOL    HW2 8501   1.338   3.089   7.522
 2354SOL     OW 8502   0.288   1.899   7.617
 2354SOL    HW1 8503   0.333   1.970   7.571
 2354SOL    HW2 8504   0.356   1.857   7.669
 2355SOL     OW 8505   0.944   2.107   7.904
 2355SOL    HW1 8506   0.918   2.147   7.821
 2355SOL    HW2 8507   1.038   2.123   7.910
 2356SOL     OW 8508   1.081   2.543   8.909
 2356SOL    HW1 8509   1.029   2.463   8.905
 2356SOL    HW2 8510   1.172   2.512   8.902
 2357SOL     OW 8511   1.208   3.448   8.249
 2357SOL    HW1 8512   1.226   3.506   8.175
 2357SOL    HW2 8513   1.287   3.453   8.303
 2358SOL     OW 8514   0.469   3.017   8.175
 2358SOL    HW1 8515   0.403   2.998   8.242
 2358SOL    HW2 8516   0.423   3.005   8.092
 2359SOL     OW 8517   1.263   3.653   8.061
 2359SOL    HW1 8518   1.320   3.707   8.005
 2359SOL    HW2 8519   1.201   3.715   8.099
 2360SOL     OW 8520   1.022   2.395   7.474
 2360SOL    HW1 8521   0.984   2.479   7.450
 2360SOL    HW2 8522   1.094   2.416   7.533
 2361SOL     OW 8523   0.116   2.422   8.852
 2361SOL    HW1 8524   0.203   2.424   8.814
 2361SOL    HW2 8525   0.109   2.505   8.900
 2362SOL     OW 8526   0.565   2.087   8.618
 2362SOL    HW1 8527   0.610   2.014   8.661
 2362SOL    HW2 8528   0.474   2.078   8.645
 2363SOL     OW 8529   0.853   2.317   8.083
 2363SOL    HW1 8530   0.826   2.369   8.008
 2363SOL    HW2 8531   0.885   2.235   8.045
 2364SOL     OW 8532   1.010   1.928   8.204
 2364SOL    HW1 8533   0.956   1.922   8.125
 2364SOL    HW2 8534   0.990   1.849   8.254
 2365SOL     OW 8535   1.452   3.026   8.301
 2365SOL    HW1 8536   1.382   2.972   8.265
 2365SOL    HW2 8537   1.512   3.040   8.227
 2366SOL     OW 8538   1.465   2.475   8.417
 2366SOL    HW1 8539   1.413   2.394   8.418
 2366SOL    HW2 8540   1.526   2.464   8.491
 2367SOL     OW 8541   1.839   2.673   7.828
 2367SOL    HW1 8542   1.896   2.626   7.890
 2367SOL    HW2 8543   1.813   2.606   7.764
 2368SOL     OW 8544   0.479   3.285   7.588
 2368SOL    HW1 8545   0.408   3.244   7.637
 2368SOL    HW2 8546   0.441   3.304   7.502
 2369SOL     OW 8547   1.673   3.105   8.122
 2369SOL    HW1 8548   1.769   3.102   8.121
 2369SOL    HW2 8549   1.652   3.199   8.120
 2370SOL     OW 8550   1.393   2.439   7.513
 2370SOL    HW1 8551   1.340   2.412   7.588
 2370SOL    HW2 8552   1.483   2.422   7.540
 2371SOL     OW 8553   0.526   2.130   7.760
 2371SOL    HW1 8554   0.570   2.077   7.693
 2371SOL    HW2 8555   0.502   2.211   7.715
 2372SOL     OW 8556   1.757   3.112   9.032
 2372SOL    HW1 8557   1.840   3.073   9.005
 2372SOL    HW2 8558   1.777   3.205   9.043
 2373SOL     OW 8559   1.056   3.214   8.783
 2373SOL    HW1 8560   0.979   3.183   8.830
 2373SOL    HW2 8561   1.129   3.167   8.822
 2374SOL     OW 8562   1.603   3.477   9.103
 2374SOL    HW1 8563   1.592   3.518   9.017
 2374SOL    HW2 8564   1.691   3.438   9.099
 2375SOL     OW 8565   1.129   3.073   8.549
 2375SOL    HW1 8566   1.072   3.119   8.610
 2375SOL    HW2 8567   1.108   3.111   8.464
 2376SOL     OW 8568   1.603   2.948   8.528
 2376SOL    HW1 8569   1.592   3.008   8.602
 2376SOL    HW2 8570   1.536   2.975   8.465
 2377SOL     OW 8571   0.917   1.955   8.837
 2377SOL    HW1 8572   0.941   1.935   8.746
 2377SOL    HW2 8573   0.996   1.995   8.874
 2378SOL     OW 8574   0.983   2.972   9.168
 2378SOL    HW1 8575   0.892   2.993   9.188
 2378SOL    HW2 8576   0.979   2.895   9.111
 2379SOL     OW 8577   0.697   2.885   7.833
 2379SOL    HW1 8578   0.719   2.969   7.873
 2379SOL    HW2 8579   0.781   2.848   7.806
 2380SOL     OW 8580   0.431   2.684   8.697
 2380SOL    HW1 8581   0.496   2.699   8.766
 2380SOL    HW2 8582   0.403   2.593   8.710
 2381SOL     OW 8583   1.261   2.235   8.735
 2381SOL    HW1 8584   1.297   2.313   8.778
 2381SOL    HW2 8585   1.171   2.259   8.712
 2382SOL     OW 8586   0.071   3.436   8.791
 2382SOL    HW1 8587   0.061   3.527   8.761
 2382SOL    HW2 8588   0.166   3.422   8.793
 2383SOL     OW 8589   0.353   2.964   7.925
 2383SOL    HW1 8590   0.346   3.050   7.885
 2383SOL    HW2 8591   0.343   2.902   7.852
 2384SOL     OW 8592   0.550   2.363   8.318
 2384SOL    HW1 8593   0.579   2.374   8.227
 2384SOL    HW2 8594   0.617   2.406   8.370
 2385SOL     OW 8595   1.245   3.212   7.838
 2385SOL    HW1 8596   1.304   3.283   7.866
 2385SOL    HW2 8597   1.159   3.238   7.871
 2386SOL     OW 8598   1.293   3.324   8.599
 2386SOL    HW1 8599   1.355   3.330   8.672
 2386SOL    HW2 8600   1.243   3.244   8.617
 2387SOL     OW 8601   1.583   2.473   7.943
 2387SOL    HW1 8602   1.532   2.537   7.993
 2387SOL    HW2 8603   1.640   2.526   7.887
 2388SOL     OW 8604   0.343   3.385   8.755
 2388SOL    HW1 8605   0.333   3.342   8.670
 2388SOL    HW2 8606   0.438   3.400   8.762
 2389SOL     OW 8607   0.438   2.580   9.067
 2389SOL    HW1 8608   0.483   2.636   9.004
 2389SOL    HW2 8609   0.501   2.511   9.088
 2390SOL     OW 8610   1.606   2.658   9.139
 2390SOL    HW1 8611   1.522   2.702   9.127
 2390SOL    HW2 8612   1.662   2.693   9.070
 2391SOL     OW 8613   0.993   1.998   9.201
 2391SOL    HW1 8614   1.052   2.071   9.182
 2391SOL    HW2 8615   1.042   1.921   9.172
 2392SOL     OW 8616   0.494   1.906   9.203
 2392SOL    HW1 8617   0.452   1.852   9.137
 2392SOL    HW2 8618   0.443   1.987   9.204
 2393SOL     OW 8619   0.586   2.738   8.473
 2393SOL    HW1 8620   0.625   2.826   8.471
 2393SOL    HW2 8621   0.532   2.738   8.552
 2394SOL     OW 8622   1.343   2.715   8.479
 2394SOL    HW1 8623   1.279   2.716   8.408
 2394SOL    HW2 8624   1.393   2.634   8.466
 2395SOL     OW 8625   1.199   2.383   7.708
 2395SOL    HW1 8626   1.209   2.306   7.764
 2395SOL    HW2 8627   1.166   2.451   7.765
 2396SOL     OW 8628   0.307   2.049   8.698
 2396SOL    HW1 8629   0.266   2.086   8.776
 2396SOL    HW2 8630   0.282   1.957   8.699
 2397SOL     OW 8631   0.064   3.166   8.717
 2397SOL    HW1 8632   0.081   3.115   8.796
 2397SOL    HW2 8633   0.059   3.256   8.747
 2398SOL     OW 8634   0.717   2.490   8.497
 2398SOL    HW1 8635   0.800   2.480   8.450
 2398SOL    HW2 8636   0.693   2.582   8.484
 2399SOL     OW 8637   1.749   2.826   9.305
 2399SOL    HW1 8638   1.705   2.759   9.253
 2399SOL    HW2 8639   1.694   2.839   9.382
 2400SOL     OW 8640   0.316   1.927   8.061
 2400SOL    HW1 8641   0.288   2.016   8.081
 2400SOL    HW2 8642   0.317   1.883   8.146
 2401SOL     OW 8643   1.612   2.237   7.808
 2401SOL    HW1 8644   1.651   2.173   7.869
 2401SOL    HW2 8645   1.595   2.314   7.862
 2402SOL     OW 8646   1.023   2.617   8.404
 2402SOL    HW1 8647   1.021   2.633   8.498
 2402SOL    HW2 8648   1.003   2.524   8.395
 2403SOL     OW 8649   0.979   3.424   9.169
 2403SOL    HW1 8650   0.963   3.470   9.087
 2403SOL    HW2 8651   1.027   3.346   9.144
 2404SOL     OW 8652   1.850   3.372   9.045
 2404SOL    HW1 8653   1.875   3.393   8.955
 2404SOL    HW2 8654   1.931   3.383   9.095
 2405SOL     OW 8655   0.364   2.777   9.268
 2405SOL    HW1 8656   0.427   2.847   9.249
 2405SOL    HW2 8657   0.389   2.706   9.209
 2406SOL     OW 8658   1.518   2.134   7.573
 2406SOL    HW1 8659   1.460   2.064   7.604
 2406SOL    HW2 8660   1.555   2.172   7.653
 2407SOL     OW 8661   1.282   2.688   7.474
 2407SOL    HW1 8662   1.328   2.604   7.476
 2407SOL    HW2 8663   1.315   2.731   7.395
 2408SOL     OW 8664   1.073   3.203   8.308
 2408SOL    HW1 8665   1.078   3.133   8.243
 2408SOL    HW2 8666   1.127   3.273   8.272
 2409SOL     OW 8667   0.313   2.666   8.384
 2409SOL    HW1 8668   0.405   2.691   8.389
 2409SOL    HW2 8669   0.311   2.576   8.418
 2410SOL     OW 8670   0.329   2.380   8.469
 2410SOL    HW1 8671   0.290   2.294   8.450
 2410SOL    HW2 8672   0.407   2.383   8.414
 2411SOL     OW 8673   1.132   2.230   9.140
 2411SOL    HW1 8674   1.088   2.288   9.203
 2411SOL    HW2 8675   1.222   2.264   9.135
 2412SOL     OW 8676   1.157   2.058   8.923
 2412SOL    HW1 8677   1.150   2.121   8.995
 2412SOL    HW2 8678   1.205   2.105   8.855
 2413SOL     OW 8679   7.991   3.170   7.640
 2413SOL    HW1 8680   7.909   3.194   7.683
 2413SOL    HW2 8681   7.984   3.075   7.627
 2414SOL     OW 8682   0.122   3.637   8.464
 2414SOL    HW1 8683   0.038   3.624   8.421
 2414SOL    HW2 8684   0.184   3.651   8.392
 2415SOL     OW 8685   0.499   3.444   8.361
 2415SOL    HW1 8686   0.568   3.506   8.384
 2415SOL    HW2 8687   0.542   3.382   8.301
 2416SOL     OW 8688   0.970   2.644   8.673
 2416SOL    HW1 8689   1.039   2.632   8.737
 2416SOL    HW2 8690   0.891   2.608   8.714
 2417SOL     OW 8691   0.072   2.417   8.577
 2417SOL    HW1 8692   0.165   2.414   8.551
 2417SOL    HW2 8693   0.074   2.410   8.672
 2418SOL     OW 8694   1.379   2.815   9.101
 2418SOL    HW1 8695   1.410   2.905   9.096
 2418SOL    HW2 8696   1.378   2.784   9.011
 2419SOL     OW 8697   0.811   2.429   7.825
 2419SOL    HW1 8698   0.825   2.358   7.763
 2419SOL    HW2 8699   0.742   2.483   7.786
 2420SOL     OW 8700   1.644   2.459   8.620
 2420SOL    HW1 8701   1.639   2.401   8.697
 2420SOL    HW2 8702   1.733   2.445   8.587
 2421SOL     OW 8703   0.333   3.391   9.209
 2421SOL    HW1 8704   0.286   3.467   9.244
 2421SOL    HW2 8705   0.265   3.338   9.167
 2422SOL     OW 8706   0.702   2.311   8.702
 2422SOL    HW1 8707   0.655   2.235   8.669
 2422SOL    HW2 8708   0.699   2.374   8.629
 2423SOL     OW 8709   0.910   3.543   8.926
 2423SOL    HW1 8710   0.893   3.499   8.842
 2423SOL    HW2 8711   0.910   3.636   8.905
 2424SOL     OW 8712   0.486   2.356   7.613
 2424SOL    HW1 8713   0.541   2.431   7.637
 2424SOL    HW2 8714   0.400   2.395   7.594
 2425SOL     OW 8715   0.155   2.987   8.912
 2425SOL    HW1 8716   0.134   2.943   8.995
 2425SOL    HW2 8717   0.161   2.916   8.848
 2426SOL     OW 8718   1.304   2.901   8.670
 2426SOL    HW1 8719   1.331   2.838   8.604
 2426SOL    HW2 8720   1.243   2.959   8.625
 2427SOL     OW 8721   1.319   2.709   7.748
 2427SOL    HW1 8722   1.237   2.690   7.795
 2427SOL    HW2 8723   1.296   2.702   7.656
 2428SOL     OW 8724   1.770   3.603   8.608
 2428SOL    HW1 8725   1.838   3.628   8.544
 2428SOL    HW2 8726   1.746   3.514   8.583
 2429SOL     OW 8727   1.242   3.597   8.557
 2429SOL    HW1 8728   1.323   3.626   8.516
 2429SOL    HW2 8729   1.254   3.504   8.572
 2430SOL     OW 8730   0.048   3.061   8.470
 2430SOL    HW1 8731   0.057   3.098   8.558
 2430SOL    HW2 8732  -0.016   3.117   8.427
 2431SOL     OW 8733   0.682   3.531   9.187
 2431SOL    HW1 8734   0.625   3.606   9.173
 2431SOL    HW2 8735   0.754   3.546   9.125
 2432SOL     OW 8736   1.724   2.022   7.947
 2432SOL    HW1 8737   1.794   2.006   7.884
 2432SOL    HW2 8738   1.709   1.938   7.989
 2433SOL     OW 8739   1.396   3.427   7.936
 2433SOL    HW1 8740   1.458   3.458   7.871
 2433SOL    HW2 8741   1.348   3.506   7.963
 2434SOL     OW 8742   0.185   3.604   9.287
 2434SOL    HW1 8743   0.115   3.559   9.334
 2434SOL    HW2 8744   0.221   3.666   9.351
 2435SOL     OW 8745   1.277   2.797   8.122
 2435SOL    HW1 8746   1.350   2.737   8.134
 2435SOL    HW2 8747   1.310   2.863   8.062
 2436SOL     OW 8748   0.804   3.141   8.877
 2436SOL    HW1 8749   0.773   3.180   8.959
 2436SOL    HW2 8750   0.742   3.171   8.811
 2437SOL     OW 8751   0.679   3.468   7.599
 2437SOL    HW1 8752   0.684   3.495   7.508
 2437SOL    HW2 8753   0.610   3.401   7.600
 2438SOL     OW 8754   1.616   3.583   8.839
 2438SOL    HW1 8755   1.672   3.587   8.762
 2438SOL    HW2 8756   1.597   3.675   8.860
 2439SOL     OW 8757   1.838   2.029   8.419
 2439SOL    HW1 8758   1.872   1.944   8.391
 2439SOL    HW2 8759   1.755   2.039   8.373
 2440SOL     OW 8760   0.264   2.179   8.154
 2440SOL    HW1 8761   0.176   2.210   8.129
 2440SOL    HW2 8762   0.260   2.174   8.250
 2441SOL     OW 8763   1.207   3.470   7.481
 2441SOL    HW1 8764   1.197   3.375   7.495
 2441SOL    HW2 8765   1.150   3.488   7.406
 2442SOL     OW 8766   0.823   2.872   8.823
 2442SOL    HW1 8767   0.865   2.866   8.737
 2442SOL    HW2 8768   0.817   2.965   8.841
 2443SOL     OW 8769   0.920   2.768   7.752
 2443SOL    HW1 8770   0.971   2.799   7.677
 2443SOL    HW2 8771   0.976   2.703   7.793
 2444SOL     OW 8772   1.491   3.487   7.490
 2444SOL    HW1 8773   1.397   3.484   7.471
 2444SOL    HW2 8774   1.533   3.494   7.404
 2445SOL     OW 8775   0.365   3.168   8.942
 2445SOL    HW1 8776   0.356   3.239   8.879
 2445SOL    HW2 8777   0.292   3.109   8.922
 2446SOL     OW 8778   1.591   3.125   8.736
 2446SOL    HW1 8779   1.684   3.140   8.754
 2446SOL    HW2 8780   1.548   3.206   8.764
 2447SOL     OW 8781   1.059   2.974   8.161
 2447SOL    HW1 8782   0.991   2.920   8.199
 2447SOL    HW2 8783   1.128   2.912   8.135
 2448SOL     OW 8784   1.022   2.109   8.420
 2448SOL    HW1 8785   1.021   2.062   8.336
 2448SOL    HW2 8786   1.020   2.039   8.485
 2449SOL     OW 8787   0.608   3.358   7.943
 2449SOL    HW1 8788   0.651   3.297   7.883
 2449SOL    HW2 8789   0.538   3.397   7.891
 2450SOL     OW 8790   1.721   2.266   8.814
 2450SOL    HW1 8791   1.798   2.323   8.822
 2450SOL    HW2 8792   1.751   2.193   8.760
 2451SOL     OW 8793   0.251   3.181   7.734
 2451SOL    HW1 8794   0.159   3.195   7.713
 2451SOL    HW2 8795   0.265   3.230   7.815
 2452SOL     OW 8796   0.106   2.854   9.157
 2452SOL    HW1 8797   0.051   2.929   9.180
 2452SOL    HW2 8798   0.182   2.862   9.214
 2453SOL     OW 8799   0.678   2.056   8.949
 2453SOL    HW1 8800   0.762   2.035   8.907
 2453SOL    HW2 8801   0.703   2.088   9.037
 2454SOL     OW 8802   0.086   2.200   7.465
 2454SOL    HW1 8803   0.023   2.245   7.521
 2454SOL    HW2 8804   0.111   2.266   7.400
 2455SOL     OW 8805   1.422   2.722   8.847
 2455SOL    HW1 8806   1.371   2.781   8.790
 2455SOL    HW2 8807   1.510   2.722   8.810
 2456SOL     OW 8808   0.068   2.084   7.834
 2456SOL    HW1 8809   0.032   2.132   7.760
 2456SOL    HW2 8810   0.162   2.082   7.818
 2457SOL     OW 8811   1.179   3.195   7.565
 2457SOL    HW1 8812   1.084   3.185   7.567
 2457SOL    HW2 8813   1.205   3.199   7.657
 2458SOL     OW 8814   0.618   2.700   8.892
 2458SOL    HW1 8815   0.674   2.775   8.874
 2458SOL    HW2 8816   0.678   2.625   8.894
 2459SOL     OW 8817   1.484   3.654   8.435
 2459SOL    HW1 8818   1.506   3.718   8.367
 2459SOL    HW2 8819   1.569   3.622   8.465
 2460SOL     OW 8820   0.700   2.425   9.158
 2460SOL    HW1 8821   0.759   2.484   9.205
 2460SOL    HW2 8822   0.730   2.337   9.183
 2461SOL     OW 8823   1.487   3.073   9.078
 2461SOL    HW1 8824   1.476   3.167   9.092
 2461SOL    HW2 8825   1.579   3.062   9.057
 2462SOL     OW 8826   0.389   3.600   9.022
 2462SOL    HW1 8827   0.299   3.626   9.002
 2462SOL    HW2 8828   0.379   3.516   9.068
 2463SOL     OW 8829   1.656   2.736   8.702
 2463SOL    HW1 8830   1.660   2.652   8.656
 2463SOL    HW2 8831   1.645   2.801   8.633
 2464SOL     OW 8832   1.211   2.174   7.905
 2464SOL    HW1 8833   1.279   2.106   7.900
 2464SOL    HW2 8834   1.236   2.227   7.981
 2465SOL     OW 8835   1.795   2.165   9.060
 2465SOL    HW1 8836   1.761   2.218   8.988
 2465SOL    HW2 8837   1.720   2.154   9.119
 2466SOL     OW 8838   1.749   2.793   8.954
 2466SOL    HW1 8839   1.765   2.888   8.958
 2466SOL    HW2 8840   1.730   2.776   8.862
 2467SOL     OW 8841   0.865   3.251   7.508
 2467SOL    HW1 8842   0.812   3.317   7.553
 2467SOL    HW2 8843   0.900   3.296   7.431
 2468SOL     OW 8844   0.672   3.653   8.400
 2468SOL    HW1 8845   0.652   3.741   8.367
 2468SOL    HW2 8846   0.765   3.641   8.379
 2469SOL     OW 8847   0.872   2.829   8.306
 2469SOL    HW1 8848   0.925   2.759   8.344
 2469SOL    HW2 8849   0.838   2.877   8.381
 2470SOL     OW 8850   1.058   2.831   7.532
 2470SOL    HW1 8851   1.046   2.896   7.463
 2470SOL    HW2 8852   1.140   2.788   7.510
 2471SOL     OW 8853   1.858   3.407   8.295
 2471SOL    HW1 8854   1.784   3.391   8.235
 2471SOL    HW2 8855   1.875   3.322   8.335
 2472SOL     OW 8856   0.224   3.104   9.305
 2472SOL    HW1 8857   0.171   3.163   9.252
 2472SOL    HW2 8858   0.216   3.139   9.394
 2473SOL     OW 8859   0.130   3.113   8.134
 2473SOL    HW1 8860   0.055   3.062   8.163
 2473SOL    HW2 8861   0.184   3.051   8.085
 2474SOL     OW 8862   0.682   3.263   9.091
 2474SOL    HW1 8863   0.594   3.229   9.110
 2474SOL    HW2 8864   0.679   3.354   9.123
 2475SOL     OW 8865   1.794   2.040   8.686
 2475SOL    HW1 8866   1.827   1.952   8.704
 2475SOL    HW2 8867   1.809   2.053   8.593
 2476SOL     OW 8868   0.471   2.295   8.005
 2476SOL    HW1 8869   0.478   2.243   7.925
 2476SOL    HW2 8870   0.397   2.256   8.052
 2477SOL     OW 8871   1.679   3.357   8.555
 2477SOL    HW1 8872   1.614   3.328   8.492
 2477SOL    HW2 8873   1.724   3.276   8.581
 2478SOL     OW 8874   0.360   2.422   8.742
 2478SOL    HW1 8875   0.419   2.366   8.793
 2478SOL    HW2 8876   0.371   2.392   8.651
 2479SOL     OW 8877   0.831   3.455   8.116
 2479SOL    HW1 8878   0.828   3.531   8.057
 2479SOL    HW2 8879   0.755   3.403   8.092
 2480SOL     OW 8880   1.429   2.094   8.568
 2480SOL    HW1 8881   1.478   2.029   8.618
 2480SOL    HW2 8882   1.378   2.141   8.633
 2481SOL     OW 8883   1.009   1.875   8.581
 2481SOL    HW1 8884   0.960   1.811   8.529
 2481SOL    HW2 8885   1.098   1.841   8.584
 2482SOL     OW 8886   0.765   3.170   7.806
 2482SOL    HW1 8887   0.774   3.148   7.714
 2482SOL    HW2 8888   0.851   3.206   7.831
 2483SOL     OW 8889   0.619   3.412   8.739
 2483SOL    HW1 8890   0.618   3.497   8.782
 2483SOL    HW2 8891   0.706   3.405   8.700
 2484SOL     OW 8892   1.364   1.905   7.628
 2484SOL    HW1 8893   1.407   1.831   7.585
 2484SOL    HW2 8894   1.274   1.876   7.642
 2485SOL     OW 8895   1.272   2.321   8.123
 2485SOL    HW1 8896   1.236   2.410   8.131
 2485SOL    HW2 8897   1.285   2.293   8.214
 2486SOL     OW 8898   1.579   2.056   8.329
 2486SOL    HW1 8899   1.526   2.085   8.403
 2486SOL    HW2 8900   1.583   2.132   8.271
 2487SOL     OW 8901   0.038   2.887   7.723
 2487SOL    HW1 8902   0.127   2.921   7.727
 2487SOL    HW2 8903  -0.003   2.915   7.805
 2488SOL     OW 8904   0.883   3.522   7.786
 2488SOL    HW1 8905   0.811   3.510   7.725
 2488SOL    HW2 8906   0.858   3.598   7.838
 2489SOL     OW 8907   0.219   2.479   9.342
 2489SOL    HW1 8908   0.170   2.560   9.352
 2489SOL    HW2 8909   0.215   2.437   9.428
 2490SOL     OW 8910   0.230   2.128  10.263
 2490SOL    HW1 8911   0.253   2.106  10.353
 2490SOL    HW2 8912   0.148   2.080  10.247
 2491SOL     OW 8913   8.011   2.276   9.921
 2491SOL    HW1 8914   7.958   2.301   9.997
 2491SOL    HW2 8915   7.965   2.201   9.883
 2492SOL     OW 8916   0.565   3.163  10.486
 2492SOL    HW1 8917   0.477   3.178  10.451
 2492SOL    HW2 8918   0.589   3.247  10.527
 2493SOL     OW 8919   1.570   3.379  10.023
 2493SOL    HW1 8920   1.528   3.355  10.106
 2493SOL    HW2 8921   1.499   3.379   9.959
 2494SOL     OW 8922   1.118   2.566  10.000
 2494SOL    HW1 8923   1.170   2.645   9.983
 2494SOL    HW2 8924   1.087   2.576  10.090
 2495SOL     OW 8925   0.732   2.996  10.351
 2495SOL    HW1 8926   0.666   3.041  10.404
 2495SOL    HW2 8927   0.789   3.067  10.319
 2496SOL     OW 8928   0.919   2.636  11.142
 2496SOL    HW1 8929   0.864   2.692  11.196
 2496SOL    HW2 8930   0.915   2.675  11.055
 2497SOL     OW 8931   0.686   2.849   9.972
 2497SOL    HW1 8932   0.765   2.853  10.027
 2497SOL    HW2 8933   0.627   2.913  10.011
 2498SOL     OW 8934   0.711   3.012  11.132
 2498SOL    HW1 8935   0.760   3.088  11.162
 2498SOL    HW2 8936   0.635   3.048  11.087
 2499SOL     OW 8937   0.335   3.278  10.377
 2499SOL    HW1 8938   0.266   3.241  10.323
 2499SOL    HW2 8939   0.384   3.336  10.318
 2500SOL     OW 8940   1.454   3.365  10.670
 2500SOL    HW1 8941   1.509   3.444  10.680
 2500SOL    HW2 8942   1.384   3.376  10.734
 2501SOL     OW 8943   0.453   2.267  10.772
 2501SOL    HW1 8944   0.502   2.288  10.852
 2501SOL    HW2 8945   0.437   2.172  10.778
 2502SOL     OW 8946   1.610   2.305  10.052
 2502SOL    HW1 8947   1.586   2.345   9.968
 2502SOL    HW2 8948   1.591   2.373  10.117
 2503SOL     OW 8949   0.230   3.555   9.795
 2503SOL    HW1 8950   0.208   3.640   9.833
 2503SOL    HW2 8951   0.297   3.574   9.729
 2504SOL     OW 8952   1.139   3.207  11.010
 2504SOL    HW1 8953   1.178   3.206  11.098
 2504SOL    HW2 8954   1.089   3.126  11.005
 2505SOL     OW 8955   0.288   3.291   9.825
 2505SOL    HW1 8956   0.268   3.384   9.834
 2505SOL    HW2 8957   0.235   3.248   9.892
 2506SOL     OW 8958   0.263   2.943  10.190
 2506SOL    HW1 8959   0.264   2.854  10.226
 2506SOL    HW2 8960   0.195   2.988  10.241
 2507SOL     OW 8961   0.598   3.668  10.717
 2507SOL    HW1 8962   0.524   3.643  10.772
 2507SOL    HW2 8963   0.627   3.752  10.754
 2508SOL     OW 8964   0.614   2.849   9.460
 2508SOL    HW1 8965   0.642   2.890   9.378
 2508SOL    HW2 8966   0.665   2.894   9.528
 2509SOL     OW 8967   1.598   1.996  10.777
 2509SOL    HW1 8968   1.621   2.080  10.738
 2509SOL    HW2 8969   1.564   2.018  10.864
 2510SOL     OW 8970   0.153   2.503   9.851
 2510SOL    HW1 8971   0.109   2.421   9.874
 2510SOL    HW2 8972   0.131   2.563   9.922
 2511SOL     OW 8973   1.845   3.620   9.646
 2511SOL    HW1 8974   1.920   3.594   9.701
 2511SOL    HW2 8975   1.867   3.708   9.616
 2512SOL     OW 8976   0.025   3.449   9.446
 2512SOL    HW1 8977   0.006   3.355   9.437
 2512SOL    HW2 8978   0.007   3.468   9.538
 2513SOL     OW 8979   1.686   2.774   9.947
 2513SOL    HW1 8980   1.765   2.727   9.921
 2513SOL    HW2 8981   1.667   2.832   9.874
 2514SOL     OW 8982   1.659   2.971   9.735
 2514SOL    HW1 8983   1.747   2.964   9.697
 2514SOL    HW2 8984   1.669   3.033   9.807
 2515SOL     OW 8985   0.152   2.626  10.893
 2515SOL    HW1 8986   0.248   2.623  10.890
 2515SOL    HW2 8987   0.133   2.706  10.941
 2516SOL     OW 8988   0.614   3.257  10.046
 2516SOL    HW1 8989   0.571   3.172  10.053
 2516SOL    HW2 8990   0.601   3.283   9.955
 2517SOL     OW 8991   1.287   3.098  10.729
 2517SOL    HW1 8992   1.313   3.028  10.668
 2517SOL    HW2 8993   1.348   3.088  10.803
 2518SOL     OW 8994   0.822   1.868   9.818
 2518SOL    HW1 8995   0.863   1.952   9.799
 2518SOL    HW2 8996   0.729   1.887   9.828
 2519SOL     OW 8997   0.179   2.785  10.576
 2519SOL    HW1 8998   0.271   2.758  10.575
 2519SOL    HW2 8999   0.149   2.770  10.486
 2520SOL     OW 9000   1.518   2.873   9.522
 2520SOL    HW1 9001   1.525   2.779   9.537
 2520SOL    HW2 9002   1.572   2.913   9.590
 2521SOL     OW 9003   1.190   3.674  10.937
 2521SOL    HW1 9004   1.184   3.735  10.863
 2521SOL    HW2 9005   1.204   3.589  10.896
 2522SOL     OW 9006   0.363   2.109  11.145
 2522SOL    HW1 9007   0.419   2.185  11.132
 2522SOL    HW2 9008   0.277   2.145  11.167
 2523SOL     OW 9009   1.475   3.278  10.264
 2523SOL    HW1 9010   1.403   3.295  10.325
 2523SOL    HW2 9011   1.461   3.188  10.236
 2524SOL     OW 9012   1.642   3.624   9.887
 2524SOL    HW1 9013   1.635   3.584   9.801
 2524SOL    HW2 9014   1.627   3.552   9.948
 2525SOL     OW 9015   1.275   2.236  10.253
 2525SOL    HW1 9016   1.187   2.200  10.256
 2525SOL    HW2 9017   1.328   2.178  10.307
 2526SOL     OW 9018   1.579   3.546   9.618
 2526SOL    HW1 9019   1.672   3.566   9.612
 2526SOL    HW2 9020   1.552   3.529   9.527
 2527SOL     OW 9021   0.796   2.471  10.777
 2527SOL    HW1 9022   0.754   2.439  10.856
 2527SOL    HW2 9023   0.758   2.418  10.707
 2528SOL     OW 9024   1.397   2.337  10.988
 2528SOL    HW1 9025   1.397   2.381  11.073
 2528SOL    HW2 9026   1.445   2.256  11.003
 2529SOL     OW 9027   0.953   2.757  10.884
 2529SOL    HW1 9028   1.005   2.685  10.850
 2529SOL    HW2 9029   0.916   2.799  10.807
 2530SOL     OW 9030   0.997   2.282  10.536
 2530SOL    HW1 9031   0.914   2.310  10.575
 2530SOL    HW2 9032   0.972   2.215  10.473
 2531SOL     OW 9033   1.043   2.558   9.734
 2531SOL    HW1 9034   1.064   2.559   9.827
 2531SOL    HW2 9035   0.959   2.513   9.728
 2532SOL     OW 9036   0.098   2.651  10.078
 2532SOL    HW1 9037   0.174   2.660  10.136
 2532SOL    HW2 9038   0.046   2.730  10.095
 2533SOL     OW 9039   0.128   3.689  10.875
 2533SOL    HW1 9040   0.130   3.680  10.970
 2533SOL    HW2 9041   0.040   3.661  10.850
 2534SOL     OW 9042   0.904   2.212   9.504
 2534SOL    HW1 9043   0.943   2.277   9.446
 2534SOL    HW2 9044   0.931   2.128   9.468
 2535SOL     OW 9045   1.712   2.434  11.142
 2535SOL    HW1 9046   1.674   2.508  11.094
 2535SOL    HW2 9047   1.727   2.367  11.075
 2536SOL     OW 9048   1.385   3.004   9.845
 2536SOL    HW1 9049   1.474   3.010   9.811
 2536SOL    HW2 9050   1.339   3.079   9.806
 2537SOL     OW 9051   0.554   2.033  10.206
 2537SOL    HW1 9052   0.555   2.050  10.301
 2537SOL    HW2 9053   0.558   2.119  10.166
 2538SOL     OW 9054   0.997   3.292   9.779
 2538SOL    HW1 9055   0.972   3.378   9.745
 2538SOL    HW2 9056   0.988   3.300   9.874
 2539SOL     OW 9057   0.361   3.685  10.173
 2539SOL    HW1 9058   0.406   3.602  10.185
 2539SOL    HW2 9059   0.427   3.751  10.193
 2540SOL     OW 9060   1.797   2.904  10.185
 2540SOL    HW1 9061   1.746   2.891  10.106
 2540SOL    HW2 9062   1.732   2.915  10.254
 2541SOL     OW 9063   1.227   3.404  10.825
 2541SOL    HW1 9064   1.219   3.339  10.894
 2541SOL    HW2 9065   1.159   3.380  10.761
 2542SOL     OW 9066   0.347   2.805   9.561
 2542SOL    HW1 9067   0.389   2.836   9.481
 2542SOL    HW2 9068   0.268   2.760   9.530
 2543SOL     OW 9069   1.466   2.649  10.066
 2543SOL    HW1 9070   1.481   2.579  10.129
 2543SOL    HW2 9071   1.554   2.681  10.044
 2544SOL     OW 9072   0.461   3.126  11.051
 2544SOL    HW1 9073   0.440   3.132  10.958
 2544SOL    HW2 9074   0.376   3.118  11.094
 2545SOL     OW 9075   1.129   3.646   9.534
 2545SOL    HW1 9076   1.055   3.608   9.582
 2545SOL    HW2 9077   1.151   3.580   9.468
 2546SOL     OW 9078   0.128   2.157  10.836
 2546SOL    HW1 9079   0.173   2.145  10.752
 2546SOL    HW2 9080   0.136   2.073  10.880
 2547SOL     OW 9081   1.618   3.244   9.417
 2547SOL    HW1 9082   1.597   3.335   9.399
 2547SOL    HW2 9083   1.589   3.197   9.339
 2548SOL     OW 9084   0.460   3.604   9.623
 2548SOL    HW1 9085   0.505   3.655   9.690
 2548SOL    HW2 9086   0.530   3.564   9.572
 2549SOL     OW 9087   1.395   1.973   9.752
 2549SOL    HW1 9088   1.387   1.942   9.662
 2549SOL    HW2 9089   1.464   2.039   9.749
 2550SOL     OW 9090   0.239   3.650  10.536
 2550SOL    HW1 9091   0.292   3.578  10.571
 2550SOL    HW2 9092   0.213   3.621  10.449
 2551SOL     OW 9093   0.930   3.576  10.211
 2551SOL    HW1 9094   0.984   3.516  10.262
 2551SOL    HW2 9095   0.904   3.525  10.134
 2552SOL     OW 9096   0.415   2.570   9.780
 2552SOL    HW1 9097   0.438   2.478   9.791
 2552SOL    HW2 9098   0.321   2.575   9.799
 2553SOL     OW 9099   1.515   2.082  11.038
 2553SOL    HW1 9100   1.532   2.097  11.131
 2553SOL    HW2 9101   1.442   2.021  11.036
 2554SOL     OW 9102   0.644   1.975   9.416
 2554SOL    HW1 9103   0.712   1.908   9.427
 2554SOL    HW2 9104   0.594   1.946   9.340
 2555SOL     OW 9105   0.743   2.082  11.068
 2555SOL    HW1 9106   0.838   2.076  11.069
 2555SOL    HW2 9107   0.725   2.176  11.063
 2556SOL     OW 9108   0.865   3.356  10.506
 2556SOL    HW1 9109   0.858   3.320  10.417
 2556SOL    HW2 9110   0.944   3.317  10.541
 2557SOL     OW 9111   1.337   2.450  10.744
 2557SOL    HW1 9112   1.370   2.422  10.830
 2557SOL    HW2 9113   1.372   2.539  10.734
 2558SOL     OW 9114   0.825   3.244  10.249
 2558SOL    HW1 9115   0.904   3.242  10.196
 2558SOL    HW2 9116   0.754   3.258  10.187
 2559SOL     OW 9117   0.879   2.370  10.233
 2559SOL    HW1 9118   0.868   2.358  10.139
 2559SOL    HW2 9119   0.924   2.290  10.262
 2560SOL     OW 9120   0.553   1.922   9.806
 2560SOL    HW1 9121   0.476   1.924   9.863
 2560SOL    HW2 9122   0.544   2.001   9.752
 2561SOL     OW 9123   0.295   1.907   9.485
 2561SOL    HW1 9124   0.361   1.969   9.456
 2561SOL    HW2 9125   0.344   1.842   9.536
 2562SOL     OW 9126   0.939   2.116   9.767
 2562SOL    HW1 9127   0.919   2.152   9.680
 2562SOL    HW2 9128   1.033   2.128   9.777
 2563SOL     OW 9129   1.073   2.547  10.751
 2563SOL    HW1 9130   1.006   2.486  10.782
 2563SOL    HW2 9131   1.155   2.499  10.758
 2564SOL     OW 9132   1.247   3.428  10.099
 2564SOL    HW1 9133   1.250   3.498  10.034
 2564SOL    HW2 9134   1.290   3.465  10.176
 2565SOL     OW 9135   0.476   3.015  10.036
 2565SOL    HW1 9136   0.408   2.995  10.100
 2565SOL    HW2 9137   0.435   2.998   9.951
 2566SOL     OW 9138   1.274   3.638   9.909
 2566SOL    HW1 9139   1.315   3.712   9.864
 2566SOL    HW2 9140   1.192   3.674   9.945
 2567SOL     OW 9141   1.026   2.394   9.341
 2567SOL    HW1 9142   0.990   2.481   9.321
 2567SOL    HW2 9143   1.096   2.412   9.405
 2568SOL     OW 9144   0.081   2.474  10.681
 2568SOL    HW1 9145   0.169   2.443  10.657
 2568SOL    HW2 9146   0.096   2.529  10.758
 2569SOL     OW 9147   0.563   2.071  10.475
 2569SOL    HW1 9148   0.607   2.019  10.542
 2569SOL    HW2 9149   0.471   2.075  10.503
 2570SOL     OW 9150   0.855   2.313   9.965
 2570SOL    HW1 9151   0.831   2.379   9.900
 2570SOL    HW2 9152   0.889   2.240   9.914
 2571SOL     OW 9153   1.022   1.915  10.056
 2571SOL    HW1 9154   0.961   1.908   9.982
 2571SOL    HW2 9155   0.997   1.843  10.114
 2572SOL     OW 9156   1.429   3.020  10.185
 2572SOL    HW1 9157   1.338   2.998  10.206
 2572SOL    HW2 9158   1.434   3.010  10.090
 2573SOL     OW 9159   1.470   2.460  10.269
 2573SOL    HW1 9160   1.408   2.388  10.277
 2573SOL    HW2 9161   1.522   2.457  10.349
 2574SOL     OW 9162   1.847   2.682   9.707
 2574SOL    HW1 9163   1.910   2.630   9.757
 2574SOL    HW2 9164   1.803   2.618   9.650
 2575SOL     OW 9165   0.478   3.287   9.452
 2575SOL    HW1 9166   0.406   3.246   9.500
 2575SOL    HW2 9167   0.442   3.304   9.365
 2576SOL     OW 9168   1.681   3.130   9.947
 2576SOL    HW1 9169   1.774   3.126   9.966
 2576SOL    HW2 9170   1.654   3.217   9.975
 2577SOL     OW 9171   1.413   2.456   9.387
 2577SOL    HW1 9172   1.364   2.411   9.457
 2577SOL    HW2 9173   1.505   2.445   9.411
 2578SOL     OW 9174   0.528   2.120   9.618
 2578SOL    HW1 9175   0.580   2.069   9.556
 2578SOL    HW2 9176   0.508   2.201   9.572
 2579SOL     OW 9177   1.747   3.103  10.864
 2579SOL    HW1 9178   1.834   3.068  10.848
 2579SOL    HW2 9179   1.762   3.191  10.897
 2580SOL     OW 9180   1.064   3.231  10.657
 2580SOL    HW1 9181   0.988   3.192  10.700
 2580SOL    HW2 9182   1.138   3.180  10.688
 2581SOL     OW 9183   1.622   3.497  10.970
 2581SOL    HW1 9184   1.607   3.526  10.880
 2581SOL    HW2 9185   1.700   3.441  10.964
 2582SOL     OW 9186   1.620   2.958  10.389
 2582SOL    HW1 9187   1.613   3.023  10.458
 2582SOL    HW2 9188   1.545   2.976  10.331
 2583SOL     OW 9189   0.931   1.950  10.702
 2583SOL    HW1 9190   0.953   1.933  10.610
 2583SOL    HW2 9191   1.009   1.992  10.738
 2584SOL     OW 9192   0.987   2.975  11.042
 2584SOL    HW1 9193   0.896   2.994  11.064
 2584SOL    HW2 9194   0.982   2.899  10.984
 2585SOL     OW 9195   0.721   2.900   9.706
 2585SOL    HW1 9196   0.729   2.902   9.802
 2585SOL    HW2 9197   0.804   2.863   9.676
 2586SOL     OW 9198   0.434   2.673  10.557
 2586SOL    HW1 9199   0.496   2.686  10.629
 2586SOL    HW2 9200   0.397   2.586  10.573
 2587SOL     OW 9201   1.263   2.240  10.590
 2587SOL    HW1 9202   1.295   2.316  10.637
 2587SOL    HW2 9203   1.173   2.262  10.566
 2588SOL     OW 9204   0.052   3.457  10.635
 2588SOL    HW1 9205   0.098   3.538  10.612
 2588SOL    HW2 9206   0.103   3.420  10.706
 2589SOL     OW 9207   0.367   2.966   9.784
 2589SOL    HW1 9208   0.347   3.057   9.762
 2589SOL    HW2 9209   0.339   2.916   9.708
 2590SOL     OW 9210   0.555   2.405  10.172
 2590SOL    HW1 9211   0.584   2.432  10.085
 2590SOL    HW2 9212   0.589   2.473  10.231
 2591SOL     OW 9213   1.248   3.208   9.696
 2591SOL    HW1 9214   1.303   3.280   9.725
 2591SOL    HW2 9215   1.162   3.226   9.734
 2592SOL     OW 9216   1.282   3.314  10.455
 2592SOL    HW1 9217   1.334   3.316  10.535
 2592SOL    HW2 9218   1.207   3.258  10.477
 2593SOL     OW 9219   1.582   2.470   9.835
 2593SOL    HW1 9220   1.552   2.560   9.846
 2593SOL    HW2 9221   1.621   2.468   9.748
 2594SOL     OW 9222   0.347   3.395  10.624
 2594SOL    HW1 9223   0.331   3.348  10.542
 2594SOL    HW2 9224   0.442   3.405  10.628
 2595SOL     OW 9225   0.427   2.602  10.918
 2595SOL    HW1 9226   0.492   2.641  10.859
 2595SOL    HW2 9227   0.471   2.525  10.954
 2596SOL     OW 9228   1.615   2.644  11.000
 2596SOL    HW1 9229   1.528   2.683  10.994
 2596SOL    HW2 9230   1.664   2.685  10.929
 2597SOL     OW 9231   1.011   2.007  11.075
 2597SOL    HW1 9232   1.065   2.081  11.048
 2597SOL    HW2 9233   1.062   1.930  11.048
 2598SOL     OW 9234   0.488   1.874  11.071
 2598SOL    HW1 9235   0.447   1.834  10.995
 2598SOL    HW2 9236   0.448   1.961  11.078
 2599SOL     OW 9237   0.613   2.699  10.352
 2599SOL    HW1 9238   0.634   2.792  10.344
 2599SOL    HW2 9239   0.554   2.694  10.428
 2600SOL     OW 9240   1.356   2.707  10.356
 2600SOL    HW1 9241   1.311   2.753  10.286
 2600SOL    HW2 9242   1.396   2.631  10.313
 2601SOL     OW 9243   1.194   2.391   9.572
 2601SOL    HW1 9244   1.210   2.312   9.624
 2601SOL    HW2 9245   1.150   2.451   9.633
 2602SOL     OW 9246   0.054   3.170  10.581
 2602SOL    HW1 9247   0.076   3.119  10.659
 2602SOL    HW2 9248   0.051   3.260  10.612
 2603SOL     OW 9249   1.746   2.817  11.175
 2603SOL    HW1 9250   1.700   2.753  11.120
 2603SOL    HW2 9251   1.683   2.840  11.242
 2604SOL     OW 9252   0.302   1.931   9.924
 2604SOL    HW1 9253   0.284   2.023   9.944
 2604SOL    HW2 9254   0.313   1.890  10.010
 2605SOL     OW 9255   1.574   2.179   9.702
 2605SOL    HW1 9256   1.644   2.144   9.757
 2605SOL    HW2 9257   1.602   2.269   9.684
 2606SOL     OW 9258   1.071   2.589  10.274
 2606SOL    HW1 9259   1.108   2.652  10.337
 2606SOL    HW2 9260   1.098   2.504  10.308
 2607SOL     OW 9261   0.966   3.421  11.026
 2607SOL    HW1 9262   0.958   3.465  10.941
 2607SOL    HW2 9263   1.025   3.347  11.009
 2608SOL     OW 9264   1.854   3.357  10.912
 2608SOL    HW1 9265   1.875   3.387  10.824
 2608SOL    HW2 9266   1.934   3.372  10.962
 2609SOL     OW 9267   0.357   2.789  11.112
 2609SOL    HW1 9268   0.436   2.809  11.164
 2609SOL    HW2 9269   0.386   2.720  11.052
 2610SOL     OW 9270   1.522   2.124   9.430
 2610SOL    HW1 9271   1.459   2.060   9.461
 2610SOL    HW2 9272   1.555   2.166   9.510
 2611SOL     OW 9273   1.289   2.691   9.326
 2611SOL    HW1 9274   1.337   2.609   9.337
 2611SOL    HW2 9275   1.322   2.727   9.243
 2612SOL     OW 9276   1.056   3.226  10.110
 2612SOL    HW1 9277   1.093   3.153  10.159
 2612SOL    HW2 9278   1.128   3.289  10.105
 2613SOL     OW 9279   0.315   2.662  10.252
 2613SOL    HW1 9280   0.406   2.685  10.274
 2613SOL    HW2 9281   0.304   2.574  10.287
 2614SOL     OW 9282   0.325   2.377  10.309
 2614SOL    HW1 9283   0.291   2.289  10.293
 2614SOL    HW2 9284   0.406   2.382  10.258
 2615SOL     OW 9285   1.137   2.239  10.992
 2615SOL    HW1 9286   1.087   2.290  11.055
 2615SOL    HW2 9287   1.223   2.282  10.989
 2616SOL     OW 9288   1.167   2.063  10.781
 2616SOL    HW1 9289   1.151   2.125  10.852
 2616SOL    HW2 9290   1.207   2.116  10.712
 2617SOL     OW 9291   7.980   3.173   9.505
 2617SOL    HW1 9292   7.893   3.196   9.539
 2617SOL    HW2 9293   7.974   3.079   9.487
 2618SOL     OW 9294   0.115   3.612  10.266
 2618SOL    HW1 9295   0.103   3.542  10.202
 2618SOL    HW2 9296   0.192   3.660  10.235
 2619SOL     OW 9297   0.489   3.437  10.215
 2619SOL    HW1 9298   0.556   3.499  10.241
 2619SOL    HW2 9299   0.534   3.376  10.157
 2620SOL     OW 9300   0.925   2.633  10.532
 2620SOL    HW1 9301   0.985   2.590  10.593
 2620SOL    HW2 9302   0.889   2.707  10.582
 2621SOL     OW 9303   0.062   2.400  10.419
 2621SOL    HW1 9304   0.155   2.383  10.407
 2621SOL    HW2 9305   0.054   2.425  10.511
 2622SOL     OW 9306   0.175   2.383  11.023
 2622SOL    HW1 9307   0.189   2.316  10.955
 2622SOL    HW2 9308   0.166   2.465  10.974
 2623SOL     OW 9309   1.384   2.789  10.967
 2623SOL    HW1 9310   1.402   2.883  10.964
 2623SOL    HW2 9311   1.379   2.762  10.876
 2624SOL     OW 9312   0.804   2.411   9.682
 2624SOL    HW1 9313   0.839   2.352   9.615
 2624SOL    HW2 9314   0.714   2.382   9.696
 2625SOL     OW 9315   1.637   2.459  10.487
 2625SOL    HW1 9316   1.627   2.405  10.565
 2625SOL    HW2 9317   1.726   2.439  10.456
 2626SOL     OW 9318   0.287   3.396  11.030
 2626SOL    HW1 9319   0.251   3.470  11.079
 2626SOL    HW2 9320   0.283   3.323  11.092
 2627SOL     OW 9321   0.702   2.305  10.574
 2627SOL    HW1 9322   0.652   2.262  10.644
 2627SOL    HW2 9323   0.667   2.268  10.493
 2628SOL     OW 9324   0.918   3.545  10.782
 2628SOL    HW1 9325   0.908   3.509  10.694
 2628SOL    HW2 9326   0.911   3.640  10.770
 2629SOL     OW 9327   0.463   2.338   9.472
 2629SOL    HW1 9328   0.493   2.420   9.434
 2629SOL    HW2 9329   0.386   2.363   9.524
 2630SOL     OW 9330   0.155   2.983  10.768
 2630SOL    HW1 9331   0.135   2.935  10.848
 2630SOL    HW2 9332   0.162   2.916  10.701
 2631SOL     OW 9333   1.313   2.904  10.533
 2631SOL    HW1 9334   1.346   2.835  10.476
 2631SOL    HW2 9335   1.244   2.947  10.482
 2632SOL     OW 9336   1.263   2.743   9.612
 2632SOL    HW1 9337   1.234   2.698   9.691
 2632SOL    HW2 9338   1.273   2.673   9.547
 2633SOL     OW 9339   1.781   3.596  10.468
 2633SOL    HW1 9340   1.841   3.621  10.399
 2633SOL    HW2 9341   1.753   3.507  10.444
 2634SOL     OW 9342   1.247   3.587  10.416
 2634SOL    HW1 9343   1.330   3.612  10.375
 2634SOL    HW2 9344   1.257   3.494  10.435
 2635SOL     OW 9345   0.062   3.061  10.337
 2635SOL    HW1 9346   0.066   3.098  10.425
 2635SOL    HW2 9347  -0.019   3.097  10.300
 2636SOL     OW 9348   0.683   3.528  11.049
 2636SOL    HW1 9349   0.632   3.608  11.034
 2636SOL    HW2 9350   0.765   3.543  11.002
 2637SOL     OW 9351   1.760   2.017   9.836
 2637SOL    HW1 9352   1.817   2.002   9.761
 2637SOL    HW2 9353   1.731   1.929   9.862
 2638SOL     OW 9354   1.395   3.422   9.789
 2638SOL    HW1 9355   1.455   3.463   9.727
 2638SOL    HW2 9356   1.346   3.495   9.827
 2639SOL     OW 9357   0.173   3.608  11.152
 2639SOL    HW1 9358   0.106   3.565  11.205
 2639SOL    HW2 9359   0.220   3.664  11.214
 2640SOL     OW 9360   1.267   2.785   9.949
 2640SOL    HW1 9361   1.339   2.740   9.993
 2640SOL    HW2 9362   1.307   2.864   9.913
 2641SOL     OW 9363   0.809   3.133  10.740
 2641SOL    HW1 9364   0.777   3.172  10.821
 2641SOL    HW2 9365   0.756   3.172  10.671
 2642SOL     OW 9366   0.667   3.485   9.464
 2642SOL    HW1 9367   0.681   3.501   9.370
 2642SOL    HW2 9368   0.612   3.407   9.467
 2643SOL     OW 9369   1.620   3.588  10.702
 2643SOL    HW1 9370   1.672   3.593  10.622
 2643SOL    HW2 9371   1.607   3.679  10.727
 2644SOL     OW 9372   1.841   2.027  10.278
 2644SOL    HW1 9373   1.869   1.942  10.243
 2644SOL    HW2 9374   1.756   2.044  10.237
 2645SOL     OW 9375   0.267   2.191  10.000
 2645SOL    HW1 9376   0.181   2.226   9.978
 2645SOL    HW2 9377   0.264   2.176  10.094
 2646SOL     OW 9378   1.210   3.465   9.339
 2646SOL    HW1 9379   1.191   3.372   9.355
 2646SOL    HW2 9380   1.150   3.490   9.270
 2647SOL     OW 9381   0.847   2.876  10.655
 2647SOL    HW1 9382   0.883   2.902  10.570
 2647SOL    HW2 9383   0.827   2.959  10.699
 2648SOL     OW 9384   0.926   2.773   9.592
 2648SOL    HW1 9385   0.989   2.808   9.529
 2648SOL    HW2 9386   0.976   2.707   9.641
 2649SOL     OW 9387   1.489   3.505   9.353
 2649SOL    HW1 9388   1.396   3.490   9.337
 2649SOL    HW2 9389   1.528   3.504   9.265
 2650SOL     OW 9390   0.368   3.162  10.801
 2650SOL    HW1 9391   0.352   3.242  10.751
 2650SOL    HW2 9392   0.292   3.107  10.782
 2651SOL     OW 9393   1.609   3.149  10.593
 2651SOL    HW1 9394   1.659   3.130  10.672
 2651SOL    HW2 9395   1.545   3.215  10.620
 2652SOL     OW 9396   1.013   2.907   9.974
 2652SOL    HW1 9397   1.028   2.956  10.055
 2652SOL    HW2 9398   1.096   2.863   9.957
 2653SOL     OW 9399   1.022   2.106  10.277
 2653SOL    HW1 9400   1.021   2.063  10.191
 2653SOL    HW2 9401   1.020   2.035  10.340
 2654SOL     OW 9402   0.602   3.344   9.789
 2654SOL    HW1 9403   0.653   3.305   9.717
 2654SOL    HW2 9404   0.520   3.372   9.748
 2655SOL     OW 9405   1.733   2.247  10.701
 2655SOL    HW1 9406   1.801   2.314  10.697
 2655SOL    HW2 9407   1.761   2.180  10.638
 2656SOL     OW 9408   0.243   3.185   9.584
 2656SOL    HW1 9409   0.151   3.203   9.568
 2656SOL    HW2 9410   0.263   3.231   9.665
 2657SOL     OW 9411   0.104   2.860  11.026
 2657SOL    HW1 9412   0.074   2.947  11.051
 2657SOL    HW2 9413   0.189   2.850  11.069
 2658SOL     OW 9414   0.685   2.043  10.790
 2658SOL    HW1 9415   0.775   2.022  10.768
 2658SOL    HW2 9416   0.687   2.064  10.883
 2659SOL     OW 9417   0.081   2.237   9.270
 2659SOL    HW1 9418   0.056   2.152   9.306
 2659SOL    HW2 9419   0.035   2.300   9.325
 2660SOL     OW 9420   1.425   2.715  10.707
 2660SOL    HW1 9421   1.371   2.775  10.656
 2660SOL    HW2 9422   1.511   2.719  10.667
 2661SOL     OW 9423   0.123   2.104   9.660
 2661SOL    HW1 9424   0.069   2.091   9.582
 2661SOL    HW2 9425   0.192   2.038   9.652
 2662SOL     OW 9426   1.180   3.160   9.432
 2662SOL    HW1 9427   1.085   3.165   9.425
 2662SOL    HW2 9428   1.199   3.194   9.520
 2663SOL     OW 9429   0.630   2.693  10.744
 2663SOL    HW1 9430   0.687   2.769  10.730
 2663SOL    HW2 9431   0.691   2.622  10.765
 2664SOL     OW 9432   1.489   3.646  10.294
 2664SOL    HW1 9433   1.510   3.711  10.228
 2664SOL    HW2 9434   1.574   3.619  10.330
 2665SOL     OW 9435   1.474   3.049  10.937
 2665SOL    HW1 9436   1.460   3.071  11.030
 2665SOL    HW2 9437   1.566   3.074  10.921
 2666SOL     OW 9438   0.386   3.602  10.874
 2666SOL    HW1 9439   0.298   3.634  10.854
 2666SOL    HW2 9440   0.373   3.516  10.912
 2667SOL     OW 9441   1.662   2.741  10.565
 2667SOL    HW1 9442   1.656   2.658  10.517
 2667SOL    HW2 9443   1.651   2.808  10.497
 2668SOL     OW 9444   1.206   2.179   9.762
 2668SOL    HW1 9445   1.271   2.109   9.758
 2668SOL    HW2 9446   1.230   2.229   9.840
 2669SOL     OW 9447   0.620   2.584   9.972
 2669SOL    HW1 9448   0.650   2.675   9.980
 2669SOL    HW2 9449   0.534   2.591   9.932
 2670SOL     OW 9450   1.751   2.212  10.975
 2670SOL    HW1 9451   1.744   2.232  10.881
 2670SOL    HW2 9452   1.672   2.162  10.995
 2671SOL     OW 9453   1.757   2.791  10.820
 2671SOL    HW1 9454   1.739   2.884  10.835
 2671SOL    HW2 9455   1.735   2.777  10.728
 2672SOL     OW 9456   0.892   3.222   9.363
 2672SOL    HW1 9457   0.842   3.246   9.441
 2672SOL    HW2 9458   0.892   3.301   9.309
 2673SOL     OW 9459   0.662   3.640  10.249
 2673SOL    HW1 9460   0.649   3.733  10.233
 2673SOL    HW2 9461   0.758   3.629  10.249
 2674SOL     OW 9462   0.856   2.801  10.213
 2674SOL    HW1 9463   0.948   2.826  10.205
 2674SOL    HW2 9464   0.815   2.874  10.258
 2675SOL     OW 9465   1.093   2.865   9.391
 2675SOL    HW1 9466   1.056   2.908   9.315
 2675SOL    HW2 9467   1.143   2.791   9.355
 2676SOL     OW 9468   1.840   3.416  10.153
 2676SOL    HW1 9469   1.761   3.404  10.101
 2676SOL    HW2 9470   1.831   3.355  10.226
 2677SOL     OW 9471   0.213   3.156  11.166
 2677SOL    HW1 9472   0.119   3.146  11.150
 2677SOL    HW2 9473   0.221   3.160  11.261
 2678SOL     OW 9474   0.135   3.118   9.971
 2678SOL    HW1 9475   0.051   3.081   9.998
 2678SOL    HW2 9476   0.200   3.051   9.997
 2679SOL     OW 9477   0.681   3.265  10.941
 2679SOL    HW1 9478   0.597   3.232  10.973
 2679SOL    HW2 9479   0.686   3.354  10.975
 2680SOL     OW 9480   1.819   2.043  10.548
 2680SOL    HW1 9481   1.819   1.948  10.559
 2680SOL    HW2 9482   1.827   2.057  10.454
 2681SOL     OW 9483   0.451   2.305   9.825
 2681SOL    HW1 9484   0.474   2.228   9.774
 2681SOL    HW2 9485   0.394   2.272   9.894
 2682SOL     OW 9486   1.700   3.345  10.403
 2682SOL    HW1 9487   1.621   3.327  10.353
 2682SOL    HW2 9488   1.701   3.277  10.471
 2683SOL     OW 9489   0.335   2.423  10.595
 2683SOL    HW1 9490   0.375   2.370  10.664
 2683SOL    HW2 9491   0.346   2.371  10.515
 2684SOL     OW 9492   0.830   3.451   9.986
 2684SOL    HW1 9493   0.806   3.517   9.922
 2684SOL    HW2 9494   0.755   3.391   9.989
 2685SOL     OW 9495   1.427   2.092  10.431
 2685SOL    HW1 9496   1.448   2.013  10.480
 2685SOL    HW2 9497   1.376   2.145  10.492
 2686SOL     OW 9498   1.015   1.881  10.443
 2686SOL    HW1 9499   0.953   1.815  10.411
 2686SOL    HW2 9500   1.100   1.839  10.438
 2687SOL     OW 9501   0.782   3.197   9.629
 2687SOL    HW1 9502   0.763   3.106   9.654
 2687SOL    HW2 9503   0.859   3.220   9.681
 2688SOL     OW 9504   0.619   3.419  10.597
 2688SOL    HW1 9505   0.620   3.506  10.637
 2688SOL    HW2 9506   0.707   3.407  10.562
 2689SOL     OW 9507   1.351   1.912   9.487
 2689SOL    HW1 9508   1.386   1.848   9.425
 2689SOL    HW2 9509   1.262   1.881   9.505
 2690SOL     OW 9510   1.258   2.319   9.986
 2690SOL    HW1 9511   1.222   2.407   9.993
 2690SOL    HW2 9512   1.278   2.293  10.076
 2691SOL     OW 9513   1.584   2.060  10.194
 2691SOL    HW1 9514   1.527   2.088  10.266
 2691SOL    HW2 9515   1.583   2.133  10.132
 2692SOL     OW 9516   0.044   2.894   9.601
 2692SOL    HW1 9517   0.120   2.951   9.615
 2692SOL    HW2 9518  -0.015   2.915   9.674
 2693SOL     OW 9519   0.896   3.515   9.641
 2693SOL    HW1 9520   0.821   3.500   9.584
 2693SOL    HW2 9521   0.869   3.588   9.697
 2694SOL     OW 9522   0.250   2.511  11.269
 2694SOL    HW1 9523   0.162   2.531  11.303
 2694SOL    HW2 9524   0.233   2.473  11.182
 2695SOL     OW 9525   0.224   2.139  12.163
 2695SOL    HW1 9526   0.279   2.107  12.234
 2695SOL    HW2 9527   0.135   2.134  12.197
 2696SOL     OW 9528   8.002   2.210  11.811
 2696SOL    HW1 9529   7.911   2.238  11.819
 2696SOL    HW2 9530   8.012   2.187  11.719
 2697SOL     OW 9531   0.545   3.117  12.334
 2697SOL    HW1 9532   0.472   3.164  12.294
 2697SOL    HW2 9533   0.592   3.184  12.385
 2698SOL     OW 9534   1.575   3.377  11.883
 2698SOL    HW1 9535   1.529   3.358  11.965
 2698SOL    HW2 9536   1.506   3.384  11.817
 2699SOL     OW 9537   1.099   2.592  11.857
 2699SOL    HW1 9538   1.165   2.661  11.853
 2699SOL    HW2 9539   1.071   2.592  11.949
 2700SOL     OW 9540   1.803   2.445  11.394
 2700SOL    HW1 9541   1.766   2.447  11.305
 2700SOL    HW2 9542   1.742   2.390  11.443
 2701SOL     OW 9543   0.753   2.987  12.228
 2701SOL    HW1 9544   0.674   3.023  12.267
 2701SOL    HW2 9545   0.788   3.059  12.175
 2702SOL     OW 9546   0.685   2.856  11.818
 2702SOL    HW1 9547   0.754   2.851  11.884
 2702SOL    HW2 9548   0.619   2.913  11.858
 2703SOL     OW 9549   0.344   3.279  12.228
 2703SOL    HW1 9550   0.282   3.236  12.169
 2703SOL    HW2 9551   0.395   3.337  12.172
 2704SOL     OW 9552   1.621   2.315  11.914
 2704SOL    HW1 9553   1.530   2.317  11.884
 2704SOL    HW2 9554   1.637   2.403  11.948
 2705SOL     OW 9555   0.231   3.560  11.652
 2705SOL    HW1 9556   0.232   3.644  11.698
 2705SOL    HW2 9557   0.301   3.567  11.587
 2706SOL     OW 9558   0.255   3.289  11.687
 2706SOL    HW1 9559   0.254   3.384  11.699
 2706SOL    HW2 9560   0.213   3.255  11.766
 2707SOL     OW 9561   0.240   2.944  12.055
 2707SOL    HW1 9562   0.264   2.858  12.090
 2707SOL    HW2 9563   0.178   2.980  12.119
 2708SOL     OW 9564   0.572   2.856  11.315
 2708SOL    HW1 9565   0.622   2.899  11.246
 2708SOL    HW2 9566   0.615   2.882  11.396
 2709SOL     OW 9567   0.082   2.519  11.727
 2709SOL    HW1 9568   0.110   2.430  11.747
 2709SOL    HW2 9569   0.096   2.567  11.808
 2710SOL     OW 9570   1.847   3.614  11.496
 2710SOL    HW1 9571   1.914   3.590  11.559
 2710SOL    HW2 9572   1.862   3.707  11.478
 2711SOL     OW 9573   0.014   3.454  11.316
 2711SOL    HW1 9574  -0.000   3.360  11.302
 2711SOL    HW2 9575  -0.000   3.466  11.410
 2712SOL     OW 9576   1.702   2.790  11.816
 2712SOL    HW1 9577   1.771   2.741  11.773
 2712SOL    HW2 9578   1.665   2.846  11.747
 2713SOL     OW 9579   1.648   2.968  11.603
 2713SOL    HW1 9580   1.734   2.970  11.562
 2713SOL    HW2 9581   1.653   3.033  11.673
 2714SOL     OW 9582   0.157   2.598   0.294
 2714SOL    HW1 9583   0.151   2.566   0.384
 2714SOL    HW2 9584   0.223   2.668   0.299
 2715SOL     OW 9585   0.590   3.251  11.912
 2715SOL    HW1 9586   0.552   3.163  11.911
 2715SOL    HW2 9587   0.590   3.279  11.820
 2716SOL     OW 9588   0.823   1.860  11.698
 2716SOL    HW1 9589   0.865   1.940  11.666
 2716SOL    HW2 9590   0.729   1.879  11.692
 2717SOL     OW 9591   0.191   2.802  12.441
 2717SOL    HW1 9592   0.282   2.774  12.430
 2717SOL    HW2 9593   0.149   2.780  12.358
 2718SOL     OW 9594   1.535   2.860  11.373
 2718SOL    HW1 9595   1.464   2.804  11.404
 2718SOL    HW2 9596   1.573   2.898  11.452
 2719SOL     OW 9597   1.475   3.272  12.131
 2719SOL    HW1 9598   1.407   3.283  12.196
 2719SOL    HW2 9599   1.458   3.186  12.093
 2720SOL     OW 9600   1.655   3.623  11.743
 2720SOL    HW1 9601   1.631   3.587  11.658
 2720SOL    HW2 9602   1.636   3.553  11.806
 2721SOL     OW 9603   0.610   2.585  11.447
 2721SOL    HW1 9604   0.607   2.665  11.395
 2721SOL    HW2 9605   0.540   2.594  11.511
 2722SOL     OW 9606   1.302   2.188  12.117
 2722SOL    HW1 9607   1.208   2.173  12.106
 2722SOL    HW2 9608   1.326   2.134  12.192
 2723SOL     OW 9609   1.580   3.539  11.484
 2723SOL    HW1 9610   1.672   3.562  11.474
 2723SOL    HW2 9611   1.549   3.523  11.394
 2724SOL     OW 9612   0.970   2.196  12.382
 2724SOL    HW1 9613   0.978   2.260  12.453
 2724SOL    HW2 9614   0.899   2.229  12.328
 2725SOL     OW 9615   1.054   2.561  11.589
 2725SOL    HW1 9616   1.069   2.564  11.684
 2725SOL    HW2 9617   0.972   2.513  11.580
 2726SOL     OW 9618   0.104   2.657  11.959
 2726SOL    HW1 9619   0.187   2.666  12.005
 2726SOL    HW2 9620   0.056   2.737  11.980
 2727SOL     OW 9621   0.065   3.609   0.275
 2727SOL    HW1 9622   0.053   3.646   0.362
 2727SOL    HW2 9623   0.053   3.682   0.215
 2728SOL     OW 9624   0.898   2.212  11.369
 2728SOL    HW1 9625   0.929   2.278  11.307
 2728SOL    HW2 9626   0.922   2.129  11.327
 2729SOL     OW 9627   1.378   3.005  11.710
 2729SOL    HW1 9628   1.455   2.994  11.654
 2729SOL    HW2 9629   1.324   3.069  11.665
 2730SOL     OW 9630   0.545   2.047  12.059
 2730SOL    HW1 9631   0.557   2.097  12.140
 2730SOL    HW2 9632   0.556   2.112  11.990
 2731SOL     OW 9633   0.996   3.301  11.641
 2731SOL    HW1 9634   0.960   3.375  11.592
 2731SOL    HW2 9635   0.975   3.321  11.733
 2732SOL     OW 9636   0.364   3.691  12.043
 2732SOL    HW1 9637   0.415   3.611  12.053
 2732SOL    HW2 9638   0.426   3.762  12.059
 2733SOL     OW 9639   1.805   2.909  12.048
 2733SOL    HW1 9640   1.757   2.891  11.968
 2733SOL    HW2 9641   1.737   2.917  12.115
 2734SOL     OW 9642   0.313   2.805  11.418
 2734SOL    HW1 9643   0.395   2.839  11.381
 2734SOL    HW2 9644   0.300   2.722  11.373
 2735SOL     OW 9645   1.487   2.619  11.880
 2735SOL    HW1 9646   1.474   2.572  11.962
 2735SOL    HW2 9647   1.565   2.673  11.895
 2736SOL     OW 9648   1.633   3.243  11.265
 2736SOL    HW1 9649   1.594   3.329  11.251
 2736SOL    HW2 9650   1.563   3.181  11.243
 2737SOL     OW 9651   0.460   3.599  11.489
 2737SOL    HW1 9652   0.510   3.655  11.549
 2737SOL    HW2 9653   0.526   3.566  11.428
 2738SOL     OW 9654   1.434   1.920  11.610
 2738SOL    HW1 9655   1.420   1.902  11.517
 2738SOL    HW2 9656   1.383   1.999  11.628
 2739SOL     OW 9657   0.217   3.641  12.406
 2739SOL    HW1 9658   0.251   3.560  12.446
 2739SOL    HW2 9659   0.207   3.619  12.313
 2740SOL     OW 9660   0.910   3.529  12.077
 2740SOL    HW1 9661   0.987   3.582  12.055
 2740SOL    HW2 9662   0.880   3.495  11.992
 2741SOL     OW 9663   0.403   2.559  11.650
 2741SOL    HW1 9664   0.422   2.466  11.664
 2741SOL    HW2 9665   0.307   2.564  11.650
 2742SOL     OW 9666   0.617   1.958  11.300
 2742SOL    HW1 9667   0.691   2.003  11.259
 2742SOL    HW2 9668   0.570   1.919  11.226
 2743SOL     OW 9669   0.805   3.215  12.095
 2743SOL    HW1 9670   0.886   3.263  12.076
 2743SOL    HW2 9671   0.744   3.241  12.027
 2744SOL     OW 9672   0.929   2.374  12.067
 2744SOL    HW1 9673   0.900   2.368  11.976
 2744SOL    HW2 9674   0.976   2.292  12.083
 2745SOL     OW 9675   0.564   1.928  11.662
 2745SOL    HW1 9676   0.474   1.922  11.695
 2745SOL    HW2 9677   0.563   2.005  11.606
 2746SOL     OW 9678   1.428   3.066  11.210
 2746SOL    HW1 9679   1.451   2.990  11.263
 2746SOL    HW2 9680   1.342   3.094  11.243
 2747SOL     OW 9681   0.287   1.922  11.350
 2747SOL    HW1 9682   0.333   1.983  11.294
 2747SOL    HW2 9683   0.355   1.865  11.386
 2748SOL     OW 9684   0.939   2.101  11.631
 2748SOL    HW1 9685   0.917   2.144  11.548
 2748SOL    HW2 9686   1.033   2.114  11.641
 2749SOL     OW 9687   1.240   3.435  11.972
 2749SOL    HW1 9688   1.225   3.496  11.900
 2749SOL    HW2 9689   1.318   3.470  12.017
 2750SOL     OW 9690   0.463   3.007  11.899
 2750SOL    HW1 9691   0.394   2.985  11.962
 2750SOL    HW2 9692   0.423   2.992  11.813
 2751SOL     OW 9693   1.266   3.641  11.778
 2751SOL    HW1 9694   1.300   3.712  11.723
 2751SOL    HW2 9695   1.186   3.677  11.817
 2752SOL     OW 9696   1.028   2.391  11.197
 2752SOL    HW1 9697   0.984   2.473  11.175
 2752SOL    HW2 9698   1.087   2.414  11.268
 2753SOL     OW 9699   0.580   2.070  12.348
 2753SOL    HW1 9700   0.592   1.979  12.320
 2753SOL    HW2 9701   0.488   2.076  12.372
 2754SOL     OW 9702   0.854   2.314  11.810
 2754SOL    HW1 9703   0.825   2.373  11.740
 2754SOL    HW2 9704   0.890   2.238  11.764
 2755SOL     OW 9705   0.992   1.922  11.931
 2755SOL    HW1 9706   0.952   1.925  11.844
 2755SOL    HW2 9707   0.976   1.833  11.962
 2756SOL     OW 9708   1.444   3.019  12.022
 2756SOL    HW1 9709   1.365   2.966  12.007
 2756SOL    HW2 9710   1.479   3.035  11.935
 2757SOL     OW 9711   1.469   2.485  12.133
 2757SOL    HW1 9712   1.420   2.406  12.114
 2757SOL    HW2 9713   1.527   2.460  12.205
 2758SOL     OW 9714   1.848   2.670  11.555
 2758SOL    HW1 9715   1.903   2.620  11.616
 2758SOL    HW2 9716   1.823   2.606  11.488
 2759SOL     OW 9717   0.488   3.279  11.310
 2759SOL    HW1 9718   0.411   3.247  11.356
 2759SOL    HW2 9719   0.492   3.225  11.231
 2760SOL     OW 9720   1.675   3.125  11.820
 2760SOL    HW1 9721   1.770   3.124  11.832
 2760SOL    HW2 9722   1.649   3.215  11.837
 2761SOL     OW 9723   1.391   2.432  11.242
 2761SOL    HW1 9724   1.325   2.413  11.309
 2761SOL    HW2 9725   1.474   2.407  11.283
 2762SOL     OW 9726   0.518   2.129  11.490
 2762SOL    HW1 9727   0.555   2.072  11.422
 2762SOL    HW2 9728   0.495   2.209  11.443
 2763SOL     OW 9729   1.092   3.084  12.287
 2763SOL    HW1 9730   1.009   3.114  12.325
 2763SOL    HW2 9731   1.088   3.114  12.196
 2764SOL     OW 9732   1.612   2.953  12.242
 2764SOL    HW1 9733   1.592   3.013  12.314
 2764SOL    HW2 9734   1.544   2.970  12.177
 2765SOL     OW 9735   0.708   2.918  11.546
 2765SOL    HW1 9736   0.698   2.897  11.639
 2765SOL    HW2 9737   0.786   2.869  11.519
 2766SOL     OW 9738   0.437   2.683  12.448
 2766SOL    HW1 9739   0.498   2.703  12.518
 2766SOL    HW2 9740   0.391   2.604  12.477
 2767SOL     OW 9741   1.259   2.231  12.446
 2767SOL    HW1 9742   1.302   2.309  12.479
 2767SOL    HW2 9743   1.175   2.262  12.411
 2768SOL     OW 9744   0.325   2.974  11.660
 2768SOL    HW1 9745   0.347   3.047  11.603
 2768SOL    HW2 9746   0.334   2.896  11.605
 2769SOL     OW 9747   0.549   2.383  12.037
 2769SOL    HW1 9748   0.560   2.441  11.962
 2769SOL    HW2 9749   0.614   2.412  12.101
 2770SOL     OW 9750   1.246   3.212  11.570
 2770SOL    HW1 9751   1.301   3.285  11.600
 2770SOL    HW2 9752   1.158   3.236  11.598
 2771SOL     OW 9753   1.291   3.273  12.334
 2771SOL    HW1 9754   1.302   3.241  12.423
 2771SOL    HW2 9755   1.218   3.222  12.298
 2772SOL     OW 9756   1.583   2.496  11.643
 2772SOL    HW1 9757   1.529   2.520  11.718
 2772SOL    HW2 9758   1.593   2.576  11.593
 2773SOL     OW 9759   0.355   3.398  12.470
 2773SOL    HW1 9760   0.345   3.353  12.386
 2773SOL    HW2 9761   0.433   3.453  12.460
 2774SOL     OW 9762   0.587   2.737  12.212
 2774SOL    HW1 9763   0.628   2.823  12.212
 2774SOL    HW2 9764   0.538   2.734  12.294
 2775SOL     OW 9765   1.336   2.719  12.182
 2775SOL    HW1 9766   1.262   2.710  12.122
 2775SOL    HW2 9767   1.387   2.640  12.169
 2776SOL     OW 9768   1.205   2.386  11.435
 2776SOL    HW1 9769   1.219   2.310  11.491
 2776SOL    HW2 9770   1.159   2.449  11.491
 2777SOL     OW 9771   0.319   2.060  12.404
 2777SOL    HW1 9772   0.262   2.109  12.464
 2777SOL    HW2 9773   0.293   1.969  12.416
 2778SOL     OW 9774   0.074   3.181  12.459
 2778SOL    HW1 9775   0.165   3.155  12.476
 2778SOL    HW2 9776   0.065   3.267  12.500
 2779SOL     OW 9777   0.719   2.490  12.223
 2779SOL    HW1 9778   0.796   2.479  12.166
 2779SOL    HW2 9779   0.689   2.579  12.207
 2780SOL     OW 9780   0.323   1.922  11.783
 2780SOL    HW1 9781   0.311   2.017  11.794
 2780SOL    HW2 9782   0.376   1.895  11.857
 2781SOL     OW 9783   1.643   2.252  11.533
 2781SOL    HW1 9784   1.633   2.180  11.595
 2781SOL    HW2 9785   1.608   2.329  11.578
 2782SOL     OW 9786   1.021   2.619  12.139
 2782SOL    HW1 9787   1.020   2.624  12.235
 2782SOL    HW2 9788   0.997   2.529  12.120
 2783SOL     OW 9789   1.539   2.121  11.303
 2783SOL    HW1 9790   1.470   2.061  11.329
 2783SOL    HW2 9791   1.562   2.167  11.384
 2784SOL     OW 9792   1.289   2.689  11.204
 2784SOL    HW1 9793   1.325   2.600  11.205
 2784SOL    HW2 9794   1.318   2.726  11.120
 2785SOL     OW 9795   1.097   3.201  12.045
 2785SOL    HW1 9796   1.089   3.137  11.974
 2785SOL    HW2 9797   1.143   3.275  12.004
 2786SOL     OW 9798   0.324   2.678  12.121
 2786SOL    HW1 9799   0.418   2.697  12.120
 2786SOL    HW2 9800   0.318   2.586  12.144
 2787SOL     OW 9801   0.316   2.399  12.166
 2787SOL    HW1 9802   0.288   2.307  12.164
 2787SOL    HW2 9803   0.401   2.399  12.121
 2788SOL     OW 9804   1.149   2.081   0.149
 2788SOL    HW1 9805   1.148   2.145   0.220
 2788SOL    HW2 9806   1.188   2.128   0.075
 2789SOL     OW 9807   7.983   3.169  11.377
 2789SOL    HW1 9808   7.891   3.185  11.399
 2789SOL    HW2 9809   7.993   3.074  11.386
 2790SOL     OW 9810   0.100   3.641  12.087
 2790SOL    HW1 9811   0.097   3.566  12.027
 2790SOL    HW2 9812   0.189   3.675  12.078
 2791SOL     OW 9813   0.498   3.445  12.081
 2791SOL    HW1 9814   0.569   3.506  12.103
 2791SOL    HW2 9815   0.537   3.384  12.019
 2792SOL     OW 9816   0.972   2.643  12.422
 2792SOL    HW1 9817   1.018   2.715  12.465
 2792SOL    HW2 9818   0.879   2.667  12.427
 2793SOL     OW 9819   0.088   2.430  12.304
 2793SOL    HW1 9820   0.175   2.425  12.266
 2793SOL    HW2 9821   0.092   2.502  12.367
 2794SOL     OW 9822   0.817   2.427  11.546
 2794SOL    HW1 9823   0.826   2.356  11.483
 2794SOL    HW2 9824   0.748   2.483  11.511
 2795SOL     OW 9825   1.652   2.438  12.332
 2795SOL    HW1 9826   1.642   2.404  12.421
 2795SOL    HW2 9827   1.744   2.422  12.311
 2796SOL     OW 9828   0.711   2.311  12.432
 2796SOL    HW1 9829   0.653   2.242  12.401
 2796SOL    HW2 9830   0.703   2.381  12.367
 2797SOL     OW 9831   0.905   3.505   0.041
 2797SOL    HW1 9832   0.919   3.564  -0.033
 2797SOL    HW2 9833   0.939   3.553   0.116
 2798SOL     OW 9834   0.454   2.357  11.363
 2798SOL    HW1 9835   0.536   2.405  11.355
 2798SOL    HW2 9836   0.389   2.412  11.318
 2799SOL     OW 9837   1.285   2.901  12.375
 2799SOL    HW1 9838   1.311   2.845  12.302
 2799SOL    HW2 9839   1.227   2.966  12.336
 2800SOL     OW 9840   1.323   2.714  11.477
 2800SOL    HW1 9841   1.248   2.685  11.528
 2800SOL    HW2 9842   1.295   2.706  11.386
 2801SOL     OW 9843   1.755   3.608  12.304
 2801SOL    HW1 9844   1.827   3.631  12.244
 2801SOL    HW2 9845   1.742   3.514  12.292
 2802SOL     OW 9846   1.307   3.578  12.304
 2802SOL    HW1 9847   1.364   3.614  12.235
 2802SOL    HW2 9848   1.247   3.519  12.257
 2803SOL     OW 9849   0.045   3.065  12.211
 2803SOL    HW1 9850   0.051   3.108  12.296
 2803SOL    HW2 9851  -0.026   3.111  12.165
 2804SOL     OW 9852   1.757   2.013  11.681
 2804SOL    HW1 9853   1.782   1.949  11.615
 2804SOL    HW2 9854   1.696   1.967  11.738
 2805SOL     OW 9855   1.400   3.426  11.666
 2805SOL    HW1 9856   1.451   3.463  11.595
 2805SOL    HW2 9857   1.345   3.499  11.696
 2806SOL     OW 9858   1.281   2.796  11.851
 2806SOL    HW1 9859   1.352   2.732  11.850
 2806SOL    HW2 9860   1.311   2.866  11.794
 2807SOL     OW 9861   0.657   3.490  11.324
 2807SOL    HW1 9862   0.677   3.506  11.231
 2807SOL    HW2 9863   0.605   3.410  11.324
 2808SOL     OW 9864   1.623   3.631   0.048
 2808SOL    HW1 9865   1.682   3.614  -0.026
 2808SOL    HW2 9866   1.635   3.724   0.067
 2809SOL     OW 9867   1.843   2.031  12.157
 2809SOL    HW1 9868   1.867   1.943  12.128
 2809SOL    HW2 9869   1.757   2.047  12.119
 2810SOL     OW 9870   0.256   2.157  11.888
 2810SOL    HW1 9871   0.173   2.194  11.860
 2810SOL    HW2 9872   0.260   2.177  11.982
 2811SOL     OW 9873   1.241   3.458  11.187
 2811SOL    HW1 9874   1.200   3.384  11.231
 2811SOL    HW2 9875   1.169   3.504  11.144
 2812SOL     OW 9876   0.792   2.882  12.482
 2812SOL    HW1 9877   0.792   2.922  12.395
 2812SOL    HW2 9878   0.864   2.925  12.528
 2813SOL     OW 9879   0.923   2.781  11.465
 2813SOL    HW1 9880   0.984   2.816  11.401
 2813SOL    HW2 9881   0.970   2.707  11.505
 2814SOL     OW 9882   1.507   3.489  11.219
 2814SOL    HW1 9883   1.413   3.477  11.204
 2814SOL    HW2 9884   1.544   3.500  11.132
 2815SOL     OW 9885   1.061   2.979  11.889
 2815SOL    HW1 9886   0.987   2.928  11.921
 2815SOL    HW2 9887   1.122   2.913  11.855
 2816SOL     OW 9888   1.038   2.120  12.108
 2816SOL    HW1 9889   1.022   2.057  12.038
 2816SOL    HW2 9890   0.988   2.087  12.183
 2817SOL     OW 9891   0.605   3.340  11.656
 2817SOL    HW1 9892   0.659   3.292  11.594
 2817SOL    HW2 9893   0.552   3.398  11.602
 2818SOL     OW 9894   1.771   2.208   0.032
 2818SOL    HW1 9895   1.776   2.289   0.083
 2818SOL    HW2 9896   1.694   2.163   0.067
 2819SOL     OW 9897   0.250   3.195  11.438
 2819SOL    HW1 9898   0.155   3.196  11.427
 2819SOL    HW2 9899   0.265   3.234  11.524
 2820SOL     OW 9900   0.114   2.210  11.220
 2820SOL    HW1 9901   0.033   2.237  11.265
 2820SOL    HW2 9902   0.124   2.274  11.149
 2821SOL     OW 9903   0.096   2.055  11.562
 2821SOL    HW1 9904   0.067   2.128  11.508
 2821SOL    HW2 9905   0.164   2.012  11.510
 2822SOL     OW 9906   1.182   3.189  11.295
 2822SOL    HW1 9907   1.093   3.152  11.296
 2822SOL    HW2 9908   1.206   3.195  11.387
 2823SOL     OW 9909   1.507   3.641  12.129
 2823SOL    HW1 9910   1.516   3.717  12.072
 2823SOL    HW2 9911   1.589   3.637  12.178
 2824SOL     OW 9912   1.696   2.729  12.404
 2824SOL    HW1 9913   1.657   2.653  12.362
 2824SOL    HW2 9914   1.667   2.804  12.352
 2825SOL     OW 9915   0.577   2.599  11.863
 2825SOL    HW1 9916   0.627   2.679  11.845
 2825SOL    HW2 9917   0.521   2.587  11.786
 2826SOL     OW 9918   1.799   2.720   0.161
 2826SOL    HW1 9919   1.807   2.812   0.185
 2826SOL    HW2 9920   1.759   2.721   0.074
 2827SOL     OW 9921   0.859   3.227  11.213
 2827SOL    HW1 9922   0.828   3.263  11.296
 2827SOL    HW2 9923   0.880   3.304  11.160
 2828SOL     OW 9924   0.668   3.651  12.132
 2828SOL    HW1 9925   0.669   3.738  12.092
 2828SOL    HW2 9926   0.757   3.618  12.122
 2829SOL     OW 9927   0.869   2.830  12.025
 2829SOL    HW1 9928   0.920   2.757  12.061
 2829SOL    HW2 9929   0.837   2.876  12.102
 2830SOL     OW 9930   1.094   2.872  11.274
 2830SOL    HW1 9931   1.061   2.912  11.194
 2830SOL    HW2 9932   1.156   2.806  11.244
 2831SOL     OW 9933   1.844   3.414  12.014
 2831SOL    HW1 9934   1.763   3.406  11.963
 2831SOL    HW2 9935   1.831   3.355  12.089
 2832SOL     OW 9936   0.129   3.079  11.835
 2832SOL    HW1 9937   0.156   3.036  11.916
 2832SOL    HW2 9938   0.188   3.044  11.768
 2833SOL     OW 9939   0.444   2.298  11.710
 2833SOL    HW1 9940   0.473   2.240  11.640
 2833SOL    HW2 9941   0.384   2.244  11.762
 2834SOL     OW 9942   1.701   3.347  12.268
 2834SOL    HW1 9943   1.623   3.321  12.219
 2834SOL    HW2 9944   1.684   3.316  12.357
 2835SOL     OW 9945   0.824   3.448  11.829
 2835SOL    HW1 9946   0.839   3.527  11.776
 2835SOL    HW2 9947   0.750   3.405  11.788
 2836SOL     OW 9948   1.399   2.038  12.327
 2836SOL    HW1 9949   1.487   2.040  12.366
 2836SOL    HW2 9950   1.349   2.102  12.378
 2837SOL     OW 9951   0.981   1.826  12.323
 2837SOL    HW1 9952   0.965   1.786  12.237
 2837SOL    HW2 9953   1.050   1.890  12.306
 2838SOL     OW 9954   0.772   3.190  11.499
 2838SOL    HW1 9955   0.753   3.096  11.506
 2838SOL    HW2 9956   0.856   3.200  11.543
 2839SOL     OW 9957   1.360   1.908  11.336
 2839SOL    HW1 9958   1.373   1.836  11.274
 2839SOL    HW2 9959   1.271   1.895  11.370
 2840SOL     OW 9960   1.352   2.340  11.890
 2840SOL    HW1 9961   1.307   2.317  11.809
 2840SOL    HW2 9962   1.314   2.282  11.956
 2841SOL     OW 9963   1.591   2.084  12.062
 2841SOL    HW1 9964   1.498   2.091  12.084
 2841SOL    HW2 9965   1.607   2.157  12.002
 2842SOL     OW 9966   0.053   2.904  11.441
 2842SOL    HW1 9967   0.146   2.885  11.429
 2842SOL    HW2 9968   0.040   2.897  11.536
 2843SOL     OW 9969   0.869   3.511  11.523
 2843SOL    HW1 9970   0.803   3.511  11.454
 2843SOL    HW2 9971   0.922   3.589  11.506
 2844SOL     OW 9972   0.161   4.386   0.037
 2844SOL    HW1 9973   0.148   4.408   0.130
 2844SOL    HW2 9974   0.236   4.327   0.037
 2845SOL     OW 9975   0.236   3.994   0.990
 2845SOL    HW1 9976   0.274   3.967   1.074
 2845SOL    HW2 9977   0.145   3.963   0.993
 2846SOL     OW 9978   8.006   4.123   0.603
 2846SOL    HW1 9979   7.926   4.118   0.655
 2846SOL    HW2 9980   8.004   4.045   0.547
 2847SOL     OW 9981   0.577   5.021   1.198
 2847SOL    HW1 9982   0.489   5.013   1.162
 2847SOL    HW2 9983   0.585   5.113   1.222
 2848SOL     OW 9984   1.573   5.240   0.706
 2848SOL    HW1 9985   1.526   5.211   0.784
 2848SOL    HW2 9986   1.505   5.244   0.638
 2849SOL     OW 9987   1.136   4.426   0.694
 2849SOL    HW1 9988   1.184   4.508   0.683
 2849SOL    HW2 9989   1.087   4.438   0.775
 2850SOL     OW 9990   1.724   4.344   0.268
 2850SOL    HW1 9991   1.739   4.351   0.174
 2850SOL    HW2 9992   1.708   4.251   0.283
 2851SOL     OW 9993   0.752   4.863   1.055
 2851SOL    HW1 9994   0.686   4.901   1.113
 2851SOL    HW2 9995   0.788   4.938   1.008
 2852SOL     OW 9996   0.877   4.480   1.838
 2852SOL    HW1 9997   0.869   4.537   1.914
 2852SOL    HW2 9998   0.900   4.539   1.766
 2853SOL     OW 9999   0.686   4.719   0.644
 2853SOL    HW110000   0.753   4.712   0.712
 2853SOL    HW210001   0.619   4.776   0.682
 2854SOL     OW10002   0.714   4.880   1.814
 2854SOL    HW110003   0.738   4.960   1.861
 2854SOL    HW210004   0.627   4.898   1.780
 2855SOL     OW10005   0.331   5.138   1.072
 2855SOL    HW110006   0.261   5.090   1.028
 2855SOL    HW210007   0.374   5.188   1.003
 2856SOL     OW10008   1.461   5.222   1.367
 2856SOL    HW110009   1.517   5.300   1.367
 2856SOL    HW210010   1.407   5.231   1.445
 2857SOL     OW10011   0.455   4.110   1.480
 2857SOL    HW110012   0.529   4.051   1.490
 2857SOL    HW210013   0.378   4.054   1.491
 2858SOL     OW10014   1.607   4.170   0.743
 2858SOL    HW110015   1.550   4.194   0.670
 2858SOL    HW210016   1.619   4.252   0.792
 2859SOL     OW10017   0.230   5.436   0.478
 2859SOL    HW110018   0.239   5.514   0.532
 2859SOL    HW210019   0.311   5.432   0.428
 2860SOL     OW10020   1.087   5.096   1.717
 2860SOL    HW110021   1.131   5.087   1.801
 2860SOL    HW210022   1.055   5.009   1.697
 2861SOL     OW10023   0.279   5.169   0.520
 2861SOL    HW110024   0.254   5.260   0.538
 2861SOL    HW210025   0.229   5.118   0.584
 2862SOL     OW10026   0.282   4.814   0.899
 2862SOL    HW110027   0.273   4.725   0.933
 2862SOL    HW210028   0.215   4.864   0.945
 2863SOL     OW10029   0.621   5.511   1.447
 2863SOL    HW110030   0.533   5.495   1.482
 2863SOL    HW210031   0.635   5.605   1.459
 2864SOL     OW10032   0.580   4.689   0.148
 2864SOL    HW110033   0.645   4.716   0.083
 2864SOL    HW210034   0.612   4.725   0.230
 2865SOL     OW10035   1.590   3.847   1.463
 2865SOL    HW110036   1.628   3.919   1.413
 2865SOL    HW210037   1.568   3.886   1.548
 2866SOL     OW10038   0.118   4.372   0.548
 2866SOL    HW110039   0.091   4.283   0.571
 2866SOL    HW210040   0.108   4.422   0.629
 2867SOL     OW10041   1.853   5.470   0.323
 2867SOL    HW110042   1.924   5.442   0.381
 2867SOL    HW210043   1.869   5.563   0.309
 2868SOL     OW10044   0.011   5.286   0.106
 2868SOL    HW110045   0.016   5.216   0.171
 2868SOL    HW210046   0.051   5.361   0.149
 2869SOL     OW10047   1.686   4.656   0.656
 2869SOL    HW110048   1.755   4.609   0.610
 2869SOL    HW210049   1.651   4.716   0.590
 2870SOL     OW10050   1.641   4.836   0.437
 2870SOL    HW110051   1.726   4.835   0.393
 2870SOL    HW210052   1.651   4.899   0.508
 2871SOL     OW10053   0.154   4.469   1.587
 2871SOL    HW110054   0.249   4.482   1.587
 2871SOL    HW210055   0.118   4.554   1.614
 2872SOL     OW10056   0.615   5.116   0.739
 2872SOL    HW110057   0.573   5.031   0.748
 2872SOL    HW210058   0.602   5.140   0.648
 2873SOL     OW10059   1.279   4.957   1.433
 2873SOL    HW110060   1.310   4.893   1.369
 2873SOL    HW210061   1.346   4.956   1.502
 2874SOL     OW10062   0.822   3.741   0.515
 2874SOL    HW110063   0.862   3.825   0.493
 2874SOL    HW210064   0.728   3.760   0.518
 2875SOL     OW10065   0.184   4.695   1.237
 2875SOL    HW110066   0.261   4.637   1.240
 2875SOL    HW210067   0.111   4.640   1.265
 2876SOL     OW10068   1.487   4.738   0.226
 2876SOL    HW110069   1.427   4.676   0.267
 2876SOL    HW210070   1.548   4.763   0.296
 2877SOL     OW10071   1.153   5.521   1.619
 2877SOL    HW110072   1.179   5.590   1.559
 2877SOL    HW210073   1.185   5.440   1.579
 2878SOL     OW10074   0.351   3.977   1.820
 2878SOL    HW110075   0.378   4.062   1.856
 2878SOL    HW210076   0.260   3.968   1.848
 2879SOL     OW10077   1.447   5.153   0.933
 2879SOL    HW110078   1.390   5.165   1.009
 2879SOL    HW210079   1.441   5.060   0.913
 2880SOL     OW10080   1.636   5.487   0.592
 2880SOL    HW110081   1.621   5.460   0.502
 2880SOL    HW210082   1.634   5.406   0.643
 2881SOL     OW10083   0.619   4.451   0.310
 2881SOL    HW110084   0.606   4.519   0.243
 2881SOL    HW210085   0.534   4.443   0.353
 2882SOL     OW10086   1.279   4.101   0.945
 2882SOL    HW110087   1.191   4.064   0.946
 2882SOL    HW210088   1.332   4.039   0.995
 2883SOL     OW10089   1.592   5.399   0.333
 2883SOL    HW110090   1.686   5.409   0.326
 2883SOL    HW210091   1.560   5.413   0.243
 2884SOL     OW10092   0.800   4.346   1.448
 2884SOL    HW110093   0.769   4.321   1.535
 2884SOL    HW210094   0.765   4.278   1.390
 2885SOL     OW10095   1.401   4.205   1.681
 2885SOL    HW110096   1.400   4.238   1.771
 2885SOL    HW210097   1.445   4.120   1.687
 2886SOL     OW10098   0.964   4.609   1.587
 2886SOL    HW110099   1.016   4.535   1.555
 2886SOL    HW210100   0.916   4.640   1.511
 2887SOL     OW10101   0.993   4.124   1.226
 2887SOL    HW110102   0.902   4.140   1.252
 2887SOL    HW210103   0.987   4.083   1.140
 2888SOL     OW10104   1.061   4.428   0.426
 2888SOL    HW110105   1.077   4.422   0.520
 2888SOL    HW210106   0.977   4.383   0.413
 2889SOL     OW10107   0.094   4.511   0.781
 2889SOL    HW110108   0.180   4.519   0.823
 2889SOL    HW210109   0.038   4.572   0.828
 2890SOL     OW10110   0.127   5.536   1.561
 2890SOL    HW110111   0.140   5.526   1.655
 2890SOL    HW210112   0.032   5.540   1.549
 2891SOL     OW10113   0.904   4.082   0.212
 2891SOL    HW110114   0.910   4.152   0.148
 2891SOL    HW210115   0.891   4.003   0.160
 2892SOL     OW10116   1.694   4.293   1.831
 2892SOL    HW110117   1.665   4.368   1.778
 2892SOL    HW210118   1.724   4.228   1.767
 2893SOL     OW10119   1.377   4.864   0.532
 2893SOL    HW110120   1.458   4.856   0.482
 2893SOL    HW210121   1.324   4.927   0.482
 2894SOL     OW10122   0.553   3.898   0.901
 2894SOL    HW110123   0.558   3.931   0.991
 2894SOL    HW210124   0.552   3.977   0.847
 2895SOL     OW10125   0.993   5.159   0.468
 2895SOL    HW110126   0.958   5.239   0.428
 2895SOL    HW210127   0.977   5.171   0.562
 2896SOL     OW10128   0.359   5.545   0.865
 2896SOL    HW110129   0.401   5.460   0.877
 2896SOL    HW210130   0.426   5.609   0.889
 2897SOL     OW10131   1.804   4.773   0.886
 2897SOL    HW110132   1.758   4.754   0.804
 2897SOL    HW210133   1.735   4.779   0.952
 2898SOL     OW10134   1.213   5.262   1.521
 2898SOL    HW110135   1.198   5.189   1.581
 2898SOL    HW210136   1.168   5.238   1.440
 2899SOL     OW10137   0.313   4.674   0.238
 2899SOL    HW110138   0.378   4.735   0.204
 2899SOL    HW210139   0.341   4.589   0.206
 2900SOL     OW10140   1.482   4.483   0.728
 2900SOL    HW110141   1.482   4.441   0.814
 2900SOL    HW210142   1.560   4.538   0.727
 2901SOL     OW10143   0.472   4.986   1.732
 2901SOL    HW110144   0.443   4.997   1.642
 2901SOL    HW210145   0.391   4.969   1.782
 2902SOL     OW10146   1.141   5.471   0.313
 2902SOL    HW110147   1.066   5.524   0.286
 2902SOL    HW210148   1.169   5.427   0.232
 2903SOL     OW10149   0.194   4.007   1.479
 2903SOL    HW110150   0.143   4.086   1.462
 2903SOL    HW210151   0.154   3.969   1.558
 2904SOL     OW10152   1.648   5.137   0.093
 2904SOL    HW110153   1.585   5.199   0.055
 2904SOL    HW210154   1.602   5.053   0.094
 2905SOL     OW10155   0.456   5.458   0.330
 2905SOL    HW110156   0.511   5.512   0.386
 2905SOL    HW210157   0.517   5.421   0.266
 2906SOL     OW10158   1.423   3.864   0.414
 2906SOL    HW110159   1.405   3.776   0.382
 2906SOL    HW210160   1.513   3.859   0.448
 2907SOL     OW10161   0.258   5.519   1.223
 2907SOL    HW110162   0.291   5.440   1.266
 2907SOL    HW210163   0.209   5.487   1.148
 2908SOL     OW10164   0.944   5.422   0.891
 2908SOL    HW110165   1.028   5.377   0.899
 2908SOL    HW210166   0.899   5.376   0.820
 2909SOL     OW10167   0.391   4.419   0.472
 2909SOL    HW110168   0.417   4.327   0.479
 2909SOL    HW210169   0.303   4.422   0.510
 2910SOL     OW10170   1.518   3.950   1.721
 2910SOL    HW110171   1.534   3.971   1.812
 2910SOL    HW210172   1.461   3.873   1.723
 2911SOL     OW10173   0.633   3.849   0.120
 2911SOL    HW110174   0.726   3.827   0.124
 2911SOL    HW210175   0.624   3.897   0.037
 2912SOL     OW10176   0.762   4.006   1.754
 2912SOL    HW110177   0.842   3.952   1.753
 2912SOL    HW210178   0.731   3.999   1.844
 2913SOL     OW10179   0.877   5.250   1.200
 2913SOL    HW110180   0.859   5.217   1.112
 2913SOL    HW210181   0.947   5.194   1.233
 2914SOL     OW10182   0.819   5.114   0.951
 2914SOL    HW110183   0.904   5.103   0.908
 2914SOL    HW210184   0.757   5.124   0.879
 2915SOL     OW10185   0.930   4.235   0.898
 2915SOL    HW110186   0.904   4.225   0.806
 2915SOL    HW210187   0.957   4.147   0.925
 2916SOL     OW10188   0.551   3.794   0.489
 2916SOL    HW110189   0.475   3.794   0.547
 2916SOL    HW210190   0.541   3.874   0.437
 2917SOL     OW10191   1.454   4.946   0.052
 2917SOL    HW110192   1.466   4.866   0.103
 2917SOL    HW210193   1.363   4.971   0.069
 2918SOL     OW10194   0.297   3.822   0.197
 2918SOL    HW110195   0.370   3.883   0.198
 2918SOL    HW210196   0.335   3.738   0.225
 2919SOL     OW10197   0.947   3.977   0.461
 2919SOL    HW110198   0.922   4.016   0.378
 2919SOL    HW210199   1.042   3.991   0.468
 2920SOL     OW10200   1.070   4.370   1.461
 2920SOL    HW110201   0.974   4.362   1.462
 2920SOL    HW210202   1.101   4.279   1.463
 2921SOL     OW10203   1.207   5.300   0.800
 2921SOL    HW110204   1.226   5.369   0.735
 2921SOL    HW210205   1.292   5.278   0.837
 2922SOL     OW10206   0.478   4.879   0.728
 2922SOL    HW110207   0.413   4.857   0.795
 2922SOL    HW210208   0.432   4.865   0.645
 2923SOL     OW10209   1.266   5.522   0.633
 2923SOL    HW110210   1.312   5.573   0.567
 2923SOL    HW210211   1.184   5.570   0.647
 2924SOL     OW10212   1.009   4.325   0.092
 2924SOL    HW110213   1.031   4.285   0.008
 2924SOL    HW210214   1.083   4.303   0.149
 2925SOL     OW10215   0.107   4.265   1.391
 2925SOL    HW110216   0.197   4.283   1.363
 2925SOL    HW210217   0.077   4.347   1.431
 2926SOL     OW10218   0.568   3.955   1.174
 2926SOL    HW110219   0.610   3.881   1.217
 2926SOL    HW210220   0.476   3.951   1.201
 2927SOL     OW10221   0.867   4.181   0.641
 2927SOL    HW110222   0.835   4.237   0.570
 2927SOL    HW210223   0.890   4.099   0.597
 2928SOL     OW10224   0.987   3.799   0.764
 2928SOL    HW110225   0.947   3.782   0.679
 2928SOL    HW210226   0.988   3.713   0.807
 2929SOL     OW10227   1.446   4.889   0.856
 2929SOL    HW110228   1.374   4.830   0.834
 2929SOL    HW210229   1.495   4.898   0.774
 2930SOL     OW10230   1.463   4.338   0.969
 2930SOL    HW110231   1.412   4.257   0.960
 2930SOL    HW210232   1.523   4.320   1.041
 2931SOL     OW10233   1.830   4.553   0.433
 2931SOL    HW110234   1.879   4.482   0.473
 2931SOL    HW210235   1.789   4.514   0.356
 2932SOL     OW10236   0.479   5.114   0.141
 2932SOL    HW110237   0.432   5.084   0.219
 2932SOL    HW210238   0.449   5.056   0.071
 2933SOL     OW10239   1.671   4.982   0.662
 2933SOL    HW110240   1.766   4.977   0.669
 2933SOL    HW210241   1.652   5.076   0.666
 2934SOL     OW10242   1.393   4.283   0.080
 2934SOL    HW110243   1.338   4.275   0.157
 2934SOL    HW210244   1.479   4.250   0.108
 2935SOL     OW10245   0.508   4.000   0.307
 2935SOL    HW110246   0.566   3.952   0.249
 2935SOL    HW210247   0.478   4.074   0.255
 2936SOL     OW10248   1.748   4.968   1.564
 2936SOL    HW110249   1.836   4.931   1.561
 2936SOL    HW210250   1.762   5.058   1.594
 2937SOL     OW10251   1.051   5.081   1.343
 2937SOL    HW110252   0.973   5.040   1.382
 2937SOL    HW210253   1.124   5.031   1.380
 2938SOL     OW10254   1.596   5.348   1.647
 2938SOL    HW110255   1.598   5.384   1.559
 2938SOL    HW210256   1.678   5.298   1.655
 2939SOL     OW10257   1.143   4.948   1.103
 2939SOL    HW110258   1.069   4.971   1.159
 2939SOL    HW210259   1.118   4.976   1.016
 2940SOL     OW10260   1.613   4.814   1.076
 2940SOL    HW110261   1.604   4.877   1.148
 2940SOL    HW210262   1.542   4.837   1.016
 2941SOL     OW10263   0.921   3.811   1.391
 2941SOL    HW110264   0.941   3.791   1.299
 2941SOL    HW210265   1.000   3.851   1.425
 2942SOL     OW10266   0.971   4.849   1.713
 2942SOL    HW110267   0.881   4.852   1.745
 2942SOL    HW210268   0.977   4.767   1.664
 2943SOL     OW10269   0.707   4.785   0.373
 2943SOL    HW110270   0.695   4.763   0.466
 2943SOL    HW210271   0.786   4.738   0.348
 2944SOL     OW10272   0.420   4.547   1.253
 2944SOL    HW110273   0.485   4.561   1.321
 2944SOL    HW210274   0.391   4.457   1.265
 2945SOL     OW10275   1.254   4.118   1.291
 2945SOL    HW110276   1.291   4.175   1.224
 2945SOL    HW210277   1.160   4.116   1.271
 2946SOL     OW10278   0.057   5.323   1.326
 2946SOL    HW110279   0.061   5.412   1.359
 2946SOL    HW210280   0.134   5.280   1.363
 2947SOL     OW10281   0.338   4.830   0.495
 2947SOL    HW110282   0.323   4.899   0.430
 2947SOL    HW210283   0.361   4.753   0.444
 2948SOL     OW10284   0.549   4.254   0.859
 2948SOL    HW110285   0.560   4.313   0.784
 2948SOL    HW210286   0.618   4.279   0.920
 2949SOL     OW10287   1.243   5.072   0.394
 2949SOL    HW110288   1.299   5.143   0.424
 2949SOL    HW210289   1.155   5.096   0.424
 2950SOL     OW10290   1.291   5.190   1.153
 2950SOL    HW110291   1.346   5.191   1.231
 2950SOL    HW210292   1.239   5.110   1.160
 2951SOL     OW10293   1.562   4.324   0.502
 2951SOL    HW110294   1.517   4.392   0.552
 2951SOL    HW210295   1.608   4.372   0.433
 2952SOL     OW10296   0.343   5.258   1.313
 2952SOL    HW110297   0.328   5.212   1.230
 2952SOL    HW210298   0.438   5.269   1.317
 2953SOL     OW10299   0.433   4.463   1.613
 2953SOL    HW110300   0.491   4.506   1.550
 2953SOL    HW210301   0.477   4.382   1.635
 2954SOL     OW10302   1.589   4.488   1.660
 2954SOL    HW110303   1.527   4.556   1.685
 2954SOL    HW210304   1.657   4.535   1.612
 2955SOL     OW10305   0.994   3.858   1.751
 2955SOL    HW110306   1.055   3.930   1.734
 2955SOL    HW210307   1.042   3.779   1.727
 2956SOL     OW10308   0.502   3.759   1.748
 2956SOL    HW110309   0.452   3.712   1.681
 2956SOL    HW210310   0.451   3.838   1.765
 2957SOL     OW10311   0.588   4.595   1.037
 2957SOL    HW110312   0.613   4.688   1.034
 2957SOL    HW210313   0.526   4.589   1.109
 2958SOL     OW10314   1.339   4.578   1.030
 2958SOL    HW110315   1.260   4.570   0.976
 2958SOL    HW210316   1.388   4.498   1.013
 2959SOL     OW10317   1.208   4.249   0.277
 2959SOL    HW110318   1.217   4.174   0.337
 2959SOL    HW210319   1.166   4.316   0.330
 2960SOL     OW10320   0.310   3.918   1.246
 2960SOL    HW110321   0.266   3.949   1.325
 2960SOL    HW210322   0.291   3.824   1.243
 2961SOL     OW10323   0.030   5.032   1.279
 2961SOL    HW110324   0.071   4.974   1.343
 2961SOL    HW210325   0.040   5.120   1.316
 2962SOL     OW10326   0.723   4.354   1.053
 2962SOL    HW110327   0.797   4.344   0.993
 2962SOL    HW210328   0.690   4.442   1.036
 2963SOL     OW10329   1.744   4.692   1.859
 2963SOL    HW110330   1.678   4.640   1.813
 2963SOL    HW210331   1.707   4.707   1.946
 2964SOL     OW10332   0.315   3.799   0.629
 2964SOL    HW110333   0.287   3.889   0.648
 2964SOL    HW210334   0.324   3.758   0.714
 2965SOL     OW10335   1.631   4.099   0.358
 2965SOL    HW110336   1.649   4.025   0.415
 2965SOL    HW210337   1.595   4.166   0.416
 2966SOL     OW10338   1.027   4.483   0.954
 2966SOL    HW110339   1.020   4.497   1.048
 2966SOL    HW210340   1.000   4.392   0.941
 2967SOL     OW10341   1.844   5.228   1.603
 2967SOL    HW110342   1.872   5.257   1.516
 2967SOL    HW210343   1.921   5.241   1.658
 2968SOL     OW10344   0.370   4.664   1.796
 2968SOL    HW110345   0.439   4.669   1.862
 2968SOL    HW210346   0.395   4.590   1.741
 2969SOL     OW10347   1.507   3.947   0.144
 2969SOL    HW110348   1.434   3.957   0.206
 2969SOL    HW210349   1.576   4.003   0.179
 2970SOL     OW10350   1.285   4.537   0.056
 2970SOL    HW110351   1.337   4.457   0.044
 2970SOL    HW210352   1.326   4.601  -0.003
 2971SOL     OW10353   1.070   5.063   0.861
 2971SOL    HW110354   1.074   4.991   0.797
 2971SOL    HW210355   1.119   5.134   0.821
 2972SOL     OW10356   0.319   4.526   0.936
 2972SOL    HW110357   0.413   4.544   0.930
 2972SOL    HW210358   0.313   4.442   0.980
 2973SOL     OW10359   0.336   4.244   1.019
 2973SOL    HW110360   0.297   4.159   1.001
 2973SOL    HW210361   0.410   4.250   0.959
 2974SOL     OW10362   1.136   4.105   1.680
 2974SOL    HW110363   1.085   4.154   1.745
 2974SOL    HW210364   1.225   4.139   1.688
 2975SOL     OW10365   1.161   3.923   1.474
 2975SOL    HW110366   1.146   3.984   1.546
 2975SOL    HW210367   1.206   3.975   1.408
 2976SOL     OW10368   7.995   5.021   0.206
 2976SOL    HW110369   7.907   5.043   0.236
 2976SOL    HW210370   8.008   4.930   0.234
 2977SOL     OW10371   0.103   5.482   0.948
 2977SOL    HW110372   0.106   5.394   0.912
 2977SOL    HW210373   0.184   5.523   0.916
 2978SOL     OW10374   0.488   5.300   0.903
 2978SOL    HW110375   0.558   5.359   0.930
 2978SOL    HW210376   0.531   5.237   0.845
 2979SOL     OW10377   0.977   4.499   1.222
 2979SOL    HW110378   1.034   4.470   1.293
 2979SOL    HW210379   0.891   4.465   1.244
 2980SOL     OW10380   0.071   4.267   1.115
 2980SOL    HW110381   0.166   4.269   1.106
 2980SOL    HW210382   0.055   4.271   1.209
 2981SOL     OW10383   0.199   4.227   1.699
 2981SOL    HW110384   0.275   4.199   1.648
 2981SOL    HW210385   0.169   4.306   1.656
 2982SOL     OW10386   1.388   4.666   1.656
 2982SOL    HW110387   1.406   4.758   1.676
 2982SOL    HW210388   1.380   4.663   1.561
 2983SOL     OW10389   0.826   4.297   0.390
 2983SOL    HW110390   0.830   4.228   0.323
 2983SOL    HW210391   0.752   4.352   0.363
 2984SOL     OW10392   1.641   4.307   1.177
 2984SOL    HW110393   1.646   4.244   1.248
 2984SOL    HW210394   1.729   4.307   1.139
 2985SOL     OW10395   0.292   5.256   1.725
 2985SOL    HW110396   0.252   5.328   1.774
 2985SOL    HW210397   0.280   5.180   1.781
 2986SOL     OW10398   0.722   4.173   1.254
 2986SOL    HW110399   0.663   4.100   1.232
 2986SOL    HW210400   0.710   4.235   1.182
 2987SOL     OW10401   0.907   5.368   1.477
 2987SOL    HW110402   0.896   5.340   1.386
 2987SOL    HW210403   0.914   5.464   1.472
 2988SOL     OW10404   0.162   4.861   1.453
 2988SOL    HW110405   0.139   4.805   1.528
 2988SOL    HW210406   0.169   4.800   1.379
 2989SOL     OW10407   1.309   4.764   1.225
 2989SOL    HW110408   1.331   4.702   1.156
 2989SOL    HW210409   1.251   4.827   1.183
 2990SOL     OW10410   1.297   4.564   0.329
 2990SOL    HW110411   1.217   4.530   0.370
 2990SOL    HW210412   1.285   4.546   0.236
 2991SOL     OW10413   1.754   5.467   1.143
 2991SOL    HW110414   1.828   5.483   1.084
 2991SOL    HW210415   1.733   5.375   1.131
 2992SOL     OW10416   1.247   5.465   1.112
 2992SOL    HW110417   1.328   5.486   1.066
 2992SOL    HW210418   1.252   5.371   1.128
 2993SOL     OW10419   0.087   4.973   1.017
 2993SOL    HW110420   0.068   4.989   1.109
 2993SOL    HW210421   0.009   4.929   0.983
 2994SOL     OW10422   0.707   5.408   1.697
 2994SOL    HW110423   0.651   5.470   1.744
 2994SOL    HW210424   0.706   5.437   1.606
 2995SOL     OW10425   0.905   3.816   0.110
 2995SOL    HW110426   0.937   3.800   0.022
 2995SOL    HW210427   0.971   3.777   0.167
 2996SOL     OW10428   1.708   3.869   0.497
 2996SOL    HW110429   1.784   3.853   0.442
 2996SOL    HW210430   1.696   3.788   0.546
 2997SOL     OW10431   1.393   5.287   0.494
 2997SOL    HW110432   1.457   5.318   0.429
 2997SOL    HW210433   1.331   5.360   0.502
 2998SOL     OW10434   0.172   5.473   1.835
 2998SOL    HW110435   0.109   5.425   1.888
 2998SOL    HW210436   0.219   5.529   1.897
 2999SOL     OW10437   1.279   4.659   0.677
 2999SOL    HW110438   1.352   4.598   0.686
 2999SOL    HW210439   1.310   4.725   0.616
 3000SOL     OW10440   0.792   4.998   1.412
 3000SOL    HW110441   0.756   5.037   1.492
 3000SOL    HW210442   0.723   5.010   1.346
 3001SOL     OW10443   0.626   5.345   0.152
 3001SOL    HW110444   0.712   5.343   0.111
 3001SOL    HW210445   0.598   5.253   0.153
 3002SOL     OW10446   1.614   5.453   1.385
 3002SOL    HW110447   1.666   5.459   1.305
 3002SOL    HW210448   1.600   5.544   1.411
 3003SOL     OW10449   1.843   3.893   0.968
 3003SOL    HW110450   1.873   3.805   0.944
 3003SOL    HW210451   1.758   3.901   0.925
 3004SOL     OW10452   0.258   4.048   0.715
 3004SOL    HW110453   0.173   4.087   0.694
 3004SOL    HW210454   0.255   4.034   0.810
 3005SOL     OW10455   1.203   5.337   0.076
 3005SOL    HW110456   1.194   5.243   0.091
 3005SOL    HW210457   1.148   5.354  -0.001
 3006SOL     OW10458   0.831   4.728   1.376
 3006SOL    HW110459   0.859   4.722   1.285
 3006SOL    HW210460   0.819   4.821   1.391
 3007SOL     OW10461   0.929   4.655   0.294
 3007SOL    HW110462   0.988   4.675   0.221
 3007SOL    HW210463   0.966   4.576   0.334
 3008SOL     OW10464   1.460   5.302  -0.005
 3008SOL    HW110465   1.377   5.331   0.034
 3008SOL    HW210466   1.518   5.377   0.004
 3009SOL     OW10467   0.375   5.030   1.486
 3009SOL    HW110468   0.351   5.109   1.438
 3009SOL    HW210469   0.302   4.971   1.473
 3010SOL     OW10470   1.596   4.997   1.282
 3010SOL    HW110471   1.666   4.986   1.347
 3010SOL    HW210472   1.543   5.069   1.316
 3011SOL     OW10473   1.063   4.837   0.715
 3011SOL    HW110474   0.989   4.785   0.748
 3011SOL    HW210475   1.127   4.773   0.687
 3012SOL     OW10476   1.024   3.971   0.976
 3012SOL    HW110477   1.011   3.929   0.891
 3012SOL    HW210478   1.021   3.900   1.040
 3013SOL     OW10479   0.604   5.194   0.483
 3013SOL    HW110480   0.658   5.161   0.412
 3013SOL    HW210481   0.533   5.242   0.439
 3014SOL     OW10482   1.725   4.123   1.375
 3014SOL    HW110483   1.802   4.179   1.382
 3014SOL    HW210484   1.753   4.049   1.321
 3015SOL     OW10485   0.268   5.022   0.300
 3015SOL    HW110486   0.181   5.036   0.264
 3015SOL    HW210487   0.273   5.081   0.376
 3016SOL     OW10488   0.117   4.723   1.697
 3016SOL    HW110489   0.077   4.801   1.736
 3016SOL    HW210490   0.200   4.712   1.745
 3017SOL     OW10491   0.679   3.917   1.499
 3017SOL    HW110492   0.764   3.895   1.462
 3017SOL    HW210493   0.698   3.948   1.587
 3018SOL     OW10494   0.102   4.064   0.026
 3018SOL    HW110495   0.034   4.108   0.076
 3018SOL    HW210496   0.181   4.114   0.043
 3019SOL     OW10497   1.423   4.569   1.390
 3019SOL    HW110498   1.367   4.628   1.340
 3019SOL    HW210499   1.510   4.582   1.352
 3020SOL     OW10500   0.085   3.942   0.352
 3020SOL    HW110501   0.053   4.006   0.288
 3020SOL    HW210502   0.168   3.911   0.316
 3021SOL     OW10503   1.186   5.062   0.120
 3021SOL    HW110504   1.091   5.049   0.114
 3021SOL    HW210505   1.206   5.054   0.213
 3022SOL     OW10506   0.623   4.556   1.435
 3022SOL    HW110507   0.681   4.631   1.422
 3022SOL    HW210508   0.681   4.480   1.441
 3023SOL     OW10509   1.519   5.542   0.971
 3023SOL    HW110510   1.528   5.497   0.887
 3023SOL    HW210511   1.588   5.505   1.026
 3024SOL     OW10512   0.720   4.287   1.696
 3024SOL    HW110513   0.762   4.342   1.762
 3024SOL    HW210514   0.731   4.197   1.729
 3025SOL     OW10515   1.473   4.931   1.635
 3025SOL    HW110516   1.464   4.944   1.730
 3025SOL    HW210517   1.566   4.945   1.618
 3026SOL     OW10518   0.387   5.457   1.565
 3026SOL    HW110519   0.300   5.491   1.542
 3026SOL    HW210520   0.368   5.374   1.610
 3027SOL     OW10521   1.658   4.601   1.250
 3027SOL    HW110522   1.669   4.519   1.202
 3027SOL    HW210523   1.650   4.668   1.182
 3028SOL     OW10524   1.218   4.042   0.457
 3028SOL    HW110525   1.288   3.979   0.441
 3028SOL    HW210526   1.245   4.088   0.537
 3029SOL     OW10527   0.581   4.460   0.676
 3029SOL    HW110528   0.625   4.543   0.659
 3029SOL    HW210529   0.524   4.447   0.601
 3030SOL     OW10530   1.742   4.099   1.648
 3030SOL    HW110531   1.736   4.104   1.552
 3030SOL    HW210532   1.677   4.033   1.673
 3031SOL     OW10533   1.722   4.664   1.512
 3031SOL    HW110534   1.743   4.757   1.527
 3031SOL    HW210535   1.722   4.655   1.417
 3032SOL     OW10536   0.905   5.091   0.059
 3032SOL    HW110537   0.848   5.068   0.132
 3032SOL    HW210538   0.897   5.186   0.051
 3033SOL     OW10539   0.668   5.503   0.944
 3033SOL    HW110540   0.649   5.594   0.919
 3033SOL    HW210541   0.761   5.493   0.926
 3034SOL     OW10542   0.868   4.697   0.854
 3034SOL    HW110543   0.918   4.622   0.889
 3034SOL    HW210544   0.831   4.739   0.931
 3035SOL     OW10545   1.082   4.715   0.072
 3035SOL    HW110546   1.123   4.786   0.023
 3035SOL    HW210547   1.152   4.650   0.080
 3036SOL     OW10548   1.851   5.271   0.845
 3036SOL    HW110549   1.779   5.248   0.785
 3036SOL    HW210550   1.870   5.190   0.891
 3037SOL     OW10551   0.225   5.024   1.862
 3037SOL    HW110552   0.133   5.006   1.843
 3037SOL    HW210553   0.230   5.030   1.957
 3038SOL     OW10554   0.131   4.985   0.650
 3038SOL    HW110555   0.056   4.945   0.695
 3038SOL    HW210556   0.193   4.913   0.640
 3039SOL     OW10557   0.687   5.135   1.634
 3039SOL    HW110558   0.618   5.076   1.662
 3039SOL    HW210559   0.650   5.223   1.643
 3040SOL     OW10560   1.795   3.904   1.237
 3040SOL    HW110561   1.811   3.811   1.251
 3040SOL    HW210562   1.812   3.918   1.143
 3041SOL     OW10563   0.432   4.162   0.525
 3041SOL    HW110564   0.460   4.095   0.462
 3041SOL    HW210565   0.385   4.114   0.592
 3042SOL     OW10566   1.679   5.214   1.106
 3042SOL    HW110567   1.610   5.183   1.047
 3042SOL    HW210568   1.699   5.138   1.161
 3043SOL     OW10569   0.360   4.287   1.294
 3043SOL    HW110570   0.405   4.225   1.351
 3043SOL    HW210571   0.372   4.251   1.206
 3044SOL     OW10572   0.831   5.301   0.675
 3044SOL    HW110573   0.826   5.346   0.591
 3044SOL    HW210574   0.753   5.245   0.677
 3045SOL     OW10575   1.426   3.943   1.109
 3045SOL    HW110576   1.444   3.849   1.110
 3045SOL    HW210577   1.390   3.962   1.196
 3046SOL     OW10578   1.010   3.736   1.132
 3046SOL    HW110579   0.964   3.676   1.073
 3046SOL    HW210580   1.098   3.699   1.140
 3047SOL     OW10581   0.781   5.049   0.307
 3047SOL    HW110582   0.752   4.960   0.329
 3047SOL    HW210583   0.856   5.064   0.364
 3048SOL     OW10584   0.620   5.282   1.293
 3048SOL    HW110585   0.623   5.364   1.342
 3048SOL    HW210586   0.707   5.276   1.252
 3049SOL     OW10587   1.349   3.712   0.133
 3049SOL    HW110588   1.400   3.792   0.119
 3049SOL    HW210589   1.263   3.743   0.162
 3050SOL     OW10590   1.285   4.185   0.678
 3050SOL    HW110591   1.237   4.268   0.680
 3050SOL    HW210592   1.286   4.155   0.769
 3051SOL     OW10593   1.589   3.926   0.875
 3051SOL    HW110594   1.533   3.947   0.950
 3051SOL    HW210595   1.588   4.005   0.821
 3052SOL     OW10596   0.043   4.771   0.292
 3052SOL    HW110597   0.131   4.749   0.263
 3052SOL    HW210598   0.044   4.758   0.387
 3053SOL     OW10599   0.846   5.379   0.395
 3053SOL    HW110600   0.813   5.395   0.307
 3053SOL    HW210601   0.861   5.466   0.431
 3054SOL     OW10602   0.201   4.426   1.978
 3054SOL    HW110603   0.204   4.348   2.034
 3054SOL    HW210604   0.192   4.392   1.889
 3055SOL     OW10605   0.231   3.964   2.840
 3055SOL    HW110606   0.282   3.975   2.920
 3055SOL    HW210607   0.142   3.944   2.870
 3056SOL     OW10608   7.999   4.107   2.479
 3056SOL    HW110609   7.916   4.110   2.526
 3056SOL    HW210610   8.000   4.021   2.437
 3057SOL     OW10611   0.568   5.026   3.032
 3057SOL    HW110612   0.475   5.033   3.011
 3057SOL    HW210613   0.590   5.109   3.072
 3058SOL     OW10614   1.571   5.237   2.590
 3058SOL    HW110615   1.556   5.206   2.680
 3058SOL    HW210616   1.483   5.256   2.557
 3059SOL     OW10617   1.127   4.420   2.548
 3059SOL    HW110618   1.180   4.499   2.536
 3059SOL    HW210619   1.087   4.431   2.634
 3060SOL     OW10620   1.802   4.307   2.079
 3060SOL    HW110621   1.758   4.305   1.994
 3060SOL    HW210622   1.747   4.253   2.135
 3061SOL     OW10623   0.743   4.864   2.897
 3061SOL    HW110624   0.674   4.906   2.949
 3061SOL    HW210625   0.805   4.934   2.878
 3062SOL     OW10626   0.871   4.489   3.675
 3062SOL    HW110627   0.826   4.558   3.723
 3062SOL    HW210628   0.905   4.533   3.596
 3063SOL     OW10629   0.694   4.724   2.505
 3063SOL    HW110630   0.760   4.717   2.574
 3063SOL    HW210631   0.624   4.776   2.545
 3064SOL     OW10632   0.327   5.140   2.935
 3064SOL    HW110633   0.254   5.096   2.891
 3064SOL    HW210634   0.369   5.191   2.866
 3065SOL     OW10635   1.480   5.226   3.223
 3065SOL    HW110636   1.524   5.309   3.242
 3065SOL    HW210637   1.399   5.230   3.274
 3066SOL     OW10638   0.450   4.100   3.342
 3066SOL    HW110639   0.539   4.066   3.349
 3066SOL    HW210640   0.399   4.046   3.403
 3067SOL     OW10641   1.600   4.167   2.610
 3067SOL    HW110642   1.521   4.189   2.560
 3067SOL    HW210643   1.596   4.223   2.687
 3068SOL     OW10644   0.227   5.425   2.337
 3068SOL    HW110645   0.231   5.504   2.392
 3068SOL    HW210646   0.299   5.435   2.276
 3069SOL     OW10647   1.139   5.067   3.558
 3069SOL    HW110648   1.183   5.059   3.643
 3069SOL    HW210649   1.086   4.987   3.551
 3070SOL     OW10650   0.307   5.162   2.376
 3070SOL    HW110651   0.274   5.250   2.392
 3070SOL    HW210652   0.256   5.106   2.434
 3071SOL     OW10653   0.261   4.821   2.720
 3071SOL    HW110654   0.276   4.731   2.750
 3071SOL    HW210655   0.207   4.861   2.789
 3072SOL     OW10656   0.592   5.542   3.254
 3072SOL    HW110657   0.521   5.510   3.311
 3072SOL    HW210658   0.628   5.617   3.301
 3073SOL     OW10659   0.573   4.714   2.006
 3073SOL    HW110660   0.631   4.753   1.941
 3073SOL    HW210661   0.610   4.741   2.090
 3074SOL     OW10662   0.118   4.352   2.421
 3074SOL    HW110663   0.089   4.267   2.455
 3074SOL    HW210664   0.102   4.413   2.493
 3075SOL     OW10665   1.847   5.474   2.185
 3075SOL    HW110666   1.913   5.447   2.250
 3075SOL    HW210667   1.863   5.568   2.173
 3076SOL     OW10668   0.024   5.306   1.996
 3076SOL    HW110669   0.005   5.212   1.992
 3076SOL    HW210670   0.013   5.328   2.089
 3077SOL     OW10671   1.685   4.613   2.486
 3077SOL    HW110672   1.775   4.608   2.520
 3077SOL    HW210673   1.689   4.682   2.419
 3078SOL     OW10674   1.662   4.831   2.280
 3078SOL    HW110675   1.751   4.826   2.245
 3078SOL    HW210676   1.668   4.896   2.351
 3079SOL     OW10677   0.141   4.502   3.439
 3079SOL    HW110678   0.235   4.488   3.439
 3079SOL    HW210679   0.127   4.574   3.500
 3080SOL     OW10680   0.625   5.112   2.600
 3080SOL    HW110681   0.579   5.029   2.605
 3080SOL    HW210682   0.615   5.140   2.509
 3081SOL     OW10683   1.283   4.957   3.290
 3081SOL    HW110684   1.321   4.898   3.226
 3081SOL    HW210685   1.341   4.951   3.366
 3082SOL     OW10686   0.819   3.722   2.372
 3082SOL    HW110687   0.861   3.806   2.352
 3082SOL    HW210688   0.726   3.743   2.378
 3083SOL     OW10689   0.169   4.647   3.113
 3083SOL    HW110690   0.263   4.648   3.130
 3083SOL    HW210691   0.156   4.571   3.056
 3084SOL     OW10692   1.534   4.722   2.062
 3084SOL    HW110693   1.464   4.666   2.097
 3084SOL    HW210694   1.578   4.757   2.140
 3085SOL     OW10695   1.163   5.534   3.468
 3085SOL    HW110696   1.199   5.588   3.398
 3085SOL    HW210697   1.189   5.444   3.445
 3086SOL     OW10698   0.352   3.983   3.679
 3086SOL    HW110699   0.399   4.056   3.718
 3086SOL    HW210700   0.260   4.004   3.693
 3087SOL     OW10701   1.484   5.126   2.823
 3087SOL    HW110702   1.399   5.160   2.853
 3087SOL    HW210703   1.466   5.036   2.796
 3088SOL     OW10704   1.650   5.479   2.442
 3088SOL    HW110705   1.627   5.435   2.360
 3088SOL    HW210706   1.632   5.413   2.510
 3089SOL     OW10707   0.588   4.435   2.132
 3089SOL    HW110708   0.603   4.523   2.100
 3089SOL    HW210709   0.531   4.447   2.209
 3090SOL     OW10710   1.279   4.084   2.786
 3090SOL    HW110711   1.189   4.056   2.802
 3090SOL    HW210712   1.331   4.032   2.848
 3091SOL     OW10713   1.580   5.423   2.168
 3091SOL    HW110714   1.675   5.439   2.170
 3091SOL    HW210715   1.565   5.388   2.080
 3092SOL     OW10716   0.823   4.296   3.318
 3092SOL    HW110717   0.777   4.299   3.401
 3092SOL    HW210718   0.760   4.256   3.257
 3093SOL     OW10719   1.410   4.188   3.570
 3093SOL    HW110720   1.358   4.220   3.644
 3093SOL    HW210721   1.494   4.233   3.579
 3094SOL     OW10722   0.965   4.602   3.440
 3094SOL    HW110723   1.030   4.549   3.394
 3094SOL    HW210724   0.918   4.649   3.371
 3095SOL     OW10725   0.997   4.133   3.107
 3095SOL    HW110726   0.943   4.186   3.166
 3095SOL    HW210727   0.946   4.128   3.026
 3096SOL     OW10728   1.047   4.423   2.281
 3096SOL    HW110729   1.069   4.422   2.374
 3096SOL    HW210730   0.966   4.373   2.274
 3097SOL     OW10731   0.055   4.532   2.609
 3097SOL    HW110732   0.141   4.529   2.653
 3097SOL    HW210733   0.010   4.605   2.650
 3098SOL     OW10734   0.126   5.548   3.428
 3098SOL    HW110735   0.141   5.530   3.521
 3098SOL    HW210736   0.032   5.534   3.415
 3099SOL     OW10737   0.890   4.063   2.037
 3099SOL    HW110738   0.933   4.130   1.983
 3099SOL    HW210739   0.945   3.985   2.027
 3100SOL     OW10740   1.700   4.300   3.698
 3100SOL    HW110741   1.650   4.368   3.652
 3100SOL    HW210742   1.772   4.278   3.639
 3101SOL     OW10743   1.386   4.865   2.406
 3101SOL    HW110744   1.473   4.871   2.366
 3101SOL    HW210745   1.335   4.933   2.363
 3102SOL     OW10746   0.561   3.909   2.759
 3102SOL    HW110747   0.560   3.928   2.852
 3102SOL    HW210748   0.565   3.995   2.717
 3103SOL     OW10749   0.985   5.143   2.333
 3103SOL    HW110750   0.973   5.237   2.326
 3103SOL    HW210751   0.991   5.126   2.427
 3104SOL     OW10752   0.365   5.536   2.705
 3104SOL    HW110753   0.401   5.449   2.722
 3104SOL    HW210754   0.430   5.596   2.741
 3105SOL     OW10755   1.783   4.775   2.724
 3105SOL    HW110756   1.708   4.785   2.664
 3105SOL    HW210757   1.745   4.781   2.811
 3106SOL     OW10758   1.225   5.263   3.367
 3106SOL    HW110759   1.220   5.196   3.435
 3106SOL    HW210760   1.175   5.226   3.294
 3107SOL     OW10761   0.296   4.668   2.100
 3107SOL    HW110762   0.385   4.689   2.071
 3107SOL    HW210763   0.273   4.589   2.052
 3108SOL     OW10764   1.473   4.462   2.574
 3108SOL    HW110765   1.473   4.426   2.662
 3108SOL    HW210766   1.554   4.515   2.571
 3109SOL     OW10767   0.438   5.042   3.613
 3109SOL    HW110768   0.436   5.026   3.519
 3109SOL    HW210769   0.362   4.995   3.647
 3110SOL     OW10770   1.121   5.521   2.063
 3110SOL    HW110771   1.056   5.488   2.124
 3110SOL    HW210772   1.159   5.443   2.023
 3111SOL     OW10773   0.162   3.996   3.358
 3111SOL    HW110774   0.173   4.088   3.383
 3111SOL    HW210775   0.153   3.950   3.441
 3112SOL     OW10776   1.628   5.096   1.931
 3112SOL    HW110777   1.591   5.184   1.934
 3112SOL    HW210778   1.552   5.037   1.929
 3113SOL     OW10779   0.455   5.474   2.177
 3113SOL    HW110780   0.498   5.521   2.248
 3113SOL    HW210781   0.525   5.427   2.132
 3114SOL     OW10782   1.403   3.834   2.306
 3114SOL    HW110783   1.405   3.807   2.214
 3114SOL    HW210784   1.494   3.846   2.330
 3115SOL     OW10785   0.260   5.526   3.087
 3115SOL    HW110786   0.296   5.445   3.125
 3115SOL    HW210787   0.207   5.496   3.013
 3116SOL     OW10788   0.945   5.420   2.770
 3116SOL    HW110789   1.010   5.361   2.808
 3116SOL    HW210790   0.906   5.371   2.698
 3117SOL     OW10791   0.392   4.429   2.332
 3117SOL    HW110792   0.412   4.338   2.353
 3117SOL    HW210793   0.328   4.455   2.398
 3118SOL     OW10794   1.506   3.908   3.574
 3118SOL    HW110795   1.540   3.937   3.659
 3118SOL    HW210796   1.426   3.860   3.595
 3119SOL     OW10797   0.637   3.830   1.975
 3119SOL    HW110798   0.722   3.786   1.969
 3119SOL    HW210799   0.592   3.803   1.895
 3120SOL     OW10800   0.757   3.968   3.632
 3120SOL    HW110801   0.840   3.922   3.618
 3120SOL    HW210802   0.768   4.014   3.715
 3121SOL     OW10803   0.881   5.246   3.065
 3121SOL    HW110804   0.874   5.213   2.975
 3121SOL    HW210805   0.952   5.196   3.104
 3122SOL     OW10806   1.349   4.300   3.293
 3122SOL    HW110807   1.391   4.319   3.377
 3122SOL    HW210808   1.371   4.375   3.238
 3123SOL     OW10809   0.823   5.124   2.801
 3123SOL    HW110810   0.900   5.113   2.745
 3123SOL    HW210811   0.749   5.108   2.743
 3124SOL     OW10812   0.941   4.225   2.770
 3124SOL    HW110813   0.912   4.218   2.679
 3124SOL    HW210814   0.970   4.137   2.792
 3125SOL     OW10815   0.552   3.778   2.347
 3125SOL    HW110816   0.476   3.781   2.406
 3125SOL    HW210817   0.546   3.860   2.298
 3126SOL     OW10818   1.419   4.916   1.906
 3126SOL    HW110819   1.458   4.847   1.959
 3126SOL    HW210820   1.339   4.940   1.953
 3127SOL     OW10821   0.309   3.755   2.035
 3127SOL    HW110822   0.365   3.833   2.033
 3127SOL    HW210823   0.357   3.692   2.089
 3128SOL     OW10824   0.938   3.968   2.313
 3128SOL    HW110825   0.912   4.022   2.239
 3128SOL    HW210826   1.031   3.987   2.326
 3129SOL     OW10827   1.087   4.404   3.293
 3129SOL    HW110828   1.016   4.348   3.328
 3129SOL    HW210829   1.167   4.358   3.317
 3130SOL     OW10830   1.304   5.291   2.576
 3130SOL    HW110831   1.275   5.382   2.569
 3130SOL    HW210832   1.267   5.260   2.659
 3131SOL     OW10833   0.479   4.884   2.576
 3131SOL    HW110834   0.416   4.863   2.645
 3131SOL    HW210835   0.437   4.854   2.495
 3132SOL     OW10836   1.255   5.539   2.458
 3132SOL    HW110837   1.306   5.611   2.420
 3132SOL    HW210838   1.188   5.583   2.510
 3133SOL     OW10839   1.030   4.253   1.888
 3133SOL    HW110840   0.984   4.336   1.876
 3133SOL    HW210841   1.087   4.268   1.963
 3134SOL     OW10842   0.087   4.331   3.233
 3134SOL    HW110843   0.178   4.308   3.214
 3134SOL    HW210844   0.092   4.385   3.312
 3135SOL     OW10845   0.552   3.939   3.032
 3135SOL    HW110846   0.599   3.891   3.100
 3135SOL    HW210847   0.462   3.943   3.062
 3136SOL     OW10848   0.869   4.183   2.510
 3136SOL    HW110849   0.805   4.244   2.472
 3136SOL    HW210850   0.874   4.111   2.446
 3137SOL     OW10851   1.032   3.768   2.605
 3137SOL    HW110852   0.961   3.776   2.542
 3137SOL    HW210853   1.004   3.699   2.665
 3138SOL     OW10854   1.441   4.868   2.719
 3138SOL    HW110855   1.385   4.797   2.750
 3138SOL    HW210856   1.417   4.879   2.627
 3139SOL     OW10857   1.469   4.319   2.811
 3139SOL    HW110858   1.402   4.254   2.832
 3139SOL    HW210859   1.525   4.322   2.888
 3140SOL     OW10860   1.849   4.533   2.226
 3140SOL    HW110861   1.896   4.494   2.300
 3140SOL    HW210862   1.829   4.460   2.168
 3141SOL     OW10863   0.489   5.137   2.009
 3141SOL    HW110864   0.412   5.118   2.061
 3141SOL    HW210865   0.475   5.089   1.927
 3142SOL     OW10866   1.685   5.001   2.482
 3142SOL    HW110867   1.775   5.000   2.514
 3142SOL    HW210868   1.646   5.078   2.522
 3143SOL     OW10869   1.391   4.300   1.934
 3143SOL    HW110870   1.327   4.280   2.003
 3143SOL    HW210871   1.476   4.285   1.975
 3144SOL     OW10872   0.527   3.984   2.171
 3144SOL    HW110873   0.577   3.936   2.105
 3144SOL    HW210874   0.506   4.067   2.129
 3145SOL     OW10875   1.738   4.973   3.422
 3145SOL    HW110876   1.811   4.916   3.444
 3145SOL    HW210877   1.765   5.060   3.451
 3146SOL     OW10878   1.053   5.076   3.213
 3146SOL    HW110879   0.979   5.040   3.261
 3146SOL    HW210880   1.129   5.033   3.250
 3147SOL     OW10881   1.608   5.363   3.522
 3147SOL    HW110882   1.609   5.393   3.431
 3147SOL    HW210883   1.684   5.304   3.529
 3148SOL     OW10884   1.109   4.931   2.982
 3148SOL    HW110885   1.080   4.971   3.064
 3148SOL    HW210886   1.134   5.006   2.927
 3149SOL     OW10887   1.637   4.833   2.946
 3149SOL    HW110888   1.637   4.891   3.022
 3149SOL    HW210889   1.552   4.849   2.904
 3150SOL     OW10890   0.914   3.809   3.251
 3150SOL    HW110891   0.942   3.801   3.159
 3150SOL    HW210892   0.988   3.852   3.295
 3151SOL     OW10893   0.978   4.840   3.581
 3151SOL    HW110894   0.884   4.840   3.600
 3151SOL    HW210895   0.993   4.760   3.532
 3152SOL     OW10896   0.711   4.779   2.234
 3152SOL    HW110897   0.698   4.766   2.328
 3152SOL    HW210898   0.784   4.721   2.212
 3153SOL     OW10899   0.417   4.546   3.138
 3153SOL    HW110900   0.501   4.555   3.184
 3153SOL    HW210901   0.395   4.454   3.145
 3154SOL     OW10902   1.265   4.090   3.143
 3154SOL    HW110903   1.297   4.167   3.190
 3154SOL    HW210904   1.174   4.112   3.121
 3155SOL     OW10905   0.061   5.324   3.187
 3155SOL    HW110906   0.062   5.409   3.231
 3155SOL    HW210907   0.148   5.288   3.204
 3156SOL     OW10908   0.357   4.817   2.340
 3156SOL    HW110909   0.340   4.895   2.287
 3156SOL    HW210910   0.343   4.744   2.280
 3157SOL     OW10911   0.575   4.211   2.695
 3157SOL    HW110912   0.581   4.283   2.633
 3157SOL    HW210913   0.610   4.246   2.777
 3158SOL     OW10914   1.244   5.068   2.248
 3158SOL    HW110915   1.293   5.148   2.269
 3158SOL    HW210916   1.160   5.078   2.293
 3159SOL     OW10917   1.580   4.360   2.333
 3159SOL    HW110918   1.524   4.380   2.408
 3159SOL    HW210919   1.642   4.433   2.329
 3160SOL     OW10920   0.339   5.261   3.175
 3160SOL    HW110921   0.329   5.214   3.093
 3160SOL    HW210922   0.434   5.269   3.187
 3161SOL     OW10923   0.425   4.445   3.470
 3161SOL    HW110924   0.474   4.497   3.406
 3161SOL    HW210925   0.492   4.397   3.518
 3162SOL     OW10926   0.995   3.850   3.603
 3162SOL    HW110927   1.052   3.927   3.596
 3162SOL    HW210928   1.052   3.777   3.580
 3163SOL     OW10929   0.497   3.762   3.559
 3163SOL    HW110930   0.528   3.833   3.504
 3163SOL    HW210931   0.433   3.803   3.617
 3164SOL     OW10932   0.628   4.591   2.899
 3164SOL    HW110933   0.645   4.684   2.913
 3164SOL    HW210934   0.533   4.584   2.896
 3165SOL     OW10935   1.336   4.605   2.859
 3165SOL    HW110936   1.248   4.569   2.852
 3165SOL    HW210937   1.388   4.534   2.896
 3166SOL     OW10938   1.191   4.251   2.120
 3166SOL    HW110939   1.206   4.176   2.177
 3166SOL    HW210940   1.152   4.317   2.177
 3167SOL     OW10941   0.293   3.918   3.117
 3167SOL    HW110942   0.259   3.954   3.199
 3167SOL    HW210943   0.272   3.825   3.120
 3168SOL     OW10944   0.045   5.034   3.141
 3168SOL    HW110945   0.070   4.974   3.212
 3168SOL    HW210946   0.045   5.121   3.182
 3169SOL     OW10947   0.707   4.333   2.907
 3169SOL    HW110948   0.795   4.332   2.869
 3169SOL    HW210949   0.683   4.425   2.910
 3170SOL     OW10950   1.728   4.668   3.682
 3170SOL    HW110951   1.669   4.610   3.634
 3170SOL    HW210952   1.681   4.689   3.763
 3171SOL     OW10953   0.313   3.789   2.476
 3171SOL    HW110954   0.282   3.877   2.497
 3171SOL    HW210955   0.322   3.746   2.562
 3172SOL     OW10956   1.622   4.115   2.216
 3172SOL    HW110957   1.642   4.049   2.282
 3172SOL    HW210958   1.598   4.193   2.267
 3173SOL     OW10959   1.038   4.475   2.814
 3173SOL    HW110960   1.021   4.497   2.905
 3173SOL    HW210961   1.009   4.385   2.805
 3174SOL     OW10962   0.979   5.288   3.579
 3174SOL    HW110963   0.959   5.328   3.494
 3174SOL    HW210964   1.027   5.208   3.557
 3175SOL     OW10965   1.845   5.222   3.471
 3175SOL    HW110966   1.874   5.249   3.383
 3175SOL    HW210967   1.922   5.234   3.526
 3176SOL     OW10968   0.360   4.662   3.649
 3176SOL    HW110969   0.440   4.714   3.655
 3176SOL    HW210970   0.386   4.584   3.599
 3177SOL     OW10971   1.533   3.995   1.984
 3177SOL    HW110972   1.471   3.929   2.015
 3177SOL    HW210973   1.564   4.037   2.064
 3178SOL     OW10974   1.258   4.539   1.867
 3178SOL    HW110975   1.313   4.466   1.897
 3178SOL    HW210976   1.313   4.585   1.804
 3179SOL     OW10977   1.020   5.080   2.603
 3179SOL    HW110978   1.044   4.988   2.592
 3179SOL    HW210979   1.079   5.113   2.671
 3180SOL     OW10980   0.344   4.235   2.898
 3180SOL    HW110981   0.370   4.177   2.826
 3180SOL    HW210982   0.349   4.323   2.861
 3181SOL     OW10983   1.137   4.087   3.555
 3181SOL    HW110984   1.091   4.150   3.611
 3181SOL    HW210985   1.228   4.117   3.555
 3182SOL     OW10986   1.158   3.918   3.335
 3182SOL    HW110987   1.147   3.979   3.407
 3182SOL    HW210988   1.198   3.970   3.265
 3183SOL     OW10989   7.971   5.023   2.043
 3183SOL    HW110990   7.889   5.050   2.085
 3183SOL    HW210991   7.986   4.934   2.075
 3184SOL     OW10992   0.121   5.516   2.835
 3184SOL    HW110993   0.065   5.464   2.778
 3184SOL    HW210994   0.203   5.524   2.786
 3185SOL     OW10995   0.487   5.295   2.760
 3185SOL    HW110996   0.554   5.356   2.792
 3185SOL    HW210997   0.537   5.227   2.715
 3186SOL     OW10998   0.970   4.507   3.071
 3186SOL    HW110999   1.024   4.472   3.143
 3186SOL    HW211000   0.903   4.559   3.115
 3187SOL     OW11001   0.076   4.250   2.973
 3187SOL    HW111002   0.170   4.246   2.955
 3187SOL    HW211003   0.070   4.279   3.064
 3188SOL     OW11004   0.206   4.229   3.507
 3188SOL    HW111005   0.295   4.252   3.480
 3188SOL    HW211006   0.174   4.306   3.554
 3189SOL     OW11007   1.347   4.667   3.512
 3189SOL    HW111008   1.385   4.754   3.502
 3189SOL    HW211009   1.421   4.607   3.497
 3190SOL     OW11010   0.818   4.286   2.210
 3190SOL    HW111011   0.809   4.213   2.149
 3190SOL    HW211012   0.741   4.340   2.195
 3191SOL     OW11013   1.632   4.315   3.019
 3191SOL    HW111014   1.628   4.291   3.112
 3191SOL    HW211015   1.725   4.309   2.997
 3192SOL     OW11016   0.275   5.265   3.565
 3192SOL    HW111017   0.247   5.327   3.633
 3192SOL    HW211018   0.330   5.202   3.612
 3193SOL     OW11019   0.685   4.170   3.119
 3193SOL    HW111020   0.633   4.098   3.082
 3193SOL    HW211021   0.687   4.236   3.050
 3194SOL     OW11022   0.896   5.403   3.341
 3194SOL    HW111023   0.895   5.360   3.256
 3194SOL    HW211024   0.917   5.494   3.321
 3195SOL     OW11025   0.456   4.210   2.035
 3195SOL    HW111026   0.509   4.287   2.056
 3195SOL    HW211027   0.373   4.225   2.082
 3196SOL     OW11028   0.146   4.844   3.316
 3196SOL    HW111029   0.139   4.796   3.399
 3196SOL    HW211030   0.151   4.775   3.250
 3197SOL     OW11031   1.325   4.782   3.072
 3197SOL    HW111032   1.338   4.721   3.000
 3197SOL    HW211033   1.249   4.834   3.047
 3198SOL     OW11034   1.320   4.583   2.159
 3198SOL    HW111035   1.286   4.573   2.248
 3198SOL    HW211036   1.247   4.560   2.102
 3199SOL     OW11037   1.748   5.470   2.993
 3199SOL    HW111038   1.822   5.488   2.936
 3199SOL    HW211039   1.739   5.374   2.991
 3200SOL     OW11040   1.251   5.489   2.970
 3200SOL    HW111041   1.337   5.500   2.930
 3200SOL    HW211042   1.230   5.397   2.958
 3201SOL     OW11043   0.091   4.970   2.882
 3201SOL    HW111044   0.081   4.991   2.975
 3201SOL    HW211045   0.002   4.965   2.849
 3202SOL     OW11046   0.686   5.394   3.607
 3202SOL    HW111047   0.641   5.475   3.586
 3202SOL    HW211048   0.766   5.396   3.554
 3203SOL     OW11049   1.696   3.873   2.357
 3203SOL    HW111050   1.781   3.862   2.315
 3203SOL    HW211051   1.682   3.792   2.407
 3204SOL     OW11052   1.358   5.308   2.288
 3204SOL    HW111053   1.437   5.355   2.263
 3204SOL    HW211054   1.330   5.349   2.370
 3205SOL     OW11055   0.166   5.477   3.703
 3205SOL    HW111056   0.104   5.428   3.757
 3205SOL    HW211057   0.218   5.528   3.765
 3206SOL     OW11058   1.277   4.639   2.503
 3206SOL    HW111059   1.351   4.585   2.534
 3206SOL    HW211060   1.318   4.719   2.469
 3207SOL     OW11061   0.805   4.986   3.299
 3207SOL    HW111062   0.784   5.019   3.387
 3207SOL    HW211063   0.731   5.013   3.245
 3208SOL     OW11064   0.650   5.354   2.019
 3208SOL    HW111065   0.698   5.342   1.938
 3208SOL    HW211066   0.596   5.276   2.028
 3209SOL     OW11067   1.629   5.465   3.257
 3209SOL    HW111068   1.667   5.468   3.169
 3209SOL    HW211069   1.610   5.556   3.278
 3210SOL     OW11070   1.838   3.892   2.833
 3210SOL    HW111071   1.870   3.805   2.808
 3210SOL    HW211072   1.751   3.897   2.793
 3211SOL     OW11073   0.258   4.039   2.575
 3211SOL    HW111074   0.173   4.079   2.560
 3211SOL    HW211075   0.258   4.017   2.668
 3212SOL     OW11076   1.231   5.318   1.901
 3212SOL    HW111077   1.212   5.231   1.935
 3212SOL    HW211078   1.202   5.316   1.810
 3213SOL     OW11079   0.852   4.729   3.220
 3213SOL    HW111080   0.880   4.760   3.133
 3213SOL    HW211081   0.828   4.808   3.267
 3214SOL     OW11082   0.907   4.619   2.125
 3214SOL    HW111083   0.976   4.668   2.080
 3214SOL    HW211084   0.954   4.563   2.187
 3215SOL     OW11085   1.505   5.350   1.909
 3215SOL    HW111086   1.409   5.342   1.905
 3215SOL    HW211087   1.533   5.356   1.818
 3216SOL     OW11088   0.362   5.024   3.349
 3216SOL    HW111089   0.339   5.105   3.304
 3216SOL    HW211090   0.288   4.966   3.334
 3217SOL     OW11091   1.627   5.007   3.156
 3217SOL    HW111092   1.668   4.985   3.239
 3217SOL    HW211093   1.564   5.077   3.177
 3218SOL     OW11094   1.062   4.816   2.553
 3218SOL    HW111095   0.996   4.774   2.608
 3218SOL    HW211096   1.131   4.749   2.543
 3219SOL     OW11097   1.028   3.964   2.818
 3219SOL    HW111098   1.034   3.906   2.741
 3219SOL    HW211099   1.020   3.904   2.892
 3220SOL     OW11100   0.604   5.218   2.334
 3220SOL    HW111101   0.630   5.157   2.265
 3220SOL    HW211102   0.508   5.213   2.336
 3221SOL     OW11103   1.697   4.117   3.230
 3221SOL    HW111104   1.774   4.173   3.240
 3221SOL    HW211105   1.729   4.042   3.179
 3222SOL     OW11106   0.244   5.071   2.132
 3222SOL    HW111107   0.149   5.082   2.130
 3222SOL    HW211108   0.270   5.105   2.218
 3223SOL     OW11109   0.098   4.722   3.588
 3223SOL    HW111110   0.068   4.811   3.608
 3223SOL    HW211111   0.186   4.717   3.626
 3224SOL     OW11112   0.673   3.922   3.378
 3224SOL    HW111113   0.755   3.916   3.329
 3224SOL    HW211114   0.700   3.948   3.466
 3225SOL     OW11115   0.013   4.141   1.879
 3225SOL    HW111116   0.040   4.051   1.901
 3225SOL    HW211117   0.077   4.169   1.813
 3226SOL     OW11118   1.442   4.541   3.189
 3226SOL    HW111119   1.401   4.627   3.189
 3226SOL    HW211120   1.484   4.534   3.275
 3227SOL     OW11121   0.117   3.979   2.191
 3227SOL    HW111122   0.067   3.945   2.116
 3227SOL    HW211123   0.157   3.902   2.230
 3228SOL     OW11124   1.167   5.060   1.988
 3228SOL    HW111125   1.099   4.994   2.001
 3228SOL    HW211126   1.205   5.073   2.075
 3229SOL     OW11127   0.632   4.541   3.303
 3229SOL    HW111128   0.661   4.628   3.331
 3229SOL    HW211129   0.710   4.486   3.310
 3230SOL     OW11130   1.499   5.524   2.851
 3230SOL    HW111131   1.532   5.593   2.793
 3230SOL    HW211132   1.576   5.494   2.899
 3231SOL     OW11133   0.704   4.301   3.564
 3231SOL    HW111134   0.745   4.378   3.603
 3231SOL    HW211135   0.737   4.227   3.615
 3232SOL     OW11136   1.473   4.913   3.490
 3232SOL    HW111137   1.461   4.925   3.584
 3232SOL    HW211138   1.564   4.937   3.474
 3233SOL     OW11139   0.388   5.467   3.419
 3233SOL    HW111140   0.300   5.499   3.399
 3233SOL    HW211141   0.374   5.381   3.458
 3234SOL     OW11142   1.715   4.607   3.091
 3234SOL    HW111143   1.637   4.551   3.095
 3234SOL    HW211144   1.687   4.683   3.040
 3235SOL     OW11145   1.213   4.043   2.311
 3235SOL    HW111146   1.275   3.971   2.312
 3235SOL    HW211147   1.235   4.095   2.388
 3236SOL     OW11148   0.629   4.441   2.507
 3236SOL    HW111149   0.669   4.526   2.522
 3236SOL    HW211150   0.535   4.460   2.499
 3237SOL     OW11151   1.780   4.077   3.516
 3237SOL    HW111152   1.856   4.127   3.488
 3237SOL    HW211153   1.806   4.039   3.600
 3238SOL     OW11154   1.817   4.662   3.338
 3238SOL    HW111155   1.745   4.686   3.396
 3238SOL    HW211156   1.774   4.642   3.254
 3239SOL     OW11157   0.864   5.172   1.919
 3239SOL    HW111158   0.825   5.112   1.983
 3239SOL    HW211159   0.921   5.228   1.971
 3240SOL     OW11160   0.663   5.506   2.790
 3240SOL    HW111161   0.656   5.601   2.780
 3240SOL    HW211162   0.757   5.490   2.801
 3241SOL     OW11163   0.875   4.695   2.712
 3241SOL    HW111164   0.920   4.622   2.755
 3241SOL    HW211165   0.829   4.740   2.783
 3242SOL     OW11166   1.082   4.732   1.945
 3242SOL    HW111167   1.058   4.774   1.862
 3242SOL    HW211168   1.145   4.664   1.920
 3243SOL     OW11169   1.845   5.266   2.706
 3243SOL    HW111170   1.760   5.261   2.663
 3243SOL    HW211171   1.832   5.222   2.790
 3244SOL     OW11172   0.195   4.982   3.721
 3244SOL    HW111173   0.101   4.997   3.717
 3244SOL    HW211174   0.218   5.004   3.811
 3245SOL     OW11175   0.135   4.977   2.496
 3245SOL    HW111176   0.052   4.952   2.537
 3245SOL    HW211177   0.200   4.920   2.535
 3246SOL     OW11178   0.693   5.123   3.507
 3246SOL    HW111179   0.631   5.066   3.552
 3246SOL    HW211180   0.677   5.210   3.544
 3247SOL     OW11181   1.791   3.892   3.105
 3247SOL    HW111182   1.870   3.851   3.139
 3247SOL    HW211183   1.807   3.901   3.011
 3248SOL     OW11184   0.407   4.163   2.373
 3248SOL    HW111185   0.462   4.092   2.339
 3248SOL    HW211186   0.374   4.128   2.456
 3249SOL     OW11187   1.715   5.201   2.953
 3249SOL    HW111188   1.628   5.178   2.919
 3249SOL    HW211189   1.726   5.145   3.029
 3250SOL     OW11190   0.342   4.280   3.167
 3250SOL    HW111191   0.393   4.221   3.223
 3250SOL    HW211192   0.363   4.252   3.078
 3251SOL     OW11193   0.813   5.320   2.534
 3251SOL    HW111194   0.756   5.328   2.457
 3251SOL    HW211195   0.777   5.246   2.583
 3252SOL     OW11196   1.430   3.953   2.974
 3252SOL    HW111197   1.486   3.897   3.028
 3252SOL    HW211198   1.377   4.002   3.037
 3253SOL     OW11199   1.010   3.740   2.993
 3253SOL    HW111200   0.959   3.673   2.947
 3253SOL    HW211201   1.100   3.705   2.993
 3254SOL     OW11202   0.800   5.034   2.151
 3254SOL    HW111203   0.768   4.950   2.185
 3254SOL    HW211204   0.861   5.065   2.218
 3255SOL     OW11205   0.620   5.284   3.142
 3255SOL    HW111206   0.619   5.371   3.181
 3255SOL    HW211207   0.711   5.270   3.117
 3256SOL     OW11208   1.365   3.777   2.030
 3256SOL    HW111209   1.400   3.696   1.991
 3256SOL    HW211210   1.274   3.756   2.052
 3257SOL     OW11211   1.288   4.185   2.531
 3257SOL    HW111212   1.239   4.267   2.539
 3257SOL    HW211213   1.287   4.148   2.620
 3258SOL     OW11214   1.579   3.914   2.741
 3258SOL    HW111215   1.526   3.939   2.817
 3258SOL    HW211216   1.583   3.994   2.688
 3259SOL     OW11217   0.030   4.760   2.149
 3259SOL    HW111218   0.124   4.742   2.139
 3259SOL    HW211219   0.020   4.784   2.241
 3260SOL     OW11220   0.892   5.390   2.179
 3260SOL    HW111221   0.804   5.363   2.152
 3260SOL    HW211222   0.877   5.456   2.247
 3261SOL     OW11223   0.186   4.370   3.756
 3261SOL    HW111224   0.131   4.399   3.829
 3261SOL    HW211225   0.262   4.329   3.797
 3262SOL     OW11226   0.235   3.995   4.721
 3262SOL    HW111227   0.283   3.974   4.801
 3262SOL    HW211228   0.145   3.968   4.739
 3263SOL     OW11229   8.010   4.109   4.344
 3263SOL    HW111230   7.921   4.111   4.378
 3263SOL    HW211231   8.005   4.058   4.264
 3264SOL     OW11232   0.549   5.017   4.913
 3264SOL    HW111233   0.473   5.043   4.860
 3264SOL    HW211234   0.592   5.099   4.935
 3265SOL     OW11235   1.550   5.250   4.427
 3265SOL    HW111236   1.510   5.230   4.511
 3265SOL    HW211237   1.477   5.253   4.365
 3266SOL     OW11238   1.127   4.428   4.415
 3266SOL    HW111239   1.180   4.507   4.404
 3266SOL    HW211240   1.084   4.440   4.500
 3267SOL     OW11241   1.797   4.293   3.950
 3267SOL    HW111242   1.756   4.304   3.865
 3267SOL    HW211243   1.734   4.243   4.001
 3268SOL     OW11244   0.728   4.854   4.770
 3268SOL    HW111245   0.667   4.893   4.832
 3268SOL    HW211246   0.774   4.929   4.731
 3269SOL     OW11247   0.886   4.510   5.557
 3269SOL    HW111248   0.887   4.586   5.615
 3269SOL    HW211249   0.905   4.545   5.470
 3270SOL     OW11250   0.685   4.715   4.377
 3270SOL    HW111251   0.755   4.711   4.442
 3270SOL    HW211252   0.621   4.776   4.414
 3271SOL     OW11253   0.673   4.864   5.558
 3271SOL    HW111254   0.735   4.936   5.573
 3271SOL    HW211255   0.600   4.904   5.512
 3272SOL     OW11256   0.331   5.141   4.787
 3272SOL    HW111257   0.266   5.096   4.733
 3272SOL    HW211258   0.378   5.197   4.725
 3273SOL     OW11259   1.454   5.232   5.104
 3273SOL    HW111260   1.498   5.310   5.071
 3273SOL    HW211261   1.461   5.239   5.200
 3274SOL     OW11262   0.444   4.103   5.246
 3274SOL    HW111263   0.526   4.058   5.228
 3274SOL    HW211264   0.376   4.044   5.213
 3275SOL     OW11265   1.605   4.169   4.472
 3275SOL    HW111266   1.532   4.200   4.418
 3275SOL    HW211267   1.613   4.235   4.541
 3276SOL     OW11268   0.227   5.422   4.201
 3276SOL    HW111269   0.222   5.506   4.246
 3276SOL    HW211270   0.300   5.432   4.139
 3277SOL     OW11271   1.134   5.070   5.430
 3277SOL    HW111272   1.171   5.048   5.516
 3277SOL    HW211273   1.082   4.993   5.407
 3278SOL     OW11274   0.280   5.155   4.231
 3278SOL    HW111275   0.262   5.248   4.247
 3278SOL    HW211276   0.231   5.109   4.299
 3279SOL     OW11277   0.268   4.804   4.610
 3279SOL    HW111278   0.274   4.715   4.644
 3279SOL    HW211279   0.198   4.845   4.662
 3280SOL     OW11280   0.579   5.521   5.194
 3280SOL    HW111281   0.571   5.615   5.175
 3280SOL    HW211282   0.673   5.506   5.197
 3281SOL     OW11283   0.565   4.698   3.903
 3281SOL    HW111284   0.601   4.718   3.817
 3281SOL    HW211285   0.623   4.742   3.965
 3282SOL     OW11286   1.591   3.842   5.193
 3282SOL    HW111287   1.620   3.923   5.150
 3282SOL    HW211288   1.577   3.867   5.284
 3283SOL     OW11289   0.120   4.359   4.268
 3283SOL    HW111290   0.094   4.274   4.305
 3283SOL    HW211291   0.117   4.419   4.343
 3284SOL     OW11292   1.836   5.477   4.050
 3284SOL    HW111293   1.908   5.450   4.107
 3284SOL    HW211294   1.851   5.571   4.035
 3285SOL     OW11295   0.011   5.319   3.868
 3285SOL    HW111296   0.005   5.225   3.851
 3285SOL    HW211297   0.005   5.327   3.963
 3286SOL     OW11298   1.679   4.610   4.347
 3286SOL    HW111299   1.767   4.615   4.384
 3286SOL    HW211300   1.676   4.680   4.282
 3287SOL     OW11301   1.657   4.832   4.152
 3287SOL    HW111302   1.744   4.827   4.112
 3287SOL    HW211303   1.667   4.894   4.224
 3288SOL     OW11304   0.134   4.487   5.292
 3288SOL    HW111305   0.229   4.479   5.285
 3288SOL    HW211306   0.121   4.561   5.352
 3289SOL     OW11307   0.612   5.119   4.463
 3289SOL    HW111308   0.571   5.033   4.467
 3289SOL    HW211309   0.599   5.147   4.372
 3290SOL     OW11310   1.283   4.963   5.147
 3290SOL    HW111311   1.313   4.897   5.084
 3290SOL    HW211312   1.345   4.958   5.219
 3291SOL     OW11313   0.820   3.720   4.239
 3291SOL    HW111314   0.863   3.802   4.216
 3291SOL    HW211315   0.727   3.742   4.244
 3292SOL     OW11316   0.179   4.654   4.982
 3292SOL    HW111317   0.271   4.628   4.991
 3292SOL    HW211318   0.153   4.621   4.896
 3293SOL     OW11319   1.532   4.723   3.924
 3293SOL    HW111320   1.469   4.661   3.962
 3293SOL    HW211321   1.579   4.759   3.999
 3294SOL     OW11322   1.126   5.521   5.320
 3294SOL    HW111323   1.204   5.576   5.314
 3294SOL    HW211324   1.157   5.433   5.297
 3295SOL     OW11325   0.347   3.964   5.565
 3295SOL    HW111326   0.397   4.044   5.548
 3295SOL    HW211327   0.256   3.994   5.572
 3296SOL     OW11328   1.430   5.159   4.656
 3296SOL    HW111329   1.388   5.171   4.741
 3296SOL    HW211330   1.432   5.064   4.643
 3297SOL     OW11331   1.644   5.484   4.305
 3297SOL    HW111332   1.642   5.441   4.219
 3297SOL    HW211333   1.633   5.412   4.368
 3298SOL     OW11334   0.587   4.430   3.993
 3298SOL    HW111335   0.597   4.516   3.954
 3298SOL    HW211336   0.529   4.444   4.068
 3299SOL     OW11337   1.284   4.080   4.642
 3299SOL    HW111338   1.192   4.068   4.663
 3299SOL    HW211339   1.331   4.033   4.711
 3300SOL     OW11340   1.573   5.398   4.033
 3300SOL    HW111341   1.665   5.421   4.030
 3300SOL    HW211342   1.550   5.380   3.941
 3301SOL     OW11343   0.759   4.329   5.175
 3301SOL    HW111344   0.754   4.293   5.263
 3301SOL    HW211345   0.710   4.268   5.121
 3302SOL     OW11346   1.394   4.182   5.408
 3302SOL    HW111347   1.394   4.227   5.493
 3302SOL    HW211348   1.483   4.147   5.400
 3303SOL     OW11349   0.947   4.600   5.305
 3303SOL    HW111350   0.999   4.531   5.265
 3303SOL    HW211351   0.903   4.642   5.231
 3304SOL     OW11352   0.896   4.093   4.976
 3304SOL    HW111353   0.913   4.188   4.978
 3304SOL    HW211354   0.983   4.055   4.962
 3305SOL     OW11355   1.048   4.418   4.150
 3305SOL    HW111356   1.073   4.420   4.242
 3305SOL    HW211357   0.965   4.371   4.148
 3306SOL     OW11358   0.103   4.517   4.493
 3306SOL    HW111359   0.183   4.525   4.546
 3306SOL    HW211360   0.054   4.597   4.513
 3307SOL     OW11361   0.195   5.483   5.298
 3307SOL    HW111362   0.180   5.493   5.392
 3307SOL    HW211363   0.108   5.489   5.259
 3308SOL     OW11364   0.880   4.067   3.868
 3308SOL    HW111365   0.928   4.139   3.827
 3308SOL    HW211366   0.948   4.006   3.897
 3309SOL     OW11367   1.694   4.296   5.559
 3309SOL    HW111368   1.665   4.370   5.507
 3309SOL    HW211369   1.730   4.234   5.496
 3310SOL     OW11370   1.367   4.844   4.230
 3310SOL    HW111371   1.460   4.855   4.213
 3310SOL    HW211372   1.326   4.920   4.189
 3311SOL     OW11373   0.548   3.896   4.613
 3311SOL    HW111374   0.556   3.914   4.707
 3311SOL    HW211375   0.562   3.981   4.571
 3312SOL     OW11376   0.999   5.164   4.189
 3312SOL    HW111377   0.971   5.242   4.142
 3312SOL    HW211378   0.987   5.185   4.281
 3313SOL     OW11379   0.362   5.541   4.580
 3313SOL    HW111380   0.407   5.458   4.595
 3313SOL    HW211381   0.428   5.608   4.599
 3314SOL     OW11382   1.816   4.760   4.603
 3314SOL    HW111383   1.825   4.826   4.534
 3314SOL    HW211384   1.737   4.785   4.651
 3315SOL     OW11385   1.178   5.266   5.238
 3315SOL    HW111386   1.185   5.188   5.293
 3315SOL    HW211387   1.238   5.248   5.165
 3316SOL     OW11388   0.297   4.672   3.948
 3316SOL    HW111389   0.390   4.695   3.943
 3316SOL    HW211390   0.281   4.619   3.870
 3317SOL     OW11391   1.474   4.462   4.443
 3317SOL    HW111392   1.482   4.433   4.534
 3317SOL    HW211393   1.552   4.515   4.427
 3318SOL     OW11394   0.456   4.990   5.459
 3318SOL    HW111395   0.423   5.006   5.370
 3318SOL    HW211396   0.379   4.967   5.510
 3319SOL     OW11397   1.121   5.508   3.941
 3319SOL    HW111398   1.053   5.465   3.993
 3319SOL    HW211399   1.147   5.443   3.877
 3320SOL     OW11400   0.170   3.999   5.212
 3320SOL    HW111401   0.170   4.073   5.272
 3320SOL    HW211402   0.157   3.923   5.269
 3321SOL     OW11403   1.620   5.108   3.797
 3321SOL    HW111404   1.574   5.192   3.794
 3321SOL    HW211405   1.551   5.043   3.783
 3322SOL     OW11406   0.455   5.468   4.040
 3322SOL    HW111407   0.503   5.516   4.107
 3322SOL    HW211408   0.522   5.427   3.986
 3323SOL     OW11409   1.406   3.830   4.169
 3323SOL    HW111410   1.405   3.811   4.076
 3323SOL    HW211411   1.497   3.848   4.190
 3324SOL     OW11412   0.236   5.517   4.939
 3324SOL    HW111413   0.293   5.442   4.954
 3324SOL    HW211414   0.201   5.504   4.851
 3325SOL     OW11415   0.943   5.423   4.622
 3325SOL    HW111416   1.029   5.382   4.637
 3325SOL    HW211417   0.905   5.373   4.551
 3326SOL     OW11418   0.401   4.423   4.201
 3326SOL    HW111419   0.415   4.330   4.217
 3326SOL    HW211420   0.309   4.437   4.221
 3327SOL     OW11421   1.539   3.934   5.450
 3327SOL    HW111422   1.551   3.949   5.544
 3327SOL    HW211423   1.445   3.935   5.438
 3328SOL     OW11424   0.619   3.826   3.847
 3328SOL    HW111425   0.713   3.820   3.864
 3328SOL    HW211426   0.612   3.833   3.752
 3329SOL     OW11427   0.744   3.952   5.489
 3329SOL    HW111428   0.836   3.924   5.489
 3329SOL    HW211429   0.748   4.047   5.499
 3330SOL     OW11430   0.874   5.239   4.918
 3330SOL    HW111431   0.860   5.204   4.830
 3330SOL    HW211432   0.947   5.187   4.953
 3331SOL     OW11433   1.330   4.352   5.189
 3331SOL    HW111434   1.379   4.305   5.257
 3331SOL    HW211435   1.385   4.429   5.170
 3332SOL     OW11436   0.812   5.107   4.673
 3332SOL    HW111437   0.900   5.097   4.636
 3332SOL    HW211438   0.754   5.117   4.598
 3333SOL     OW11439   0.918   4.236   4.630
 3333SOL    HW111440   0.896   4.225   4.538
 3333SOL    HW211441   0.948   4.149   4.658
 3334SOL     OW11442   0.553   3.786   4.222
 3334SOL    HW111443   0.473   3.784   4.275
 3334SOL    HW211444   0.544   3.865   4.169
 3335SOL     OW11445   1.424   4.920   3.761
 3335SOL    HW111446   1.455   4.849   3.816
 3335SOL    HW211447   1.341   4.947   3.799
 3336SOL     OW11448   0.288   3.781   3.910
 3336SOL    HW111449   0.349   3.852   3.891
 3336SOL    HW211450   0.340   3.715   3.956
 3337SOL     OW11451   0.939   3.967   4.180
 3337SOL    HW111452   0.910   4.041   4.127
 3337SOL    HW211453   1.034   3.979   4.186
 3338SOL     OW11454   1.071   4.396   5.171
 3338SOL    HW111455   1.036   4.308   5.181
 3338SOL    HW211456   1.166   4.385   5.175
 3339SOL     OW11457   1.207   5.300   4.524
 3339SOL    HW111458   1.236   5.364   4.458
 3339SOL    HW211459   1.286   5.282   4.575
 3340SOL     OW11460   0.472   4.881   4.448
 3340SOL    HW111461   0.408   4.856   4.515
 3340SOL    HW211462   0.428   4.861   4.365
 3341SOL     OW11463   1.268   5.519   4.333
 3341SOL    HW111464   1.321   5.578   4.280
 3341SOL    HW211465   1.212   5.576   4.386
 3342SOL     OW11466   1.022   4.264   3.744
 3342SOL    HW111467   0.981   4.348   3.725
 3342SOL    HW211468   1.084   4.283   3.814
 3343SOL     OW11469   0.084   4.311   5.097
 3343SOL    HW111470   0.175   4.288   5.077
 3343SOL    HW211471   0.091   4.374   5.169
 3344SOL     OW11472   0.560   3.914   4.882
 3344SOL    HW111473   0.625   3.894   4.950
 3344SOL    HW211474   0.480   3.935   4.930
 3345SOL     OW11475   0.855   4.179   4.369
 3345SOL    HW111476   0.817   4.230   4.297
 3345SOL    HW211477   0.887   4.099   4.328
 3346SOL     OW11478   1.036   3.761   4.467
 3346SOL    HW111479   0.965   3.774   4.404
 3346SOL    HW211480   1.001   3.696   4.528
 3347SOL     OW11481   1.439   4.888   4.597
 3347SOL    HW111482   1.382   4.818   4.566
 3347SOL    HW211483   1.494   4.909   4.521
 3348SOL     OW11484   1.469   4.336   4.696
 3348SOL    HW111485   1.411   4.261   4.709
 3348SOL    HW211486   1.530   4.332   4.770
 3349SOL     OW11487   1.845   4.529   4.086
 3349SOL    HW111488   1.894   4.496   4.161
 3349SOL    HW211489   1.827   4.451   4.033
 3350SOL     OW11490   0.488   5.151   3.865
 3350SOL    HW111491   0.412   5.113   3.910
 3350SOL    HW211492   0.494   5.103   3.783
 3351SOL     OW11493   1.601   4.983   4.402
 3351SOL    HW111494   1.696   4.972   4.393
 3351SOL    HW211495   1.589   5.078   4.403
 3352SOL     OW11496   1.377   4.301   3.811
 3352SOL    HW111497   1.314   4.282   3.881
 3352SOL    HW211498   1.462   4.301   3.855
 3353SOL     OW11499   0.512   3.985   4.038
 3353SOL    HW111500   0.556   3.930   3.974
 3353SOL    HW211501   0.499   4.069   3.993
 3354SOL     OW11502   1.748   4.962   5.300
 3354SOL    HW111503   1.831   4.926   5.268
 3354SOL    HW211504   1.769   5.053   5.322
 3355SOL     OW11505   1.052   5.059   5.036
 3355SOL    HW111506   0.976   5.035   5.088
 3355SOL    HW211507   1.127   5.030   5.088
 3356SOL     OW11508   1.117   4.916   4.815
 3356SOL    HW111509   1.079   4.969   4.885
 3356SOL    HW211510   1.101   4.965   4.735
 3357SOL     OW11511   1.619   4.822   4.798
 3357SOL    HW111512   1.607   4.880   4.872
 3357SOL    HW211513   1.545   4.840   4.740
 3358SOL     OW11514   0.918   3.809   5.128
 3358SOL    HW111515   0.931   3.799   5.034
 3358SOL    HW211516   0.998   3.851   5.159
 3359SOL     OW11517   0.948   4.870   5.391
 3359SOL    HW111518   0.938   4.863   5.486
 3359SOL    HW211519   0.966   4.781   5.361
 3360SOL     OW11520   0.720   4.787   4.111
 3360SOL    HW111521   0.709   4.763   4.203
 3360SOL    HW211522   0.791   4.731   4.080
 3361SOL     OW11523   0.426   4.539   4.980
 3361SOL    HW111524   0.496   4.554   5.044
 3361SOL    HW211525   0.395   4.451   4.998
 3362SOL     OW11526   0.051   5.327   5.034
 3362SOL    HW111527   0.081   5.408   4.994
 3362SOL    HW211528   0.131   5.282   5.062
 3363SOL     OW11529   0.329   4.830   4.213
 3363SOL    HW111530   0.353   4.904   4.158
 3363SOL    HW211531   0.344   4.753   4.158
 3364SOL     OW11532   0.552   4.251   4.581
 3364SOL    HW111533   0.568   4.312   4.508
 3364SOL    HW211534   0.617   4.274   4.647
 3365SOL     OW11535   1.247   5.072   4.111
 3365SOL    HW111536   1.301   5.144   4.143
 3365SOL    HW211537   1.159   5.091   4.144
 3366SOL     OW11538   1.293   5.189   4.890
 3366SOL    HW111539   1.355   5.198   4.962
 3366SOL    HW211540   1.237   5.116   4.916
 3367SOL     OW11541   1.583   4.353   4.199
 3367SOL    HW111542   1.524   4.387   4.266
 3367SOL    HW211543   1.645   4.424   4.184
 3368SOL     OW11544   0.358   5.280   5.016
 3368SOL    HW111545   0.331   5.224   4.943
 3368SOL    HW211546   0.453   5.284   5.010
 3369SOL     OW11547   0.405   4.441   5.292
 3369SOL    HW111548   0.472   4.492   5.246
 3369SOL    HW211549   0.438   4.432   5.381
 3370SOL     OW11550   1.606   4.504   5.411
 3370SOL    HW111551   1.522   4.551   5.407
 3370SOL    HW211552   1.660   4.545   5.343
 3371SOL     OW11553   1.002   3.864   5.493
 3371SOL    HW111554   1.054   3.940   5.466
 3371SOL    HW211555   1.048   3.789   5.458
 3372SOL     OW11556   0.482   3.743   5.473
 3372SOL    HW111557   0.431   3.707   5.401
 3372SOL    HW211558   0.437   3.825   5.495
 3373SOL     OW11559   0.579   4.607   4.752
 3373SOL    HW111560   0.626   4.691   4.756
 3373SOL    HW211561   0.535   4.601   4.836
 3374SOL     OW11562   1.345   4.582   4.745
 3374SOL    HW111563   1.262   4.564   4.700
 3374SOL    HW211564   1.394   4.501   4.736
 3375SOL     OW11565   1.178   4.239   3.987
 3375SOL    HW111566   1.199   4.169   4.048
 3375SOL    HW211567   1.150   4.312   4.042
 3376SOL     OW11568   0.302   3.922   4.984
 3376SOL    HW111569   0.250   3.965   5.052
 3376SOL    HW211570   0.283   3.829   4.996
 3377SOL     OW11571   0.050   5.033   5.002
 3377SOL    HW111572   0.081   4.973   5.070
 3377SOL    HW211573   0.033   5.115   5.047
 3378SOL     OW11574   0.717   4.353   4.779
 3378SOL    HW111575   0.796   4.328   4.732
 3378SOL    HW211576   0.701   4.445   4.754
 3379SOL     OW11577   1.751   4.673   5.587
 3379SOL    HW111578   1.705   4.614   5.528
 3379SOL    HW211579   1.687   4.695   5.654
 3380SOL     OW11580   0.302   3.783   4.338
 3380SOL    HW111581   0.281   3.874   4.362
 3380SOL    HW211582   0.314   3.739   4.422
 3381SOL     OW11583   1.615   4.111   4.076
 3381SOL    HW111584   1.639   4.044   4.141
 3381SOL    HW211585   1.593   4.188   4.128
 3382SOL     OW11586   1.029   4.481   4.677
 3382SOL    HW111587   1.022   4.500   4.771
 3382SOL    HW211588   1.000   4.391   4.668
 3383SOL     OW11589   0.956   5.272   5.436
 3383SOL    HW111590   0.970   5.324   5.357
 3383SOL    HW211591   1.019   5.200   5.430
 3384SOL     OW11592   1.869   5.208   5.322
 3384SOL    HW111593   1.884   5.243   5.235
 3384SOL    HW211594   1.948   5.231   5.371
 3385SOL     OW11595   1.546   3.980   3.838
 3385SOL    HW111596   1.476   3.923   3.870
 3385SOL    HW211597   1.573   4.031   3.914
 3386SOL     OW11598   1.266   4.547   3.741
 3386SOL    HW111599   1.322   4.470   3.748
 3386SOL    HW211600   1.294   4.590   3.661
 3387SOL     OW11601   1.062   5.065   4.582
 3387SOL    HW111602   1.073   4.993   4.520
 3387SOL    HW211603   1.121   5.133   4.550
 3388SOL     OW11604   0.318   4.531   4.670
 3388SOL    HW111605   0.409   4.558   4.677
 3388SOL    HW211606   0.316   4.441   4.700
 3389SOL     OW11607   0.330   4.252   4.729
 3389SOL    HW111608   0.297   4.163   4.717
 3389SOL    HW211609   0.409   4.256   4.676
 3390SOL     OW11610   1.132   4.101   5.425
 3390SOL    HW111611   1.093   4.165   5.485
 3390SOL    HW211612   1.221   4.133   5.410
 3391SOL     OW11613   1.162   3.901   5.231
 3391SOL    HW111614   1.157   3.984   5.279
 3391SOL    HW211615   1.185   3.927   5.141
 3392SOL     OW11616   7.979   5.031   3.922
 3392SOL    HW111617   7.891   5.051   3.955
 3392SOL    HW211618   7.991   4.938   3.940
 3393SOL     OW11619   0.119   5.491   4.700
 3393SOL    HW111620   0.043   5.490   4.642
 3393SOL    HW211621   0.193   5.509   4.642
 3394SOL     OW11622   0.495   5.301   4.635
 3394SOL    HW111623   0.564   5.361   4.662
 3394SOL    HW211624   0.538   5.239   4.575
 3395SOL     OW11625   0.969   4.509   4.941
 3395SOL    HW111626   1.033   4.486   5.008
 3395SOL    HW211627   0.884   4.489   4.981
 3396SOL     OW11628   0.072   4.265   4.833
 3396SOL    HW111629   0.166   4.268   4.815
 3396SOL    HW211630   0.065   4.281   4.927
 3397SOL     OW11631   0.202   4.215   5.382
 3397SOL    HW111632   0.291   4.224   5.349
 3397SOL    HW211633   0.169   4.305   5.386
 3398SOL     OW11634   1.382   4.662   5.382
 3398SOL    HW111635   1.402   4.756   5.381
 3398SOL    HW211636   1.382   4.636   5.290
 3399SOL     OW11637   0.810   4.269   4.088
 3399SOL    HW111638   0.813   4.218   4.007
 3399SOL    HW211639   0.745   4.337   4.070
 3400SOL     OW11640   1.649   4.323   4.900
 3400SOL    HW111641   1.638   4.270   4.979
 3400SOL    HW211642   1.738   4.304   4.870
 3401SOL     OW11643   0.294   5.256   5.473
 3401SOL    HW111644   0.261   5.328   5.526
 3401SOL    HW211645   0.287   5.179   5.530
 3402SOL     OW11646   0.619   4.195   4.976
 3402SOL    HW111647   0.672   4.117   4.956
 3402SOL    HW211648   0.647   4.259   4.911
 3403SOL     OW11649   0.873   5.426   5.196
 3403SOL    HW111650   0.903   5.369   5.125
 3403SOL    HW211651   0.949   5.482   5.215
 3404SOL     OW11652   0.451   4.210   3.888
 3404SOL    HW111653   0.507   4.285   3.911
 3404SOL    HW211654   0.373   4.223   3.942
 3405SOL     OW11655   0.163   4.854   5.175
 3405SOL    HW111656   0.127   4.808   5.251
 3405SOL    HW211657   0.170   4.785   5.108
 3406SOL     OW11658   1.310   4.768   4.941
 3406SOL    HW111659   1.338   4.705   4.875
 3406SOL    HW211660   1.242   4.820   4.898
 3407SOL     OW11661   1.325   4.560   4.014
 3407SOL    HW111662   1.252   4.573   4.075
 3407SOL    HW211663   1.285   4.565   3.927
 3408SOL     OW11664   1.800   5.472   4.884
 3408SOL    HW111665   1.857   5.492   4.810
 3408SOL    HW211666   1.762   5.387   4.864
 3409SOL     OW11667   1.234   5.458   4.827
 3409SOL    HW111668   1.318   5.486   4.789
 3409SOL    HW211669   1.249   5.367   4.853
 3410SOL     OW11670   0.067   4.925   4.755
 3410SOL    HW111671   0.067   4.964   4.842
 3410SOL    HW211672  -0.002   4.973   4.708
 3411SOL     OW11673   0.698   5.406   5.475
 3411SOL    HW111674   0.658   5.487   5.443
 3411SOL    HW211675   0.779   5.398   5.424
 3412SOL     OW11676   1.697   3.872   4.214
 3412SOL    HW111677   1.779   3.863   4.164
 3412SOL    HW211678   1.691   3.791   4.265
 3413SOL     OW11679   1.380   5.294   4.206
 3413SOL    HW111680   1.447   5.327   4.146
 3413SOL    HW211681   1.337   5.373   4.240
 3414SOL     OW11682   0.172   5.473   5.580
 3414SOL    HW111683   0.105   5.427   5.631
 3414SOL    HW211684   0.220   5.526   5.645
 3415SOL     OW11685   1.279   4.652   4.394
 3415SOL    HW111686   1.353   4.593   4.406
 3415SOL    HW211687   1.311   4.718   4.333
 3416SOL     OW11688   0.818   4.994   5.164
 3416SOL    HW111689   0.844   4.970   5.253
 3416SOL    HW211690   0.744   5.053   5.176
 3417SOL     OW11691   0.661   5.361   3.883
 3417SOL    HW111692   0.682   5.371   3.791
 3417SOL    HW211693   0.612   5.279   3.888
 3418SOL     OW11694   1.575   5.464   5.051
 3418SOL    HW111695   1.658   5.478   5.004
 3418SOL    HW211696   1.584   5.515   5.131
 3419SOL     OW11697   1.840   3.888   4.692
 3419SOL    HW111698   1.875   3.803   4.664
 3419SOL    HW211699   1.757   3.896   4.645
 3420SOL     OW11700   0.262   4.032   4.439
 3420SOL    HW111701   0.176   4.070   4.419
 3420SOL    HW211702   0.262   4.024   4.534
 3421SOL     OW11703   1.204   5.326   3.752
 3421SOL    HW111704   1.201   5.236   3.785
 3421SOL    HW211705   1.131   5.331   3.690
 3422SOL     OW11706   0.832   4.728   5.090
 3422SOL    HW111707   0.889   4.721   5.014
 3422SOL    HW211708   0.825   4.823   5.106
 3423SOL     OW11709   0.910   4.623   4.017
 3423SOL    HW111710   0.964   4.661   3.947
 3423SOL    HW211711   0.969   4.562   4.061
 3424SOL     OW11712   1.481   5.365   3.769
 3424SOL    HW111713   1.388   5.349   3.750
 3424SOL    HW211714   1.522   5.368   3.682
 3425SOL     OW11715   0.354   5.053   5.211
 3425SOL    HW111716   0.409   5.033   5.135
 3425SOL    HW211717   0.282   4.989   5.205
 3426SOL     OW11718   1.592   4.998   5.005
 3426SOL    HW111719   1.682   5.006   5.038
 3426SOL    HW211720   1.546   5.072   5.045
 3427SOL     OW11721   1.064   4.836   4.436
 3427SOL    HW111722   0.995   4.781   4.475
 3427SOL    HW211723   1.133   4.774   4.413
 3428SOL     OW11724   1.008   3.977   4.664
 3428SOL    HW111725   1.035   3.904   4.608
 3428SOL    HW211726   1.033   3.949   4.752
 3429SOL     OW11727   0.603   5.215   4.209
 3429SOL    HW111728   0.659   5.162   4.152
 3429SOL    HW211729   0.524   5.231   4.158
 3430SOL     OW11730   1.730   4.115   5.116
 3430SOL    HW111731   1.805   4.175   5.113
 3430SOL    HW211732   1.752   4.047   5.053
 3431SOL     OW11733   0.248   5.063   3.983
 3431SOL    HW111734   0.152   5.068   3.977
 3431SOL    HW211735   0.268   5.098   4.069
 3432SOL     OW11736   0.051   4.739   5.397
 3432SOL    HW111737   0.019   4.822   5.433
 3432SOL    HW211738   0.111   4.705   5.464
 3433SOL     OW11739   0.671   3.910   5.222
 3433SOL    HW111740   0.758   3.899   5.183
 3433SOL    HW211741   0.689   3.926   5.315
 3434SOL     OW11742   0.092   4.078   3.716
 3434SOL    HW111743   0.037   4.121   3.781
 3434SOL    HW211744   0.120   4.149   3.658
 3435SOL     OW11745   1.436   4.601   5.122
 3435SOL    HW111746   1.383   4.658   5.066
 3435SOL    HW211747   1.523   4.601   5.082
 3436SOL     OW11748   0.095   3.966   4.088
 3436SOL    HW111749   0.046   3.956   4.006
 3436SOL    HW211750   0.172   3.912   4.076
 3437SOL     OW11751   1.189   5.062   3.841
 3437SOL    HW111752   1.094   5.066   3.839
 3437SOL    HW211753   1.211   5.058   3.934
 3438SOL     OW11754   0.623   4.561   5.159
 3438SOL    HW111755   0.685   4.633   5.145
 3438SOL    HW211756   0.679   4.484   5.169
 3439SOL     OW11757   1.480   5.517   4.718
 3439SOL    HW111758   1.523   5.571   4.651
 3439SOL    HW211759   1.551   5.465   4.755
 3440SOL     OW11760   0.764   4.264   5.451
 3440SOL    HW111761   0.739   4.349   5.486
 3440SOL    HW211762   0.857   4.255   5.473
 3441SOL     OW11763   1.474   4.925   5.352
 3441SOL    HW111764   1.468   4.938   5.447
 3441SOL    HW211765   1.566   4.937   5.331
 3442SOL     OW11766   1.668   4.607   4.976
 3442SOL    HW111767   1.671   4.523   4.930
 3442SOL    HW211768   1.663   4.672   4.907
 3443SOL     OW11769   1.209   4.033   4.179
 3443SOL    HW111770   1.276   3.964   4.177
 3443SOL    HW211771   1.235   4.088   4.254
 3444SOL     OW11772   0.595   4.452   4.398
 3444SOL    HW111773   0.636   4.539   4.394
 3444SOL    HW211774   0.530   4.453   4.328
 3445SOL     OW11775   1.757   4.087   5.390
 3445SOL    HW111776   1.753   4.101   5.295
 3445SOL    HW211777   1.689   4.022   5.407
 3446SOL     OW11778   1.752   4.651   5.238
 3446SOL    HW111779   1.750   4.746   5.253
 3446SOL    HW211780   1.739   4.641   5.144
 3447SOL     OW11781   0.927   5.122   3.805
 3447SOL    HW111782   0.839   5.090   3.828
 3447SOL    HW211783   0.913   5.178   3.730
 3448SOL     OW11784   0.670   5.507   4.674
 3448SOL    HW111785   0.657   5.596   4.641
 3448SOL    HW211786   0.763   5.490   4.661
 3449SOL     OW11787   0.871   4.692   4.578
 3449SOL    HW111788   0.926   4.622   4.614
 3449SOL    HW211789   0.836   4.736   4.655
 3450SOL     OW11790   1.067   4.714   3.818
 3450SOL    HW111791   1.045   4.772   3.745
 3450SOL    HW211792   1.138   4.659   3.785
 3451SOL     OW11793   1.865   5.264   4.568
 3451SOL    HW111794   1.836   5.218   4.489
 3451SOL    HW211795   1.909   5.196   4.620
 3452SOL     OW11796   0.207   5.021   5.584
 3452SOL    HW111797   0.117   4.991   5.569
 3452SOL    HW211798   0.221   5.009   5.678
 3453SOL     OW11799   0.127   4.978   4.372
 3453SOL    HW111800   0.058   4.931   4.418
 3453SOL    HW211801   0.194   4.911   4.355
 3454SOL     OW11802   0.630   5.161   5.323
 3454SOL    HW111803   0.592   5.094   5.380
 3454SOL    HW211804   0.677   5.219   5.383
 3455SOL     OW11805   1.788   3.905   4.959
 3455SOL    HW111806   1.833   3.825   4.983
 3455SOL    HW211807   1.805   3.915   4.865
 3456SOL     OW11808   0.423   4.160   4.248
 3456SOL    HW111809   0.462   4.088   4.198
 3456SOL    HW211810   0.382   4.116   4.323
 3457SOL     OW11811   1.684   5.233   4.836
 3457SOL    HW111812   1.632   5.195   4.765
 3457SOL    HW211813   1.726   5.159   4.879
 3458SOL     OW11814   0.342   4.272   5.019
 3458SOL    HW111815   0.407   4.239   5.081
 3458SOL    HW211816   0.377   4.249   4.933
 3459SOL     OW11817   0.829   5.310   4.402
 3459SOL    HW111818   0.814   5.367   4.326
 3459SOL    HW211819   0.757   5.247   4.399
 3460SOL     OW11820   1.467   3.929   4.830
 3460SOL    HW111821   1.528   3.904   4.899
 3460SOL    HW211822   1.383   3.942   4.874
 3461SOL     OW11823   0.983   3.713   4.869
 3461SOL    HW111824   0.975   3.658   4.791
 3461SOL    HW211825   1.076   3.734   4.875
 3462SOL     OW11826   0.761   5.054   4.060
 3462SOL    HW111827   0.746   4.960   4.070
 3462SOL    HW211828   0.853   5.067   4.082
 3463SOL     OW11829   0.625   5.281   5.010
 3463SOL    HW111830   0.638   5.345   5.080
 3463SOL    HW211831   0.712   5.269   4.972
 3464SOL     OW11832   1.361   3.778   3.895
 3464SOL    HW111833   1.397   3.701   3.853
 3464SOL    HW211834   1.271   3.753   3.916
 3465SOL     OW11835   1.283   4.184   4.390
 3465SOL    HW111836   1.242   4.270   4.403
 3465SOL    HW211837   1.288   4.146   4.478
 3466SOL     OW11838   1.587   3.908   4.586
 3466SOL    HW111839   1.539   3.926   4.666
 3466SOL    HW211840   1.585   3.991   4.538
 3467SOL     OW11841   0.043   4.767   4.010
 3467SOL    HW111842   0.133   4.750   3.980
 3467SOL    HW211843   0.052   4.778   4.105
 3468SOL     OW11844   0.892   5.387   4.067
 3468SOL    HW111845   0.817   5.368   4.010
 3468SOL    HW211846   0.862   5.461   4.120
 3469SOL     OW11847   0.238   4.311   5.689
 3469SOL    HW111848   0.158   4.338   5.735
 3469SOL    HW211849   0.262   4.388   5.637
 3470SOL     OW11850   0.236   3.993   6.575
 3470SOL    HW111851   0.269   3.969   6.662
 3470SOL    HW211852   0.150   3.951   6.569
 3471SOL     OW11853   8.004   4.089   6.215
 3471SOL    HW111854   7.910   4.095   6.229
 3471SOL    HW211855   8.013   4.045   6.131
 3472SOL     OW11856   0.510   5.031   6.797
 3472SOL    HW111857   0.524   5.005   6.706
 3472SOL    HW211858   0.586   5.085   6.819
 3473SOL     OW11859   1.580   5.247   6.299
 3473SOL    HW111860   1.535   5.211   6.375
 3473SOL    HW211861   1.515   5.246   6.229
 3474SOL     OW11862   1.128   4.430   6.285
 3474SOL    HW111863   1.181   4.509   6.270
 3474SOL    HW211864   1.084   4.447   6.368
 3475SOL     OW11865   1.756   4.332   5.819
 3475SOL    HW111866   1.736   4.327   5.725
 3475SOL    HW211867   1.740   4.243   5.851
 3476SOL     OW11868   0.728   4.847   6.628
 3476SOL    HW111869   0.751   4.838   6.721
 3476SOL    HW211870   0.756   4.936   6.605
 3477SOL     OW11871   0.872   4.487   7.402
 3477SOL    HW111872   0.854   4.564   7.456
 3477SOL    HW211873   0.899   4.523   7.317
 3478SOL     OW11874   0.678   4.718   6.245
 3478SOL    HW111875   0.750   4.711   6.307
 3478SOL    HW211876   0.616   4.777   6.286
 3479SOL     OW11877   0.712   4.877   7.425
 3479SOL    HW111878   0.768   4.951   7.446
 3479SOL    HW211879   0.644   4.912   7.368
 3480SOL     OW11880   0.288   5.169   6.631
 3480SOL    HW111881   0.274   5.091   6.577
 3480SOL    HW211882   0.359   5.216   6.587
 3481SOL     OW11883   1.456   5.223   6.952
 3481SOL    HW111884   1.510   5.301   6.960
 3481SOL    HW211885   1.387   5.235   7.017
 3482SOL     OW11886   0.436   4.117   7.122
 3482SOL    HW111887   0.517   4.073   7.097
 3482SOL    HW211888   0.367   4.061   7.085
 3483SOL     OW11889   1.557   4.231   6.361
 3483SOL    HW111890   1.511   4.217   6.278
 3483SOL    HW211891   1.643   4.192   6.348
 3484SOL     OW11892   0.222   5.433   6.061
 3484SOL    HW111893   0.236   5.513   6.110
 3484SOL    HW211894   0.292   5.433   5.995
 3485SOL     OW11895   1.142   5.072   7.287
 3485SOL    HW111896   1.182   5.050   7.371
 3485SOL    HW211897   1.097   4.991   7.260
 3486SOL     OW11898   0.278   5.163   6.098
 3486SOL    HW111899   0.262   5.255   6.117
 3486SOL    HW211900   0.232   5.115   6.166
 3487SOL     OW11901   0.267   4.805   6.492
 3487SOL    HW111902   0.277   4.712   6.514
 3487SOL    HW211903   0.194   4.835   6.546
 3488SOL     OW11904   0.597   5.539   6.997
 3488SOL    HW111905   0.523   5.515   7.052
 3488SOL    HW211906   0.624   5.625   7.029
 3489SOL     OW11907   0.597   4.699   5.759
 3489SOL    HW111908   0.626   4.742   5.679
 3489SOL    HW211909   0.648   4.741   5.828
 3490SOL     OW11910   1.584   3.844   7.048
 3490SOL    HW111911   1.642   3.892   6.990
 3490SOL    HW211912   1.580   3.898   7.127
 3491SOL     OW11913   0.114   4.357   6.142
 3491SOL    HW111914   0.092   4.274   6.184
 3491SOL    HW211915   0.111   4.421   6.214
 3492SOL     OW11916   1.843   5.487   5.914
 3492SOL    HW111917   1.920   5.464   5.966
 3492SOL    HW211918   1.862   5.573   5.878
 3493SOL     OW11919   0.009   5.321   5.735
 3493SOL    HW111920   0.003   5.228   5.714
 3493SOL    HW211921  -0.006   5.325   5.830
 3494SOL     OW11922   1.701   4.647   6.239
 3494SOL    HW111923   1.775   4.592   6.218
 3494SOL    HW211924   1.678   4.690   6.157
 3495SOL     OW11925   1.647   4.819   6.020
 3495SOL    HW111926   1.731   4.820   5.975
 3495SOL    HW211927   1.656   4.886   6.088
 3496SOL     OW11928   0.148   4.481   7.167
 3496SOL    HW111929   0.244   4.486   7.165
 3496SOL    HW211930   0.121   4.565   7.206
 3497SOL     OW11931   0.605   5.119   6.325
 3497SOL    HW111932   0.564   5.032   6.330
 3497SOL    HW211933   0.597   5.144   6.233
 3498SOL     OW11934   1.284   4.960   7.013
 3498SOL    HW111935   1.305   4.892   6.948
 3498SOL    HW211936   1.352   4.951   7.080
 3499SOL     OW11937   0.820   3.725   6.112
 3499SOL    HW111938   0.863   3.805   6.082
 3499SOL    HW211939   0.726   3.747   6.111
 3500SOL     OW11940   0.177   4.666   6.859
 3500SOL    HW111941   0.267   4.633   6.853
 3500SOL    HW211942   0.141   4.652   6.771
 3501SOL     OW11943   1.546   4.717   5.778
 3501SOL    HW111944   1.475   4.655   5.792
 3501SOL    HW211945   1.573   4.744   5.866
 3502SOL     OW11946   1.177   5.534   7.213
 3502SOL    HW111947   1.184   5.594   7.139
 3502SOL    HW211948   1.198   5.448   7.176
 3503SOL     OW11949   0.348   3.970   7.423
 3503SOL    HW111950   0.394   4.053   7.409
 3503SOL    HW211951   0.257   3.996   7.438
 3504SOL     OW11952   1.457   5.148   6.523
 3504SOL    HW111953   1.394   5.158   6.595
 3504SOL    HW211954   1.451   5.056   6.499
 3505SOL     OW11955   1.666   5.483   6.173
 3505SOL    HW111956   1.646   5.458   6.083
 3505SOL    HW211957   1.640   5.407   6.226
 3506SOL     OW11958   0.595   4.437   5.859
 3506SOL    HW111959   0.609   4.520   5.813
 3506SOL    HW211960   0.530   4.458   5.926
 3507SOL     OW11961   1.278   4.060   6.507
 3507SOL    HW111962   1.187   4.039   6.529
 3507SOL    HW211963   1.330   4.023   6.578
 3508SOL     OW11964   1.579   5.407   5.914
 3508SOL    HW111965   1.671   5.429   5.896
 3508SOL    HW211966   1.542   5.388   5.828
 3509SOL     OW11967   0.800   4.310   7.043
 3509SOL    HW111968   0.757   4.297   7.127
 3509SOL    HW211969   0.745   4.263   6.980
 3510SOL     OW11970   1.385   4.200   7.260
 3510SOL    HW111971   1.397   4.246   7.343
 3510SOL    HW211972   1.450   4.130   7.262
 3511SOL     OW11973   0.951   4.611   7.171
 3511SOL    HW111974   1.003   4.541   7.133
 3511SOL    HW211975   0.910   4.654   7.096
 3512SOL     OW11976   0.993   4.127   6.819
 3512SOL    HW111977   0.922   4.188   6.838
 3512SOL    HW211978   0.982   4.106   6.726
 3513SOL     OW11979   1.056   4.410   6.014
 3513SOL    HW111980   1.075   4.411   6.107
 3513SOL    HW211981   0.969   4.369   6.007
 3514SOL     OW11982   0.103   4.525   6.359
 3514SOL    HW111983   0.181   4.532   6.414
 3514SOL    HW211984   0.073   4.616   6.350
 3515SOL     OW11985   0.117   5.492   7.143
 3515SOL    HW111986   0.128   5.497   7.238
 3515SOL    HW211987   0.023   5.505   7.129
 3516SOL     OW11988   0.904   4.063   5.771
 3516SOL    HW111989   0.931   4.141   5.722
 3516SOL    HW211990   0.957   3.992   5.733
 3517SOL     OW11991   1.684   4.303   7.429
 3517SOL    HW111992   1.662   4.377   7.372
 3517SOL    HW211993   1.722   4.238   7.370
 3518SOL     OW11994   1.384   4.863   6.127
 3518SOL    HW111995   1.460   4.843   6.072
 3518SOL    HW211996   1.333   4.926   6.075
 3519SOL     OW11997   0.554   3.897   6.479
 3519SOL    HW111998   0.559   3.933   6.568
 3519SOL    HW211999   0.558   3.973   6.422
 3520SOL     OW12000   1.022   5.184   6.068
 3520SOL    HW112001   0.978   5.248   6.011
 3520SOL    HW212002   0.975   5.191   6.151
 3521SOL     OW12003   0.367   5.546   6.452
 3521SOL    HW112004   0.412   5.463   6.461
 3521SOL    HW212005   0.435   5.612   6.465
 3522SOL     OW12006   1.802   4.793   6.461
 3522SOL    HW112007   1.759   4.759   6.383
 3522SOL    HW212008   1.737   4.787   6.530
 3523SOL     OW12009   1.227   5.272   7.111
 3523SOL    HW112010   1.221   5.198   7.172
 3523SOL    HW212011   1.173   5.245   7.036
 3524SOL     OW12012   0.338   4.696   5.848
 3524SOL    HW112013   0.431   4.703   5.829
 3524SOL    HW212014   0.300   4.657   5.768
 3525SOL     OW12015   1.483   4.497   6.318
 3525SOL    HW112016   1.509   4.410   6.349
 3525SOL    HW212017   1.566   4.543   6.305
 3526SOL     OW12018   0.454   4.992   7.339
 3526SOL    HW112019   0.432   4.997   7.246
 3526SOL    HW212020   0.371   4.974   7.383
 3527SOL     OW12021   1.117   5.505   5.824
 3527SOL    HW112022   1.044   5.461   5.868
 3527SOL    HW212023   1.144   5.443   5.755
 3528SOL     OW12024   0.179   4.007   7.065
 3528SOL    HW112025   0.131   4.090   7.058
 3528SOL    HW212026   0.157   3.974   7.152
 3529SOL     OW12027   1.626   5.109   5.695
 3529SOL    HW112028   1.589   5.192   5.665
 3529SOL    HW212029   1.562   5.043   5.668
 3530SOL     OW12030   0.452   5.473   5.899
 3530SOL    HW112031   0.508   5.515   5.965
 3530SOL    HW212032   0.513   5.427   5.842
 3531SOL     OW12033   1.407   3.816   6.034
 3531SOL    HW112034   1.398   3.802   5.940
 3531SOL    HW212035   1.501   3.825   6.049
 3532SOL     OW12036   0.225   5.489   6.821
 3532SOL    HW112037   0.305   5.437   6.812
 3532SOL    HW212038   0.186   5.490   6.734
 3533SOL     OW12039   0.943   5.420   6.478
 3533SOL    HW112040   1.029   5.379   6.484
 3533SOL    HW212041   0.899   5.373   6.407
 3534SOL     OW12042   0.398   4.417   6.070
 3534SOL    HW112043   0.420   4.325   6.083
 3534SOL    HW212044   0.303   4.421   6.079
 3535SOL     OW12045   1.526   3.958   7.306
 3535SOL    HW112046   1.531   3.974   7.401
 3535SOL    HW212047   1.464   3.886   7.297
 3536SOL     OW12048   0.634   3.789   5.699
 3536SOL    HW112049   0.711   3.843   5.678
 3536SOL    HW212050   0.585   3.784   5.617
 3537SOL     OW12051   0.763   4.004   7.337
 3537SOL    HW112052   0.845   3.954   7.337
 3537SOL    HW212053   0.723   3.984   7.422
 3538SOL     OW12054   0.876   5.259   6.780
 3538SOL    HW112055   0.860   5.218   6.695
 3538SOL    HW212056   0.947   5.207   6.819
 3539SOL     OW12057   1.330   4.315   7.013
 3539SOL    HW112058   1.367   4.287   7.096
 3539SOL    HW212059   1.371   4.401   6.997
 3540SOL     OW12060   0.804   5.107   6.539
 3540SOL    HW112061   0.892   5.096   6.503
 3540SOL    HW212062   0.748   5.117   6.462
 3541SOL     OW12063   0.922   4.224   6.490
 3541SOL    HW112064   0.898   4.220   6.397
 3541SOL    HW212065   0.961   4.138   6.508
 3542SOL     OW12066   0.547   3.777   6.078
 3542SOL    HW112067   0.467   3.778   6.131
 3542SOL    HW212068   0.543   3.858   6.027
 3543SOL     OW12069   1.433   4.918   5.627
 3543SOL    HW112070   1.473   4.843   5.672
 3543SOL    HW212071   1.341   4.914   5.651
 3544SOL     OW12072   0.295   3.789   5.777
 3544SOL    HW112073   0.318   3.860   5.718
 3544SOL    HW212074   0.379   3.754   5.806
 3545SOL     OW12075   0.943   3.963   6.039
 3545SOL    HW112076   0.916   4.005   5.957
 3545SOL    HW212077   1.037   3.980   6.045
 3546SOL     OW12078   1.074   4.402   7.059
 3546SOL    HW112079   1.005   4.338   7.041
 3546SOL    HW212080   1.155   4.357   7.038
 3547SOL     OW12081   1.202   5.312   6.394
 3547SOL    HW112082   1.225   5.369   6.321
 3547SOL    HW212083   1.286   5.286   6.431
 3548SOL     OW12084   0.465   4.883   6.320
 3548SOL    HW112085   0.400   4.856   6.384
 3548SOL    HW212086   0.426   4.862   6.235
 3549SOL     OW12087   1.266   5.521   6.203
 3549SOL    HW112088   1.314   5.576   6.142
 3549SOL    HW212089   1.191   5.575   6.230
 3550SOL     OW12090   1.012   4.271   5.616
 3550SOL    HW112091   0.977   4.359   5.603
 3550SOL    HW212092   1.083   4.282   5.679
 3551SOL     OW12093   0.110   4.294   6.974
 3551SOL    HW112094   0.201   4.290   6.943
 3551SOL    HW212095   0.110   4.365   7.039
 3552SOL     OW12096   0.562   3.948   6.752
 3552SOL    HW112097   0.610   3.881   6.802
 3552SOL    HW212098   0.472   3.940   6.782
 3553SOL     OW12099   0.857   4.172   6.227
 3553SOL    HW112100   0.818   4.232   6.163
 3553SOL    HW212101   0.892   4.100   6.174
 3554SOL     OW12102   1.020   3.787   6.343
 3554SOL    HW112103   0.967   3.794   6.264
 3554SOL    HW212104   0.986   3.709   6.387
 3555SOL     OW12105   1.444   4.887   6.436
 3555SOL    HW112106   1.374   4.823   6.425
 3555SOL    HW212107   1.484   4.893   6.349
 3556SOL     OW12108   1.447   4.333   6.603
 3556SOL    HW112109   1.472   4.280   6.527
 3556SOL    HW212110   1.522   4.325   6.662
 3557SOL     OW12111   1.833   4.539   5.977
 3557SOL    HW112112   1.889   4.485   6.033
 3557SOL    HW212113   1.807   4.480   5.907
 3558SOL     OW12114   0.489   5.154   5.751
 3558SOL    HW112115   0.410   5.108   5.780
 3558SOL    HW212116   0.528   5.096   5.685
 3559SOL     OW12117   1.683   4.990   6.228
 3559SOL    HW112118   1.777   4.982   6.239
 3559SOL    HW212119   1.664   5.082   6.246
 3560SOL     OW12120   1.393   4.287   5.655
 3560SOL    HW112121   1.334   4.269   5.728
 3560SOL    HW212122   1.481   4.271   5.689
 3561SOL     OW12123   0.523   3.979   5.896
 3561SOL    HW112124   0.574   3.934   5.829
 3561SOL    HW212125   0.502   4.064   5.858
 3562SOL     OW12126   1.752   4.968   7.160
 3562SOL    HW112127   1.836   4.931   7.136
 3562SOL    HW212128   1.771   5.060   7.182
 3563SOL     OW12129   1.070   5.124   6.941
 3563SOL    HW112130   0.987   5.087   6.972
 3563SOL    HW212131   1.134   5.055   6.960
 3564SOL     OW12132   1.611   5.356   7.254
 3564SOL    HW112133   1.596   5.387   7.165
 3564SOL    HW212134   1.691   5.305   7.248
 3565SOL     OW12135   1.130   4.946   6.694
 3565SOL    HW112136   1.050   4.908   6.730
 3565SOL    HW212137   1.105   4.976   6.606
 3566SOL     OW12138   1.615   4.809   6.660
 3566SOL    HW112139   1.602   4.873   6.730
 3566SOL    HW212140   1.542   4.823   6.600
 3567SOL     OW12141   0.922   3.809   6.978
 3567SOL    HW112142   0.941   3.795   6.885
 3567SOL    HW212143   1.000   3.853   7.011
 3568SOL     OW12144   0.989   4.837   7.314
 3568SOL    HW112145   0.896   4.860   7.318
 3568SOL    HW212146   0.993   4.763   7.254
 3569SOL     OW12147   0.717   4.795   5.985
 3569SOL    HW112148   0.700   4.768   6.075
 3569SOL    HW212149   0.787   4.736   5.955
 3570SOL     OW12150   0.422   4.546   6.850
 3570SOL    HW112151   0.496   4.554   6.911
 3570SOL    HW212152   0.398   4.454   6.854
 3571SOL     OW12153   1.258   4.086   6.883
 3571SOL    HW112154   1.295   4.169   6.912
 3571SOL    HW212155   1.171   4.108   6.851
 3572SOL     OW12156   0.325   4.839   6.085
 3572SOL    HW112157   0.350   4.913   6.028
 3572SOL    HW212158   0.332   4.762   6.028
 3573SOL     OW12159   0.544   4.253   6.449
 3573SOL    HW112160   0.556   4.310   6.373
 3573SOL    HW212161   0.614   4.279   6.509
 3574SOL     OW12162   1.258   5.072   5.990
 3574SOL    HW112163   1.314   5.144   6.019
 3574SOL    HW212164   1.169   5.098   6.017
 3575SOL     OW12165   1.286   5.186   6.730
 3575SOL    HW112166   1.338   5.182   6.810
 3575SOL    HW212167   1.225   5.112   6.737
 3576SOL     OW12168   1.565   4.347   6.061
 3576SOL    HW112169   1.512   4.417   6.099
 3576SOL    HW212170   1.629   4.393   6.006
 3577SOL     OW12171   0.355   5.253   6.886
 3577SOL    HW112172   0.343   5.202   6.805
 3577SOL    HW212173   0.450   5.258   6.898
 3578SOL     OW12174   0.428   4.457   7.201
 3578SOL    HW112175   0.487   4.499   7.139
 3578SOL    HW212176   0.475   4.378   7.229
 3579SOL     OW12177   1.612   4.515   7.276
 3579SOL    HW112178   1.526   4.555   7.261
 3579SOL    HW212179   1.666   4.548   7.204
 3580SOL     OW12180   0.997   3.860   7.355
 3580SOL    HW112181   1.052   3.935   7.331
 3580SOL    HW212182   1.043   3.784   7.320
 3581SOL     OW12183   0.498   3.756   7.345
 3581SOL    HW112184   0.454   3.709   7.274
 3581SOL    HW212185   0.445   3.834   7.358
 3582SOL     OW12186   0.584   4.604   6.619
 3582SOL    HW112187   0.629   4.688   6.615
 3582SOL    HW212188   0.537   4.607   6.703
 3583SOL     OW12189   1.342   4.584   6.617
 3583SOL    HW112190   1.285   4.581   6.539
 3583SOL    HW212191   1.383   4.498   6.619
 3584SOL     OW12192   1.195   4.240   5.845
 3584SOL    HW112193   1.207   4.166   5.904
 3584SOL    HW212194   1.162   4.310   5.901
 3585SOL     OW12195   0.304   3.914   6.836
 3585SOL    HW112196   0.258   3.949   6.912
 3585SOL    HW212197   0.280   3.821   6.835
 3586SOL     OW12198   0.070   5.106   6.879
 3586SOL    HW112199   0.068   5.035   6.943
 3586SOL    HW212200   0.134   5.078   6.814
 3587SOL     OW12201   0.716   4.349   6.640
 3587SOL    HW112202   0.797   4.334   6.590
 3587SOL    HW212203   0.696   4.442   6.627
 3588SOL     OW12204   1.747   4.683   7.452
 3588SOL    HW112205   1.708   4.620   7.391
 3588SOL    HW212206   1.678   4.700   7.516
 3589SOL     OW12207   0.306   3.781   6.209
 3589SOL    HW112208   0.281   3.873   6.221
 3589SOL    HW212209   0.317   3.748   6.299
 3590SOL     OW12210   1.615   4.103   5.954
 3590SOL    HW112211   1.655   4.054   6.027
 3590SOL    HW212212   1.586   4.185   5.994
 3591SOL     OW12213   1.012   4.478   6.540
 3591SOL    HW112214   1.017   4.492   6.635
 3591SOL    HW212215   0.995   4.385   6.530
 3592SOL     OW12216   0.970   5.283   7.303
 3592SOL    HW112217   0.960   5.329   7.219
 3592SOL    HW212218   1.025   5.207   7.281
 3593SOL     OW12219   1.849   5.230   7.191
 3593SOL    HW112220   1.873   5.253   7.101
 3593SOL    HW212221   1.930   5.241   7.240
 3594SOL     OW12222   0.367   4.666   7.379
 3594SOL    HW112223   0.445   4.678   7.433
 3594SOL    HW212224   0.387   4.590   7.324
 3595SOL     OW12225   1.531   3.986   5.716
 3595SOL    HW112226   1.465   3.925   5.750
 3595SOL    HW212227   1.567   4.028   5.795
 3596SOL     OW12228   1.326   4.555   5.634
 3596SOL    HW112229   1.355   4.465   5.619
 3596SOL    HW212230   1.331   4.597   5.548
 3597SOL     OW12231   1.057   5.066   6.449
 3597SOL    HW112232   1.063   4.992   6.388
 3597SOL    HW212233   1.111   5.134   6.409
 3598SOL     OW12234   0.323   4.533   6.528
 3598SOL    HW112235   0.416   4.555   6.530
 3598SOL    HW212236   0.319   4.443   6.561
 3599SOL     OW12237   0.328   4.247   6.603
 3599SOL    HW112238   0.294   4.160   6.584
 3599SOL    HW212239   0.405   4.255   6.546
 3600SOL     OW12240   1.134   4.089   7.283
 3600SOL    HW112241   1.084   4.154   7.333
 3600SOL    HW212242   1.219   4.130   7.268
 3601SOL     OW12243   1.160   3.912   7.070
 3601SOL    HW112244   1.150   3.980   7.138
 3601SOL    HW212245   1.204   3.958   6.998
 3602SOL     OW12246   7.980   5.036   5.803
 3602SOL    HW112247   7.886   5.048   5.819
 3602SOL    HW212248   7.995   4.942   5.813
 3603SOL     OW12249   0.129   5.491   6.570
 3603SOL    HW112250   0.093   5.425   6.511
 3603SOL    HW212251   0.208   5.522   6.525
 3604SOL     OW12252   0.494   5.301   6.500
 3604SOL    HW112253   0.566   5.357   6.527
 3604SOL    HW212254   0.533   5.240   6.438
 3605SOL     OW12255   0.984   4.513   6.809
 3605SOL    HW112256   1.034   4.490   6.888
 3605SOL    HW212257   0.930   4.587   6.836
 3606SOL     OW12258   0.069   4.271   6.705
 3606SOL    HW112259   0.162   4.270   6.681
 3606SOL    HW212260   0.069   4.272   6.801
 3607SOL     OW12261   0.211   4.240   7.288
 3607SOL    HW112262   0.286   4.218   7.233
 3607SOL    HW212263   0.172   4.317   7.246
 3608SOL     OW12264   1.378   4.661   7.242
 3608SOL    HW112265   1.404   4.753   7.234
 3608SOL    HW212266   1.372   4.629   7.152
 3609SOL     OW12267   0.811   4.284   5.962
 3609SOL    HW112268   0.816   4.220   5.891
 3609SOL    HW212269   0.745   4.347   5.932
 3610SOL     OW12270   1.657   4.327   6.782
 3610SOL    HW112271   1.649   4.263   6.853
 3610SOL    HW212272   1.742   4.309   6.743
 3611SOL     OW12273   0.301   5.261   7.314
 3611SOL    HW112274   0.258   5.329   7.366
 3611SOL    HW212275   0.293   5.182   7.366
 3612SOL     OW12276   0.652   4.191   6.849
 3612SOL    HW112277   0.633   4.107   6.807
 3612SOL    HW212278   0.674   4.249   6.777
 3613SOL     OW12279   0.898   5.409   7.071
 3613SOL    HW112280   0.896   5.351   6.994
 3613SOL    HW212281   0.897   5.497   7.034
 3614SOL     OW12282   0.478   4.209   5.764
 3614SOL    HW112283   0.529   4.285   5.792
 3614SOL    HW212284   0.397   4.245   5.729
 3615SOL     OW12285   0.140   4.868   7.036
 3615SOL    HW112286   0.123   4.819   7.117
 3615SOL    HW212287   0.153   4.801   6.969
 3616SOL     OW12288   1.312   4.770   6.810
 3616SOL    HW112289   1.330   4.704   6.743
 3616SOL    HW212290   1.253   4.832   6.767
 3617SOL     OW12291   1.315   4.577   5.902
 3617SOL    HW112292   1.227   4.567   5.938
 3617SOL    HW212293   1.304   4.571   5.808
 3618SOL     OW12294   1.784   5.463   6.757
 3618SOL    HW112295   1.818   5.503   6.677
 3618SOL    HW212296   1.751   5.378   6.729
 3619SOL     OW12297   1.240   5.464   6.712
 3619SOL    HW112298   1.321   5.487   6.666
 3619SOL    HW212299   1.244   5.369   6.721
 3620SOL     OW12300   0.041   4.927   6.612
 3620SOL    HW112301  -0.009   4.986   6.669
 3620SOL    HW212302   0.007   4.944   6.524
 3621SOL     OW12303   0.697   5.398   7.322
 3621SOL    HW112304   0.657   5.451   7.253
 3621SOL    HW212305   0.786   5.382   7.292
 3622SOL     OW12306   1.681   3.823   6.083
 3622SOL    HW112307   1.756   3.873   6.049
 3622SOL    HW212308   1.698   3.816   6.177
 3623SOL     OW12309   1.401   5.292   6.092
 3623SOL    HW112310   1.457   5.323   6.020
 3623SOL    HW212311   1.342   5.366   6.109
 3624SOL     OW12312   0.176   5.470   7.429
 3624SOL    HW112313   0.109   5.423   7.480
 3624SOL    HW212314   0.220   5.526   7.493
 3625SOL     OW12315   1.278   4.661   6.272
 3625SOL    HW112316   1.351   4.601   6.286
 3625SOL    HW212317   1.312   4.726   6.210
 3626SOL     OW12318   0.827   5.046   7.019
 3626SOL    HW112319   0.767   5.060   7.092
 3626SOL    HW212320   0.813   4.955   6.993
 3627SOL     OW12321   0.664   5.366   5.749
 3627SOL    HW112322   0.690   5.372   5.657
 3627SOL    HW212323   0.621   5.281   5.755
 3628SOL     OW12324   1.615   5.448   6.986
 3628SOL    HW112325   1.672   5.449   6.909
 3628SOL    HW212326   1.601   5.541   7.006
 3629SOL     OW12327   1.838   3.885   6.569
 3629SOL    HW112328   1.875   3.807   6.527
 3629SOL    HW212329   1.793   3.931   6.499
 3630SOL     OW12330   0.262   4.034   6.296
 3630SOL    HW112331   0.174   4.064   6.273
 3630SOL    HW212332   0.262   4.031   6.392
 3631SOL     OW12333   1.196   5.326   5.638
 3631SOL    HW112334   1.185   5.233   5.658
 3631SOL    HW212335   1.162   5.335   5.549
 3632SOL     OW12336   0.899   4.617   5.902
 3632SOL    HW112337   0.938   4.676   5.838
 3632SOL    HW212338   0.969   4.557   5.925
 3633SOL     OW12339   1.474   5.359   5.661
 3633SOL    HW112340   1.381   5.339   5.655
 3633SOL    HW212341   1.495   5.403   5.578
 3634SOL     OW12342   0.362   5.025   7.089
 3634SOL    HW112343   0.403   5.048   7.005
 3634SOL    HW212344   0.289   4.968   7.064
 3635SOL     OW12345   1.596   5.003   6.854
 3635SOL    HW112346   1.677   5.002   6.904
 3635SOL    HW212347   1.543   5.070   6.897
 3636SOL     OW12348   1.061   4.839   6.308
 3636SOL    HW112349   0.989   4.782   6.336
 3636SOL    HW212350   1.128   4.778   6.277
 3637SOL     OW12351   1.018   3.968   6.558
 3637SOL    HW112352   1.025   3.921   6.475
 3637SOL    HW212353   1.017   3.899   6.625
 3638SOL     OW12354   0.608   5.210   6.069
 3638SOL    HW112355   0.672   5.159   6.017
 3638SOL    HW212356   0.533   5.219   6.011
 3639SOL     OW12357   1.734   4.123   6.978
 3639SOL    HW112358   1.815   4.174   6.978
 3639SOL    HW212359   1.751   4.051   6.917
 3640SOL     OW12360   0.250   5.056   5.856
 3640SOL    HW112361   0.154   5.056   5.849
 3640SOL    HW212362   0.268   5.096   5.940
 3641SOL     OW12363   0.113   4.728   7.291
 3641SOL    HW112364   0.081   4.810   7.327
 3641SOL    HW212365   0.199   4.715   7.331
 3642SOL     OW12366   0.680   3.912   7.083
 3642SOL    HW112367   0.764   3.896   7.041
 3642SOL    HW212368   0.701   3.951   7.167
 3643SOL     OW12369   0.089   4.057   5.599
 3643SOL    HW112370   0.028   4.099   5.658
 3643SOL    HW212371   0.117   4.126   5.539
 3644SOL     OW12372   1.422   4.583   6.985
 3644SOL    HW112373   1.370   4.642   6.929
 3644SOL    HW212374   1.509   4.582   6.944
 3645SOL     OW12375   0.092   3.933   5.973
 3645SOL    HW112376   0.112   4.024   5.952
 3645SOL    HW212377   0.153   3.882   5.920
 3646SOL     OW12378   1.177   5.064   5.717
 3646SOL    HW112379   1.116   4.990   5.715
 3646SOL    HW212380   1.213   5.062   5.806
 3647SOL     OW12381   0.626   4.538   7.029
 3647SOL    HW112382   0.672   4.618   7.003
 3647SOL    HW212383   0.694   4.470   7.028
 3648SOL     OW12384   1.479   5.522   6.586
 3648SOL    HW112385   1.497   5.556   6.498
 3648SOL    HW212386   1.541   5.451   6.598
 3649SOL     OW12387   0.696   4.288   7.296
 3649SOL    HW112388   0.753   4.350   7.342
 3649SOL    HW212389   0.730   4.202   7.321
 3650SOL     OW12390   1.481   4.917   7.215
 3650SOL    HW112391   1.474   4.935   7.308
 3650SOL    HW212392   1.572   4.934   7.193
 3651SOL     OW12393   0.395   5.478   7.169
 3651SOL    HW112394   0.306   5.500   7.141
 3651SOL    HW212395   0.387   5.391   7.208
 3652SOL     OW12396   1.660   4.599   6.846
 3652SOL    HW112397   1.662   4.512   6.807
 3652SOL    HW212398   1.649   4.658   6.772
 3653SOL     OW12399   1.211   4.028   6.043
 3653SOL    HW112400   1.282   3.964   6.039
 3653SOL    HW212401   1.233   4.084   6.118
 3654SOL     OW12402   0.584   4.457   6.269
 3654SOL    HW112403   0.628   4.542   6.257
 3654SOL    HW212404   0.524   4.450   6.195
 3655SOL     OW12405   1.756   4.097   7.259
 3655SOL    HW112406   1.762   4.111   7.165
 3655SOL    HW212407   1.681   4.038   7.270
 3656SOL     OW12408   1.760   4.653   7.094
 3656SOL    HW112409   1.748   4.748   7.102
 3656SOL    HW212410   1.737   4.633   7.004
 3657SOL     OW12411   0.795   5.116   5.602
 3657SOL    HW112412   0.851   5.079   5.670
 3657SOL    HW212413   0.853   5.174   5.552
 3658SOL     OW12414   0.672   5.508   6.540
 3658SOL    HW112415   0.659   5.595   6.502
 3658SOL    HW212416   0.764   5.488   6.521
 3659SOL     OW12417   0.869   4.692   6.438
 3659SOL    HW112418   0.917   4.617   6.475
 3659SOL    HW212419   0.828   4.733   6.514
 3660SOL     OW12420   1.886   5.297   6.424
 3660SOL    HW112421   1.800   5.287   6.383
 3660SOL    HW212422   1.892   5.222   6.483
 3661SOL     OW12423   0.200   5.027   7.440
 3661SOL    HW112424   0.111   5.012   7.409
 3661SOL    HW212425   0.194   5.022   7.535
 3662SOL     OW12426   0.138   4.985   6.247
 3662SOL    HW112427   0.065   4.932   6.280
 3662SOL    HW212428   0.197   4.921   6.207
 3663SOL     OW12429   0.679   5.120   7.246
 3663SOL    HW112430   0.591   5.089   7.267
 3663SOL    HW212431   0.675   5.215   7.261
 3664SOL     OW12432   1.780   3.898   6.835
 3664SOL    HW112433   1.852   3.840   6.864
 3664SOL    HW212434   1.790   3.904   6.740
 3665SOL     OW12435   0.442   4.157   6.121
 3665SOL    HW112436   0.461   4.093   6.053
 3665SOL    HW212437   0.385   4.111   6.182
 3666SOL     OW12438   1.682   5.226   6.676
 3666SOL    HW112439   1.610   5.195   6.623
 3666SOL    HW212440   1.706   5.151   6.731
 3667SOL     OW12441   0.359   4.279   6.875
 3667SOL    HW112442   0.435   4.236   6.915
 3667SOL    HW212443   0.368   4.259   6.781
 3668SOL     OW12444   0.825   5.311   6.260
 3668SOL    HW112445   0.821   5.367   6.182
 3668SOL    HW212446   0.752   5.250   6.249
 3669SOL     OW12447   1.413   3.940   6.712
 3669SOL    HW112448   1.493   3.910   6.755
 3669SOL    HW212449   1.367   3.989   6.780
 3670SOL     OW12450   1.006   3.732   6.719
 3670SOL    HW112451   0.962   3.673   6.658
 3670SOL    HW212452   1.097   3.702   6.720
 3671SOL     OW12453   0.782   5.056   5.932
 3671SOL    HW112454   0.753   4.965   5.933
 3671SOL    HW212455   0.877   5.051   5.929
 3672SOL     OW12456   0.623   5.292   6.878
 3672SOL    HW112457   0.627   5.381   6.913
 3672SOL    HW212458   0.711   5.275   6.844
 3673SOL     OW12459   1.346   3.782   5.767
 3673SOL    HW112460   1.366   3.742   5.683
 3673SOL    HW212461   1.261   3.745   5.792
 3674SOL     OW12462   1.266   4.182   6.258
 3674SOL    HW112463   1.225   4.267   6.272
 3674SOL    HW212464   1.281   4.148   6.347
 3675SOL     OW12465   1.563   3.900   6.443
 3675SOL    HW112466   1.508   3.962   6.491
 3675SOL    HW212467   1.615   3.955   6.385
 3676SOL     OW12468   0.052   4.778   5.864
 3676SOL    HW112469   0.140   4.758   5.833
 3676SOL    HW212470   0.052   4.751   5.956
 3677SOL     OW12471   0.883   5.385   5.938
 3677SOL    HW112472   0.813   5.366   5.875
 3677SOL    HW212473   0.854   5.464   5.984
 3678SOL     OW12474   0.240   4.418   7.532
 3678SOL    HW112475   0.204   4.361   7.600
 3678SOL    HW212476   0.238   4.365   7.453
 3679SOL     OW12477   0.222   4.020   8.443
 3679SOL    HW112478   0.247   3.949   8.502
 3679SOL    HW212479   0.134   3.996   8.413
 3680SOL     OW12480   7.998   4.106   8.076
 3680SOL    HW112481   7.909   4.118   8.108
 3680SOL    HW212482   7.988   4.056   7.995
 3681SOL     OW12483   0.567   5.019   8.634
 3681SOL    HW112484   0.482   5.026   8.591
 3681SOL    HW212485   0.586   5.108   8.664
 3682SOL     OW12486   1.579   5.239   8.154
 3682SOL    HW112487   1.533   5.238   8.238
 3682SOL    HW212488   1.509   5.247   8.089
 3683SOL     OW12489   1.735   4.323   7.693
 3683SOL    HW112490   1.719   4.334   7.599
 3683SOL    HW212491   1.754   4.230   7.703
 3684SOL     OW12492   0.737   4.861   8.486
 3684SOL    HW112493   0.673   4.898   8.546
 3684SOL    HW212494   0.781   4.937   8.448
 3685SOL     OW12495   0.868   4.483   9.264
 3685SOL    HW112496   0.856   4.557   9.324
 3685SOL    HW212497   0.891   4.523   9.181
 3686SOL     OW12498   0.691   4.721   8.096
 3686SOL    HW112499   0.751   4.716   8.171
 3686SOL    HW212500   0.620   4.778   8.126
 3687SOL     OW12501   0.721   4.879   9.267
 3687SOL    HW112502   0.767   4.959   9.294
 3687SOL    HW212503   0.640   4.911   9.226
 3688SOL     OW12504   0.330   5.141   8.518
 3688SOL    HW112505   0.268   5.094   8.463
 3688SOL    HW212506   0.381   5.194   8.457
 3689SOL     OW12507   1.480   5.207   8.864
 3689SOL    HW112508   1.525   5.281   8.822
 3689SOL    HW212509   1.394   5.242   8.889
 3690SOL     OW12510   1.595   4.183   8.182
 3690SOL    HW112511   1.592   4.225   8.096
 3690SOL    HW212512   1.673   4.221   8.224
 3691SOL     OW12513   1.125   5.061   9.142
 3691SOL    HW112514   1.163   5.057   9.230
 3691SOL    HW212515   1.077   4.979   9.133
 3692SOL     OW12516   0.283   5.190   7.966
 3692SOL    HW112517   0.252   5.278   7.982
 3692SOL    HW212518   0.235   5.135   8.028
 3693SOL     OW12519   0.284   4.812   8.351
 3693SOL    HW112520   0.277   4.722   8.383
 3693SOL    HW212521   0.212   4.858   8.394
 3694SOL     OW12522   0.610   5.508   8.903
 3694SOL    HW112523   0.523   5.509   8.944
 3694SOL    HW212524   0.637   5.599   8.903
 3695SOL     OW12525   0.575   4.710   7.595
 3695SOL    HW112526   0.621   4.758   7.526
 3695SOL    HW212527   0.614   4.741   7.676
 3696SOL     OW12528   1.585   3.845   8.899
 3696SOL    HW112529   1.646   3.881   8.835
 3696SOL    HW212530   1.578   3.913   8.966
 3697SOL     OW12531   0.140   4.350   8.013
 3697SOL    HW112532   0.090   4.273   8.038
 3697SOL    HW212533   0.101   4.421   8.065
 3698SOL     OW12534   1.846   5.478   7.781
 3698SOL    HW112535   1.919   5.453   7.837
 3698SOL    HW212536   1.865   5.568   7.755
 3699SOL     OW12537   0.022   5.319   7.596
 3699SOL    HW112538   0.006   5.226   7.578
 3699SOL    HW212539   0.009   5.328   7.690
 3700SOL     OW12540   1.673   4.615   8.093
 3700SOL    HW112541   1.763   4.581   8.093
 3700SOL    HW212542   1.668   4.668   8.014
 3701SOL     OW12543   1.647   4.820   7.888
 3701SOL    HW112544   1.732   4.822   7.844
 3701SOL    HW212545   1.655   4.883   7.960
 3702SOL     OW12546   0.150   4.484   9.027
 3702SOL    HW112547   0.244   4.501   9.025
 3702SOL    HW212548   0.111   4.565   9.061
 3703SOL     OW12549   0.612   5.114   8.191
 3703SOL    HW112550   0.569   5.028   8.192
 3703SOL    HW212551   0.599   5.147   8.102
 3704SOL     OW12552   1.311   4.947   8.881
 3704SOL    HW112553   1.310   4.877   8.816
 3704SOL    HW212554   1.376   5.009   8.848
 3705SOL     OW12555   0.828   3.730   7.971
 3705SOL    HW112556   0.868   3.812   7.940
 3705SOL    HW212557   0.734   3.748   7.969
 3706SOL     OW12558   0.187   4.663   8.730
 3706SOL    HW112559   0.270   4.622   8.705
 3706SOL    HW212560   0.132   4.655   8.652
 3707SOL     OW12561   1.530   4.726   7.650
 3707SOL    HW112562   1.466   4.662   7.680
 3707SOL    HW212563   1.574   4.755   7.730
 3708SOL     OW12564   1.183   5.539   9.071
 3708SOL    HW112565   1.186   5.596   8.994
 3708SOL    HW212566   1.207   5.452   9.037
 3709SOL     OW12567   0.358   3.985   9.280
 3709SOL    HW112568   0.398   4.068   9.308
 3709SOL    HW212569   0.264   3.998   9.295
 3710SOL     OW12570   1.480   5.136   8.409
 3710SOL    HW112571   1.409   5.146   8.473
 3710SOL    HW212572   1.465   5.049   8.371
 3711SOL     OW12573   1.645   5.495   8.023
 3711SOL    HW112574   1.635   5.453   7.938
 3711SOL    HW212575   1.632   5.423   8.086
 3712SOL     OW12576   0.590   4.450   7.717
 3712SOL    HW112577   0.585   4.530   7.666
 3712SOL    HW212578   0.524   4.461   7.785
 3713SOL     OW12579   1.273   4.084   8.382
 3713SOL    HW112580   1.186   4.046   8.395
 3713SOL    HW212581   1.330   4.032   8.439
 3714SOL     OW12582   1.578   5.401   7.761
 3714SOL    HW112583   1.671   5.421   7.751
 3714SOL    HW212584   1.548   5.385   7.671
 3715SOL     OW12585   0.793   4.339   8.895
 3715SOL    HW112586   0.765   4.313   8.983
 3715SOL    HW212587   0.756   4.273   8.837
 3716SOL     OW12588   1.409   4.204   9.127
 3716SOL    HW112589   1.478   4.253   9.172
 3716SOL    HW212590   1.441   4.114   9.125
 3717SOL     OW12591   0.946   4.606   9.030
 3717SOL    HW112592   1.001   4.539   8.990
 3717SOL    HW212593   0.902   4.648   8.957
 3718SOL     OW12594   0.992   4.133   8.675
 3718SOL    HW112595   0.900   4.148   8.699
 3718SOL    HW212596   0.988   4.092   8.589
 3719SOL     OW12597   1.034   4.391   7.927
 3719SOL    HW112598   1.045   4.304   7.966
 3719SOL    HW212599   0.958   4.382   7.869
 3720SOL     OW12600   0.080   4.547   8.219
 3720SOL    HW112601   0.163   4.556   8.266
 3720SOL    HW212602   0.056   4.637   8.195
 3721SOL     OW12603   0.126   5.545   9.009
 3721SOL    HW112604   0.099   5.559   9.100
 3721SOL    HW212605   0.046   5.514   8.966
 3722SOL     OW12606   0.908   4.067   7.639
 3722SOL    HW112607   0.942   4.139   7.586
 3722SOL    HW212608   0.933   3.988   7.590
 3723SOL     OW12609   1.649   4.295   9.274
 3723SOL    HW112610   1.647   4.375   9.221
 3723SOL    HW212611   1.702   4.233   9.222
 3724SOL     OW12612   1.368   4.854   7.981
 3724SOL    HW112613   1.453   4.843   7.937
 3724SOL    HW212614   1.325   4.924   7.932
 3725SOL     OW12615   0.554   3.904   8.336
 3725SOL    HW112616   0.560   3.979   8.395
 3725SOL    HW212617   0.546   3.942   8.249
 3726SOL     OW12618   1.002   5.170   7.922
 3726SOL    HW112619   0.972   5.242   7.866
 3726SOL    HW212620   0.972   5.195   8.010
 3727SOL     OW12621   0.343   5.538   8.372
 3727SOL    HW112622   0.399   5.461   8.366
 3727SOL    HW212623   0.359   5.586   8.292
 3728SOL     OW12624   1.792   4.782   8.341
 3728SOL    HW112625   1.745   4.770   8.258
 3728SOL    HW212626   1.723   4.782   8.408
 3729SOL     OW12627   1.238   5.274   8.983
 3729SOL    HW112628   1.190   5.192   8.994
 3729SOL    HW212629   1.207   5.309   8.899
 3730SOL     OW12630   0.308   4.660   7.688
 3730SOL    HW112631   0.390   4.690   7.649
 3730SOL    HW212632   0.283   4.584   7.636
 3731SOL     OW12633   1.460   4.475   8.197
 3731SOL    HW112634   1.479   4.421   8.274
 3731SOL    HW212635   1.543   4.517   8.176
 3732SOL     OW12636   0.468   4.974   9.184
 3732SOL    HW112637   0.440   4.984   9.093
 3732SOL    HW212638   0.387   4.968   9.234
 3733SOL     OW12639   1.126   5.501   7.676
 3733SOL    HW112640   1.051   5.461   7.718
 3733SOL    HW212641   1.151   5.439   7.607
 3734SOL     OW12642   0.242   4.051   8.970
 3734SOL    HW112643   0.176   4.106   8.928
 3734SOL    HW212644   0.192   3.978   9.007
 3735SOL     OW12645   1.629   5.116   7.555
 3735SOL    HW112646   1.590   5.199   7.526
 3735SOL    HW212647   1.567   5.049   7.527
 3736SOL     OW12648   0.492   5.494   7.723
 3736SOL    HW112649   0.517   5.510   7.814
 3736SOL    HW212650   0.555   5.429   7.691
 3737SOL     OW12651   1.400   3.828   7.894
 3737SOL    HW112652   1.393   3.805   7.801
 3737SOL    HW212653   1.494   3.840   7.909
 3738SOL     OW12654   0.246   5.503   8.665
 3738SOL    HW112655   0.296   5.430   8.702
 3738SOL    HW212656   0.264   5.499   8.571
 3739SOL     OW12657   0.947   5.424   8.344
 3739SOL    HW112658   1.031   5.380   8.356
 3739SOL    HW212659   0.903   5.375   8.275
 3740SOL     OW12660   0.409   4.413   7.940
 3740SOL    HW112661   0.432   4.320   7.947
 3740SOL    HW212662   0.314   4.415   7.953
 3741SOL     OW12663   1.520   3.954   9.176
 3741SOL    HW112664   1.516   3.971   9.270
 3741SOL    HW212665   1.483   3.866   9.166
 3742SOL     OW12666   0.647   3.825   7.561
 3742SOL    HW112667   0.728   3.775   7.548
 3742SOL    HW212668   0.592   3.801   7.486
 3743SOL     OW12669   0.763   4.002   9.206
 3743SOL    HW112670   0.846   3.954   9.200
 3743SOL    HW212671   0.718   3.964   9.281
 3744SOL     OW12672   0.865   5.230   8.644
 3744SOL    HW112673   0.849   5.201   8.554
 3744SOL    HW212674   0.955   5.202   8.663
 3745SOL     OW12675   1.334   4.315   8.878
 3745SOL    HW112676   1.374   4.287   8.960
 3745SOL    HW212677   1.374   4.400   8.859
 3746SOL     OW12678   0.818   5.111   8.393
 3746SOL    HW112679   0.905   5.106   8.354
 3746SOL    HW212680   0.758   5.123   8.319
 3747SOL     OW12681   0.927   4.231   8.342
 3747SOL    HW112682   0.904   4.221   8.249
 3747SOL    HW212683   0.957   4.144   8.368
 3748SOL     OW12684   0.565   3.788   7.942
 3748SOL    HW112685   0.483   3.788   7.991
 3748SOL    HW212686   0.558   3.863   7.884
 3749SOL     OW12687   1.436   4.933   7.490
 3749SOL    HW112688   1.462   4.854   7.537
 3749SOL    HW212689   1.347   4.950   7.519
 3750SOL     OW12690   0.281   3.778   7.623
 3750SOL    HW112691   0.330   3.844   7.573
 3750SOL    HW212692   0.349   3.727   7.667
 3751SOL     OW12693   0.942   3.978   7.902
 3751SOL    HW112694   0.917   4.009   7.815
 3751SOL    HW212695   1.037   3.987   7.904
 3752SOL     OW12696   1.080   4.410   8.903
 3752SOL    HW112697   1.017   4.338   8.894
 3752SOL    HW212698   1.166   4.369   8.892
 3753SOL     OW12699   1.220   5.314   8.259
 3753SOL    HW112700   1.235   5.366   8.180
 3753SOL    HW212701   1.294   5.335   8.316
 3754SOL     OW12702   0.475   4.873   8.168
 3754SOL    HW112703   0.411   4.855   8.236
 3754SOL    HW212704   0.427   4.862   8.086
 3755SOL     OW12705   1.260   5.514   8.055
 3755SOL    HW112706   1.310   5.574   7.999
 3755SOL    HW212707   1.195   5.569   8.098
 3756SOL     OW12708   1.014   4.262   7.479
 3756SOL    HW112709   0.973   4.344   7.450
 3756SOL    HW212710   1.095   4.290   7.523
 3757SOL     OW12711   0.126   4.275   8.851
 3757SOL    HW112712   0.207   4.304   8.809
 3757SOL    HW212713   0.100   4.348   8.907
 3758SOL     OW12714   0.562   3.936   8.646
 3758SOL    HW112715   0.613   3.860   8.618
 3758SOL    HW212716   0.472   3.913   8.625
 3759SOL     OW12717   0.887   4.199   8.072
 3759SOL    HW112718   0.823   4.241   8.015
 3759SOL    HW212719   0.904   4.114   8.030
 3760SOL     OW12720   0.997   3.794   8.206
 3760SOL    HW112721   0.950   3.783   8.124
 3760SOL    HW212722   0.986   3.710   8.252
 3761SOL     OW12723   1.455   4.885   8.295
 3761SOL    HW112724   1.376   4.852   8.253
 3761SOL    HW212725   1.516   4.901   8.223
 3762SOL     OW12726   1.452   4.328   8.435
 3762SOL    HW112727   1.413   4.242   8.420
 3762SOL    HW212728   1.510   4.316   8.509
 3763SOL     OW12729   1.836   4.540   7.831
 3763SOL    HW112730   1.892   4.489   7.889
 3763SOL    HW212731   1.803   4.477   7.766
 3764SOL     OW12732   0.490   5.141   7.588
 3764SOL    HW112733   0.413   5.111   7.635
 3764SOL    HW212734   0.491   5.087   7.508
 3765SOL     OW12735   1.664   4.976   8.115
 3765SOL    HW112736   1.759   4.974   8.124
 3765SOL    HW212737   1.641   5.069   8.119
 3766SOL     OW12738   1.398   4.303   7.514
 3766SOL    HW112739   1.348   4.269   7.589
 3766SOL    HW212740   1.488   4.276   7.530
 3767SOL     OW12741   0.534   3.982   7.758
 3767SOL    HW112742   0.577   3.930   7.690
 3767SOL    HW212743   0.512   4.064   7.716
 3768SOL     OW12744   1.771   4.996   9.058
 3768SOL    HW112745   1.834   4.933   9.024
 3768SOL    HW212746   1.817   5.080   9.057
 3769SOL     OW12747   1.069   5.056   8.769
 3769SOL    HW112748   0.987   5.040   8.815
 3769SOL    HW212749   1.136   5.018   8.826
 3770SOL     OW12750   1.606   5.302   9.110
 3770SOL    HW112751   1.581   5.346   9.029
 3770SOL    HW212752   1.702   5.296   9.105
 3771SOL     OW12753   1.099   4.902   8.541
 3771SOL    HW112754   1.072   4.962   8.611
 3771SOL    HW212755   1.096   4.956   8.462
 3772SOL     OW12756   1.601   4.813   8.535
 3772SOL    HW112757   1.585   4.872   8.609
 3772SOL    HW212758   1.535   4.838   8.470
 3773SOL     OW12759   0.910   3.818   8.836
 3773SOL    HW112760   0.933   3.795   8.746
 3773SOL    HW212761   0.990   3.856   8.873
 3774SOL     OW12762   0.983   4.829   9.177
 3774SOL    HW112763   0.892   4.851   9.196
 3774SOL    HW212764   0.979   4.754   9.118
 3775SOL     OW12765   0.710   4.784   7.823
 3775SOL    HW112766   0.695   4.763   7.915
 3775SOL    HW212767   0.792   4.740   7.801
 3776SOL     OW12768   0.430   4.529   8.701
 3776SOL    HW112769   0.496   4.550   8.767
 3776SOL    HW212770   0.413   4.436   8.712
 3777SOL     OW12771   1.260   4.090   8.737
 3777SOL    HW112772   1.295   4.171   8.774
 3777SOL    HW212773   1.171   4.113   8.708
 3778SOL     OW12774   0.064   5.315   8.788
 3778SOL    HW112775   0.096   5.388   8.735
 3778SOL    HW212776   0.141   5.284   8.835
 3779SOL     OW12777   0.329   4.838   7.932
 3779SOL    HW112778   0.331   4.908   7.867
 3779SOL    HW212779   0.333   4.757   7.880
 3780SOL     OW12780   0.573   4.244   8.306
 3780SOL    HW112781   0.580   4.303   8.230
 3780SOL    HW212782   0.633   4.282   8.370
 3781SOL     OW12783   1.245   5.070   7.847
 3781SOL    HW112784   1.304   5.141   7.872
 3781SOL    HW212785   1.159   5.099   7.877
 3782SOL     OW12786   1.286   5.167   8.599
 3782SOL    HW112787   1.277   5.259   8.624
 3782SOL    HW212788   1.213   5.123   8.642
 3783SOL     OW12789   1.595   4.331   7.940
 3783SOL    HW112790   1.568   4.419   7.965
 3783SOL    HW212791   1.644   4.342   7.859
 3784SOL     OW12792   0.348   5.255   8.762
 3784SOL    HW112793   0.333   5.211   8.679
 3784SOL    HW212794   0.444   5.265   8.766
 3785SOL     OW12795   0.431   4.480   9.064
 3785SOL    HW112796   0.491   4.520   9.001
 3785SOL    HW212797   0.479   4.405   9.098
 3786SOL     OW12798   1.597   4.520   9.133
 3786SOL    HW112799   1.515   4.567   9.116
 3786SOL    HW212800   1.657   4.552   9.066
 3787SOL     OW12801   0.997   3.863   9.199
 3787SOL    HW112802   1.058   3.934   9.179
 3787SOL    HW212803   1.043   3.783   9.173
 3788SOL     OW12804   0.503   3.767   9.201
 3788SOL    HW112805   0.452   3.712   9.141
 3788SOL    HW212806   0.446   3.842   9.218
 3789SOL     OW12807   0.604   4.591   8.486
 3789SOL    HW112808   0.627   4.684   8.478
 3789SOL    HW212809   0.534   4.590   8.552
 3790SOL     OW12810   1.354   4.575   8.496
 3790SOL    HW112811   1.318   4.596   8.410
 3790SOL    HW212812   1.393   4.489   8.486
 3791SOL     OW12813   1.207   4.244   7.714
 3791SOL    HW112814   1.213   4.162   7.762
 3791SOL    HW212815   1.183   4.309   7.780
 3792SOL     OW12816   0.296   3.913   8.718
 3792SOL    HW112817   0.203   3.934   8.719
 3792SOL    HW212818   0.299   3.818   8.712
 3793SOL     OW12819   0.021   5.039   8.722
 3793SOL    HW112820   0.053   4.978   8.788
 3793SOL    HW212821   0.049   5.125   8.753
 3794SOL     OW12822   0.728   4.348   8.515
 3794SOL    HW112823   0.804   4.339   8.457
 3794SOL    HW212824   0.696   4.437   8.499
 3795SOL     OW12825   1.740   4.676   9.318
 3795SOL    HW112826   1.698   4.623   9.251
 3795SOL    HW212827   1.670   4.697   9.380
 3796SOL     OW12828   0.330   3.804   8.066
 3796SOL    HW112829   0.288   3.888   8.086
 3796SOL    HW212830   0.308   3.748   8.141
 3797SOL     OW12831   1.596   4.080   7.818
 3797SOL    HW112832   1.645   4.018   7.872
 3797SOL    HW212833   1.592   4.160   7.871
 3798SOL     OW12834   1.039   4.476   8.380
 3798SOL    HW112835   1.045   4.501   8.472
 3798SOL    HW212836   1.011   4.384   8.381
 3799SOL     OW12837   0.969   5.286   9.165
 3799SOL    HW112838   0.962   5.332   9.081
 3799SOL    HW212839   1.019   5.207   9.146
 3800SOL     OW12840   1.866   5.249   9.049
 3800SOL    HW112841   1.885   5.267   8.957
 3800SOL    HW212842   1.950   5.258   9.094
 3801SOL     OW12843   0.358   4.661   9.265
 3801SOL    HW112844   0.443   4.688   9.299
 3801SOL    HW212845   0.379   4.595   9.198
 3802SOL     OW12846   1.509   3.998   7.573
 3802SOL    HW112847   1.451   3.927   7.600
 3802SOL    HW212848   1.547   4.031   7.655
 3803SOL     OW12849   1.291   4.553   7.477
 3803SOL    HW112850   1.333   4.467   7.478
 3803SOL    HW212851   1.319   4.593   7.395
 3804SOL     OW12852   1.076   5.075   8.318
 3804SOL    HW112853   1.084   5.005   8.253
 3804SOL    HW212854   1.135   5.144   8.287
 3805SOL     OW12855   0.311   4.534   8.381
 3805SOL    HW112856   0.404   4.544   8.359
 3805SOL    HW212857   0.304   4.445   8.415
 3806SOL     OW12858   0.349   4.264   8.448
 3806SOL    HW112859   0.297   4.185   8.433
 3806SOL    HW212860   0.423   4.256   8.387
 3807SOL     OW12861   1.143   4.099   9.138
 3807SOL    HW112862   1.092   4.154   9.197
 3807SOL    HW212863   1.228   4.143   9.132
 3808SOL     OW12864   1.153   3.918   8.925
 3808SOL    HW112865   1.148   3.984   8.994
 3808SOL    HW212866   1.199   3.961   8.853
 3809SOL     OW12867   7.988   5.035   7.649
 3809SOL    HW112868   7.896   5.050   7.673
 3809SOL    HW212869   8.001   4.941   7.661
 3810SOL     OW12870   0.087   5.449   8.382
 3810SOL    HW112871   0.092   5.405   8.297
 3810SOL    HW212872   0.169   5.498   8.388
 3811SOL     OW12873   0.497   5.299   8.366
 3811SOL    HW112874   0.565   5.362   8.385
 3811SOL    HW212875   0.536   5.239   8.302
 3812SOL     OW12876   0.978   4.506   8.655
 3812SOL    HW112877   1.038   4.496   8.729
 3812SOL    HW212878   0.896   4.468   8.685
 3813SOL     OW12879   0.070   4.271   8.581
 3813SOL    HW112880   0.079   4.180   8.555
 3813SOL    HW212881   0.059   4.269   8.676
 3814SOL     OW12882   0.188   4.255   9.165
 3814SOL    HW112883   0.216   4.193   9.097
 3814SOL    HW212884   0.162   4.333   9.116
 3815SOL     OW12885   1.364   4.674   9.093
 3815SOL    HW112886   1.345   4.767   9.079
 3815SOL    HW212887   1.372   4.639   9.004
 3816SOL     OW12888   0.810   4.299   7.797
 3816SOL    HW112889   0.814   4.223   7.740
 3816SOL    HW212890   0.733   4.347   7.768
 3817SOL     OW12891   1.613   4.317   8.653
 3817SOL    HW112892   1.610   4.256   8.726
 3817SOL    HW212893   1.700   4.304   8.614
 3818SOL     OW12894   0.342   5.265   9.204
 3818SOL    HW112895   0.280   5.322   9.248
 3818SOL    HW212896   0.289   5.195   9.167
 3819SOL     OW12897   0.694   4.167   8.714
 3819SOL    HW112898   0.653   4.089   8.676
 3819SOL    HW212899   0.693   4.232   8.643
 3820SOL     OW12900   0.914   5.402   8.926
 3820SOL    HW112901   0.922   5.360   8.840
 3820SOL    HW212902   0.923   5.495   8.907
 3821SOL     OW12903   0.472   4.210   7.633
 3821SOL    HW112904   0.516   4.295   7.639
 3821SOL    HW212905   0.383   4.227   7.664
 3822SOL     OW12906   0.148   4.863   8.907
 3822SOL    HW112907   0.130   4.816   8.988
 3822SOL    HW212908   0.163   4.794   8.842
 3823SOL     OW12909   1.294   4.764   8.677
 3823SOL    HW112910   1.326   4.700   8.613
 3823SOL    HW212911   1.226   4.812   8.629
 3824SOL     OW12912   1.317   4.571   7.749
 3824SOL    HW112913   1.228   4.577   7.785
 3824SOL    HW212914   1.303   4.563   7.655
 3825SOL     OW12915   1.794   5.468   8.621
 3825SOL    HW112916   1.848   5.489   8.545
 3825SOL    HW212917   1.750   5.386   8.597
 3826SOL     OW12918   0.077   4.948   8.469
 3826SOL    HW112919   0.060   4.977   8.558
 3826SOL    HW212920  -0.009   4.947   8.427
 3827SOL     OW12921   0.698   5.396   9.166
 3827SOL    HW112922   0.672   5.431   9.080
 3827SOL    HW212923   0.792   5.380   9.158
 3828SOL     OW12924   1.721   3.878   7.951
 3828SOL    HW112925   1.794   3.865   7.891
 3828SOL    HW212926   1.707   3.793   7.992
 3829SOL     OW12927   1.396   5.290   7.941
 3829SOL    HW112928   1.453   5.323   7.872
 3829SOL    HW212929   1.343   5.366   7.967
 3830SOL     OW12930   0.188   5.476   9.305
 3830SOL    HW112931   0.119   5.414   9.329
 3830SOL    HW212932   0.189   5.540   9.375
 3831SOL     OW12933   1.265   4.630   8.099
 3831SOL    HW112934   1.344   4.582   8.124
 3831SOL    HW212935   1.298   4.708   8.054
 3832SOL     OW12936   0.812   5.004   8.872
 3832SOL    HW112937   0.778   5.042   8.953
 3832SOL    HW212938   0.753   5.036   8.803
 3833SOL     OW12939   0.683   5.334   7.597
 3833SOL    HW112940   0.691   5.355   7.504
 3833SOL    HW212941   0.621   5.261   7.599
 3834SOL     OW12942   1.638   5.450   8.860
 3834SOL    HW112943   1.688   5.454   8.778
 3834SOL    HW212944   1.613   5.540   8.877
 3835SOL     OW12945   1.817   3.893   8.424
 3835SOL    HW112946   1.859   3.811   8.398
 3835SOL    HW212947   1.739   3.898   8.369
 3836SOL     OW12948   0.254   4.049   8.158
 3836SOL    HW112949   0.168   4.078   8.128
 3836SOL    HW212950   0.248   4.050   8.253
 3837SOL     OW12951   1.205   5.323   7.482
 3837SOL    HW112952   1.197   5.230   7.502
 3837SOL    HW212953   1.146   5.337   7.408
 3838SOL     OW12954   0.829   4.735   8.819
 3838SOL    HW112955   0.866   4.730   8.731
 3838SOL    HW212956   0.822   4.829   8.837
 3839SOL     OW12957   0.943   4.657   7.771
 3839SOL    HW112958   0.984   4.686   7.689
 3839SOL    HW212959   0.963   4.563   7.776
 3840SOL     OW12960   1.483   5.370   7.497
 3840SOL    HW112961   1.392   5.350   7.478
 3840SOL    HW212962   1.526   5.370   7.411
 3841SOL     OW12963   0.370   5.026   8.941
 3841SOL    HW112964   0.359   5.103   8.884
 3841SOL    HW212965   0.295   4.971   8.922
 3842SOL     OW12966   1.592   4.983   8.755
 3842SOL    HW112967   1.687   4.996   8.754
 3842SOL    HW212968   1.557   5.070   8.776
 3843SOL     OW12969   1.057   4.854   8.163
 3843SOL    HW112970   0.985   4.801   8.195
 3843SOL    HW212971   1.067   4.828   8.071
 3844SOL     OW12972   1.015   3.968   8.423
 3844SOL    HW112973   1.010   3.924   8.338
 3844SOL    HW212974   1.016   3.897   8.487
 3845SOL     OW12975   0.601   5.219   7.942
 3845SOL    HW112976   0.651   5.169   7.877
 3845SOL    HW212977   0.513   5.222   7.906
 3846SOL     OW12978   1.730   4.119   8.846
 3846SOL    HW112979   1.803   4.180   8.838
 3846SOL    HW212980   1.749   4.050   8.782
 3847SOL     OW12981   0.256   5.061   7.730
 3847SOL    HW112982   0.161   5.063   7.717
 3847SOL    HW212983   0.271   5.114   7.809
 3848SOL     OW12984   0.110   4.729   9.155
 3848SOL    HW112985   0.070   4.809   9.190
 3848SOL    HW212986   0.190   4.719   9.206
 3849SOL     OW12987   0.671   3.924   8.950
 3849SOL    HW112988   0.751   3.900   8.905
 3849SOL    HW212989   0.699   3.950   9.038
 3850SOL     OW12990   0.096   4.070   7.468
 3850SOL    HW112991   0.030   4.113   7.523
 3850SOL    HW212992   0.120   4.136   7.403
 3851SOL     OW12993   1.419   4.582   8.845
 3851SOL    HW112994   1.366   4.639   8.789
 3851SOL    HW212995   1.506   4.583   8.805
 3852SOL     OW12996   0.094   3.973   7.802
 3852SOL    HW112997   0.035   3.974   7.726
 3852SOL    HW212998   0.166   3.916   7.775
 3853SOL     OW12999   1.178   5.053   7.567
 3853SOL    HW113000   1.083   5.039   7.562
 3853SOL    HW213001   1.198   5.051   7.661
 3854SOL     OW13002   0.628   4.557   8.887
 3854SOL    HW113003   0.682   4.634   8.868
 3854SOL    HW213004   0.690   4.485   8.890
 3855SOL     OW13005   1.494   5.481   8.354
 3855SOL    HW113006   1.529   5.564   8.322
 3855SOL    HW213007   1.526   5.475   8.444
 3856SOL     OW13008   0.705   4.278   9.146
 3856SOL    HW113009   0.754   4.338   9.201
 3856SOL    HW213010   0.728   4.191   9.179
 3857SOL     OW13011   0.387   5.490   9.056
 3857SOL    HW113012   0.300   5.506   9.019
 3857SOL    HW213013   0.385   5.399   9.084
 3858SOL     OW13014   1.655   4.598   8.709
 3858SOL    HW113015   1.656   4.513   8.665
 3858SOL    HW213016   1.646   4.662   8.638
 3859SOL     OW13017   1.212   4.037   7.911
 3859SOL    HW113018   1.277   3.969   7.900
 3859SOL    HW213019   1.241   4.087   7.986
 3860SOL     OW13020   0.599   4.459   8.131
 3860SOL    HW113021   0.634   4.547   8.113
 3860SOL    HW213022   0.533   4.445   8.063
 3861SOL     OW13023   1.749   4.092   9.117
 3861SOL    HW113024   1.750   4.107   9.023
 3861SOL    HW213025   1.679   4.029   9.131
 3862SOL     OW13026   1.754   4.650   8.956
 3862SOL    HW113027   1.806   4.730   8.947
 3862SOL    HW213028   1.725   4.630   8.868
 3863SOL     OW13029   0.885   5.098   7.506
 3863SOL    HW113030   0.825   5.144   7.564
 3863SOL    HW213031   0.900   5.158   7.433
 3864SOL     OW13032   0.668   5.508   8.399
 3864SOL    HW113033   0.646   5.596   8.370
 3864SOL    HW213034   0.762   5.500   8.382
 3865SOL     OW13035   0.872   4.695   8.304
 3865SOL    HW113036   0.919   4.627   8.352
 3865SOL    HW213037   0.830   4.747   8.372
 3866SOL     OW13038   1.072   4.706   7.541
 3866SOL    HW113039   1.048   4.760   7.466
 3866SOL    HW213040   1.148   4.655   7.511
 3867SOL     OW13041   1.851   5.273   8.292
 3867SOL    HW113042   1.769   5.264   8.243
 3867SOL    HW213043   1.866   5.186   8.330
 3868SOL     OW13044   0.221   4.996   9.306
 3868SOL    HW113045   0.131   5.008   9.275
 3868SOL    HW213046   0.216   5.008   9.401
 3869SOL     OW13047   0.134   4.988   8.094
 3869SOL    HW113048   0.066   4.936   8.135
 3869SOL    HW213049   0.194   4.924   8.055
 3870SOL     OW13050   0.686   5.122   9.088
 3870SOL    HW113051   0.601   5.084   9.110
 3870SOL    HW213052   0.677   5.215   9.110
 3871SOL     OW13053   1.782   3.898   8.697
 3871SOL    HW113054   1.833   3.818   8.709
 3871SOL    HW213055   1.791   3.919   8.604
 3872SOL     OW13056   0.459   4.150   7.989
 3872SOL    HW113057   0.472   4.088   7.917
 3872SOL    HW213058   0.388   4.113   8.041
 3873SOL     OW13059   1.682   5.228   8.569
 3873SOL    HW113060   1.613   5.202   8.509
 3873SOL    HW213061   1.733   5.148   8.584
 3874SOL     OW13062   0.365   4.235   8.715
 3874SOL    HW113063   0.302   4.163   8.712
 3874SOL    HW213064   0.371   4.265   8.624
 3875SOL     OW13065   0.833   5.312   8.119
 3875SOL    HW113066   0.826   5.385   8.058
 3875SOL    HW213067   0.756   5.258   8.103
 3876SOL     OW13068   1.431   3.956   8.563
 3876SOL    HW113069   1.472   3.878   8.601
 3876SOL    HW213070   1.382   3.995   8.635
 3877SOL     OW13071   1.006   3.734   8.582
 3877SOL    HW113072   0.958   3.671   8.528
 3877SOL    HW213073   1.095   3.700   8.587
 3878SOL     OW13074   0.758   5.059   7.788
 3878SOL    HW113075   0.735   4.966   7.783
 3878SOL    HW213076   0.852   5.060   7.806
 3879SOL     OW13077   0.620   5.278   8.746
 3879SOL    HW113078   0.627   5.359   8.798
 3879SOL    HW213079   0.706   5.268   8.706
 3880SOL     OW13080   1.354   3.775   7.628
 3880SOL    HW113081   1.390   3.713   7.565
 3880SOL    HW213082   1.266   3.742   7.646
 3881SOL     OW13083   1.270   4.206   8.132
 3881SOL    HW113084   1.356   4.248   8.128
 3881SOL    HW213085   1.273   4.156   8.214
 3882SOL     OW13086   1.565   3.925   8.316
 3882SOL    HW113087   1.520   3.951   8.396
 3882SOL    HW213088   1.564   4.003   8.261
 3883SOL     OW13089   0.058   4.779   7.713
 3883SOL    HW113090   0.147   4.743   7.704
 3883SOL    HW213091   0.031   4.752   7.801
 3884SOL     OW13092   0.892   5.383   7.786
 3884SOL    HW113093   0.820   5.364   7.726
 3884SOL    HW213094   0.861   5.456   7.839
 3885SOL     OW13095   0.253   4.387   9.400
 3885SOL    HW113096   0.166   4.404   9.437
 3885SOL    HW213097   0.235   4.348   9.314
 3886SOL     OW13098   0.238   3.995  10.294
 3886SOL    HW113099   0.262   3.965  10.382
 3886SOL    HW213100   0.154   3.954  10.277
 3887SOL     OW13101   7.997   4.118   9.920
 3887SOL    HW113102   7.909   4.108   9.956
 3887SOL    HW213103   8.000   4.056   9.846
 3888SOL     OW13104   0.569   5.011  10.486
 3888SOL    HW113105   0.481   5.009  10.450
 3888SOL    HW213106   0.586   5.103  10.503
 3889SOL     OW13107   1.574   5.234  10.018
 3889SOL    HW113108   1.528   5.218  10.100
 3889SOL    HW213109   1.504   5.242   9.953
 3890SOL     OW13110   1.136   4.419   9.992
 3890SOL    HW113111   1.179   4.504   9.993
 3890SOL    HW213112   1.082   4.419  10.072
 3891SOL     OW13113   1.730   4.313   9.532
 3891SOL    HW113114   1.718   4.318   9.437
 3891SOL    HW213115   1.781   4.233   9.545
 3892SOL     OW13116   0.772   4.864  10.387
 3892SOL    HW113117   0.691   4.899  10.425
 3892SOL    HW213118   0.804   4.934  10.330
 3893SOL     OW13119   0.878   4.485  11.149
 3893SOL    HW113120   0.876   4.550  11.220
 3893SOL    HW213121   0.895   4.536  11.070
 3894SOL     OW13122   0.688   4.716   9.952
 3894SOL    HW113123   0.753   4.709  10.022
 3894SOL    HW213124   0.621   4.775   9.987
 3895SOL     OW13125   0.710   4.870  11.121
 3895SOL    HW113126   0.755   4.947  11.157
 3895SOL    HW213127   0.629   4.904  11.084
 3896SOL     OW13128   0.339   5.159  10.403
 3896SOL    HW113129   0.268   5.114  10.356
 3896SOL    HW213130   0.385   5.208  10.335
 3897SOL     OW13131   1.465   5.230  10.673
 3897SOL    HW113132   1.521   5.307  10.681
 3897SOL    HW213133   1.398   5.242  10.740
 3898SOL     OW13134   0.447   4.118  10.805
 3898SOL    HW113135   0.529   4.067  10.806
 3898SOL    HW213136   0.378   4.052  10.812
 3899SOL     OW13137   1.588   4.168  10.042
 3899SOL    HW113138   1.500   4.174  10.005
 3899SOL    HW213139   1.585   4.224  10.119
 3900SOL     OW13140   0.232   5.418   9.796
 3900SOL    HW113141   0.221   5.505   9.836
 3900SOL    HW213142   0.300   5.430   9.730
 3901SOL     OW13143   1.132   5.066  11.001
 3901SOL    HW113144   1.181   5.059  11.083
 3901SOL    HW213145   1.082   4.985  10.996
 3902SOL     OW13146   0.294   5.158   9.836
 3902SOL    HW113147   0.267   5.250   9.841
 3902SOL    HW213148   0.239   5.113   9.900
 3903SOL     OW13149   0.289   4.811  10.230
 3903SOL    HW113150   0.272   4.718  10.247
 3903SOL    HW213151   0.210   4.856  10.259
 3904SOL     OW13152   0.602   5.519  10.720
 3904SOL    HW113153   0.526   5.496  10.773
 3904SOL    HW213154   0.630   5.605  10.754
 3905SOL     OW13155   0.594   4.714   9.441
 3905SOL    HW113156   0.639   4.766   9.375
 3905SOL    HW213157   0.629   4.747   9.524
 3906SOL     OW13158   1.601   3.850  10.777
 3906SOL    HW113159   1.607   3.931  10.727
 3906SOL    HW213160   1.571   3.877  10.864
 3907SOL     OW13161   0.155   4.353   9.918
 3907SOL    HW113162   0.092   4.280   9.919
 3907SOL    HW213163   0.112   4.422   9.968
 3908SOL     OW13164   1.845   5.478   9.645
 3908SOL    HW113165   1.917   5.456   9.705
 3908SOL    HW213166   1.861   5.569   9.620
 3909SOL     OW13167   0.018   5.306   9.435
 3909SOL    HW113168   0.005   5.211   9.432
 3909SOL    HW213169   0.002   5.330   9.526
 3910SOL     OW13170   1.701   4.635   9.927
 3910SOL    HW113171   1.755   4.589   9.862
 3910SOL    HW213172   1.662   4.708   9.878
 3911SOL     OW13173   1.646   4.839   9.734
 3911SOL    HW113174   1.734   4.832   9.695
 3911SOL    HW213175   1.657   4.899   9.807
 3912SOL     OW13176   0.147   4.483  10.896
 3912SOL    HW113177   0.243   4.486  10.896
 3912SOL    HW213178   0.121   4.564  10.941
 3913SOL     OW13179   0.611   5.112  10.050
 3913SOL    HW113180   0.565   5.028  10.052
 3913SOL    HW213181   0.599   5.144   9.960
 3914SOL     OW13182   1.287   4.951  10.731
 3914SOL    HW113183   1.324   4.887  10.670
 3914SOL    HW213184   1.347   4.950  10.806
 3915SOL     OW13185   0.809   3.722   9.790
 3915SOL    HW113186   0.858   3.804   9.792
 3915SOL    HW213187   0.719   3.747   9.807
 3916SOL     OW13188   0.186   4.650  10.587
 3916SOL    HW113189   0.271   4.614  10.565
 3916SOL    HW213190   0.138   4.652  10.504
 3917SOL     OW13191   1.522   4.734   9.503
 3917SOL    HW113192   1.456   4.674   9.539
 3917SOL    HW213193   1.566   4.770   9.580
 3918SOL     OW13194   1.172   5.541  10.936
 3918SOL    HW113195   1.185   5.608  10.869
 3918SOL    HW213196   1.210   5.462  10.898
 3919SOL     OW13197   0.358   3.978  11.140
 3919SOL    HW113198   0.409   4.054  11.169
 3919SOL    HW213199   0.267   4.001  11.160
 3920SOL     OW13200   1.463   5.142  10.260
 3920SOL    HW113201   1.397   5.156  10.328
 3920SOL    HW213202   1.449   5.051  10.233
 3921SOL     OW13203   1.655   5.481   9.887
 3921SOL    HW113204   1.639   5.446   9.799
 3921SOL    HW213205   1.635   5.407   9.945
 3922SOL     OW13206   0.595   4.453   9.568
 3922SOL    HW113207   0.637   4.512   9.506
 3922SOL    HW213208   0.520   4.502   9.602
 3923SOL     OW13209   1.298   4.099  10.243
 3923SOL    HW113210   1.205   4.075  10.248
 3923SOL    HW213211   1.341   4.038  10.303
 3924SOL     OW13212   1.581   5.392   9.622
 3924SOL    HW113213   1.672   5.421   9.614
 3924SOL    HW213214   1.550   5.384   9.532
 3925SOL     OW13215   0.777   4.368  10.767
 3925SOL    HW113216   0.761   4.328  10.853
 3925SOL    HW213217   0.757   4.298  10.705
 3926SOL     OW13218   1.397   4.201  10.986
 3926SOL    HW113219   1.402   4.242  11.072
 3926SOL    HW213220   1.444   4.118  10.997
 3927SOL     OW13221   0.938   4.593  10.887
 3927SOL    HW113222   1.027   4.559  10.874
 3927SOL    HW213223   0.881   4.530  10.842
 3928SOL     OW13224   0.997   4.153  10.559
 3928SOL    HW113225   0.906   4.142  10.586
 3928SOL    HW213226   1.002   4.107  10.475
 3929SOL     OW13227   1.062   4.416   9.723
 3929SOL    HW113228   1.081   4.411   9.817
 3929SOL    HW213229   0.978   4.372   9.713
 3930SOL     OW13230   0.069   4.539  10.095
 3930SOL    HW113231   0.145   4.549  10.152
 3930SOL    HW213232   0.034   4.628  10.085
 3931SOL     OW13233   0.119   5.496  10.868
 3931SOL    HW113234   0.134   5.509  10.962
 3931SOL    HW213235   0.030   5.528  10.853
 3932SOL     OW13236   0.900   4.080   9.509
 3932SOL    HW113237   0.942   4.138   9.445
 3932SOL    HW213238   0.894   3.995   9.465
 3933SOL     OW13239   1.721   4.301  11.144
 3933SOL    HW113240   1.678   4.372  11.096
 3933SOL    HW213241   1.735   4.233  11.079
 3934SOL     OW13242   1.379   4.862   9.841
 3934SOL    HW113243   1.461   4.858   9.791
 3934SOL    HW213244   1.326   4.927   9.795
 3935SOL     OW13245   0.547   3.894  10.212
 3935SOL    HW113246   0.555   3.926  10.301
 3935SOL    HW213247   0.562   3.971  10.157
 3936SOL     OW13248   0.998   5.169   9.776
 3936SOL    HW113249   0.969   5.243   9.722
 3936SOL    HW213250   0.972   5.192   9.865
 3937SOL     OW13251   0.366   5.552  10.177
 3937SOL    HW113252   0.417   5.472  10.184
 3937SOL    HW213253   0.429   5.622  10.190
 3938SOL     OW13254   1.804   4.716  10.181
 3938SOL    HW113255   1.750   4.728  10.103
 3938SOL    HW213256   1.751   4.751  10.253
 3939SOL     OW13257   1.231   5.269  10.825
 3939SOL    HW113258   1.217   5.195  10.884
 3939SOL    HW213259   1.149   5.278  10.777
 3940SOL     OW13260   0.356   4.633   9.576
 3940SOL    HW113261   0.417   4.680   9.519
 3940SOL    HW213262   0.304   4.580   9.516
 3941SOL     OW13263   1.484   4.479  10.027
 3941SOL    HW113264   1.482   4.429  10.108
 3941SOL    HW213265   1.569   4.522  10.026
 3942SOL     OW13266   0.469   4.982  11.024
 3942SOL    HW113267   0.433   5.001  10.937
 3942SOL    HW213268   0.393   4.971  11.080
 3943SOL     OW13269   1.123   5.500   9.538
 3943SOL    HW113270   1.045   5.461   9.579
 3943SOL    HW213271   1.147   5.438   9.469
 3944SOL     OW13272   0.194   3.986  10.806
 3944SOL    HW113273   0.153   4.055  10.859
 3944SOL    HW213274   0.172   3.905  10.851
 3945SOL     OW13275   1.626   5.104   9.363
 3945SOL    HW113276   1.594   5.192   9.382
 3945SOL    HW213277   1.551   5.047   9.380
 3946SOL     OW13278   0.461   5.459   9.633
 3946SOL    HW113279   0.507   5.513   9.697
 3946SOL    HW213280   0.530   5.420   9.580
 3947SOL     OW13281   1.404   3.833   9.747
 3947SOL    HW113282   1.396   3.800   9.657
 3947SOL    HW213283   1.494   3.813   9.773
 3948SOL     OW13284   0.286   5.454  10.520
 3948SOL    HW113285   0.352   5.523  10.511
 3948SOL    HW213286   0.234   5.460  10.439
 3949SOL     OW13287   0.947   5.420  10.207
 3949SOL    HW113288   1.034   5.380  10.213
 3949SOL    HW213289   0.903   5.371  10.138
 3950SOL     OW13290   1.518   3.946  11.036
 3950SOL    HW113291   1.528   3.968  11.129
 3950SOL    HW213292   1.454   3.874  11.035
 3951SOL     OW13293   0.653   3.841   9.414
 3951SOL    HW113294   0.702   3.763   9.441
 3951SOL    HW213295   0.599   3.811   9.342
 3952SOL     OW13296   0.756   4.009  11.072
 3952SOL    HW113297   0.838   3.960  11.062
 3952SOL    HW213298   0.720   3.976  11.155
 3953SOL     OW13299   0.846   5.219  10.507
 3953SOL    HW113300   0.839   5.194  10.415
 3953SOL    HW213301   0.936   5.196  10.530
 3954SOL     OW13302   1.342   4.319  10.744
 3954SOL    HW113303   1.372   4.282  10.828
 3954SOL    HW213304   1.385   4.404  10.738
 3955SOL     OW13305   0.817   5.101  10.252
 3955SOL    HW113306   0.903   5.097  10.210
 3955SOL    HW213307   0.756   5.113  10.179
 3956SOL     OW13308   0.894   4.280  10.185
 3956SOL    HW113309   0.878   4.259  10.093
 3956SOL    HW213310   0.929   4.199  10.222
 3957SOL     OW13311   0.548   3.791   9.801
 3957SOL    HW113312   0.469   3.790   9.855
 3957SOL    HW213313   0.537   3.867   9.744
 3958SOL     OW13314   1.422   4.930   9.315
 3958SOL    HW113315   1.450   4.852   9.363
 3958SOL    HW213316   1.335   4.949   9.349
 3959SOL     OW13317   0.288   3.773   9.485
 3959SOL    HW113318   0.347   3.843   9.455
 3959SOL    HW213319   0.346   3.713   9.532
 3960SOL     OW13320   0.943   3.976   9.772
 3960SOL    HW113321   0.923   4.011   9.685
 3960SOL    HW213322   1.038   3.983   9.780
 3961SOL     OW13323   1.083   4.402  10.740
 3961SOL    HW113324   1.031   4.321  10.740
 3961SOL    HW213325   1.174   4.372  10.742
 3962SOL     OW13326   1.210   5.305  10.113
 3962SOL    HW113327   1.223   5.363  10.038
 3962SOL    HW213328   1.282   5.325  10.173
 3963SOL     OW13329   0.474   4.870  10.036
 3963SOL    HW113330   0.409   4.855  10.105
 3963SOL    HW213331   0.425   4.860   9.954
 3964SOL     OW13332   1.259   5.514   9.924
 3964SOL    HW113333   1.311   5.575   9.871
 3964SOL    HW213334   1.193   5.570   9.966
 3965SOL     OW13335   1.021   4.264   9.337
 3965SOL    HW113336   0.970   4.340   9.309
 3965SOL    HW213337   1.093   4.300   9.389
 3966SOL     OW13338   0.095   4.322  10.687
 3966SOL    HW113339   0.185   4.301  10.665
 3966SOL    HW213340   0.101   4.382  10.761
 3967SOL     OW13341   0.565   3.959  10.481
 3967SOL    HW113342   0.614   3.886  10.519
 3967SOL    HW213343   0.475   3.945  10.512
 3968SOL     OW13344   0.846   4.202   9.931
 3968SOL    HW113345   0.826   4.239   9.845
 3968SOL    HW213346   0.876   4.113   9.912
 3969SOL     OW13347   1.051   3.741  10.018
 3969SOL    HW113348   0.987   3.811  10.002
 3969SOL    HW213349   1.025   3.704  10.102
 3970SOL     OW13350   1.442   4.882  10.165
 3970SOL    HW113351   1.372   4.818  10.151
 3970SOL    HW213352   1.478   4.898  10.078
 3971SOL     OW13353   1.469   4.325  10.266
 3971SOL    HW113354   1.408   4.252  10.272
 3971SOL    HW213355   1.522   4.318  10.345
 3972SOL     OW13356   1.828   4.517   9.712
 3972SOL    HW113357   1.895   4.470   9.763
 3972SOL    HW213358   1.812   4.461   9.636
 3973SOL     OW13359   0.486   5.146   9.457
 3973SOL    HW113360   0.411   5.111   9.505
 3973SOL    HW213361   0.463   5.134   9.365
 3974SOL     OW13362   1.676   4.976   9.966
 3974SOL    HW113363   1.771   4.972   9.976
 3974SOL    HW213364   1.654   5.068   9.981
 3975SOL     OW13365   0.523   3.990   9.615
 3975SOL    HW113366   0.577   3.943   9.551
 3975SOL    HW213367   0.499   4.071   9.571
 3976SOL     OW13368   1.748   4.968  10.868
 3976SOL    HW113369   1.835   4.931  10.855
 3976SOL    HW213370   1.763   5.058  10.897
 3977SOL     OW13371   1.072   5.079  10.636
 3977SOL    HW113372   0.996   5.064  10.693
 3977SOL    HW213373   1.146   5.040  10.683
 3978SOL     OW13374   1.606   5.349  10.964
 3978SOL    HW113375   1.602   5.389  10.877
 3978SOL    HW213376   1.689   5.301  10.964
 3979SOL     OW13377   1.077   4.905  10.426
 3979SOL    HW113378   1.086   4.981  10.484
 3979SOL    HW213379   1.083   4.942  10.338
 3980SOL     OW13380   1.632   4.824  10.375
 3980SOL    HW113381   1.622   4.883  10.449
 3980SOL    HW213382   1.556   4.843  10.319
 3981SOL     OW13383   0.908   3.829  10.711
 3981SOL    HW113384   0.932   3.789  10.627
 3981SOL    HW213385   0.990   3.865  10.745
 3982SOL     OW13386   0.977   4.835  11.018
 3982SOL    HW113387   0.890   4.853  11.055
 3982SOL    HW213388   0.965   4.756  10.965
 3983SOL     OW13389   0.713   4.787   9.682
 3983SOL    HW113390   0.699   4.767   9.774
 3983SOL    HW213391   0.787   4.732   9.656
 3984SOL     OW13392   0.433   4.536  10.551
 3984SOL    HW113393   0.491   4.555  10.624
 3984SOL    HW213394   0.401   4.447  10.568
 3985SOL     OW13395   1.270   4.099  10.592
 3985SOL    HW113396   1.299   4.178  10.639
 3985SOL    HW213397   1.179   4.118  10.568
 3986SOL     OW13398   0.058   5.319  10.648
 3986SOL    HW113399   0.092   5.379  10.582
 3986SOL    HW213400   0.069   5.365  10.731
 3987SOL     OW13401   0.337   4.831   9.792
 3987SOL    HW113402   0.336   4.908   9.735
 3987SOL    HW213403   0.352   4.758   9.732
 3988SOL     OW13404   0.559   4.271  10.169
 3988SOL    HW113405   0.582   4.276  10.077
 3988SOL    HW213406   0.642   4.257  10.215
 3989SOL     OW13407   1.247   5.074   9.701
 3989SOL    HW113408   1.302   5.146   9.731
 3989SOL    HW213409   1.159   5.097   9.731
 3990SOL     OW13410   1.290   5.183  10.473
 3990SOL    HW113411   1.360   5.197  10.537
 3990SOL    HW213412   1.217   5.148  10.523
 3991SOL     OW13413   1.542   4.366   9.766
 3991SOL    HW113414   1.505   4.398   9.848
 3991SOL    HW213415   1.618   4.422   9.750
 3992SOL     OW13416   0.421   4.446  10.921
 3992SOL    HW113417   0.474   4.493  10.856
 3992SOL    HW213418   0.471   4.367  10.940
 3993SOL     OW13419   1.610   4.508  11.005
 3993SOL    HW113420   1.522   4.546  10.997
 3993SOL    HW213421   1.660   4.550  10.935
 3994SOL     OW13422   0.984   3.865  11.045
 3994SOL    HW113423   1.053   3.930  11.029
 3994SOL    HW213424   1.030   3.781  11.046
 3995SOL     OW13425   0.506   3.757  11.061
 3995SOL    HW113426   0.459   3.706  10.996
 3995SOL    HW213427   0.452   3.836  11.074
 3996SOL     OW13428   0.574   4.596  10.329
 3996SOL    HW113429   0.576   4.691  10.323
 3996SOL    HW213430   0.527   4.578  10.410
 3997SOL     OW13431   1.343   4.574  10.326
 3997SOL    HW113432   1.264   4.557  10.275
 3997SOL    HW213433   1.394   4.494  10.319
 3998SOL     OW13434   1.249   4.253   9.591
 3998SOL    HW113435   1.227   4.172   9.637
 3998SOL    HW213436   1.190   4.318   9.629
 3999SOL     OW13437   0.303   3.916  10.557
 3999SOL    HW113438   0.262   3.947  10.638
 3999SOL    HW213439   0.287   3.821  10.557
 4000SOL     OW13440   0.080   5.043  10.587
 4000SOL    HW113441   0.090   4.984  10.661
 4000SOL    HW213442   0.062   5.128  10.627
 4001SOL     OW13443   0.749   4.384  10.391
 4001SOL    HW113444   0.800   4.349  10.317
 4001SOL    HW213445   0.691   4.449  10.351
 4002SOL     OW13446   1.743   4.682  11.177
 4002SOL    HW113447   1.700   4.615  11.124
 4002SOL    HW213448   1.679   4.703  11.245
 4003SOL     OW13449   0.311   3.796   9.929
 4003SOL    HW113450   0.275   3.882   9.954
 4003SOL    HW213451   0.319   3.749  10.011
 4004SOL     OW13452   1.612   4.092   9.704
 4004SOL    HW113453   1.650   4.013   9.743
 4004SOL    HW213454   1.616   4.157   9.773
 4005SOL     OW13455   1.035   4.494  10.275
 4005SOL    HW113456   1.045   4.489  10.370
 4005SOL    HW213457   0.991   4.413  10.251
 4006SOL     OW13458   0.978   5.289  11.035
 4006SOL    HW113459   0.968   5.334  10.951
 4006SOL    HW213460   1.022   5.207  11.013
 4007SOL     OW13461   1.849   5.225  10.910
 4007SOL    HW113462   1.873   5.255  10.822
 4007SOL    HW213463   1.928   5.239  10.962
 4008SOL     OW13464   0.370   4.667  11.099
 4008SOL    HW113465   0.439   4.674  11.165
 4008SOL    HW213466   0.385   4.582  11.057
 4009SOL     OW13467   1.490   4.020   9.457
 4009SOL    HW113468   1.432   3.944   9.461
 4009SOL    HW213469   1.556   4.003   9.525
 4010SOL     OW13470   1.289   4.550   9.322
 4010SOL    HW113471   1.357   4.482   9.324
 4010SOL    HW213472   1.305   4.597   9.240
 4011SOL     OW13473   1.079   5.059  10.183
 4011SOL    HW113474   1.083   4.991  10.115
 4011SOL    HW213475   1.131   5.131  10.147
 4012SOL     OW13476   0.315   4.522  10.239
 4012SOL    HW113477   0.407   4.539  10.257
 4012SOL    HW213478   0.299   4.435  10.274
 4013SOL     OW13479   0.338   4.245  10.327
 4013SOL    HW113480   0.305   4.157  10.307
 4013SOL    HW213481   0.414   4.255  10.270
 4014SOL     OW13482   1.135   4.106  10.984
 4014SOL    HW113483   1.088   4.153  11.053
 4014SOL    HW213484   1.223   4.145  10.984
 4015SOL     OW13485   1.161   3.921  10.781
 4015SOL    HW113486   1.149   3.987  10.849
 4015SOL    HW213487   1.203   3.967  10.709
 4016SOL     OW13488   7.987   5.033   9.506
 4016SOL    HW113489   7.897   5.050   9.535
 4016SOL    HW213490   7.998   4.938   9.513
 4017SOL     OW13491   0.136   5.474  10.295
 4017SOL    HW113492   0.087   5.428  10.226
 4017SOL    HW213493   0.206   5.519  10.248
 4018SOL     OW13494   0.496   5.297  10.224
 4018SOL    HW113495   0.565   5.361  10.241
 4018SOL    HW213496   0.534   5.236  10.161
 4019SOL     OW13497   0.936   4.557  10.567
 4019SOL    HW113498   0.994   4.510  10.626
 4019SOL    HW213499   0.871   4.492  10.540
 4020SOL     OW13500   0.072   4.277  10.422
 4020SOL    HW113501   0.165   4.260  10.407
 4020SOL    HW213502   0.065   4.287  10.517
 4021SOL     OW13503   0.190   4.232  10.996
 4021SOL    HW113504   0.275   4.217  10.955
 4021SOL    HW213505   0.161   4.316  10.960
 4022SOL     OW13506   1.378   4.656  10.966
 4022SOL    HW113507   1.403   4.749  10.964
 4022SOL    HW213508   1.382   4.629  10.874
 4023SOL     OW13509   0.816   4.296   9.673
 4023SOL    HW113510   0.825   4.222   9.613
 4023SOL    HW213511   0.741   4.345   9.639
 4024SOL     OW13512   1.640   4.327  10.483
 4024SOL    HW113513   1.631   4.267  10.558
 4024SOL    HW213514   1.729   4.313  10.452
 4025SOL     OW13515   0.339   5.262  11.062
 4025SOL    HW113516   0.288   5.334  11.101
 4025SOL    HW213517   0.292   5.183  11.087
 4026SOL     OW13518   0.710   4.182  10.578
 4026SOL    HW113519   0.663   4.105  10.547
 4026SOL    HW213520   0.713   4.241  10.503
 4027SOL     OW13521   0.933   5.394  10.777
 4027SOL    HW113522   0.879   5.367  10.702
 4027SOL    HW213523   0.936   5.490  10.770
 4028SOL     OW13524   0.469   4.218   9.476
 4028SOL    HW113525   0.527   4.292   9.495
 4028SOL    HW213526   0.382   4.257   9.467
 4029SOL     OW13527   0.176   4.845  10.773
 4029SOL    HW113528   0.147   4.800  10.853
 4029SOL    HW213529   0.177   4.776  10.707
 4030SOL     OW13530   1.308   4.759  10.522
 4030SOL    HW113531   1.334   4.697  10.455
 4030SOL    HW213532   1.239   4.811  10.481
 4031SOL     OW13533   1.320   4.571   9.602
 4031SOL    HW113534   1.247   4.552   9.661
 4031SOL    HW213535   1.281   4.570   9.515
 4032SOL     OW13536   1.756   5.458  10.451
 4032SOL    HW113537   1.825   5.489  10.393
 4032SOL    HW213538   1.747   5.365  10.431
 4033SOL     OW13539   1.241   5.451  10.404
 4033SOL    HW113540   1.324   5.482  10.369
 4033SOL    HW213541   1.258   5.361  10.430
 4034SOL     OW13542   0.064   4.940  10.336
 4034SOL    HW113543   0.068   4.975  10.426
 4034SOL    HW213544  -0.019   4.974  10.302
 4035SOL     OW13545   0.680   5.391  11.050
 4035SOL    HW113546   0.618   5.464  11.043
 4035SOL    HW213547   0.756   5.419  10.999
 4036SOL     OW13548   1.731   3.876   9.812
 4036SOL    HW113549   1.802   3.858   9.750
 4036SOL    HW213550   1.711   3.791   9.851
 4037SOL     OW13551   1.393   5.292   9.803
 4037SOL    HW113552   1.452   5.326   9.736
 4037SOL    HW213553   1.342   5.368   9.831
 4038SOL     OW13554   0.189   5.470  11.144
 4038SOL    HW113555   0.120   5.424  11.193
 4038SOL    HW213556   0.224   5.533  11.206
 4039SOL     OW13557   1.279   4.656   9.987
 4039SOL    HW113558   1.352   4.596   9.996
 4039SOL    HW213559   1.311   4.725   9.928
 4040SOL     OW13560   0.813   4.957  10.708
 4040SOL    HW113561   0.797   4.985  10.798
 4040SOL    HW213562   0.745   5.002  10.657
 4041SOL     OW13563   0.664   5.352   9.460
 4041SOL    HW113564   0.676   5.366   9.366
 4041SOL    HW213565   0.610   5.273   9.465
 4042SOL     OW13566   1.619   5.455  10.698
 4042SOL    HW113567   1.670   5.461  10.616
 4042SOL    HW213568   1.605   5.546  10.724
 4043SOL     OW13569   1.842   3.890  10.277
 4043SOL    HW113570   1.873   3.803  10.254
 4043SOL    HW213571   1.755   3.896  10.238
 4044SOL     OW13572   0.254   4.047  10.021
 4044SOL    HW113573   0.166   4.078  10.000
 4044SOL    HW213574   0.252   4.033  10.115
 4045SOL     OW13575   1.211   5.328   9.341
 4045SOL    HW113576   1.193   5.236   9.360
 4045SOL    HW213577   1.156   5.347   9.264
 4046SOL     OW13578   0.917   4.630   9.605
 4046SOL    HW113579   0.974   4.664   9.536
 4046SOL    HW213580   0.968   4.561   9.647
 4047SOL     OW13581   1.487   5.350   9.360
 4047SOL    HW113582   1.393   5.347   9.346
 4047SOL    HW213583   1.524   5.354   9.271
 4048SOL     OW13584   0.329   5.074  10.779
 4048SOL    HW113585   0.260   5.110  10.835
 4048SOL    HW213586   0.300   4.986  10.758
 4049SOL     OW13587   1.604   5.007  10.584
 4049SOL    HW113588   1.673   4.994  10.648
 4049SOL    HW213589   1.549   5.077  10.620
 4050SOL     OW13590   1.064   4.836  10.030
 4050SOL    HW113591   0.989   4.785  10.061
 4050SOL    HW213592   1.128   4.771  10.002
 4051SOL     OW13593   0.611   5.215   9.798
 4051SOL    HW113594   0.657   5.166   9.730
 4051SOL    HW213595   0.524   5.230   9.761
 4052SOL     OW13596   1.729   4.122  10.691
 4052SOL    HW113597   1.803   4.183  10.690
 4052SOL    HW213598   1.758   4.049  10.636
 4053SOL     OW13599   0.254   5.054   9.592
 4053SOL    HW113600   0.159   5.062   9.576
 4053SOL    HW213601   0.268   5.099   9.675
 4054SOL     OW13602   0.107   4.724  11.023
 4054SOL    HW113603   0.072   4.807  11.053
 4054SOL    HW213604   0.193   4.717  11.066
 4055SOL     OW13605   0.672   3.931  10.814
 4055SOL    HW113606   0.755   3.905  10.774
 4055SOL    HW213607   0.694   3.954  10.904
 4056SOL     OW13608   0.102   4.070   9.341
 4056SOL    HW113609   0.025   4.097   9.390
 4056SOL    HW213610   0.117   4.139   9.277
 4057SOL     OW13611   1.426   4.587  10.707
 4057SOL    HW113612   1.377   4.644  10.649
 4057SOL    HW213613   1.515   4.588  10.673
 4058SOL     OW13614   0.098   3.975   9.665
 4058SOL    HW113615   0.044   3.967   9.587
 4058SOL    HW213616   0.170   3.912   9.651
 4059SOL     OW13617   1.176   5.054   9.420
 4059SOL    HW113618   1.081   5.041   9.420
 4059SOL    HW213619   1.201   5.054   9.513
 4060SOL     OW13620   0.606   4.573  10.757
 4060SOL    HW113621   0.647   4.636  10.815
 4060SOL    HW213622   0.668   4.499  10.752
 4061SOL     OW13623   1.490   5.509  10.294
 4061SOL    HW113624   1.507   5.582  10.234
 4061SOL    HW213625   1.572   5.495  10.340
 4062SOL     OW13626   0.720   4.281  11.014
 4062SOL    HW113627   0.766   4.330  11.083
 4062SOL    HW213628   0.731   4.189  11.038
 4063SOL     OW13629   1.474   4.917  10.936
 4063SOL    HW113630   1.464   4.932  11.030
 4063SOL    HW213631   1.566   4.937  10.919
 4064SOL     OW13632   0.381   5.426  10.849
 4064SOL    HW113633   0.292   5.460  10.845
 4064SOL    HW213634   0.380   5.362  10.920
 4065SOL     OW13635   1.662   4.604  10.561
 4065SOL    HW113636   1.660   4.518  10.520
 4065SOL    HW213637   1.658   4.665  10.487
 4066SOL     OW13638   1.223   4.043   9.768
 4066SOL    HW113639   1.280   3.966   9.762
 4066SOL    HW213640   1.251   4.087   9.848
 4067SOL     OW13641   0.517   4.484   9.921
 4067SOL    HW113642   0.598   4.530   9.899
 4067SOL    HW213643   0.489   4.523  10.004
 4068SOL     OW13644   1.747   4.090  10.967
 4068SOL    HW113645   1.736   4.107  10.874
 4068SOL    HW213646   1.675   4.031  10.989
 4069SOL     OW13647   1.735   4.660  10.821
 4069SOL    HW113648   1.738   4.755  10.832
 4069SOL    HW213649   1.724   4.648  10.726
 4070SOL     OW13650   0.889   5.090   9.366
 4070SOL    HW113651   0.833   5.118   9.438
 4070SOL    HW213652   0.890   5.165   9.306
 4071SOL     OW13653   0.667   5.505  10.245
 4071SOL    HW113654   0.645   5.597  10.230
 4071SOL    HW213655   0.763   5.502  10.242
 4072SOL     OW13656   0.867   4.694  10.168
 4072SOL    HW113657   0.922   4.624  10.202
 4072SOL    HW213658   0.828   4.734  10.246
 4073SOL     OW13659   1.077   4.704   9.402
 4073SOL    HW113660   1.049   4.760   9.330
 4073SOL    HW213661   1.149   4.652   9.366
 4074SOL     OW13662   1.844   5.263  10.145
 4074SOL    HW113663   1.764   5.266  10.093
 4074SOL    HW213664   1.815   5.230  10.231
 4075SOL     OW13665   0.227   5.023  11.166
 4075SOL    HW113666   0.133   5.016  11.146
 4075SOL    HW213667   0.231   5.025  11.261
 4076SOL     OW13668   0.139   4.979   9.972
 4076SOL    HW113669   0.064   4.933  10.009
 4076SOL    HW213670   0.190   4.910   9.929
 4077SOL     OW13671   0.687   5.122  10.918
 4077SOL    HW113672   0.611   5.081  10.958
 4077SOL    HW213673   0.692   5.209  10.957
 4078SOL     OW13674   1.816   3.911  10.548
 4078SOL    HW113675   1.811   3.817  10.566
 4078SOL    HW213676   1.825   3.917  10.453
 4079SOL     OW13677   0.458   4.135   9.858
 4079SOL    HW113678   0.481   4.073   9.789
 4079SOL    HW213679   0.396   4.088   9.913
 4080SOL     OW13680   1.710   5.195  10.381
 4080SOL    HW113681   1.622   5.180  10.345
 4080SOL    HW213682   1.716   5.136  10.456
 4081SOL     OW13683   0.353   4.282  10.607
 4081SOL    HW113684   0.397   4.223  10.667
 4081SOL    HW213685   0.367   4.243  10.520
 4082SOL     OW13686   0.835   5.311   9.980
 4082SOL    HW113687   0.824   5.388   9.924
 4082SOL    HW213688   0.757   5.258   9.962
 4083SOL     OW13689   1.431   3.947  10.427
 4083SOL    HW113690   1.418   3.856  10.453
 4083SOL    HW213691   1.381   3.997  10.492
 4084SOL     OW13692   1.004   3.696  10.494
 4084SOL    HW113693   0.973   3.728  10.409
 4084SOL    HW213694   1.091   3.662  10.476
 4085SOL     OW13695   0.771   5.059   9.635
 4085SOL    HW113696   0.746   4.967   9.641
 4085SOL    HW213697   0.855   5.064   9.680
 4086SOL     OW13698   0.594   5.283  10.587
 4086SOL    HW113699   0.601   5.368  10.631
 4086SOL    HW213700   0.682   5.265  10.556
 4087SOL     OW13701   1.362   3.776   9.474
 4087SOL    HW113702   1.400   3.701   9.428
 4087SOL    HW213703   1.273   3.750   9.495
 4088SOL     OW13704   1.310   4.190   9.986
 4088SOL    HW113705   1.252   4.266   9.986
 4088SOL    HW213706   1.297   4.150  10.072
 4089SOL     OW13707   1.585   3.913  10.195
 4089SOL    HW113708   1.531   3.935  10.271
 4089SOL    HW213709   1.571   3.986  10.134
 4090SOL     OW13710   0.051   4.772   9.581
 4090SOL    HW113711   0.137   4.753   9.619
 4090SOL    HW213712  -0.008   4.774   9.657
 4091SOL     OW13713   0.887   5.384   9.643
 4091SOL    HW113714   0.812   5.369   9.587
 4091SOL    HW213715   0.860   5.455   9.702
 4092SOL     OW13716   0.237   4.419  11.251
 4092SOL    HW113717   0.215   4.362  11.324
 4092SOL    HW213718   0.229   4.364  11.173
 4093SOL     OW13719   0.231   3.992  12.156
 4093SOL    HW113720   0.296   3.978  12.225
 4093SOL    HW213721   0.156   3.938  12.182
 4094SOL     OW13722   8.012   4.113  11.779
 4094SOL    HW113723   7.923   4.095  11.810
 4094SOL    HW213724   8.022   4.057  11.703
 4095SOL     OW13725   0.549   4.977  12.350
 4095SOL    HW113726   0.480   5.027  12.308
 4095SOL    HW213727   0.609   5.042  12.386
 4096SOL     OW13728   1.573   5.228  11.880
 4096SOL    HW113729   1.530   5.211  11.963
 4096SOL    HW213730   1.501   5.239  11.817
 4097SOL     OW13731   1.141   4.419  11.861
 4097SOL    HW113732   1.182   4.506  11.855
 4097SOL    HW213733   1.088   4.423  11.940
 4098SOL     OW13734   1.785   4.304  11.406
 4098SOL    HW113735   1.763   4.312  11.313
 4098SOL    HW213736   1.739   4.225  11.434
 4099SOL     OW13737   0.745   4.845  12.209
 4099SOL    HW113738   0.681   4.873  12.274
 4099SOL    HW213739   0.776   4.927  12.169
 4100SOL     OW13740   0.686   4.726  11.817
 4100SOL    HW113741   0.755   4.715  11.882
 4100SOL    HW213742   0.620   4.780  11.861
 4101SOL     OW13743   0.358   5.143  12.244
 4101SOL    HW113744   0.277   5.112  12.202
 4101SOL    HW213745   0.398   5.201  12.179
 4102SOL     OW13746   1.594   4.169  11.912
 4102SOL    HW113747   1.506   4.173  11.875
 4102SOL    HW213748   1.593   4.229  11.986
 4103SOL     OW13749   0.247   5.407  11.653
 4103SOL    HW113750   0.219   5.492  11.688
 4103SOL    HW213751   0.314   5.430  11.588
 4104SOL     OW13752   0.223   5.150  11.703
 4104SOL    HW113753   0.241   5.243  11.694
 4104SOL    HW213754   0.223   5.134  11.797
 4105SOL     OW13755   0.247   4.814  12.060
 4105SOL    HW113756   0.268   4.727  12.094
 4105SOL    HW213757   0.190   4.853  12.126
 4106SOL     OW13758   0.572   4.715  11.316
 4106SOL    HW113759   0.624   4.757  11.247
 4106SOL    HW213760   0.613   4.744  11.397
 4107SOL     OW13761   0.132   4.363  11.716
 4107SOL    HW113762   0.097   4.280  11.748
 4107SOL    HW213763   0.113   4.425  11.786
 4108SOL     OW13764   1.845   5.475  11.505
 4108SOL    HW113765   1.916   5.451  11.564
 4108SOL    HW213766   1.861   5.568  11.485
 4109SOL     OW13767   0.023   5.310  11.294
 4109SOL    HW113768   0.010   5.219  11.321
 4109SOL    HW213769  -0.025   5.362  11.358
 4110SOL     OW13770   1.773   4.626  11.712
 4110SOL    HW113771   1.803   4.637  11.803
 4110SOL    HW213772   1.711   4.697  11.699
 4111SOL     OW13773   1.645   4.853  11.599
 4111SOL    HW113774   1.726   4.868  11.551
 4111SOL    HW213775   1.656   4.904  11.680
 4112SOL     OW13776   0.145   4.464   0.297
 4112SOL    HW113777   0.144   4.421   0.383
 4112SOL    HW213778   0.204   4.539   0.309
 4113SOL     OW13779   0.611   5.120  11.895
 4113SOL    HW113780   0.569   5.035  11.906
 4113SOL    HW213781   0.596   5.143  11.804
 4114SOL     OW13782   0.818   3.742  11.743
 4114SOL    HW113783   0.862   3.810  11.692
 4114SOL    HW213784   0.726   3.749  11.719
 4115SOL     OW13785   0.197   4.658  12.386
 4115SOL    HW113786   0.292   4.648  12.385
 4115SOL    HW213787   0.167   4.590  12.447
 4116SOL     OW13788   1.529   4.729  11.376
 4116SOL    HW113789   1.466   4.666  11.411
 4116SOL    HW213790   1.567   4.770  11.454
 4117SOL     OW13791   1.459   5.139  12.112
 4117SOL    HW113792   1.397   5.156  12.183
 4117SOL    HW213793   1.446   5.047  12.091
 4118SOL     OW13794   1.646   5.484  11.749
 4118SOL    HW113795   1.633   5.442  11.664
 4118SOL    HW213796   1.645   5.411  11.811
 4119SOL     OW13797   0.591   4.437  11.437
 4119SOL    HW113798   0.597   4.524  11.397
 4119SOL    HW213799   0.532   4.449  11.511
 4120SOL     OW13800   1.283   4.079  12.105
 4120SOL    HW113801   1.195   4.043  12.105
 4120SOL    HW213802   1.332   4.023  12.166
 4121SOL     OW13803   1.580   5.393  11.483
 4121SOL    HW113804   1.672   5.420  11.478
 4121SOL    HW213805   1.554   5.378  11.392
 4122SOL     OW13806   0.998   4.101  12.401
 4122SOL    HW113807   0.905   4.123  12.412
 4122SOL    HW213808   0.999   4.044  12.324
 4123SOL     OW13809   1.051   4.428  11.594
 4123SOL    HW113810   1.073   4.416  11.687
 4123SOL    HW213811   0.970   4.378  11.582
 4124SOL     OW13812   0.097   4.530  11.947
 4124SOL    HW113813   0.189   4.534  11.972
 4124SOL    HW213814   0.050   4.567  12.021
 4125SOL     OW13815   0.076   5.500   0.259
 4125SOL    HW113816   0.133   5.476   0.332
 4125SOL    HW213817  -0.008   5.521   0.300
 4126SOL     OW13818   0.900   4.061  11.369
 4126SOL    HW113819   0.940   4.108  11.296
 4126SOL    HW213820   0.938   3.974  11.366
 4127SOL     OW13821   1.382   4.867  11.708
 4127SOL    HW113822   1.464   4.866  11.659
 4127SOL    HW213823   1.328   4.932  11.662
 4128SOL     OW13824   0.540   3.908  12.068
 4128SOL    HW113825   0.566   3.948  12.152
 4128SOL    HW213826   0.564   3.974  12.002
 4129SOL     OW13827   0.996   5.165  11.637
 4129SOL    HW113828   0.968   5.244  11.589
 4129SOL    HW213829   0.978   5.185  11.729
 4130SOL     OW13830   0.365   5.550  12.034
 4130SOL    HW113831   0.411   5.467  12.046
 4130SOL    HW213832   0.431   5.617  12.049
 4131SOL     OW13833   1.741   4.733  11.994
 4131SOL    HW113834   1.733   4.817  11.950
 4131SOL    HW213835   1.719   4.752  12.086
 4132SOL     OW13836   0.302   4.661  11.404
 4132SOL    HW113837   0.389   4.689  11.376
 4132SOL    HW213838   0.284   4.582  11.352
 4133SOL     OW13839   1.496   4.482  11.898
 4133SOL    HW113840   1.465   4.422  11.965
 4133SOL    HW213841   1.565   4.533  11.941
 4134SOL     OW13842   1.124   5.506  11.396
 4134SOL    HW113843   1.050   5.466  11.442
 4134SOL    HW213844   1.150   5.440  11.331
 4135SOL     OW13845   1.622   5.102  11.262
 4135SOL    HW113846   1.585   5.188  11.249
 4135SOL    HW213847   1.552   5.041  11.238
 4136SOL     OW13848   0.466   5.464  11.486
 4136SOL    HW113849   0.510   5.521  11.549
 4136SOL    HW213850   0.536   5.434  11.428
 4137SOL     OW13851   1.396   3.827  11.609
 4137SOL    HW113852   1.372   3.803  11.519
 4137SOL    HW213853   1.489   3.805  11.616
 4138SOL     OW13854   0.223   5.542  12.384
 4138SOL    HW113855   0.265   5.465  12.423
 4138SOL    HW213856   0.183   5.509  12.303
 4139SOL     OW13857   0.942   5.421  12.069
 4139SOL    HW113858   1.024   5.374  12.085
 4139SOL    HW213859   0.900   5.371  11.999
 4140SOL     OW13860   0.407   4.424  11.649
 4140SOL    HW113861   0.426   4.331  11.660
 4140SOL    HW213862   0.313   4.432  11.665
 4141SOL     OW13863   0.644   3.838  11.283
 4141SOL    HW113864   0.720   3.782  11.300
 4141SOL    HW213865   0.602   3.799  11.206
 4142SOL     OW13866   0.805   5.088  12.104
 4142SOL    HW113867   0.896   5.093  12.073
 4142SOL    HW213868   0.752   5.109  12.026
 4143SOL     OW13869   0.922   4.240  12.065
 4143SOL    HW113870   0.900   4.229  11.972
 4143SOL    HW213871   0.944   4.152  12.096
 4144SOL     OW13872   0.556   3.786  11.663
 4144SOL    HW113873   0.474   3.788  11.713
 4144SOL    HW213874   0.552   3.863  11.607
 4145SOL     OW13875   1.421   4.922  11.207
 4145SOL    HW113876   1.453   4.850  11.261
 4145SOL    HW213877   1.339   4.949  11.248
 4146SOL     OW13878   0.290   3.773  11.348
 4146SOL    HW113879   0.348   3.835  11.305
 4146SOL    HW213880   0.349   3.714  11.395
 4147SOL     OW13881   0.938   3.982  11.636
 4147SOL    HW113882   0.907   4.016  11.553
 4147SOL    HW213883   1.011   3.925  11.613
 4148SOL     OW13884   1.214   5.298  11.966
 4148SOL    HW113885   1.231   5.363  11.898
 4148SOL    HW213886   1.288   5.307  12.026
 4149SOL     OW13887   0.465   4.883  11.898
 4149SOL    HW113888   0.404   4.857  11.967
 4149SOL    HW213889   0.419   4.861  11.816
 4150SOL     OW13890   1.261   5.514  11.783
 4150SOL    HW113891   1.313   5.577  11.733
 4150SOL    HW213892   1.194   5.568  11.826
 4151SOL     OW13893   1.031   4.253  11.196
 4151SOL    HW113894   0.984   4.336  11.188
 4151SOL    HW213895   1.087   4.264  11.273
 4152SOL     OW13896   0.585   3.933  12.351
 4152SOL    HW113897   0.599   3.842  12.326
 4152SOL    HW213898   0.491   3.938  12.371
 4153SOL     OW13899   0.868   4.196  11.800
 4153SOL    HW113900   0.828   4.241  11.726
 4153SOL    HW213901   0.897   4.112  11.764
 4154SOL     OW13902   1.041   3.727  11.908
 4154SOL    HW113903   0.963   3.734  11.852
 4154SOL    HW213904   1.032   3.797  11.971
 4155SOL     OW13905   1.431   4.876  12.034
 4155SOL    HW113906   1.372   4.802  12.038
 4155SOL    HW213907   1.448   4.889  11.941
 4156SOL     OW13908   1.458   4.323  12.130
 4156SOL    HW113909   1.400   4.248  12.140
 4156SOL    HW213910   1.520   4.316  12.203
 4157SOL     OW13911   0.490   5.146  11.325
 4157SOL    HW113912   0.412   5.116  11.371
 4157SOL    HW213913   0.470   5.131  11.232
 4158SOL     OW13914   1.689   4.976  11.835
 4158SOL    HW113915   1.785   4.980  11.840
 4158SOL    HW213916   1.660   5.065  11.852
 4159SOL     OW13917   1.396   4.289  11.246
 4159SOL    HW113918   1.325   4.275  11.310
 4159SOL    HW213919   1.463   4.227  11.272
 4160SOL     OW13920   0.527   3.987  11.481
 4160SOL    HW113921   0.578   3.936  11.418
 4160SOL    HW213922   0.506   4.068  11.434
 4161SOL     OW13923   1.105   4.956  12.289
 4161SOL    HW113924   1.023   4.976  12.335
 4161SOL    HW213925   1.091   4.988  12.200
 4162SOL     OW13926   1.639   4.829  12.241
 4162SOL    HW113927   1.621   4.861  12.330
 4162SOL    HW213928   1.559   4.849  12.192
 4163SOL     OW13929   0.710   4.787  11.545
 4163SOL    HW113930   0.698   4.767  11.638
 4163SOL    HW213931   0.784   4.733  11.518
 4164SOL     OW13932   0.451   4.539  12.444
 4164SOL    HW113933   0.500   4.579  12.516
 4164SOL    HW213934   0.450   4.445  12.465
 4165SOL     OW13935   1.264   4.085  12.435
 4165SOL    HW113936   1.296   4.168  12.470
 4165SOL    HW213937   1.172   4.103  12.414
 4166SOL     OW13938   0.322   4.835  11.660
 4166SOL    HW113939   0.342   4.902  11.594
 4166SOL    HW213940   0.333   4.752  11.613
 4167SOL     OW13941   0.528   4.266  12.041
 4167SOL    HW113942   0.553   4.324  11.968
 4167SOL    HW213943   0.596   4.281  12.107
 4168SOL     OW13944   1.246   5.076  11.561
 4168SOL    HW113945   1.302   5.147  11.594
 4168SOL    HW213946   1.159   5.096  11.596
 4169SOL     OW13947   1.286   5.172  12.318
 4169SOL    HW113948   1.345   5.180  12.393
 4169SOL    HW213949   1.234   5.094  12.336
 4170SOL     OW13950   1.563   4.388  11.643
 4170SOL    HW113951   1.534   4.410  11.731
 4170SOL    HW213952   1.490   4.415  11.586
 4171SOL     OW13953   0.349   5.312  12.462
 4171SOL    HW113954   0.348   5.245  12.394
 4171SOL    HW213955   0.415   5.283  12.524
 4172SOL     OW13956   0.577   4.609  12.203
 4172SOL    HW113957   0.627   4.690  12.211
 4172SOL    HW213958   0.541   4.594  12.290
 4173SOL     OW13959   1.330   4.576  12.161
 4173SOL    HW113960   1.240   4.548  12.143
 4173SOL    HW213961   1.381   4.495  12.163
 4174SOL     OW13962   1.192   4.260  11.426
 4174SOL    HW113963   1.212   4.184  11.480
 4174SOL    HW213964   1.147   4.320  11.485
 4175SOL     OW13965   0.323   3.910  12.398
 4175SOL    HW113966   0.309   3.976  12.466
 4175SOL    HW213967   0.288   3.829  12.435
 4176SOL     OW13968   0.086   5.067  12.441
 4176SOL    HW113969   0.062   5.021  12.521
 4176SOL    HW213970   0.092   5.159  12.468
 4177SOL     OW13971   0.718   4.355  12.218
 4177SOL    HW113972   0.793   4.330  12.163
 4177SOL    HW213973   0.700   4.445  12.194
 4178SOL     OW13974   0.315   3.787  11.791
 4178SOL    HW113975   0.290   3.877  11.811
 4178SOL    HW213976   0.327   3.746  11.876
 4179SOL     OW13977   1.636   4.107  11.538
 4179SOL    HW113978   1.661   4.032  11.592
 4179SOL    HW213979   1.584   4.162  11.596
 4180SOL     OW13980   1.037   4.480  12.129
 4180SOL    HW113981   1.017   4.500  12.221
 4180SOL    HW213982   1.003   4.392  12.116
 4181SOL     OW13983   1.515   4.010  11.301
 4181SOL    HW113984   1.456   3.939  11.324
 4181SOL    HW213985   1.556   4.035  11.384
 4182SOL     OW13986   1.291   4.546  11.203
 4182SOL    HW113987   1.331   4.459  11.206
 4182SOL    HW213988   1.323   4.584  11.121
 4183SOL     OW13989   1.067   5.066  12.031
 4183SOL    HW113990   1.076   4.994  11.969
 4183SOL    HW213991   1.125   5.134  11.997
 4184SOL     OW13992   0.324   4.546  12.105
 4184SOL    HW113993   0.417   4.564  12.120
 4184SOL    HW213994   0.311   4.458  12.138
 4185SOL     OW13995   0.281   4.261  12.144
 4185SOL    HW113996   0.268   4.167  12.154
 4185SOL    HW213997   0.369   4.270  12.108
 4186SOL     OW13998   1.191   3.941   0.160
 4186SOL    HW113999   1.133   4.000   0.208
 4186SOL    HW214000   1.210   3.987   0.079
 4187SOL     OW14001   7.986   5.034  11.370
 4187SOL    HW114002   7.898   5.051  11.403
 4187SOL    HW214003   8.000   4.940  11.387
 4188SOL     OW14004   0.124   5.484  12.135
 4188SOL    HW114005   0.092   5.424  12.068
 4188SOL    HW214006   0.206   5.518  12.099
 4189SOL     OW14007   0.495   5.303  12.070
 4189SOL    HW114008   0.564   5.364  12.097
 4189SOL    HW214009   0.540   5.241  12.012
 4190SOL     OW14010   0.961   4.532  12.386
 4190SOL    HW114011   1.015   4.578  12.450
 4190SOL    HW214012   0.910   4.470  12.439
 4191SOL     OW14013   0.060   4.269  12.309
 4191SOL    HW114014   0.147   4.271  12.270
 4191SOL    HW214015   0.071   4.309  12.395
 4192SOL     OW14016   0.820   4.292  11.530
 4192SOL    HW114017   0.830   4.214  11.475
 4192SOL    HW214018   0.743   4.336  11.495
 4193SOL     OW14019   1.652   4.317  12.325
 4193SOL    HW114020   1.648   4.266  12.406
 4193SOL    HW214021   1.743   4.310  12.297
 4194SOL     OW14022   0.741   4.172  12.423
 4194SOL    HW114023   0.663   4.116  12.419
 4194SOL    HW214024   0.723   4.241  12.360
 4195SOL     OW14025   0.880   5.371   0.040
 4195SOL    HW114026   0.892   5.402  -0.049
 4195SOL    HW214027   0.887   5.450   0.094
 4196SOL     OW14028   0.460   4.210  11.340
 4196SOL    HW114029   0.515   4.286  11.358
 4196SOL    HW214030   0.376   4.230  11.381
 4197SOL     OW14031   1.286   4.754  12.366
 4197SOL    HW114032   1.310   4.701  12.290
 4197SOL    HW214033   1.234   4.826  12.329
 4198SOL     OW14034   1.332   4.558  11.481
 4198SOL    HW114035   1.253   4.544  11.533
 4198SOL    HW214036   1.304   4.550  11.390
 4199SOL     OW14037   1.745   5.473  12.287
 4199SOL    HW114038   1.823   5.493  12.236
 4199SOL    HW214039   1.740   5.377  12.286
 4200SOL     OW14040   1.246   5.442  12.267
 4200SOL    HW114041   1.328   5.475  12.231
 4200SOL    HW214042   1.262   5.349  12.283
 4201SOL     OW14043   0.051   4.978  12.187
 4201SOL    HW114044   0.076   4.995  12.278
 4201SOL    HW214045  -0.035   5.017  12.178
 4202SOL     OW14046   1.735   3.885  11.678
 4202SOL    HW114047   1.802   3.866  11.612
 4202SOL    HW214048   1.712   3.800  11.714
 4203SOL     OW14049   1.390   5.292  11.661
 4203SOL    HW114050   1.452   5.326  11.596
 4203SOL    HW214051   1.343   5.369  11.693
 4204SOL     OW14052   1.281   4.654  11.839
 4204SOL    HW114053   1.357   4.598  11.855
 4204SOL    HW214054   1.315   4.726  11.786
 4205SOL     OW14055   0.670   5.349  11.327
 4205SOL    HW114056   0.682   5.363  11.233
 4205SOL    HW214057   0.616   5.271  11.334
 4206SOL     OW14058   1.633   5.504   0.038
 4206SOL    HW114059   1.682   5.495  -0.044
 4206SOL    HW214060   1.666   5.586   0.076
 4207SOL     OW14061   1.845   3.895  12.142
 4207SOL    HW114062   1.875   3.807  12.118
 4207SOL    HW214063   1.758   3.902  12.102
 4208SOL     OW14064   0.264   4.037  11.880
 4208SOL    HW114065   0.181   4.080  11.860
 4208SOL    HW214066   0.267   4.033  11.975
 4209SOL     OW14067   1.208   5.324  11.205
 4209SOL    HW114068   1.196   5.233  11.233
 4209SOL    HW214069   1.140   5.338  11.140
 4210SOL     OW14070   0.794   4.760  12.500
 4210SOL    HW114071   0.838   4.730  12.421
 4210SOL    HW214072   0.866   4.776  12.562
 4211SOL     OW14073   0.913   4.634  11.456
 4211SOL    HW114074   0.977   4.667  11.393
 4211SOL    HW214075   0.960   4.567  11.506
 4212SOL     OW14076   1.489   5.350  11.216
 4212SOL    HW114077   1.395   5.342  11.200
 4212SOL    HW214078   1.527   5.357  11.128
 4213SOL     OW14079   1.067   4.836  11.883
 4213SOL    HW114080   0.994   4.786  11.920
 4213SOL    HW214081   1.132   4.770  11.860
 4214SOL     OW14082   0.596   5.207  11.639
 4214SOL    HW114083   0.650   5.159  11.577
 4214SOL    HW214084   0.537   5.260  11.585
 4215SOL     OW14085   1.751   4.149   0.039
 4215SOL    HW114086   1.844   4.174   0.045
 4215SOL    HW214087   1.752   4.062   0.000
 4216SOL     OW14088   0.250   5.062  11.448
 4216SOL    HW114089   0.156   5.063  11.428
 4216SOL    HW214090   0.256   5.095  11.538
 4217SOL     OW14091   0.109   4.080  11.208
 4217SOL    HW114092   0.032   4.113  11.253
 4217SOL    HW214093   0.119   4.138  11.132
 4218SOL     OW14094   0.095   3.965  11.535
 4218SOL    HW114095   0.045   3.947  11.455
 4218SOL    HW214096   0.178   3.920  11.523
 4219SOL     OW14097   1.178   5.057  11.291
 4219SOL    HW114098   1.088   5.025  11.297
 4219SOL    HW214099   1.207   5.062  11.382
 4220SOL     OW14100   1.492   5.510  12.156
 4220SOL    HW114101   1.515   5.582  12.097
 4220SOL    HW214102   1.573   5.490  12.202
 4221SOL     OW14103   1.666   4.591  12.415
 4221SOL    HW114104   1.655   4.506  12.372
 4221SOL    HW214105   1.666   4.655  12.344
 4222SOL     OW14106   1.262   4.074  11.612
 4222SOL    HW114107   1.288   3.982  11.612
 4222SOL    HW214108   1.272   4.102  11.703
 4223SOL     OW14109   0.588   4.463  11.856
 4223SOL    HW114110   0.632   4.546  11.840
 4223SOL    HW214111   0.528   4.453  11.782
 4224SOL     OW14112   1.819   4.609   0.141
 4224SOL    HW114113   1.818   4.700   0.172
 4224SOL    HW214114   1.758   4.607   0.068
 4225SOL     OW14115   0.853   5.086  11.213
 4225SOL    HW114116   0.823   5.106  11.301
 4225SOL    HW214117   0.873   5.171  11.174
 4226SOL     OW14118   0.669   5.505  12.113
 4226SOL    HW114119   0.652   5.597  12.093
 4226SOL    HW214120   0.764   5.497  12.106
 4227SOL     OW14121   0.875   4.691  12.018
 4227SOL    HW114122   0.924   4.619  12.057
 4227SOL    HW214123   0.834   4.736  12.092
 4228SOL     OW14124   1.076   4.710  11.254
 4228SOL    HW114125   1.063   4.762  11.174
 4228SOL    HW214126   1.152   4.655  11.234
 4229SOL     OW14127   1.856   5.268  12.007
 4229SOL    HW114128   1.763   5.256  11.991
 4229SOL    HW214129   1.877   5.209  12.079
 4230SOL     OW14130   0.112   4.899  11.842
 4230SOL    HW114131   0.161   4.872  11.919
 4230SOL    HW214132   0.175   4.895  11.770
 4231SOL     OW14133   1.795   3.903  12.414
 4231SOL    HW114134   1.826   3.814  12.424
 4231SOL    HW214135   1.811   3.925  12.322
 4232SOL     OW14136   0.432   4.161  11.689
 4232SOL    HW114137   0.473   4.092  11.636
 4232SOL    HW214138   0.390   4.114  11.761
 4233SOL     OW14139   1.715   5.208  12.276
 4233SOL    HW114140   1.631   5.166  12.256
 4233SOL    HW214141   1.755   5.151  12.342
 4234SOL     OW14142   0.830   5.305  11.845
 4234SOL    HW114143   0.809   5.373  11.781
 4234SOL    HW214144   0.754   5.248  11.844
 4235SOL     OW14145   1.452   3.955  12.295
 4235SOL    HW114146   1.517   3.926  12.360
 4235SOL    HW214147   1.382   3.994  12.347
 4236SOL     OW14148   0.997   3.704  12.366
 4236SOL    HW114149   0.953   3.743  12.291
 4236SOL    HW214150   1.090   3.725  12.353
 4237SOL     OW14151   0.779   5.056  11.490
 4237SOL    HW114152   0.754   4.965  11.505
 4237SOL    HW214153   0.857   5.069  11.544
 4238SOL     OW14154   1.350   3.781  11.337
 4238SOL    HW114155   1.363   3.699  11.290
 4238SOL    HW214156   1.257   3.783  11.357
 4239SOL     OW14157   1.319   4.197  11.861
 4239SOL    HW114158   1.254   4.267  11.855
 4239SOL    HW214159   1.297   4.150  11.942
 4240SOL     OW14160   1.587   3.913  12.055
 4240SOL    HW114161   1.532   3.935  12.130
 4240SOL    HW214162   1.577   3.987  11.996
 4241SOL     OW14163   0.053   4.776  11.443
 4241SOL    HW114164   0.142   4.747  11.424
 4241SOL    HW214165   0.042   4.758  11.537
 4242SOL     OW14166   0.891   5.386  11.508
 4242SOL    HW114167   0.815   5.373  11.451
 4242SOL    HW214168   0.865   5.459  11.565
 4243SOL     OW14169   0.224   6.144   0.092
 4243SOL    HW114170   0.200   6.206   0.161
 4243SOL    HW214171   0.193   6.185   0.011
 4244SOL     OW14172   0.237   5.855   0.986
 4244SOL    HW114173   0.262   5.826   1.074
 4244SOL    HW214174   0.154   5.812   0.969
 4245SOL     OW14175   8.009   5.991   0.596
 4245SOL    HW114176   7.928   5.969   0.643
 4245SOL    HW214177   8.016   5.924   0.528
 4246SOL     OW14178   0.553   6.851   1.185
 4246SOL    HW114179   0.484   6.840   1.119
 4246SOL    HW214180   0.522   6.923   1.239
 4247SOL     OW14181   1.525   7.104   0.716
 4247SOL    HW114182   1.466   7.172   0.750
 4247SOL    HW214183   1.490   7.085   0.629
 4248SOL     OW14184   1.137   6.286   0.695
 4248SOL    HW114185   1.185   6.368   0.682
 4248SOL    HW214186   1.088   6.301   0.776
 4249SOL     OW14187   1.721   6.174   0.256
 4249SOL    HW114188   1.731   6.180   0.161
 4249SOL    HW214189   1.687   6.086   0.271
 4250SOL     OW14190   0.757   6.724   1.053
 4250SOL    HW114191   0.687   6.757   1.109
 4250SOL    HW214192   0.789   6.800   1.006
 4251SOL     OW14193   0.879   6.342   1.836
 4251SOL    HW114194   0.871   6.403   1.909
 4251SOL    HW214195   0.901   6.397   1.760
 4252SOL     OW14196   0.686   6.583   0.646
 4252SOL    HW114197   0.753   6.572   0.714
 4252SOL    HW214198   0.620   6.638   0.687
 4253SOL     OW14199   0.708   6.734   1.806
 4253SOL    HW114200   0.747   6.813   1.843
 4253SOL    HW214201   0.625   6.763   1.769
 4254SOL     OW14202   0.332   7.003   1.068
 4254SOL    HW114203   0.257   6.961   1.025
 4254SOL    HW214204   0.372   7.056   1.000
 4255SOL     OW14205   1.453   7.096   1.355
 4255SOL    HW114206   1.511   7.171   1.366
 4255SOL    HW214207   1.389   7.104   1.426
 4256SOL     OW14208   0.454   5.974   1.478
 4256SOL    HW114209   0.530   5.917   1.489
 4256SOL    HW214210   0.379   5.919   1.500
 4257SOL     OW14211   1.594   6.014   0.757
 4257SOL    HW114212   1.540   6.047   0.686
 4257SOL    HW214213   1.665   6.078   0.765
 4258SOL     OW14214   0.270   7.266   0.526
 4258SOL    HW114215   0.256   7.352   0.566
 4258SOL    HW214216   0.314   7.286   0.443
 4259SOL     OW14217   1.135   6.932   1.701
 4259SOL    HW114218   1.177   6.924   1.786
 4259SOL    HW214219   1.084   6.852   1.691
 4260SOL     OW14220   0.277   7.000   0.481
 4260SOL    HW114221   0.278   7.088   0.517
 4260SOL    HW214222   0.231   6.947   0.546
 4261SOL     OW14223   0.283   6.668   0.899
 4261SOL    HW114224   0.271   6.579   0.931
 4261SOL    HW214225   0.214   6.719   0.941
 4262SOL     OW14226   0.600   7.379   1.418
 4262SOL    HW114227   0.518   7.364   1.465
 4262SOL    HW214228   0.625   7.469   1.442
 4263SOL     OW14229   0.582   6.563   0.158
 4263SOL    HW114230   0.645   6.584   0.089
 4263SOL    HW214231   0.617   6.605   0.237
 4264SOL     OW14232   1.588   5.715   1.460
 4264SOL    HW114233   1.632   5.789   1.419
 4264SOL    HW214234   1.567   5.745   1.548
 4265SOL     OW14235   0.133   6.239   0.545
 4265SOL    HW114236   0.100   6.150   0.563
 4265SOL    HW214237   0.115   6.288   0.626
 4266SOL     OW14238   1.849   7.334   0.325
 4266SOL    HW114239   1.921   7.305   0.381
 4266SOL    HW214240   1.869   7.425   0.305
 4267SOL     OW14241   0.028   7.141   0.110
 4267SOL    HW114242  -0.038   7.099   0.166
 4267SOL    HW214243   0.048   7.223   0.154
 4268SOL     OW14244   1.683   6.523   0.669
 4268SOL    HW114245   1.733   6.461   0.617
 4268SOL    HW214246   1.649   6.586   0.606
 4269SOL     OW14247   1.632   6.701   0.461
 4269SOL    HW114248   1.701   6.717   0.397
 4269SOL    HW214249   1.646   6.768   0.529
 4270SOL     OW14250   0.148   6.356   1.580
 4270SOL    HW114251   0.244   6.352   1.580
 4270SOL    HW214252   0.127   6.439   1.623
 4271SOL     OW14253   0.617   6.980   0.739
 4271SOL    HW114254   0.572   6.896   0.747
 4271SOL    HW214255   0.602   7.007   0.648
 4272SOL     OW14256   1.288   6.826   1.419
 4272SOL    HW114257   1.318   6.755   1.362
 4272SOL    HW214258   1.345   6.821   1.495
 4273SOL     OW14259   0.830   5.610   0.548
 4273SOL    HW114260   0.865   5.686   0.502
 4273SOL    HW214261   0.735   5.617   0.537
 4274SOL     OW14262   0.181   6.514   1.255
 4274SOL    HW114263   0.274   6.495   1.250
 4274SOL    HW214264   0.139   6.434   1.224
 4275SOL     OW14265   1.483   6.595   0.222
 4275SOL    HW114266   1.424   6.537   0.270
 4275SOL    HW214267   1.565   6.592   0.271
 4276SOL     OW14268   1.148   7.387   1.608
 4276SOL    HW114269   1.179   7.459   1.553
 4276SOL    HW214270   1.196   7.311   1.577
 4277SOL     OW14271   0.359   5.848   1.810
 4277SOL    HW114272   0.403   5.918   1.857
 4277SOL    HW214273   0.266   5.860   1.831
 4278SOL     OW14274   1.649   7.341   0.585
 4278SOL    HW114275   1.631   7.307   0.498
 4278SOL    HW214276   1.639   7.265   0.643
 4279SOL     OW14277   0.584   6.301   0.265
 4279SOL    HW114278   0.600   6.390   0.234
 4279SOL    HW214279   0.525   6.311   0.340
 4280SOL     OW14280   1.291   5.931   0.928
 4280SOL    HW114281   1.199   5.904   0.929
 4280SOL    HW214282   1.330   5.886   1.002
 4281SOL     OW14283   1.594   7.249   0.326
 4281SOL    HW114284   1.686   7.273   0.323
 4281SOL    HW214285   1.572   7.225   0.236
 4282SOL     OW14286   0.798   6.205   1.449
 4282SOL    HW114287   0.769   6.179   1.536
 4282SOL    HW214288   0.764   6.137   1.391
 4283SOL     OW14289   1.412   6.064   1.681
 4283SOL    HW114290   1.408   6.096   1.771
 4283SOL    HW214291   1.451   5.977   1.688
 4284SOL     OW14292   0.963   6.467   1.590
 4284SOL    HW114293   1.013   6.392   1.557
 4284SOL    HW214294   0.912   6.496   1.514
 4285SOL     OW14295   0.996   5.981   1.222
 4285SOL    HW114296   0.907   5.998   1.254
 4285SOL    HW214297   0.983   5.941   1.136
 4286SOL     OW14298   1.054   6.287   0.428
 4286SOL    HW114299   1.071   6.278   0.522
 4286SOL    HW214300   0.969   6.244   0.415
 4287SOL     OW14301   0.095   6.375   0.780
 4287SOL    HW114302   0.178   6.380   0.827
 4287SOL    HW214303   0.040   6.443   0.820
 4288SOL     OW14304   0.124   7.378   1.564
 4288SOL    HW114305   0.128   7.383   1.659
 4288SOL    HW214306   0.031   7.385   1.544
 4289SOL     OW14307   0.897   5.944   0.217
 4289SOL    HW114308   0.894   5.989   0.132
 4289SOL    HW214309   0.882   5.852   0.195
 4290SOL     OW14310   1.695   6.156   1.833
 4290SOL    HW114311   1.669   6.229   1.778
 4290SOL    HW214312   1.727   6.090   1.771
 4291SOL     OW14313   1.370   6.727   0.534
 4291SOL    HW114314   1.453   6.711   0.489
 4291SOL    HW214315   1.322   6.786   0.475
 4292SOL     OW14316   0.553   5.758   0.900
 4292SOL    HW114317   0.555   5.792   0.989
 4292SOL    HW214318   0.554   5.835   0.844
 4293SOL     OW14319   0.993   7.024   0.476
 4293SOL    HW114320   0.961   7.102   0.430
 4293SOL    HW214321   0.969   7.039   0.567
 4294SOL     OW14322   0.360   7.414   0.872
 4294SOL    HW114323   0.408   7.332   0.882
 4294SOL    HW214324   0.425   7.482   0.892
 4295SOL     OW14325   1.807   6.647   0.888
 4295SOL    HW114326   1.764   6.614   0.809
 4295SOL    HW214327   1.738   6.648   0.954
 4296SOL     OW14328   1.213   7.124   1.509
 4296SOL    HW114329   1.213   7.063   1.583
 4296SOL    HW214330   1.170   7.076   1.439
 4297SOL     OW14331   0.309   6.548   0.227
 4297SOL    HW114332   0.401   6.564   0.206
 4297SOL    HW214333   0.268   6.532   0.142
 4298SOL     OW14334   1.475   6.352   0.739
 4298SOL    HW114335   1.488   6.299   0.818
 4298SOL    HW214336   1.557   6.400   0.729
 4299SOL     OW14337   0.471   6.852   1.717
 4299SOL    HW114338   0.435   6.866   1.630
 4299SOL    HW214339   0.395   6.834   1.772
 4300SOL     OW14340   1.107   7.367   0.250
 4300SOL    HW114341   1.049   7.320   0.308
 4300SOL    HW214342   1.139   7.302   0.187
 4301SOL     OW14343   0.198   5.858   1.495
 4301SOL    HW114344   0.122   5.916   1.498
 4301SOL    HW214345   0.177   5.786   1.554
 4302SOL     OW14346   1.654   7.006   0.075
 4302SOL    HW114347   1.575   7.050   0.042
 4302SOL    HW214348   1.625   6.917   0.095
 4303SOL     OW14349   0.456   7.307   0.319
 4303SOL    HW114350   0.497   7.373   0.374
 4303SOL    HW214351   0.524   7.283   0.256
 4304SOL     OW14352   1.405   5.685   0.448
 4304SOL    HW114353   1.393   5.649   0.360
 4304SOL    HW214354   1.500   5.695   0.457
 4305SOL     OW14355   0.234   7.365   1.224
 4305SOL    HW114356   0.301   7.300   1.244
 4305SOL    HW214357   0.201   7.340   1.138
 4306SOL     OW14358   0.937   7.286   0.900
 4306SOL    HW114359   1.006   7.227   0.931
 4306SOL    HW214360   0.896   7.239   0.828
 4307SOL     OW14361   0.402   6.282   0.476
 4307SOL    HW114362   0.425   6.190   0.484
 4307SOL    HW214363   0.312   6.288   0.507
 4308SOL     OW14364   1.522   5.805   1.725
 4308SOL    HW114365   1.534   5.834   1.815
 4308SOL    HW214366   1.474   5.723   1.732
 4309SOL     OW14367   0.579   5.680   0.078
 4309SOL    HW114368   0.669   5.680   0.110
 4309SOL    HW214369   0.561   5.588   0.058
 4310SOL     OW14370   0.759   5.866   1.755
 4310SOL    HW114371   0.841   5.816   1.748
 4310SOL    HW214372   0.716   5.830   1.832
 4311SOL     OW14373   0.840   7.085   1.199
 4311SOL    HW114374   0.830   7.053   1.109
 4311SOL    HW214375   0.923   7.046   1.229
 4312SOL     OW14376   0.821   6.972   0.942
 4312SOL    HW114377   0.905   6.965   0.897
 4312SOL    HW214378   0.756   6.981   0.872
 4313SOL     OW14379   0.930   6.094   0.896
 4313SOL    HW114380   0.904   6.088   0.804
 4313SOL    HW214381   0.959   6.006   0.920
 4314SOL     OW14382   0.559   5.645   0.505
 4314SOL    HW114383   0.476   5.646   0.554
 4314SOL    HW214384   0.555   5.722   0.450
 4315SOL     OW14385   1.458   6.803   0.050
 4315SOL    HW114386   1.476   6.731   0.110
 4315SOL    HW214387   1.364   6.796   0.032
 4316SOL     OW14388   0.318   5.681   0.192
 4316SOL    HW114389   0.412   5.702   0.187
 4316SOL    HW214390   0.315   5.592   0.226
 4317SOL     OW14391   0.951   5.848   0.473
 4317SOL    HW114392   0.924   5.869   0.384
 4317SOL    HW214393   1.046   5.856   0.472
 4318SOL     OW14394   1.068   6.227   1.471
 4318SOL    HW114395   0.973   6.216   1.461
 4318SOL    HW214396   1.096   6.148   1.516
 4319SOL     OW14397   1.272   7.174   0.816
 4319SOL    HW114398   1.258   7.230   0.740
 4319SOL    HW214399   1.265   7.233   0.892
 4320SOL     OW14400   0.479   6.743   0.732
 4320SOL    HW114401   0.414   6.719   0.799
 4320SOL    HW214402   0.437   6.723   0.649
 4321SOL     OW14403   1.260   7.376   0.621
 4321SOL    HW114404   1.313   7.436   0.569
 4321SOL    HW214405   1.189   7.430   0.654
 4322SOL     OW14406   1.019   6.195   0.078
 4322SOL    HW114407   1.021   6.127   0.010
 4322SOL    HW214408   1.084   6.167   0.141
 4323SOL     OW14409   0.099   6.194   1.371
 4323SOL    HW114410   0.190   6.171   1.351
 4323SOL    HW214411   0.105   6.252   1.447
 4324SOL     OW14412   0.563   5.821   1.173
 4324SOL    HW114413   0.605   5.744   1.212
 4324SOL    HW214414   0.472   5.815   1.201
 4325SOL     OW14415   0.865   6.052   0.637
 4325SOL    HW114416   0.826   6.104   0.567
 4325SOL    HW214417   0.893   5.971   0.594
 4326SOL     OW14418   1.012   5.648   0.752
 4326SOL    HW114419   0.953   5.645   0.676
 4326SOL    HW214420   0.992   5.569   0.801
 4327SOL     OW14421   1.437   6.785   0.850
 4327SOL    HW114422   1.371   6.720   0.826
 4327SOL    HW214423   1.502   6.780   0.780
 4328SOL     OW14424   1.458   6.204   0.984
 4328SOL    HW114425   1.418   6.119   0.965
 4328SOL    HW214426   1.522   6.186   1.052
 4329SOL     OW14427   1.774   6.386   0.456
 4329SOL    HW114428   1.851   6.330   0.465
 4329SOL    HW214429   1.774   6.410   0.363
 4330SOL     OW14430   0.422   6.947   0.214
 4330SOL    HW114431   0.474   7.017   0.253
 4330SOL    HW214432   0.425   6.964   0.120
 4331SOL     OW14433   1.662   6.855   0.691
 4331SOL    HW114434   1.757   6.844   0.685
 4331SOL    HW214435   1.647   6.948   0.677
 4332SOL     OW14436   1.390   6.138   0.077
 4332SOL    HW114437   1.335   6.132   0.156
 4332SOL    HW214438   1.454   6.068   0.087
 4333SOL     OW14439   0.538   5.848   0.328
 4333SOL    HW114440   0.599   5.806   0.268
 4333SOL    HW214441   0.510   5.927   0.282
 4334SOL     OW14442   1.746   6.839   1.565
 4334SOL    HW114443   1.830   6.795   1.574
 4334SOL    HW214444   1.764   6.929   1.593
 4335SOL     OW14445   1.057   6.952   1.341
 4335SOL    HW114446   0.982   6.912   1.385
 4335SOL    HW214447   1.132   6.900   1.371
 4336SOL     OW14448   1.599   7.215   1.651
 4336SOL    HW114449   1.601   7.251   1.563
 4336SOL    HW214450   1.681   7.167   1.660
 4337SOL     OW14451   1.147   6.811   1.100
 4337SOL    HW114452   1.075   6.835   1.158
 4337SOL    HW214453   1.115   6.833   1.012
 4338SOL     OW14454   1.615   6.677   1.083
 4338SOL    HW114455   1.609   6.737   1.157
 4338SOL    HW214456   1.528   6.677   1.044
 4339SOL     OW14457   0.920   5.668   1.395
 4339SOL    HW114458   0.943   5.651   1.304
 4339SOL    HW214459   0.999   5.707   1.433
 4340SOL     OW14460   0.977   6.707   1.714
 4340SOL    HW114461   0.887   6.716   1.744
 4340SOL    HW214462   0.978   6.624   1.665
 4341SOL     OW14463   0.715   6.657   0.380
 4341SOL    HW114464   0.701   6.633   0.472
 4341SOL    HW214465   0.791   6.607   0.353
 4342SOL     OW14466   0.432   6.405   1.253
 4342SOL    HW114467   0.496   6.417   1.323
 4342SOL    HW214468   0.401   6.315   1.264
 4343SOL     OW14469   1.262   5.958   1.270
 4343SOL    HW114470   1.287   6.049   1.254
 4343SOL    HW214471   1.167   5.957   1.256
 4344SOL     OW14472   0.051   7.170   1.334
 4344SOL    HW114473   0.092   7.256   1.319
 4344SOL    HW214474   0.083   7.144   1.421
 4345SOL     OW14475   0.360   6.691   0.490
 4345SOL    HW114476   0.386   6.767   0.438
 4345SOL    HW214477   0.353   6.620   0.427
 4346SOL     OW14478   0.548   6.117   0.861
 4346SOL    HW114479   0.561   6.177   0.787
 4346SOL    HW214480   0.620   6.138   0.921
 4347SOL     OW14481   1.241   6.933   0.392
 4347SOL    HW114482   1.297   7.005   0.418
 4347SOL    HW214483   1.155   6.956   0.426
 4348SOL     OW14484   1.334   7.023   1.117
 4348SOL    HW114485   1.371   7.036   1.204
 4348SOL    HW214486   1.272   6.951   1.128
 4349SOL     OW14487   1.579   6.175   0.514
 4349SOL    HW114488   1.520   6.244   0.543
 4349SOL    HW214489   1.640   6.218   0.454
 4350SOL     OW14490   0.424   7.115   1.298
 4350SOL    HW114491   0.379   7.084   1.219
 4350SOL    HW214492   0.388   7.062   1.369
 4351SOL     OW14493   0.422   6.318   1.607
 4351SOL    HW114494   0.485   6.363   1.551
 4351SOL    HW214495   0.469   6.240   1.637
 4352SOL     OW14496   1.596   6.359   1.675
 4352SOL    HW114497   1.531   6.425   1.702
 4352SOL    HW214498   1.659   6.408   1.622
 4353SOL     OW14499   0.990   5.723   1.739
 4353SOL    HW114500   1.063   5.785   1.743
 4353SOL    HW214501   1.032   5.639   1.718
 4354SOL     OW14502   0.505   5.618   1.756
 4354SOL    HW114503   0.456   5.563   1.694
 4354SOL    HW214504   0.451   5.696   1.767
 4355SOL     OW14505   0.588   6.457   1.032
 4355SOL    HW114506   0.617   6.548   1.035
 4355SOL    HW214507   0.531   6.447   1.109
 4356SOL     OW14508   1.341   6.448   1.023
 4356SOL    HW114509   1.272   6.445   0.957
 4356SOL    HW214510   1.389   6.366   1.013
 4357SOL     OW14511   1.201   6.108   0.274
 4357SOL    HW114512   1.213   6.029   0.327
 4357SOL    HW214513   1.158   6.170   0.333
 4358SOL     OW14514   0.303   5.783   1.247
 4358SOL    HW114515   0.266   5.811   1.331
 4358SOL    HW214516   0.290   5.688   1.246
 4359SOL     OW14517   0.057   6.893   1.269
 4359SOL    HW114518   0.081   6.842   1.347
 4359SOL    HW214519   0.053   6.984   1.301
 4360SOL     OW14520   0.727   6.216   1.052
 4360SOL    HW114521   0.799   6.201   0.992
 4360SOL    HW214522   0.694   6.303   1.031
 4361SOL     OW14523   1.730   6.555   1.855
 4361SOL    HW114524   1.697   6.467   1.835
 4361SOL    HW214525   1.687   6.577   1.938
 4362SOL     OW14526   0.309   5.656   0.623
 4362SOL    HW114527   0.285   5.746   0.645
 4362SOL    HW214528   0.320   5.612   0.707
 4363SOL     OW14529   1.609   5.944   0.366
 4363SOL    HW114530   1.645   5.877   0.424
 4363SOL    HW214531   1.588   6.017   0.424
 4364SOL     OW14532   1.022   6.345   0.953
 4364SOL    HW114533   1.020   6.358   1.048
 4364SOL    HW214534   0.998   6.253   0.941
 4365SOL     OW14535   0.974   7.152   1.726
 4365SOL    HW114536   0.979   7.202   1.644
 4365SOL    HW214537   1.019   7.070   1.706
 4366SOL     OW14538   1.847   7.096   1.603
 4366SOL    HW114539   1.876   7.119   1.515
 4366SOL    HW214540   1.925   7.105   1.657
 4367SOL     OW14541   0.371   6.534   1.792
 4367SOL    HW114542   0.438   6.537   1.860
 4367SOL    HW214543   0.387   6.451   1.747
 4368SOL     OW14544   1.500   5.876   0.126
 4368SOL    HW114545   1.450   5.797   0.146
 4368SOL    HW214546   1.545   5.897   0.208
 4369SOL     OW14547   1.284   6.397   0.058
 4369SOL    HW114548   1.331   6.315   0.047
 4369SOL    HW214549   1.336   6.461   0.009
 4370SOL     OW14550   1.075   6.936   0.849
 4370SOL    HW114551   1.072   6.857   0.795
 4370SOL    HW214552   1.145   6.989   0.811
 4371SOL     OW14553   0.316   6.385   0.942
 4371SOL    HW114554   0.410   6.404   0.936
 4371SOL    HW214555   0.313   6.295   0.976
 4372SOL     OW14556   0.333   6.105   1.016
 4372SOL    HW114557   0.298   6.017   1.000
 4372SOL    HW214558   0.409   6.111   0.959
 4373SOL     OW14559   1.138   5.997   1.656
 4373SOL    HW114560   1.088   6.030   1.731
 4373SOL    HW214561   1.229   6.012   1.679
 4374SOL     OW14562   1.163   5.782   1.476
 4374SOL    HW114563   1.144   5.852   1.539
 4374SOL    HW214564   1.210   5.825   1.405
 4375SOL     OW14565   7.996   6.875   0.204
 4375SOL    HW114566   7.905   6.891   0.230
 4375SOL    HW214567   8.013   6.785   0.234
 4376SOL     OW14568   0.112   7.329   0.954
 4376SOL    HW114569   0.100   7.274   0.876
 4376SOL    HW214570   0.186   7.386   0.932
 4377SOL     OW14571   0.493   7.165   0.908
 4377SOL    HW114572   0.562   7.227   0.932
 4377SOL    HW214573   0.536   7.104   0.847
 4378SOL     OW14574   0.978   6.363   1.226
 4378SOL    HW114575   1.035   6.330   1.295
 4378SOL    HW214576   0.893   6.321   1.243
 4379SOL     OW14577   0.070   6.139   1.110
 4379SOL    HW114578   0.163   6.124   1.096
 4379SOL    HW214579   0.062   6.153   1.205
 4380SOL     OW14580   0.190   6.114   1.695
 4380SOL    HW114581   0.263   6.079   1.642
 4380SOL    HW214582   0.166   6.195   1.651
 4381SOL     OW14583   1.382   6.526   1.658
 4381SOL    HW114584   1.403   6.617   1.676
 4381SOL    HW214585   1.379   6.520   1.563
 4382SOL     OW14586   0.814   6.162   0.378
 4382SOL    HW114587   0.835   6.088   0.322
 4382SOL    HW214588   0.741   6.205   0.334
 4383SOL     OW14589   1.639   6.166   1.184
 4383SOL    HW114590   1.647   6.103   1.256
 4383SOL    HW214591   1.726   6.167   1.143
 4384SOL     OW14592   0.308   7.122   1.737
 4384SOL    HW114593   0.265   7.193   1.786
 4384SOL    HW214594   0.290   7.043   1.788
 4385SOL     OW14595   0.723   6.034   1.254
 4385SOL    HW114596   0.663   5.962   1.234
 4385SOL    HW214597   0.712   6.095   1.181
 4386SOL     OW14598   0.899   7.264   1.448
 4386SOL    HW114599   0.984   7.237   1.412
 4386SOL    HW214600   0.902   7.360   1.447
 4387SOL     OW14601   0.467   6.064   0.188
 4387SOL    HW114602   0.515   6.144   0.207
 4387SOL    HW214603   0.382   6.094   0.154
 4388SOL     OW14604   0.176   6.707   1.451
 4388SOL    HW114605   0.149   6.665   1.533
 4388SOL    HW214606   0.171   6.638   1.386
 4389SOL     OW14607   1.313   6.624   1.223
 4389SOL    HW114608   1.329   6.559   1.155
 4389SOL    HW214609   1.253   6.687   1.182
 4390SOL     OW14610   1.286   6.427   0.331
 4390SOL    HW114611   1.210   6.384   0.369
 4390SOL    HW214612   1.283   6.404   0.238
 4391SOL     OW14613   1.748   7.316   1.133
 4391SOL    HW114614   1.821   7.343   1.076
 4391SOL    HW214615   1.734   7.224   1.112
 4392SOL     OW14616   1.241   7.295   1.080
 4392SOL    HW114617   1.325   7.337   1.061
 4392SOL    HW214618   1.265   7.207   1.111
 4393SOL     OW14619   0.091   6.820   1.015
 4393SOL    HW114620   0.079   6.845   1.107
 4393SOL    HW214621   0.002   6.815   0.980
 4394SOL     OW14622   0.683   7.261   1.745
 4394SOL    HW114623   0.625   7.335   1.728
 4394SOL    HW214624   0.767   7.287   1.707
 4395SOL     OW14625   1.715   5.738   0.513
 4395SOL    HW114626   1.791   5.725   0.456
 4395SOL    HW214627   1.700   5.652   0.553
 4396SOL     OW14628   1.386   7.154   0.480
 4396SOL    HW114629   1.452   7.185   0.418
 4396SOL    HW214630   1.338   7.233   0.506
 4397SOL     OW14631   0.174   7.328   1.843
 4397SOL    HW114632   0.106   7.280   1.891
 4397SOL    HW214633   0.210   7.390   1.906
 4398SOL     OW14634   1.275   6.525   0.684
 4398SOL    HW114635   1.349   6.465   0.696
 4398SOL    HW214636   1.306   6.588   0.619
 4399SOL     OW14637   0.807   6.857   1.421
 4399SOL    HW114638   0.779   6.903   1.500
 4399SOL    HW214639   0.728   6.847   1.369
 4400SOL     OW14640   0.655   7.170   0.177
 4400SOL    HW114641   0.717   7.210   0.116
 4400SOL    HW214642   0.668   7.076   0.168
 4401SOL     OW14643   1.614   7.318   1.383
 4401SOL    HW114644   1.666   7.323   1.303
 4401SOL    HW214645   1.601   7.409   1.409
 4402SOL     OW14646   1.754   5.727   0.922
 4402SOL    HW114647   1.836   5.720   0.872
 4402SOL    HW214648   1.762   5.661   0.990
 4403SOL     OW14649   0.258   5.907   0.712
 4403SOL    HW114650   0.172   5.944   0.691
 4403SOL    HW214651   0.256   5.895   0.806
 4404SOL     OW14652   1.191   7.199   0.062
 4404SOL    HW114653   1.186   7.105   0.081
 4404SOL    HW214654   1.169   7.206  -0.031
 4405SOL     OW14655   0.832   6.584   1.377
 4405SOL    HW114656   0.870   6.572   1.290
 4405SOL    HW214657   0.836   6.679   1.393
 4406SOL     OW14658   0.926   6.514   0.297
 4406SOL    HW114659   0.982   6.540   0.225
 4406SOL    HW214660   0.968   6.437   0.335
 4407SOL     OW14661   1.453   7.166  -0.000
 4407SOL    HW114662   1.369   7.195   0.035
 4407SOL    HW214663   1.510   7.242   0.007
 4408SOL     OW14664   0.348   6.916   1.477
 4408SOL    HW114665   0.276   6.966   1.515
 4408SOL    HW214666   0.310   6.833   1.451
 4409SOL     OW14667   1.592   6.859   1.293
 4409SOL    HW114668   1.667   6.845   1.351
 4409SOL    HW214669   1.535   6.919   1.342
 4410SOL     OW14670   1.061   6.701   0.723
 4410SOL    HW114671   0.988   6.646   0.751
 4410SOL    HW214672   1.127   6.640   0.692
 4411SOL     OW14673   1.028   5.828   0.964
 4411SOL    HW114674   1.020   5.783   0.880
 4411SOL    HW214675   1.021   5.758   1.029
 4412SOL     OW14676   0.616   7.076   0.485
 4412SOL    HW114677   0.660   7.027   0.416
 4412SOL    HW214678   0.556   7.135   0.439
 4413SOL     OW14679   1.725   5.982   1.378
 4413SOL    HW114680   1.800   6.041   1.386
 4413SOL    HW214681   1.754   5.913   1.319
 4414SOL     OW14682   0.114   6.592   1.698
 4414SOL    HW114683   0.054   6.648   1.747
 4414SOL    HW214684   0.193   6.587   1.753
 4415SOL     OW14685   0.680   5.781   1.498
 4415SOL    HW114686   0.765   5.755   1.463
 4415SOL    HW214687   0.698   5.811   1.587
 4416SOL     OW14688   1.429   6.427   1.392
 4416SOL    HW114689   1.371   6.484   1.342
 4416SOL    HW214690   1.516   6.442   1.354
 4417SOL     OW14691   0.084   5.812   0.376
 4417SOL    HW114692   0.051   5.806   0.286
 4417SOL    HW214693   0.177   5.791   0.369
 4418SOL     OW14694   1.180   6.935   0.116
 4418SOL    HW114695   1.092   6.897   0.112
 4418SOL    HW214696   1.210   6.914   0.205
 4419SOL     OW14697   0.623   6.416   1.443
 4419SOL    HW114698   0.683   6.490   1.428
 4419SOL    HW214699   0.681   6.340   1.448
 4420SOL     OW14700   1.496   7.349   0.971
 4420SOL    HW114701   1.508   7.426   0.916
 4420SOL    HW214702   1.574   7.345   1.026
 4421SOL     OW14703   0.721   6.144   1.698
 4421SOL    HW114704   0.762   6.198   1.765
 4421SOL    HW214705   0.730   6.054   1.730
 4422SOL     OW14706   1.473   6.791   1.628
 4422SOL    HW114707   1.462   6.803   1.723
 4422SOL    HW214708   1.566   6.803   1.613
 4423SOL     OW14709   0.389   7.325   1.574
 4423SOL    HW114710   0.300   7.353   1.551
 4423SOL    HW214711   0.377   7.244   1.623
 4424SOL     OW14712   1.662   6.458   1.248
 4424SOL    HW114713   1.675   6.375   1.201
 4424SOL    HW214714   1.660   6.524   1.179
 4425SOL     OW14715   1.221   5.901   0.459
 4425SOL    HW114716   1.282   5.828   0.448
 4425SOL    HW214717   1.256   5.949   0.535
 4426SOL     OW14718   0.583   6.324   0.681
 4426SOL    HW114719   0.626   6.407   0.664
 4426SOL    HW214720   0.523   6.312   0.607
 4427SOL     OW14721   1.745   5.960   1.652
 4427SOL    HW114722   1.741   5.961   1.557
 4427SOL    HW214723   1.686   5.889   1.678
 4428SOL     OW14724   1.719   6.522   1.509
 4428SOL    HW114725   1.766   6.603   1.532
 4428SOL    HW214726   1.726   6.516   1.414
 4429SOL     OW14727   0.895   6.956   0.053
 4429SOL    HW114728   0.847   6.940   0.133
 4429SOL    HW214729   0.895   7.051   0.042
 4430SOL     OW14730   0.667   7.370   0.951
 4430SOL    HW114731   0.643   7.460   0.931
 4430SOL    HW214732   0.761   7.366   0.935
 4431SOL     OW14733   0.867   6.555   0.853
 4431SOL    HW114734   0.916   6.480   0.887
 4431SOL    HW214735   0.832   6.597   0.932
 4432SOL     OW14736   1.089   6.593   0.083
 4432SOL    HW114737   1.128   6.643   0.012
 4432SOL    HW214738   1.153   6.524   0.101
 4433SOL     OW14739   1.865   7.120   0.859
 4433SOL    HW114740   1.852   7.094   0.767
 4433SOL    HW214741   1.889   7.038   0.903
 4434SOL     OW14742   0.222   6.887   1.853
 4434SOL    HW114743   0.132   6.869   1.826
 4434SOL    HW214744   0.220   6.883   1.949
 4435SOL     OW14745   0.131   6.838   0.645
 4435SOL    HW114746   0.055   6.807   0.694
 4435SOL    HW214747   0.191   6.765   0.644
 4436SOL     OW14748   0.662   7.028   1.587
 4436SOL    HW114749   0.600   6.969   1.629
 4436SOL    HW214750   0.678   7.097   1.652
 4437SOL     OW14751   1.806   5.780   1.221
 4437SOL    HW114752   1.840   5.693   1.241
 4437SOL    HW214753   1.859   5.811   1.147
 4438SOL     OW14754   0.431   6.023   0.525
 4438SOL    HW114755   0.471   5.952   0.475
 4438SOL    HW214756   0.381   5.978   0.594
 4439SOL     OW14757   1.658   7.042   1.091
 4439SOL    HW114758   1.630   7.004   1.174
 4439SOL    HW214759   1.747   7.008   1.078
 4440SOL     OW14760   0.354   6.147   1.293
 4440SOL    HW114761   0.398   6.086   1.353
 4440SOL    HW214762   0.367   6.109   1.207
 4441SOL     OW14763   0.834   7.170   0.679
 4441SOL    HW114764   0.819   7.241   0.616
 4441SOL    HW214765   0.757   7.114   0.671
 4442SOL     OW14766   1.453   5.811   1.106
 4442SOL    HW114767   1.483   5.724   1.134
 4442SOL    HW214768   1.407   5.846   1.182
 4443SOL     OW14769   1.009   5.602   1.132
 4443SOL    HW114770   0.955   5.539   1.086
 4443SOL    HW214771   1.096   5.562   1.136
 4444SOL     OW14772   0.776   6.920   0.309
 4444SOL    HW114773   0.747   6.830   0.325
 4444SOL    HW214774   0.856   6.928   0.361
 4445SOL     OW14775   1.388   5.615   0.181
 4445SOL    HW114776   1.392   5.568   0.097
 4445SOL    HW214777   1.303   5.660   0.179
 4446SOL     OW14778   1.297   6.049   0.677
 4446SOL    HW114779   1.246   6.131   0.679
 4446SOL    HW214780   1.289   6.014   0.766
 4447SOL     OW14781   0.051   6.632   0.299
 4447SOL    HW114782   0.140   6.605   0.277
 4447SOL    HW214783   0.040   6.605   0.390
 4448SOL     OW14784   0.877   7.241   0.360
 4448SOL    HW114785   0.799   7.224   0.307
 4448SOL    HW214786   0.854   7.317   0.414
 4449SOL     OW14787   0.234   6.275   1.944
 4449SOL    HW114788   0.217   6.216   2.017
 4449SOL    HW214789   0.225   6.221   1.866
 4450SOL     OW14790   0.245   5.862   2.849
 4450SOL    HW114791   0.272   5.833   2.937
 4450SOL    HW214792   0.163   5.816   2.832
 4451SOL     OW14793   7.990   6.003   2.458
 4451SOL    HW114794   7.925   5.997   2.528
 4451SOL    HW214795   7.993   5.916   2.420
 4452SOL     OW14796   0.573   6.887   3.046
 4452SOL    HW114797   0.481   6.888   3.022
 4452SOL    HW214798   0.590   6.974   3.083
 4453SOL     OW14799   1.543   7.101   2.568
 4453SOL    HW114800   1.479   7.104   2.639
 4453SOL    HW214801   1.491   7.096   2.488
 4454SOL     OW14802   1.127   6.287   2.548
 4454SOL    HW114803   1.178   6.369   2.548
 4454SOL    HW214804   1.082   6.287   2.632
 4455SOL     OW14805   1.796   6.175   2.082
 4455SOL    HW114806   1.756   6.168   1.996
 4455SOL    HW214807   1.749   6.110   2.135
 4456SOL     OW14808   0.746   6.727   2.898
 4456SOL    HW114809   0.687   6.756   2.968
 4456SOL    HW214810   0.784   6.807   2.864
 4457SOL     OW14811   0.871   6.351   3.694
 4457SOL    HW114812   0.884   6.415   3.764
 4457SOL    HW214813   0.902   6.396   3.615
 4458SOL     OW14814   0.686   6.591   2.507
 4458SOL    HW114815   0.755   6.576   2.572
 4458SOL    HW214816   0.620   6.642   2.554
 4459SOL     OW14817   0.708   6.741   3.677
 4459SOL    HW114818   0.755   6.816   3.714
 4459SOL    HW214819   0.638   6.780   3.624
 4460SOL     OW14820   0.328   7.014   2.930
 4460SOL    HW114821   0.268   6.965   2.874
 4460SOL    HW214822   0.383   7.063   2.869
 4461SOL     OW14823   1.442   7.105   3.222
 4461SOL    HW114824   1.504   7.178   3.234
 4461SOL    HW214825   1.382   7.113   3.297
 4462SOL     OW14826   0.443   5.985   3.359
 4462SOL    HW114827   0.529   5.943   3.358
 4462SOL    HW214828   0.382   5.912   3.373
 4463SOL     OW14829   1.596   6.032   2.610
 4463SOL    HW114830   1.512   6.043   2.565
 4463SOL    HW214831   1.589   6.086   2.688
 4464SOL     OW14832   0.254   7.275   2.352
 4464SOL    HW114833   0.230   7.359   2.391
 4464SOL    HW214834   0.307   7.298   2.275
 4465SOL     OW14835   1.138   6.928   3.560
 4465SOL    HW114836   1.182   6.916   3.644
 4465SOL    HW214837   1.085   6.849   3.549
 4466SOL     OW14838   0.215   7.014   2.394
 4466SOL    HW114839   0.235   7.108   2.391
 4466SOL    HW214840   0.217   6.993   2.488
 4467SOL     OW14841   0.255   6.674   2.751
 4467SOL    HW114842   0.275   6.585   2.780
 4467SOL    HW214843   0.199   6.709   2.820
 4468SOL     OW14844   0.597   7.406   3.252
 4468SOL    HW114845   0.526   7.375   3.308
 4468SOL    HW214846   0.634   7.481   3.299
 4469SOL     OW14847   0.572   6.578   2.007
 4469SOL    HW114848   0.626   6.616   1.937
 4469SOL    HW214849   0.614   6.606   2.088
 4470SOL     OW14850   1.590   5.728   3.320
 4470SOL    HW114851   1.617   5.812   3.283
 4470SOL    HW214852   1.569   5.748   3.411
 4471SOL     OW14853   0.134   6.233   2.406
 4471SOL    HW114854   0.093   6.149   2.426
 4471SOL    HW214855   0.109   6.289   2.479
 4472SOL     OW14856   1.841   7.339   2.194
 4472SOL    HW114857   1.914   7.313   2.251
 4472SOL    HW214858   1.860   7.429   2.169
 4473SOL     OW14859   0.019   7.169   1.998
 4473SOL    HW114860   0.003   7.075   1.991
 4473SOL    HW214861   0.001   7.189   2.090
 4474SOL     OW14862   1.696   6.485   2.516
 4474SOL    HW114863   1.786   6.456   2.535
 4474SOL    HW214864   1.703   6.529   2.431
 4475SOL     OW14865   1.653   6.692   2.280
 4475SOL    HW114866   1.743   6.683   2.247
 4475SOL    HW214867   1.660   6.759   2.349
 4476SOL     OW14868   0.148   6.368   3.469
 4476SOL    HW114869   0.243   6.358   3.460
 4476SOL    HW214870   0.136   6.454   3.509
 4477SOL     OW14871   0.624   6.979   2.595
 4477SOL    HW114872   0.579   6.896   2.605
 4477SOL    HW214873   0.610   7.003   2.503
 4478SOL     OW14874   1.300   6.813   3.273
 4478SOL    HW114875   1.330   6.730   3.236
 4478SOL    HW214876   1.345   6.818   3.358
 4479SOL     OW14877   0.821   5.598   2.339
 4479SOL    HW114878   0.861   5.684   2.344
 4479SOL    HW214879   0.730   5.611   2.368
 4480SOL     OW14880   0.180   6.512   3.114
 4480SOL    HW114881   0.273   6.494   3.102
 4480SOL    HW214882   0.144   6.430   3.149
 4481SOL     OW14883   1.528   6.587   2.062
 4481SOL    HW114884   1.457   6.535   2.099
 4481SOL    HW214885   1.575   6.620   2.139
 4482SOL     OW14886   1.154   7.392   3.463
 4482SOL    HW114887   1.210   7.443   3.405
 4482SOL    HW214888   1.181   7.302   3.450
 4483SOL     OW14889   0.365   5.860   3.662
 4483SOL    HW114890   0.422   5.919   3.712
 4483SOL    HW214891   0.277   5.882   3.692
 4484SOL     OW14892   1.643   7.337   2.445
 4484SOL    HW114893   1.647   7.292   2.361
 4484SOL    HW214894   1.626   7.268   2.509
 4485SOL     OW14895   0.583   6.295   2.126
 4485SOL    HW114896   0.594   6.384   2.092
 4485SOL    HW214897   0.526   6.305   2.202
 4486SOL     OW14898   1.277   5.947   2.789
 4486SOL    HW114899   1.188   5.913   2.800
 4486SOL    HW214900   1.330   5.895   2.850
 4487SOL     OW14901   1.575   7.271   2.165
 4487SOL    HW114902   1.669   7.291   2.166
 4487SOL    HW214903   1.556   7.245   2.075
 4488SOL     OW14904   0.759   6.224   3.300
 4488SOL    HW114905   0.755   6.190   3.390
 4488SOL    HW214906   0.726   6.153   3.246
 4489SOL     OW14907   1.398   6.051   3.539
 4489SOL    HW114908   1.403   6.099   3.622
 4489SOL    HW214909   1.449   5.972   3.554
 4490SOL     OW14910   0.953   6.465   3.449
 4490SOL    HW114911   1.035   6.432   3.413
 4490SOL    HW214912   0.885   6.430   3.391
 4491SOL     OW14913   0.997   6.018   3.086
 4491SOL    HW114914   0.966   6.052   3.170
 4491SOL    HW214915   0.962   5.929   3.082
 4492SOL     OW14916   1.051   6.290   2.282
 4492SOL    HW114917   1.074   6.285   2.374
 4492SOL    HW214918   0.969   6.241   2.275
 4493SOL     OW14919   0.087   6.391   2.650
 4493SOL    HW114920   0.180   6.390   2.674
 4493SOL    HW214921   0.042   6.420   2.729
 4494SOL     OW14922   0.125   7.378   3.428
 4494SOL    HW114923   0.141   7.365   3.521
 4494SOL    HW214924   0.037   7.416   3.424
 4495SOL     OW14925   0.894   5.938   2.061
 4495SOL    HW114926   0.942   5.986   1.994
 4495SOL    HW214927   0.889   5.849   2.028
 4496SOL     OW14928   1.694   6.149   3.694
 4496SOL    HW114929   1.663   6.223   3.642
 4496SOL    HW214930   1.733   6.089   3.631
 4497SOL     OW14931   1.389   6.729   2.401
 4497SOL    HW114932   1.474   6.717   2.359
 4497SOL    HW214933   1.341   6.789   2.343
 4498SOL     OW14934   0.555   5.773   2.760
 4498SOL    HW114935   0.558   5.784   2.855
 4498SOL    HW214936   0.561   5.862   2.726
 4499SOL     OW14937   0.996   7.020   2.328
 4499SOL    HW114938   0.973   7.105   2.290
 4499SOL    HW214939   0.987   7.033   2.423
 4500SOL     OW14940   0.355   7.403   2.719
 4500SOL    HW114941   0.400   7.319   2.732
 4500SOL    HW214942   0.418   7.468   2.750
 4501SOL     OW14943   1.758   6.690   2.698
 4501SOL    HW114944   1.716   6.619   2.649
 4501SOL    HW214945   1.717   6.687   2.785
 4502SOL     OW14946   1.216   7.127   3.382
 4502SOL    HW114947   1.214   7.062   3.452
 4502SOL    HW214948   1.162   7.088   3.312
 4503SOL     OW14949   0.301   6.522   2.096
 4503SOL    HW114950   0.389   6.548   2.070
 4503SOL    HW214951   0.282   6.444   2.044
 4504SOL     OW14952   1.475   6.335   2.583
 4504SOL    HW114953   1.475   6.290   2.667
 4504SOL    HW214954   1.558   6.383   2.582
 4505SOL     OW14955   0.380   6.817   3.633
 4505SOL    HW114956   0.387   6.843   3.541
 4505SOL    HW214957   0.400   6.723   3.633
 4506SOL     OW14958   1.124   7.375   2.076
 4506SOL    HW114959   1.056   7.333   2.129
 4506SOL    HW214960   1.152   7.306   2.015
 4507SOL     OW14961   0.195   5.839   3.355
 4507SOL    HW114962   0.164   5.909   3.412
 4507SOL    HW214963   0.170   5.758   3.401
 4508SOL     OW14964   1.617   6.964   1.935
 4508SOL    HW114965   1.575   7.049   1.932
 4508SOL    HW214966   1.545   6.901   1.924
 4509SOL     OW14967   0.458   7.348   2.162
 4509SOL    HW114968   0.504   7.383   2.238
 4509SOL    HW214969   0.524   7.295   2.117
 4510SOL     OW14970   1.414   5.718   2.297
 4510SOL    HW114971   1.416   5.665   2.217
 4510SOL    HW214972   1.504   5.715   2.329
 4511SOL     OW14973   0.256   7.381   3.094
 4511SOL    HW114974   0.302   7.312   3.141
 4511SOL    HW214975   0.218   7.338   3.018
 4512SOL     OW14976   0.932   7.286   2.762
 4512SOL    HW114977   0.989   7.226   2.809
 4512SOL    HW214978   0.898   7.235   2.688
 4513SOL     OW14979   0.402   6.287   2.339
 4513SOL    HW114980   0.423   6.195   2.352
 4513SOL    HW214981   0.310   6.295   2.363
 4514SOL     OW14982   1.528   5.802   3.587
 4514SOL    HW114983   1.537   5.830   3.678
 4514SOL    HW214984   1.475   5.722   3.593
 4515SOL     OW14985   0.656   5.706   1.966
 4515SOL    HW114986   0.689   5.629   2.013
 4515SOL    HW214987   0.600   5.669   1.898
 4516SOL     OW14988   0.761   5.868   3.618
 4516SOL    HW114989   0.843   5.820   3.609
 4516SOL    HW214990   0.719   5.828   3.694
 4517SOL     OW14991   0.882   7.116   3.056
 4517SOL    HW114992   0.862   7.067   2.977
 4517SOL    HW214993   0.945   7.061   3.103
 4518SOL     OW14994   1.404   6.156   3.280
 4518SOL    HW114995   1.414   6.126   3.371
 4518SOL    HW214996   1.334   6.221   3.284
 4519SOL     OW14997   0.828   6.978   2.808
 4519SOL    HW114998   0.908   6.970   2.757
 4519SOL    HW214999   0.758   6.978   2.743
 4520SOL     OW15000   0.940   6.095   2.765
 4520SOL    HW115001   0.915   6.075   2.675
 4520SOL    HW215002   0.970   6.011   2.800
 4521SOL     OW15003   0.549   5.651   2.360
 4521SOL    HW115004   0.476   5.652   2.422
 4521SOL    HW215005   0.536   5.728   2.306
 4522SOL     OW15006   1.418   6.777   1.899
 4522SOL    HW115007   1.458   6.708   1.952
 4522SOL    HW215008   1.338   6.800   1.946
 4523SOL     OW15009   0.285   5.631   2.033
 4523SOL    HW115010   0.335   5.712   2.035
 4523SOL    HW215011   0.338   5.568   2.083
 4524SOL     OW15012   0.945   5.846   2.322
 4524SOL    HW115013   0.928   5.885   2.236
 4524SOL    HW215014   1.040   5.853   2.333
 4525SOL     OW15015   1.265   7.158   2.660
 4525SOL    HW115016   1.265   7.230   2.597
 4525SOL    HW215017   1.275   7.200   2.745
 4526SOL     OW15018   0.466   6.753   2.588
 4526SOL    HW115019   0.409   6.722   2.658
 4526SOL    HW215020   0.420   6.728   2.508
 4527SOL     OW15021   1.262   7.377   2.473
 4527SOL    HW115022   1.312   7.443   2.424
 4527SOL    HW215023   1.193   7.427   2.516
 4528SOL     OW15024   1.035   6.113   1.884
 4528SOL    HW115025   0.986   6.195   1.876
 4528SOL    HW215026   1.090   6.125   1.961
 4529SOL     OW15027   0.104   6.236   3.219
 4529SOL    HW115028   0.190   6.198   3.201
 4529SOL    HW215029   0.083   6.207   3.308
 4530SOL     OW15030   0.567   5.796   3.035
 4530SOL    HW115031   0.609   5.726   3.085
 4530SOL    HW215032   0.476   5.795   3.066
 4531SOL     OW15033   0.868   6.045   2.505
 4531SOL    HW115034   0.820   6.097   2.440
 4531SOL    HW215035   0.891   5.965   2.458
 4532SOL     OW15036   1.021   5.624   2.602
 4532SOL    HW115037   0.956   5.600   2.536
 4532SOL    HW215038   1.011   5.557   2.670
 4533SOL     OW15039   1.420   6.785   2.715
 4533SOL    HW115040   1.379   6.702   2.736
 4533SOL    HW215041   1.437   6.781   2.621
 4534SOL     OW15042   1.472   6.182   2.824
 4534SOL    HW115043   1.408   6.112   2.840
 4534SOL    HW215044   1.528   6.181   2.903
 4535SOL     OW15045   1.838   6.397   2.238
 4535SOL    HW115046   1.892   6.354   2.304
 4535SOL    HW215047   1.820   6.329   2.173
 4536SOL     OW15048   0.485   7.015   2.025
 4536SOL    HW115049   0.404   6.985   2.065
 4536SOL    HW215050   0.490   6.968   1.942
 4537SOL     OW15051   1.671   6.870   2.475
 4537SOL    HW115052   1.753   6.846   2.520
 4537SOL    HW215053   1.639   6.946   2.524
 4538SOL     OW15054   1.392   6.161   1.933
 4538SOL    HW115055   1.328   6.139   2.001
 4538SOL    HW215056   1.477   6.135   1.970
 4539SOL     OW15057   0.517   5.843   2.166
 4539SOL    HW115058   0.578   5.801   2.105
 4539SOL    HW215059   0.496   5.927   2.124
 4540SOL     OW15060   1.742   6.831   3.426
 4540SOL    HW115061   1.814   6.779   3.463
 4540SOL    HW215062   1.764   6.921   3.449
 4541SOL     OW15063   1.067   6.954   3.208
 4541SOL    HW115064   0.991   6.920   3.254
 4541SOL    HW215065   1.140   6.899   3.238
 4542SOL     OW15066   1.601   7.226   3.517
 4542SOL    HW115067   1.604   7.254   3.425
 4542SOL    HW215068   1.679   7.171   3.527
 4543SOL     OW15069   1.114   6.813   2.962
 4543SOL    HW115070   1.053   6.827   3.034
 4543SOL    HW215071   1.059   6.817   2.883
 4544SOL     OW15072   1.636   6.687   2.945
 4544SOL    HW115073   1.679   6.714   3.026
 4544SOL    HW215074   1.569   6.625   2.973
 4545SOL     OW15075   0.912   5.706   3.239
 4545SOL    HW115076   0.940   5.669   3.155
 4545SOL    HW215077   0.993   5.733   3.282
 4546SOL     OW15078   0.974   6.708   3.567
 4546SOL    HW115079   0.886   6.717   3.603
 4546SOL    HW215080   0.973   6.625   3.519
 4547SOL     OW15081   0.713   6.650   2.235
 4547SOL    HW115082   0.701   6.632   2.329
 4547SOL    HW215083   0.785   6.594   2.209
 4548SOL     OW15084   0.426   6.399   3.108
 4548SOL    HW115085   0.486   6.416   3.181
 4548SOL    HW215086   0.401   6.307   3.119
 4549SOL     OW15087   1.275   5.973   3.128
 4549SOL    HW115088   1.320   6.041   3.178
 4549SOL    HW215089   1.189   6.010   3.109
 4550SOL     OW15090   0.068   7.164   3.225
 4550SOL    HW115091   0.066   7.249   3.269
 4550SOL    HW215092   0.161   7.146   3.212
 4551SOL     OW15093   0.321   6.695   2.355
 4551SOL    HW115094   0.332   6.756   2.282
 4551SOL    HW215095   0.329   6.608   2.314
 4552SOL     OW15096   0.554   6.113   2.709
 4552SOL    HW115097   0.574   6.174   2.638
 4552SOL    HW215098   0.617   6.134   2.778
 4553SOL     OW15099   1.250   6.938   2.244
 4553SOL    HW115100   1.305   7.009   2.279
 4553SOL    HW215101   1.165   6.951   2.285
 4554SOL     OW15102   1.312   7.025   3.000
 4554SOL    HW115103   1.348   7.047   3.086
 4554SOL    HW215104   1.240   6.965   3.020
 4555SOL     OW15105   1.571   6.222   2.332
 4555SOL    HW115106   1.522   6.247   2.410
 4555SOL    HW215107   1.637   6.291   2.322
 4556SOL     OW15108   0.340   7.114   3.179
 4556SOL    HW115109   0.329   7.072   3.094
 4556SOL    HW215110   0.434   7.128   3.187
 4557SOL     OW15111   0.422   6.321   3.475
 4557SOL    HW115112   0.481   6.368   3.416
 4557SOL    HW215113   0.470   6.242   3.499
 4558SOL     OW15114   1.605   6.365   3.552
 4558SOL    HW115115   1.518   6.405   3.548
 4558SOL    HW215116   1.654   6.407   3.482
 4559SOL     OW15117   0.990   5.722   3.602
 4559SOL    HW115118   1.056   5.790   3.590
 4559SOL    HW215119   1.036   5.641   3.577
 4560SOL     OW15120   0.505   5.627   3.606
 4560SOL    HW115121   0.460   5.571   3.543
 4560SOL    HW215122   0.450   5.705   3.613
 4561SOL     OW15123   0.563   6.491   2.887
 4561SOL    HW115124   0.629   6.556   2.910
 4561SOL    HW215125   0.529   6.461   2.971
 4562SOL     OW15126   1.343   6.436   2.879
 4562SOL    HW115127   1.252   6.404   2.873
 4562SOL    HW215128   1.395   6.356   2.885
 4563SOL     OW15129   1.190   6.116   2.117
 4563SOL    HW115130   1.206   6.040   2.173
 4563SOL    HW215131   1.150   6.181   2.176
 4564SOL     OW15132   0.302   5.788   3.107
 4564SOL    HW115133   0.265   5.814   3.191
 4564SOL    HW215134   0.293   5.693   3.105
 4565SOL     OW15135   0.064   6.902   3.128
 4565SOL    HW115136   0.082   6.839   3.197
 4565SOL    HW215137   0.052   6.985   3.173
 4566SOL     OW15138   0.725   6.199   2.899
 4566SOL    HW115139   0.808   6.166   2.864
 4566SOL    HW215140   0.736   6.294   2.900
 4567SOL     OW15141   1.727   6.561   3.711
 4567SOL    HW115142   1.693   6.482   3.669
 4567SOL    HW215143   1.677   6.569   3.792
 4568SOL     OW15144   0.294   5.658   2.476
 4568SOL    HW115145   0.276   5.748   2.506
 4568SOL    HW215146   0.312   5.610   2.557
 4569SOL     OW15147   1.630   5.978   2.214
 4569SOL    HW115148   1.648   5.908   2.276
 4569SOL    HW215149   1.600   6.051   2.268
 4570SOL     OW15150   1.025   6.347   2.824
 4570SOL    HW115151   1.009   6.364   2.917
 4570SOL    HW215152   1.007   6.254   2.814
 4571SOL     OW15153   0.983   7.150   3.592
 4571SOL    HW115154   0.960   7.187   3.507
 4571SOL    HW215155   1.023   7.065   3.572
 4572SOL     OW15156   1.840   7.088   3.469
 4572SOL    HW115157   1.871   7.115   3.383
 4572SOL    HW215158   1.915   7.099   3.527
 4573SOL     OW15159   0.396   6.540   3.649
 4573SOL    HW115160   0.454   6.533   3.724
 4573SOL    HW215161   0.411   6.459   3.599
 4574SOL     OW15162   1.523   5.870   1.984
 4574SOL    HW115163   1.466   5.798   2.013
 4574SOL    HW215164   1.561   5.904   2.065
 4575SOL     OW15165   1.267   6.403   1.881
 4575SOL    HW115166   1.317   6.323   1.898
 4575SOL    HW215167   1.313   6.446   1.809
 4576SOL     OW15168   1.057   6.945   2.675
 4576SOL    HW115169   1.070   6.859   2.634
 4576SOL    HW215170   1.143   6.987   2.670
 4577SOL     OW15171   0.319   6.400   2.796
 4577SOL    HW115172   0.409   6.426   2.815
 4577SOL    HW215173   0.313   6.310   2.828
 4578SOL     OW15174   0.328   6.119   2.854
 4578SOL    HW115175   0.298   6.028   2.851
 4578SOL    HW215176   0.409   6.119   2.803
 4579SOL     OW15177   1.140   5.954   3.549
 4579SOL    HW115178   1.094   6.007   3.614
 4579SOL    HW215179   1.227   5.992   3.544
 4580SOL     OW15180   1.154   5.800   3.319
 4580SOL    HW115181   1.151   5.852   3.399
 4580SOL    HW215182   1.211   5.851   3.260
 4581SOL     OW15183   7.983   6.898   2.055
 4581SOL    HW115184   7.893   6.913   2.084
 4581SOL    HW215185   8.001   6.806   2.078
 4582SOL     OW15186   0.091   7.332   2.795
 4582SOL    HW115187   0.115   7.247   2.761
 4582SOL    HW215188   0.165   7.389   2.775
 4583SOL     OW15189   0.489   7.159   2.761
 4583SOL    HW115190   0.555   7.223   2.788
 4583SOL    HW215191   0.537   7.096   2.707
 4584SOL     OW15192   0.931   6.384   3.083
 4584SOL    HW115193   1.014   6.382   3.130
 4584SOL    HW215194   0.877   6.316   3.125
 4585SOL     OW15195   0.067   6.143   2.968
 4585SOL    HW115196   0.159   6.119   2.961
 4585SOL    HW215197   0.056   6.169   3.060
 4586SOL     OW15198   0.170   6.092   3.489
 4586SOL    HW115199   0.263   6.072   3.492
 4586SOL    HW215200   0.164   6.186   3.503
 4587SOL     OW15201   1.377   6.529   3.530
 4587SOL    HW115202   1.409   6.620   3.527
 4587SOL    HW215203   1.356   6.509   3.439
 4588SOL     OW15204   0.818   6.159   2.221
 4588SOL    HW115205   0.826   6.080   2.168
 4588SOL    HW215206   0.737   6.201   2.189
 4589SOL     OW15207   1.635   6.187   3.042
 4589SOL    HW115208   1.616   6.136   3.120
 4589SOL    HW215209   1.723   6.161   3.017
 4590SOL     OW15210   0.341   7.143   3.593
 4590SOL    HW115211   0.294   7.202   3.652
 4590SOL    HW215212   0.282   7.069   3.581
 4591SOL     OW15213   0.662   6.047   3.119
 4591SOL    HW115214   0.639   5.957   3.095
 4591SOL    HW215215   0.684   6.090   3.037
 4592SOL     OW15216   0.895   7.261   3.352
 4592SOL    HW115217   0.891   7.226   3.263
 4592SOL    HW215218   0.935   7.347   3.342
 4593SOL     OW15219   0.452   6.068   2.028
 4593SOL    HW115220   0.506   6.144   2.048
 4593SOL    HW215221   0.369   6.085   2.071
 4594SOL     OW15222   0.159   6.718   3.315
 4594SOL    HW115223   0.134   6.679   3.399
 4594SOL    HW215224   0.165   6.644   3.255
 4595SOL     OW15225   1.352   6.688   2.995
 4595SOL    HW115226   1.348   6.592   2.989
 4595SOL    HW215227   1.260   6.715   2.998
 4596SOL     OW15228   1.309   6.457   2.162
 4596SOL    HW115229   1.260   6.421   2.236
 4596SOL    HW215230   1.266   6.422   2.084
 4597SOL     OW15231   1.722   7.322   2.979
 4597SOL    HW115232   1.804   7.341   2.934
 4597SOL    HW215233   1.715   7.226   2.976
 4598SOL     OW15234   1.238   7.300   2.943
 4598SOL    HW115235   1.323   7.336   2.917
 4598SOL    HW215236   1.257   7.213   2.977
 4599SOL     OW15237   0.042   6.819   2.875
 4599SOL    HW115238   0.057   6.856   2.962
 4599SOL    HW215239  -0.023   6.750   2.890
 4600SOL     OW15240   0.689   7.256   3.599
 4600SOL    HW115241   0.640   7.338   3.589
 4600SOL    HW215242   0.765   7.266   3.541
 4601SOL     OW15243   1.704   5.737   2.354
 4601SOL    HW115244   1.783   5.723   2.302
 4601SOL    HW215245   1.692   5.656   2.403
 4602SOL     OW15246   1.387   7.158   2.337
 4602SOL    HW115247   1.450   7.198   2.277
 4602SOL    HW215248   1.343   7.232   2.378
 4603SOL     OW15249   0.167   7.337   3.699
 4603SOL    HW115250   0.108   7.283   3.752
 4603SOL    HW215251   0.216   7.389   3.764
 4604SOL     OW15252   1.277   6.517   2.529
 4604SOL    HW115253   1.348   6.457   2.551
 4604SOL    HW215254   1.319   6.587   2.480
 4605SOL     OW15255   0.818   6.878   3.291
 4605SOL    HW115256   0.781   6.916   3.371
 4605SOL    HW215257   0.742   6.845   3.243
 4606SOL     OW15258   0.664   7.222   2.019
 4606SOL    HW115259   0.680   7.228   1.925
 4606SOL    HW215260   0.613   7.142   2.030
 4607SOL     OW15261   1.611   7.322   3.246
 4607SOL    HW115262   1.662   7.325   3.165
 4607SOL    HW215263   1.597   7.413   3.270
 4608SOL     OW15264   1.847   5.755   2.814
 4608SOL    HW115265   1.873   5.664   2.799
 4608SOL    HW215266   1.756   5.758   2.785
 4609SOL     OW15267   0.259   5.912   2.574
 4609SOL    HW115268   0.169   5.946   2.569
 4609SOL    HW215269   0.272   5.894   2.667
 4610SOL     OW15270   1.204   7.183   1.894
 4610SOL    HW115271   1.194   7.094   1.928
 4610SOL    HW215272   1.131   7.193   1.832
 4611SOL     OW15273   0.797   6.601   3.209
 4611SOL    HW115274   0.859   6.544   3.163
 4611SOL    HW215275   0.852   6.665   3.254
 4612SOL     OW15276   0.910   6.492   2.139
 4612SOL    HW115277   0.978   6.532   2.083
 4612SOL    HW215278   0.957   6.429   2.193
 4613SOL     OW15279   1.482   7.224   1.904
 4613SOL    HW115280   1.389   7.208   1.888
 4613SOL    HW215281   1.522   7.224   1.816
 4614SOL     OW15282   0.368   6.894   3.371
 4614SOL    HW115283   0.358   6.968   3.311
 4614SOL    HW215284   0.299   6.832   3.345
 4615SOL     OW15285   1.593   6.874   3.163
 4615SOL    HW115286   1.657   6.846   3.228
 4615SOL    HW215287   1.526   6.920   3.213
 4616SOL     OW15288   1.064   6.693   2.572
 4616SOL    HW115289   0.995   6.641   2.612
 4616SOL    HW215290   1.134   6.631   2.554
 4617SOL     OW15291   1.028   5.822   2.808
 4617SOL    HW115292   1.025   5.765   2.731
 4617SOL    HW215293   1.020   5.763   2.883
 4618SOL     OW15294   0.609   7.068   2.331
 4618SOL    HW115295   0.664   7.017   2.272
 4618SOL    HW215296   0.529   7.084   2.282
 4619SOL     OW15297   1.726   5.981   3.238
 4619SOL    HW115298   1.799   6.042   3.244
 4619SOL    HW215299   1.759   5.911   3.181
 4620SOL     OW15300   0.246   6.929   2.140
 4620SOL    HW115301   0.154   6.925   2.117
 4620SOL    HW215302   0.247   6.957   2.232
 4621SOL     OW15303   0.125   6.611   3.611
 4621SOL    HW115304   0.046   6.571   3.646
 4621SOL    HW215305   0.197   6.563   3.654
 4622SOL     OW15306   0.678   5.797   3.359
 4622SOL    HW115307   0.761   5.771   3.319
 4622SOL    HW215308   0.700   5.818   3.449
 4623SOL     OW15309   0.105   5.938   1.876
 4623SOL    HW115310   0.035   5.974   1.930
 4623SOL    HW215311   0.121   6.005   1.810
 4624SOL     OW15312   1.423   6.530   3.246
 4624SOL    HW115313   1.348   6.472   3.242
 4624SOL    HW215314   1.499   6.474   3.229
 4625SOL     OW15315   0.121   5.838   2.202
 4625SOL    HW115316   0.063   5.806   2.133
 4625SOL    HW215317   0.180   5.765   2.220
 4626SOL     OW15318   1.174   6.918   1.984
 4626SOL    HW115319   1.100   6.858   1.994
 4626SOL    HW215320   1.209   6.928   2.072
 4627SOL     OW15321   0.602   6.439   3.305
 4627SOL    HW115322   0.660   6.510   3.280
 4627SOL    HW215323   0.658   6.361   3.306
 4628SOL     OW15324   1.484   7.368   2.842
 4628SOL    HW115325   1.516   7.433   2.780
 4628SOL    HW215326   1.561   7.346   2.895
 4629SOL     OW15327   0.715   6.150   3.561
 4629SOL    HW115328   0.763   6.205   3.623
 4629SOL    HW215329   0.733   6.060   3.589
 4630SOL     OW15330   1.469   6.801   3.495
 4630SOL    HW115331   1.459   6.803   3.590
 4630SOL    HW215332   1.564   6.805   3.481
 4631SOL     OW15333   0.394   7.332   3.412
 4631SOL    HW115334   0.301   7.353   3.400
 4631SOL    HW215335   0.394   7.254   3.468
 4632SOL     OW15336   1.679   6.451   3.103
 4632SOL    HW115337   1.659   6.358   3.094
 4632SOL    HW215338   1.729   6.473   3.024
 4633SOL     OW15339   1.223   5.916   2.310
 4633SOL    HW115340   1.286   5.845   2.304
 4633SOL    HW215341   1.247   5.962   2.390
 4634SOL     OW15342   0.602   6.319   2.528
 4634SOL    HW115343   0.639   6.407   2.522
 4634SOL    HW215344   0.532   6.318   2.463
 4635SOL     OW15345   1.752   5.948   3.511
 4635SOL    HW115346   1.736   5.963   3.418
 4635SOL    HW215347   1.683   5.888   3.539
 4636SOL     OW15348   1.729   6.517   3.365
 4636SOL    HW115349   1.738   6.612   3.372
 4636SOL    HW215350   1.720   6.500   3.272
 4637SOL     OW15351   0.822   6.960   1.897
 4637SOL    HW115352   0.816   6.964   1.992
 4637SOL    HW215353   0.869   7.040   1.872
 4638SOL     OW15354   0.659   7.370   2.788
 4638SOL    HW115355   0.648   7.464   2.775
 4638SOL    HW215356   0.754   7.357   2.792
 4639SOL     OW15357   0.872   6.555   2.712
 4639SOL    HW115358   0.921   6.482   2.749
 4639SOL    HW215359   0.832   6.598   2.788
 4640SOL     OW15360   1.078   6.590   1.946
 4640SOL    HW115361   1.057   6.632   1.862
 4640SOL    HW215362   1.145   6.525   1.925
 4641SOL     OW15363   1.857   7.123   2.711
 4641SOL    HW115364   1.778   7.093   2.665
 4641SOL    HW215365   1.887   7.046   2.758
 4642SOL     OW15366   0.100   6.742   2.537
 4642SOL    HW115367   0.155   6.726   2.614
 4642SOL    HW215368   0.161   6.743   2.463
 4643SOL     OW15369   0.655   6.992   3.486
 4643SOL    HW115370   0.559   6.985   3.490
 4643SOL    HW215371   0.676   7.069   3.538
 4644SOL     OW15372   1.811   5.778   3.086
 4644SOL    HW115373   1.820   5.687   3.115
 4644SOL    HW215374   1.825   5.775   2.992
 4645SOL     OW15375   0.425   6.024   2.378
 4645SOL    HW115376   0.464   5.949   2.335
 4645SOL    HW215377   0.381   5.988   2.455
 4646SOL     OW15378   1.680   7.047   2.969
 4646SOL    HW115379   1.664   7.014   3.058
 4646SOL    HW215380   1.763   7.007   2.944
 4647SOL     OW15381   0.349   6.139   3.154
 4647SOL    HW115382   0.388   6.089   3.226
 4647SOL    HW215383   0.380   6.095   3.075
 4648SOL     OW15384   0.825   7.167   2.538
 4648SOL    HW115385   0.785   7.206   2.460
 4648SOL    HW215386   0.764   7.098   2.564
 4649SOL     OW15387   1.433   5.817   2.972
 4649SOL    HW115388   1.446   5.732   3.015
 4649SOL    HW215389   1.385   5.869   3.037
 4650SOL     OW15390   1.009   5.611   2.996
 4650SOL    HW115391   0.962   5.536   2.960
 4650SOL    HW215392   1.100   5.582   3.002
 4651SOL     OW15393   0.786   6.917   2.176
 4651SOL    HW115394   0.760   6.826   2.193
 4651SOL    HW215395   0.863   6.930   2.231
 4652SOL     OW15396   0.617   7.151   3.140
 4652SOL    HW115397   0.616   7.238   3.179
 4652SOL    HW215398   0.708   7.136   3.115
 4653SOL     OW15399   1.367   5.639   2.017
 4653SOL    HW115400   1.409   5.553   2.010
 4653SOL    HW215401   1.276   5.619   2.037
 4654SOL     OW15402   1.298   6.051   2.538
 4654SOL    HW115403   1.245   6.130   2.545
 4654SOL    HW215404   1.290   6.009   2.624
 4655SOL     OW15405   1.585   5.778   2.746
 4655SOL    HW115406   1.533   5.797   2.823
 4655SOL    HW215407   1.581   5.857   2.693
 4656SOL     OW15408   0.059   6.654   2.139
 4656SOL    HW115409   0.141   6.611   2.117
 4656SOL    HW215410   0.027   6.608   2.217
 4657SOL     OW15411   0.897   7.247   2.196
 4657SOL    HW115412   0.818   7.230   2.145
 4657SOL    HW215413   0.872   7.317   2.256
 4658SOL     OW15414   0.220   6.267   3.800
 4658SOL    HW115415   0.205   6.217   3.880
 4658SOL    HW215416   0.241   6.201   3.733
 4659SOL     OW15417   0.201   5.905   4.762
 4659SOL    HW115418   0.251   5.842   4.815
 4659SOL    HW215419   0.221   5.880   4.672
 4660SOL     OW15420   7.943   6.036   4.311
 4660SOL    HW115421   7.870   5.990   4.353
 4660SOL    HW215422   8.021   5.988   4.338
 4661SOL     OW15423   0.562   6.880   4.914
 4661SOL    HW115424   0.482   6.890   4.862
 4661SOL    HW215425   0.594   6.970   4.925
 4662SOL     OW15426   1.575   7.104   4.438
 4662SOL    HW115427   1.534   7.079   4.521
 4662SOL    HW215428   1.504   7.098   4.374
 4663SOL     OW15429   1.126   6.293   4.415
 4663SOL    HW115430   1.179   6.373   4.408
 4663SOL    HW215431   1.080   6.303   4.499
 4664SOL     OW15432   1.753   6.191   3.956
 4664SOL    HW115433   1.738   6.178   3.862
 4664SOL    HW215434   1.729   6.108   3.996
 4665SOL     OW15435   0.737   6.714   4.776
 4665SOL    HW115436   0.674   6.755   4.836
 4665SOL    HW215437   0.779   6.787   4.731
 4666SOL     OW15438   0.881   6.352   5.549
 4666SOL    HW115439   0.897   6.427   5.606
 4666SOL    HW215440   0.898   6.385   5.461
 4667SOL     OW15441   0.684   6.587   4.367
 4667SOL    HW115442   0.758   6.579   4.427
 4667SOL    HW215443   0.622   6.643   4.413
 4668SOL     OW15444   0.709   6.737   5.559
 4668SOL    HW115445   0.757   6.817   5.581
 4668SOL    HW215446   0.633   6.768   5.508
 4669SOL     OW15447   0.318   7.012   4.798
 4669SOL    HW115448   0.254   6.960   4.750
 4669SOL    HW215449   0.367   7.059   4.731
 4670SOL     OW15450   1.465   7.077   5.096
 4670SOL    HW115451   1.518   7.158   5.096
 4670SOL    HW215452   1.401   7.091   5.166
 4671SOL     OW15453   0.441   5.993   5.237
 4671SOL    HW115454   0.522   5.942   5.231
 4671SOL    HW215455   0.371   5.928   5.230
 4672SOL     OW15456   1.585   6.021   4.472
 4672SOL    HW115457   1.524   6.048   4.404
 4672SOL    HW215458   1.645   6.095   4.482
 4673SOL     OW15459   0.229   7.295   4.206
 4673SOL    HW115460   0.241   7.375   4.256
 4673SOL    HW215461   0.301   7.295   4.142
 4674SOL     OW15462   1.135   6.930   5.419
 4674SOL    HW115463   1.194   6.912   5.492
 4674SOL    HW215464   1.087   6.848   5.405
 4675SOL     OW15465   0.277   7.017   4.220
 4675SOL    HW115466   0.263   7.106   4.252
 4675SOL    HW215467   0.234   6.962   4.286
 4676SOL     OW15468   0.284   6.681   4.626
 4676SOL    HW115469   0.276   6.589   4.650
 4676SOL    HW215470   0.211   6.724   4.671
 4677SOL     OW15471   0.528   7.393   5.172
 4677SOL    HW115472   0.521   7.398   5.077
 4677SOL    HW215473   0.602   7.449   5.194
 4678SOL     OW15474   0.575   6.584   3.869
 4678SOL    HW115475   0.631   6.622   3.801
 4678SOL    HW215476   0.616   6.608   3.951
 4679SOL     OW15477   1.643   5.709   5.192
 4679SOL    HW115478   1.603   5.792   5.168
 4679SOL    HW215479   1.587   5.674   5.261
 4680SOL     OW15480   0.138   6.246   4.258
 4680SOL    HW115481   0.089   6.169   4.288
 4680SOL    HW215482   0.128   6.310   4.328
 4681SOL     OW15483   1.842   7.340   4.059
 4681SOL    HW115484   1.913   7.312   4.117
 4681SOL    HW215485   1.864   7.430   4.036
 4682SOL     OW15486   0.016   7.180   3.862
 4682SOL    HW115487  -0.007   7.088   3.846
 4682SOL    HW215488   0.009   7.190   3.957
 4683SOL     OW15489   1.700   6.504   4.380
 4683SOL    HW115490   1.783   6.456   4.377
 4683SOL    HW215491   1.688   6.537   4.291
 4684SOL     OW15492   1.654   6.691   4.148
 4684SOL    HW115493   1.742   6.684   4.111
 4684SOL    HW215494   1.664   6.753   4.221
 4685SOL     OW15495   0.164   6.353   5.292
 4685SOL    HW115496   0.260   6.345   5.294
 4685SOL    HW215497   0.146   6.436   5.334
 4686SOL     OW15498   0.614   6.986   4.455
 4686SOL    HW115499   0.571   6.901   4.463
 4686SOL    HW215500   0.606   7.009   4.362
 4687SOL     OW15501   1.285   6.817   5.152
 4687SOL    HW115502   1.309   6.752   5.087
 4687SOL    HW215503   1.352   6.811   5.220
 4688SOL     OW15504   0.821   5.595   4.235
 4688SOL    HW115505   0.862   5.680   4.215
 4688SOL    HW215506   0.727   5.615   4.241
 4689SOL     OW15507   0.181   6.507   4.982
 4689SOL    HW115508   0.277   6.510   4.985
 4689SOL    HW215509   0.161   6.423   4.942
 4690SOL     OW15510   1.529   6.591   3.924
 4690SOL    HW115511   1.460   6.534   3.958
 4690SOL    HW215512   1.577   6.619   4.002
 4691SOL     OW15513   1.167   7.388   5.351
 4691SOL    HW115514   1.180   7.451   5.280
 4691SOL    HW215515   1.191   7.304   5.313
 4692SOL     OW15516   0.354   5.841   5.560
 4692SOL    HW115517   0.412   5.917   5.563
 4692SOL    HW215518   0.268   5.874   5.586
 4693SOL     OW15519   1.479   7.004   4.675
 4693SOL    HW115520   1.400   7.032   4.721
 4693SOL    HW215521   1.460   6.914   4.647
 4694SOL     OW15522   1.634   7.348   4.305
 4694SOL    HW115523   1.634   7.304   4.220
 4694SOL    HW215524   1.626   7.276   4.369
 4695SOL     OW15525   0.589   6.291   3.986
 4695SOL    HW115526   0.622   6.377   3.959
 4695SOL    HW215527   0.535   6.309   4.063
 4696SOL     OW15528   1.276   5.957   4.659
 4696SOL    HW115529   1.190   5.916   4.670
 4696SOL    HW215530   1.335   5.904   4.712
 4697SOL     OW15531   1.576   7.274   4.031
 4697SOL    HW115532   1.670   7.289   4.030
 4697SOL    HW215533   1.555   7.249   3.941
 4698SOL     OW15534   0.775   6.205   5.179
 4698SOL    HW115535   0.755   6.170   5.265
 4698SOL    HW215536   0.748   6.136   5.118
 4699SOL     OW15537   1.392   6.054   5.399
 4699SOL    HW115538   1.407   6.098   5.483
 4699SOL    HW215539   1.441   5.973   5.405
 4700SOL     OW15540   0.951   6.466   5.309
 4700SOL    HW115541   1.004   6.396   5.271
 4700SOL    HW215542   0.901   6.501   5.235
 4701SOL     OW15543   0.994   6.011   4.947
 4701SOL    HW115544   0.907   5.998   4.985
 4701SOL    HW215545   0.996   5.952   4.871
 4702SOL     OW15546   1.051   6.289   4.146
 4702SOL    HW115547   1.073   6.287   4.239
 4702SOL    HW215548   0.970   6.239   4.139
 4703SOL     OW15549   0.127   6.425   4.466
 4703SOL    HW115550   0.200   6.409   4.525
 4703SOL    HW215551   0.050   6.421   4.521
 4704SOL     OW15552   0.180   7.365   5.298
 4704SOL    HW115553   0.169   7.371   5.393
 4704SOL    HW215554   0.092   7.380   5.263
 4705SOL     OW15555   0.895   5.936   3.922
 4705SOL    HW115556   0.940   5.994   3.860
 4705SOL    HW215557   0.904   5.849   3.884
 4706SOL     OW15558   1.699   6.162   5.563
 4706SOL    HW115559   1.667   6.234   5.508
 4706SOL    HW215560   1.722   6.093   5.501
 4707SOL     OW15561   1.391   6.725   4.267
 4707SOL    HW115562   1.471   6.710   4.218
 4707SOL    HW215563   1.338   6.782   4.211
 4708SOL     OW15564   0.539   5.760   4.615
 4708SOL    HW115565   0.554   5.796   4.702
 4708SOL    HW215566   0.533   5.836   4.558
 4709SOL     OW15567   0.999   7.011   4.198
 4709SOL    HW115568   0.981   7.102   4.174
 4709SOL    HW215569   1.005   7.012   4.294
 4710SOL     OW15570   0.355   7.396   4.575
 4710SOL    HW115571   0.398   7.312   4.591
 4710SOL    HW215572   0.413   7.461   4.613
 4711SOL     OW15573   1.802   6.652   4.600
 4711SOL    HW115574   1.756   6.621   4.522
 4711SOL    HW215575   1.737   6.649   4.670
 4712SOL     OW15576   1.218   7.130   5.241
 4712SOL    HW115577   1.208   7.053   5.298
 4712SOL    HW215578   1.180   7.103   5.158
 4713SOL     OW15579   0.311   6.541   3.950
 4713SOL    HW115580   0.403   6.558   3.929
 4713SOL    HW215581   0.297   6.450   3.923
 4714SOL     OW15582   1.481   6.346   4.455
 4714SOL    HW115583   1.481   6.296   4.537
 4714SOL    HW215584   1.564   6.395   4.457
 4715SOL     OW15585   0.467   6.858   5.471
 4715SOL    HW115586   0.444   6.861   5.378
 4715SOL    HW215587   0.384   6.845   5.516
 4716SOL     OW15588   1.126   7.375   3.935
 4716SOL    HW115589   1.058   7.338   3.990
 4716SOL    HW215590   1.151   7.304   3.876
 4717SOL     OW15591   0.200   5.859   5.228
 4717SOL    HW115592   0.126   5.920   5.217
 4717SOL    HW215593   0.165   5.790   5.284
 4718SOL     OW15594   1.623   6.970   3.801
 4718SOL    HW115595   1.574   7.052   3.797
 4718SOL    HW215596   1.556   6.902   3.789
 4719SOL     OW15597   0.454   7.332   4.033
 4719SOL    HW115598   0.501   7.375   4.104
 4719SOL    HW215599   0.521   7.286   3.983
 4720SOL     OW15600   1.405   5.698   4.164
 4720SOL    HW115601   1.404   5.665   4.075
 4720SOL    HW215602   1.497   5.706   4.187
 4721SOL     OW15603   0.230   7.368   4.929
 4721SOL    HW115604   0.324   7.354   4.917
 4721SOL    HW215605   0.194   7.363   4.840
 4722SOL     OW15606   0.955   7.287   4.627
 4722SOL    HW115607   1.014   7.213   4.639
 4722SOL    HW215608   0.891   7.257   4.562
 4723SOL     OW15609   0.407   6.296   4.197
 4723SOL    HW115610   0.425   6.203   4.207
 4723SOL    HW215611   0.315   6.306   4.222
 4724SOL     OW15612   1.522   5.822   5.453
 4724SOL    HW115613   1.518   5.831   5.548
 4724SOL    HW215614   1.503   5.729   5.438
 4725SOL     OW15615   0.651   5.699   3.823
 4725SOL    HW115616   0.702   5.623   3.851
 4725SOL    HW215617   0.599   5.667   3.749
 4726SOL     OW15618   0.761   5.868   5.487
 4726SOL    HW115619   0.844   5.822   5.475
 4726SOL    HW215620   0.719   5.824   5.561
 4727SOL     OW15621   0.882   7.106   4.931
 4727SOL    HW115622   0.873   7.084   4.839
 4727SOL    HW215623   0.959   7.058   4.961
 4728SOL     OW15624   1.335   6.180   5.161
 4728SOL    HW115625   1.371   6.140   5.241
 4728SOL    HW215626   1.384   6.262   5.151
 4729SOL     OW15627   0.787   6.974   4.679
 4729SOL    HW115628   0.877   6.981   4.648
 4729SOL    HW215629   0.734   6.973   4.598
 4730SOL     OW15630   0.923   6.095   4.625
 4730SOL    HW115631   0.902   6.084   4.532
 4730SOL    HW215632   0.958   6.010   4.652
 4731SOL     OW15633   0.551   5.654   4.220
 4731SOL    HW115634   0.471   5.654   4.271
 4731SOL    HW215635   0.541   5.727   4.159
 4732SOL     OW15636   1.425   6.784   3.764
 4732SOL    HW115637   1.464   6.711   3.811
 4732SOL    HW215638   1.342   6.800   3.809
 4733SOL     OW15639   0.286   5.631   3.897
 4733SOL    HW115640   0.344   5.706   3.888
 4733SOL    HW215641   0.336   5.567   3.947
 4734SOL     OW15642   0.945   5.840   4.181
 4734SOL    HW115643   0.925   5.875   4.095
 4734SOL    HW215644   1.040   5.850   4.189
 4735SOL     OW15645   1.079   6.265   5.179
 4735SOL    HW115646   1.026   6.185   5.177
 4735SOL    HW215647   1.169   6.234   5.174
 4736SOL     OW15648   1.290   7.224   4.550
 4736SOL    HW115649   1.274   7.236   4.456
 4736SOL    HW215650   1.234   7.152   4.576
 4737SOL     OW15651   0.476   6.752   4.453
 4737SOL    HW115652   0.416   6.726   4.523
 4737SOL    HW215653   0.431   6.728   4.372
 4738SOL     OW15654   1.257   7.376   4.304
 4738SOL    HW115655   1.302   7.450   4.263
 4738SOL    HW215656   1.201   7.417   4.370
 4739SOL     OW15657   1.030   6.112   3.754
 4739SOL    HW115658   0.995   6.199   3.740
 4739SOL    HW215659   1.095   6.123   3.824
 4740SOL     OW15660   0.098   6.188   5.095
 4740SOL    HW115661   0.186   6.162   5.067
 4740SOL    HW215662   0.113   6.245   5.170
 4741SOL     OW15663   0.568   5.817   4.884
 4741SOL    HW115664   0.620   5.741   4.910
 4741SOL    HW215665   0.482   5.801   4.923
 4742SOL     OW15666   0.864   6.044   4.362
 4742SOL    HW115667   0.829   6.097   4.291
 4742SOL    HW215668   0.893   5.964   4.320
 4743SOL     OW15669   1.000   5.652   4.481
 4743SOL    HW115670   0.956   5.633   4.398
 4743SOL    HW215671   0.989   5.573   4.533
 4744SOL     OW15672   1.439   6.747   4.581
 4744SOL    HW115673   1.362   6.692   4.586
 4744SOL    HW215674   1.461   6.750   4.488
 4745SOL     OW15675   1.458   6.204   4.699
 4745SOL    HW115676   1.415   6.120   4.687
 4745SOL    HW215677   1.521   6.189   4.770
 4746SOL     OW15678   1.824   6.406   4.103
 4746SOL    HW115679   1.882   6.360   4.163
 4746SOL    HW215680   1.798   6.340   4.039
 4747SOL     OW15681   0.487   7.006   3.867
 4747SOL    HW115682   0.404   6.982   3.908
 4747SOL    HW215683   0.488   6.955   3.785
 4748SOL     OW15684   1.689   6.858   4.354
 4748SOL    HW115685   1.782   6.851   4.376
 4748SOL    HW215686   1.663   6.943   4.389
 4749SOL     OW15687   1.395   6.160   3.794
 4749SOL    HW115688   1.338   6.131   3.865
 4749SOL    HW215689   1.482   6.128   3.818
 4750SOL     OW15690   0.523   5.841   4.023
 4750SOL    HW115691   0.579   5.796   3.961
 4750SOL    HW215692   0.502   5.924   3.981
 4751SOL     OW15693   1.749   6.839   5.291
 4751SOL    HW115694   1.833   6.797   5.274
 4751SOL    HW215695   1.771   6.927   5.322
 4752SOL     OW15696   1.062   6.948   5.070
 4752SOL    HW115697   0.985   6.908   5.112
 4752SOL    HW215698   1.136   6.897   5.101
 4753SOL     OW15699   1.608   7.222   5.389
 4753SOL    HW115700   1.597   7.250   5.298
 4753SOL    HW215701   1.689   7.172   5.388
 4754SOL     OW15702   1.142   6.804   4.831
 4754SOL    HW115703   1.077   6.843   4.890
 4754SOL    HW215704   1.124   6.845   4.746
 4755SOL     OW15705   1.616   6.673   4.797
 4755SOL    HW115706   1.606   6.735   4.869
 4755SOL    HW215707   1.543   6.694   4.738
 4756SOL     OW15708   0.891   5.724   5.090
 4756SOL    HW115709   0.921   5.674   5.014
 4756SOL    HW215710   0.971   5.749   5.135
 4757SOL     OW15711   0.980   6.701   5.442
 4757SOL    HW115712   0.887   6.710   5.462
 4757SOL    HW215713   0.985   6.623   5.386
 4758SOL     OW15714   0.713   6.648   4.097
 4758SOL    HW115715   0.703   6.631   4.191
 4758SOL    HW215716   0.787   6.595   4.071
 4759SOL     OW15717   0.436   6.414   4.984
 4759SOL    HW115718   0.504   6.420   5.052
 4759SOL    HW215719   0.410   6.322   4.986
 4760SOL     OW15720   1.266   5.963   5.005
 4760SOL    HW115721   1.301   6.040   5.050
 4760SOL    HW215722   1.177   5.988   4.980
 4761SOL     OW15723   0.055   7.176   5.030
 4761SOL    HW115724   0.110   7.246   4.994
 4761SOL    HW215725   0.104   7.143   5.105
 4762SOL     OW15726   0.340   6.690   4.224
 4762SOL    HW115727   0.364   6.746   4.151
 4762SOL    HW215728   0.340   6.601   4.188
 4763SOL     OW15729   0.563   6.114   4.579
 4763SOL    HW115730   0.576   6.177   4.508
 4763SOL    HW215731   0.634   6.134   4.641
 4764SOL     OW15732   1.252   6.936   4.106
 4764SOL    HW115733   1.306   7.003   4.147
 4764SOL    HW215734   1.167   6.943   4.149
 4765SOL     OW15735   1.291   7.062   4.879
 4765SOL    HW115736   1.351   7.044   4.952
 4765SOL    HW215737   1.243   6.980   4.867
 4766SOL     OW15738   1.567   6.200   4.219
 4766SOL    HW115739   1.526   6.261   4.281
 4766SOL    HW215740   1.627   6.255   4.168
 4767SOL     OW15741   0.369   7.113   5.046
 4767SOL    HW115742   0.333   7.084   4.962
 4767SOL    HW215743   0.463   7.119   5.031
 4768SOL     OW15744   0.432   6.318   5.334
 4768SOL    HW115745   0.496   6.363   5.278
 4768SOL    HW215746   0.469   6.231   5.348
 4769SOL     OW15747   1.606   6.373   5.417
 4769SOL    HW115748   1.519   6.411   5.404
 4769SOL    HW215749   1.659   6.409   5.346
 4770SOL     OW15750   0.990   5.725   5.470
 4770SOL    HW115751   1.053   5.794   5.449
 4770SOL    HW215752   1.027   5.646   5.432
 4771SOL     OW15753   0.504   5.629   5.472
 4771SOL    HW115754   0.482   5.596   5.385
 4771SOL    HW215755   0.442   5.701   5.486
 4772SOL     OW15756   0.575   6.474   4.749
 4772SOL    HW115757   0.629   6.553   4.757
 4772SOL    HW215758   0.537   6.463   4.836
 4773SOL     OW15759   1.343   6.447   4.750
 4773SOL    HW115760   1.264   6.433   4.697
 4773SOL    HW215761   1.392   6.366   4.743
 4774SOL     OW15762   1.192   6.111   3.983
 4774SOL    HW115763   1.208   6.034   4.037
 4774SOL    HW215764   1.154   6.175   4.043
 4775SOL     OW15765   0.320   5.768   4.984
 4775SOL    HW115766   0.269   5.799   5.060
 4775SOL    HW215767   0.293   5.677   4.974
 4776SOL     OW15768   0.024   6.884   4.997
 4776SOL    HW115769   0.061   6.828   5.065
 4776SOL    HW215770   0.037   6.973   5.029
 4777SOL     OW15771   0.732   6.220   4.780
 4777SOL    HW115772   0.806   6.192   4.726
 4777SOL    HW215773   0.708   6.306   4.746
 4778SOL     OW15774   1.739   6.545   5.589
 4778SOL    HW115775   1.699   6.479   5.532
 4778SOL    HW215776   1.675   6.558   5.659
 4779SOL     OW15777   0.303   5.657   4.339
 4779SOL    HW115778   0.265   5.740   4.366
 4779SOL    HW215779   0.317   5.609   4.421
 4780SOL     OW15780   1.622   5.969   4.076
 4780SOL    HW115781   1.650   5.895   4.130
 4780SOL    HW215782   1.597   6.037   4.139
 4781SOL     OW15783   1.022   6.347   4.680
 4781SOL    HW115784   1.020   6.364   4.774
 4781SOL    HW215785   1.002   6.254   4.671
 4782SOL     OW15786   0.966   7.140   5.441
 4782SOL    HW115787   0.952   7.186   5.358
 4782SOL    HW215788   1.024   7.067   5.418
 4783SOL     OW15789   1.850   7.098   5.337
 4783SOL    HW115790   1.876   7.119   5.247
 4783SOL    HW215791   1.932   7.098   5.386
 4784SOL     OW15792   0.381   6.515   5.524
 4784SOL    HW115793   0.457   6.526   5.582
 4784SOL    HW215794   0.405   6.443   5.466
 4785SOL     OW15795   1.515   5.865   3.847
 4785SOL    HW115796   1.462   5.791   3.876
 4785SOL    HW215797   1.556   5.899   3.926
 4786SOL     OW15798   1.275   6.403   3.752
 4786SOL    HW115799   1.319   6.319   3.760
 4786SOL    HW215800   1.315   6.444   3.675
 4787SOL     OW15801   0.306   6.406   4.681
 4787SOL    HW115802   0.399   6.430   4.683
 4787SOL    HW215803   0.306   6.312   4.701
 4788SOL     OW15804   0.348   6.140   4.735
 4788SOL    HW115805   0.293   6.062   4.720
 4788SOL    HW215806   0.422   6.129   4.676
 4789SOL     OW15807   1.132   5.964   5.413
 4789SOL    HW115808   1.092   6.018   5.480
 4789SOL    HW215809   1.222   5.996   5.407
 4790SOL     OW15810   1.130   5.805   5.189
 4790SOL    HW115811   1.139   5.862   5.266
 4790SOL    HW215812   1.195   5.840   5.127
 4791SOL     OW15813   7.980   6.889   3.898
 4791SOL    HW115814   7.891   6.911   3.926
 4791SOL    HW215815   8.000   6.807   3.943
 4792SOL     OW15816   0.108   7.340   4.672
 4792SOL    HW115817   0.112   7.248   4.644
 4792SOL    HW215818   0.185   7.380   4.633
 4793SOL     OW15819   0.483   7.160   4.635
 4793SOL    HW115820   0.544   7.208   4.691
 4793SOL    HW215821   0.540   7.107   4.578
 4794SOL     OW15822   0.964   6.377   4.951
 4794SOL    HW115823   1.026   6.354   5.021
 4794SOL    HW215824   0.894   6.313   4.959
 4795SOL     OW15825   0.046   6.114   4.841
 4795SOL    HW115826   0.099   6.036   4.824
 4795SOL    HW215827   0.059   6.131   4.934
 4796SOL     OW15828   0.197   6.108   5.417
 4796SOL    HW115829   0.267   6.064   5.369
 4796SOL    HW215830   0.176   6.185   5.364
 4797SOL     OW15831   1.372   6.527   5.382
 4797SOL    HW115832   1.403   6.617   5.374
 4797SOL    HW215833   1.373   6.492   5.292
 4798SOL     OW15834   0.818   6.150   4.092
 4798SOL    HW115835   0.834   6.074   4.035
 4798SOL    HW215836   0.741   6.193   4.054
 4799SOL     OW15837   1.640   6.188   4.906
 4799SOL    HW115838   1.636   6.124   4.976
 4799SOL    HW215839   1.727   6.176   4.868
 4800SOL     OW15840   0.305   7.129   5.450
 4800SOL    HW115841   0.268   7.197   5.506
 4800SOL    HW215842   0.295   7.048   5.501
 4801SOL     OW15843   0.695   6.040   4.982
 4801SOL    HW115844   0.652   5.962   4.947
 4801SOL    HW215845   0.701   6.100   4.908
 4802SOL     OW15846   0.883   7.269   5.208
 4802SOL    HW115847   0.887   7.216   5.128
 4802SOL    HW215848   0.897   7.358   5.178
 4803SOL     OW15849   0.450   6.069   3.889
 4803SOL    HW115850   0.508   6.143   3.911
 4803SOL    HW215851   0.370   6.087   3.939
 4804SOL     OW15852   0.151   6.713   5.180
 4804SOL    HW115853   0.139   6.669   5.264
 4804SOL    HW215854   0.160   6.643   5.116
 4805SOL     OW15855   1.312   6.627   4.949
 4805SOL    HW115856   1.336   6.563   4.882
 4805SOL    HW215857   1.251   6.687   4.906
 4806SOL     OW15858   1.309   6.457   4.024
 4806SOL    HW115859   1.248   6.413   4.084
 4806SOL    HW215860   1.286   6.424   3.937
 4807SOL     OW15861   1.796   7.323   4.898
 4807SOL    HW115862   1.850   7.345   4.822
 4807SOL    HW215863   1.755   7.239   4.874
 4808SOL     OW15864   1.239   7.332   4.855
 4808SOL    HW115865   1.312   7.355   4.797
 4808SOL    HW215866   1.243   7.237   4.863
 4809SOL     OW15867   0.080   6.845   4.735
 4809SOL    HW115868   0.061   6.851   4.829
 4809SOL    HW215869   0.011   6.789   4.700
 4810SOL     OW15870   0.683   7.258   5.472
 4810SOL    HW115871   0.627   7.332   5.447
 4810SOL    HW215872   0.758   7.263   5.413
 4811SOL     OW15873   1.690   5.736   4.207
 4811SOL    HW115874   1.777   5.733   4.168
 4811SOL    HW215875   1.684   5.655   4.258
 4812SOL     OW15876   1.392   7.153   4.209
 4812SOL    HW115877   1.454   7.189   4.146
 4812SOL    HW215878   1.341   7.229   4.238
 4813SOL     OW15879   0.182   7.331   5.577
 4813SOL    HW115880   0.113   7.285   5.625
 4813SOL    HW215881   0.218   7.392   5.641
 4814SOL     OW15882   1.278   6.520   4.405
 4814SOL    HW115883   1.351   6.460   4.420
 4814SOL    HW215884   1.315   6.590   4.351
 4815SOL     OW15885   0.808   6.864   5.145
 4815SOL    HW115886   0.773   6.906   5.224
 4815SOL    HW215887   0.742   6.882   5.077
 4816SOL     OW15888   0.660   7.217   3.877
 4816SOL    HW115889   0.683   7.225   3.785
 4816SOL    HW215890   0.611   7.135   3.883
 4817SOL     OW15891   1.613   7.312   5.121
 4817SOL    HW115892   1.674   7.311   5.047
 4817SOL    HW215893   1.597   7.405   5.137
 4818SOL     OW15894   1.843   5.755   4.687
 4818SOL    HW115895   1.877   5.668   4.663
 4818SOL    HW215896   1.756   5.759   4.647
 4819SOL     OW15897   1.205   7.179   3.756
 4819SOL    HW115898   1.197   7.091   3.792
 4819SOL    HW215899   1.131   7.187   3.696
 4820SOL     OW15900   0.824   6.590   5.100
 4820SOL    HW115901   0.874   6.564   5.023
 4820SOL    HW215902   0.831   6.685   5.103
 4821SOL     OW15903   0.909   6.490   3.999
 4821SOL    HW115904   0.975   6.529   3.941
 4821SOL    HW215905   0.958   6.433   4.057
 4822SOL     OW15906   1.478   7.238   3.767
 4822SOL    HW115907   1.388   7.211   3.752
 4822SOL    HW215908   1.520   7.233   3.681
 4823SOL     OW15909   0.366   6.888   5.224
 4823SOL    HW115910   0.386   6.934   5.143
 4823SOL    HW215911   0.291   6.832   5.203
 4824SOL     OW15912   1.602   6.857   5.002
 4824SOL    HW115913   1.677   6.850   5.061
 4824SOL    HW215914   1.548   6.927   5.039
 4825SOL     OW15915   1.022   6.638   4.350
 4825SOL    HW115916   0.973   6.623   4.431
 4825SOL    HW215917   1.109   6.604   4.369
 4826SOL     OW15918   1.019   5.831   4.699
 4826SOL    HW115919   1.014   5.787   4.614
 4826SOL    HW215920   1.018   5.759   4.763
 4827SOL     OW15921   0.611   7.067   4.190
 4827SOL    HW115922   0.667   7.015   4.133
 4827SOL    HW215923   0.528   7.073   4.143
 4828SOL     OW15924   1.727   5.994   5.103
 4828SOL    HW115925   1.805   6.049   5.103
 4828SOL    HW215926   1.752   5.917   5.051
 4829SOL     OW15927   0.244   6.934   3.967
 4829SOL    HW115928   0.148   6.930   3.967
 4829SOL    HW215929   0.266   6.961   4.056
 4830SOL     OW15930   0.132   6.577   5.442
 4830SOL    HW115931   0.088   6.528   5.511
 4830SOL    HW215932   0.224   6.576   5.467
 4831SOL     OW15933   0.661   5.803   5.227
 4831SOL    HW115934   0.739   5.782   5.176
 4831SOL    HW215935   0.695   5.824   5.314
 4832SOL     OW15936   0.128   5.963   3.739
 4832SOL    HW115937   0.053   5.936   3.793
 4832SOL    HW215938   0.088   6.004   3.662
 4833SOL     OW15939   1.426   6.447   5.127
 4833SOL    HW115940   1.376   6.505   5.070
 4833SOL    HW215941   1.514   6.444   5.089
 4834SOL     OW15942   0.122   5.849   4.057
 4834SOL    HW115943   0.070   5.804   3.990
 4834SOL    HW215944   0.181   5.781   4.090
 4835SOL     OW15945   1.174   6.916   3.847
 4835SOL    HW115946   1.101   6.855   3.855
 4835SOL    HW215947   1.209   6.925   3.936
 4836SOL     OW15948   0.624   6.424   5.174
 4836SOL    HW115949   0.684   6.495   5.152
 4836SOL    HW215950   0.680   6.346   5.176
 4837SOL     OW15951   1.489   7.401   4.735
 4837SOL    HW115952   1.473   7.382   4.642
 4837SOL    HW215953   1.543   7.328   4.766
 4838SOL     OW15954   0.709   6.142   5.436
 4838SOL    HW115955   0.766   6.197   5.490
 4838SOL    HW215956   0.731   6.052   5.461
 4839SOL     OW15957   1.478   6.784   5.352
 4839SOL    HW115958   1.476   6.793   5.447
 4839SOL    HW215959   1.570   6.798   5.329
 4840SOL     OW15960   1.660   6.460   4.979
 4840SOL    HW115961   1.659   6.372   4.941
 4840SOL    HW215962   1.651   6.518   4.904
 4841SOL     OW15963   1.218   5.906   4.175
 4841SOL    HW115964   1.281   5.834   4.170
 4841SOL    HW215965   1.244   5.955   4.253
 4842SOL     OW15966   0.592   6.325   4.403
 4842SOL    HW115967   0.634   6.410   4.392
 4842SOL    HW215968   0.528   6.320   4.332
 4843SOL     OW15969   1.746   5.958   5.383
 4843SOL    HW115970   1.742   5.970   5.288
 4843SOL    HW215971   1.678   5.894   5.402
 4844SOL     OW15972   1.744   6.515   5.233
 4844SOL    HW115973   1.755   6.610   5.236
 4844SOL    HW215974   1.726   6.496   5.141
 4845SOL     OW15975   0.829   6.962   3.766
 4845SOL    HW115976   0.821   6.964   3.862
 4845SOL    HW215977   0.878   7.042   3.745
 4846SOL     OW15978   0.871   6.559   4.574
 4846SOL    HW115979   0.924   6.487   4.607
 4846SOL    HW215980   0.837   6.601   4.653
 4847SOL     OW15981   1.073   6.580   3.799
 4847SOL    HW115982   1.062   6.623   3.714
 4847SOL    HW215983   1.146   6.519   3.786
 4848SOL     OW15984   1.852   7.133   4.575
 4848SOL    HW115985   1.771   7.113   4.529
 4848SOL    HW215986   1.874   7.052   4.621
 4849SOL     OW15987   0.215   6.889   5.576
 4849SOL    HW115988   0.136   6.847   5.541
 4849SOL    HW215989   0.206   6.880   5.671
 4850SOL     OW15990   0.129   6.843   4.370
 4850SOL    HW115991   0.060   6.805   4.425
 4850SOL    HW215992   0.186   6.769   4.349
 4851SOL     OW15993   0.678   6.993   5.352
 4851SOL    HW115994   0.603   6.951   5.394
 4851SOL    HW215995   0.687   7.077   5.397
 4852SOL     OW15996   1.822   5.787   4.958
 4852SOL    HW115997   1.810   5.697   4.988
 4852SOL    HW215998   1.831   5.780   4.863
 4853SOL     OW15999   0.421   6.032   4.232
 4853SOL    HW116000   0.464   5.954   4.196
 4853SOL    HW216001   0.367   5.999   4.303
 4854SOL     OW16002   1.682   7.088   4.839
 4854SOL    HW116003   1.614   7.058   4.779
 4854SOL    HW216004   1.706   7.010   4.888
 4855SOL     OW16005   0.350   6.151   5.011
 4855SOL    HW116006   0.406   6.090   5.059
 4855SOL    HW216007   0.362   6.128   4.919
 4856SOL     OW16008   0.799   7.196   4.419
 4856SOL    HW116009   0.788   7.214   4.326
 4856SOL    HW216010   0.748   7.116   4.434
 4857SOL     OW16011   1.428   5.812   4.833
 4857SOL    HW116012   1.450   5.725   4.865
 4857SOL    HW216013   1.383   5.854   4.906
 4858SOL     OW16014   1.002   5.599   4.859
 4858SOL    HW116015   0.955   5.532   4.809
 4858SOL    HW216016   1.091   5.565   4.866
 4859SOL     OW16017   0.790   6.915   4.041
 4859SOL    HW116018   0.766   6.824   4.058
 4859SOL    HW216019   0.867   6.930   4.096
 4860SOL     OW16020   0.634   7.137   5.023
 4860SOL    HW116021   0.623   7.230   5.007
 4860SOL    HW216022   0.724   7.118   4.995
 4861SOL     OW16023   1.366   5.631   3.893
 4861SOL    HW116024   1.407   5.551   3.861
 4861SOL    HW216025   1.276   5.606   3.910
 4862SOL     OW16026   1.279   6.051   4.398
 4862SOL    HW116027   1.231   6.133   4.408
 4862SOL    HW216028   1.287   6.016   4.486
 4863SOL     OW16029   1.584   5.778   4.604
 4863SOL    HW116030   1.530   5.798   4.681
 4863SOL    HW216031   1.581   5.857   4.551
 4864SOL     OW16032   0.072   6.662   4.005
 4864SOL    HW116033   0.162   6.633   3.992
 4864SOL    HW216034   0.027   6.585   4.039
 4865SOL     OW16035   0.901   7.246   4.056
 4865SOL    HW116036   0.823   7.221   4.007
 4865SOL    HW216037   0.871   7.314   4.116
 4866SOL     OW16038   0.173   6.259   5.660
 4866SOL    HW116039   0.199   6.196   5.728
 4866SOL    HW216040   0.191   6.214   5.578
 4867SOL     OW16041   0.229   5.863   6.575
 4867SOL    HW116042   0.252   5.823   6.659
 4867SOL    HW216043   0.144   5.826   6.553
 4868SOL     OW16044   7.998   5.973   6.195
 4868SOL    HW116045   7.907   5.965   6.227
 4868SOL    HW216046   8.012   5.893   6.144
 4869SOL     OW16047   0.569   6.880   6.771
 4869SOL    HW116048   0.480   6.871   6.735
 4869SOL    HW216049   0.573   6.969   6.805
 4870SOL     OW16050   1.576   7.111   6.292
 4870SOL    HW116051   1.533   7.081   6.372
 4870SOL    HW216052   1.507   7.106   6.225
 4871SOL     OW16053   1.129   6.296   6.279
 4871SOL    HW116054   1.183   6.374   6.268
 4871SOL    HW216055   1.088   6.307   6.365
 4872SOL     OW16056   1.745   6.186   5.829
 4872SOL    HW116057   1.732   6.191   5.734
 4872SOL    HW216058   1.732   6.093   5.850
 4873SOL     OW16059   0.744   6.731   6.622
 4873SOL    HW116060   0.682   6.771   6.682
 4873SOL    HW216061   0.775   6.804   6.568
 4874SOL     OW16062   0.879   6.343   7.409
 4874SOL    HW116063   0.860   6.418   7.467
 4874SOL    HW216064   0.901   6.383   7.325
 4875SOL     OW16065   0.695   6.626   6.243
 4875SOL    HW116066   0.772   6.608   6.298
 4875SOL    HW216067   0.627   6.569   6.278
 4876SOL     OW16068   0.711   6.730   7.405
 4876SOL    HW116069   0.755   6.809   7.437
 4876SOL    HW216070   0.630   6.763   7.366
 4877SOL     OW16071   0.325   6.998   6.651
 4877SOL    HW116072   0.253   6.948   6.611
 4877SOL    HW216073   0.361   7.050   6.579
 4878SOL     OW16074   1.455   7.078   6.950
 4878SOL    HW116075   1.519   7.150   6.944
 4878SOL    HW216076   1.421   7.085   7.039
 4879SOL     OW16077   0.440   5.935   7.162
 4879SOL    HW116078   0.521   5.898   7.126
 4879SOL    HW216079   0.370   5.895   7.111
 4880SOL     OW16080   1.621   6.056   6.338
 4880SOL    HW116081   1.581   6.093   6.259
 4880SOL    HW216082   1.673   6.127   6.374
 4881SOL     OW16083   0.230   7.277   6.069
 4881SOL    HW116084   0.203   7.362   6.105
 4881SOL    HW216085   0.295   7.299   6.003
 4882SOL     OW16086   1.117   6.936   7.291
 4882SOL    HW116087   1.176   6.918   7.365
 4882SOL    HW216088   1.071   6.853   7.277
 4883SOL     OW16089   0.305   7.019   6.105
 4883SOL    HW116090   0.273   7.109   6.111
 4883SOL    HW216091   0.248   6.969   6.163
 4884SOL     OW16092   0.270   6.673   6.479
 4884SOL    HW116093   0.271   6.582   6.510
 4884SOL    HW216094   0.198   6.714   6.527
 4885SOL     OW16095   0.570   6.570   5.732
 4885SOL    HW116096   0.623   6.614   5.666
 4885SOL    HW216097   0.610   6.593   5.816
 4886SOL     OW16098   1.590   5.712   7.050
 4886SOL    HW116099   1.611   5.787   6.994
 4886SOL    HW216100   1.574   5.750   7.136
 4887SOL     OW16101   0.134   6.211   6.139
 4887SOL    HW116102   0.091   6.131   6.168
 4887SOL    HW216103   0.115   6.275   6.208
 4888SOL     OW16104   1.834   7.339   5.921
 4888SOL    HW116105   1.909   7.312   5.974
 4888SOL    HW216106   1.859   7.424   5.885
 4889SOL     OW16107   0.017   7.174   5.726
 4889SOL    HW116108   0.001   7.081   5.710
 4889SOL    HW216109   0.003   7.185   5.820
 4890SOL     OW16110   1.690   6.497   6.242
 4890SOL    HW116111   1.752   6.427   6.263
 4890SOL    HW216112   1.704   6.515   6.149
 4891SOL     OW16113   1.648   6.697   6.008
 4891SOL    HW116114   1.735   6.693   5.970
 4891SOL    HW216115   1.658   6.751   6.087
 4892SOL     OW16116   0.147   6.343   7.158
 4892SOL    HW116117   0.242   6.353   7.151
 4892SOL    HW216118   0.117   6.423   7.201
 4893SOL     OW16119   1.279   6.821   7.016
 4893SOL    HW116120   1.304   6.755   6.951
 4893SOL    HW216121   1.347   6.815   7.083
 4894SOL     OW16122   0.827   5.602   6.110
 4894SOL    HW116123   0.865   5.684   6.079
 4894SOL    HW216124   0.732   5.618   6.109
 4895SOL     OW16125   0.176   6.519   6.851
 4895SOL    HW116126   0.265   6.483   6.843
 4895SOL    HW216127   0.140   6.512   6.763
 4896SOL     OW16128   1.527   6.587   5.786
 4896SOL    HW116129   1.460   6.529   5.822
 4896SOL    HW216130   1.574   6.620   5.863
 4897SOL     OW16131   1.143   7.384   7.203
 4897SOL    HW116132   1.183   7.454   7.152
 4897SOL    HW216133   1.180   7.303   7.167
 4898SOL     OW16134   1.458   7.010   6.519
 4898SOL    HW116135   1.398   7.020   6.593
 4898SOL    HW216136   1.452   6.917   6.496
 4899SOL     OW16137   1.635   7.358   6.162
 4899SOL    HW116138   1.640   7.317   6.075
 4899SOL    HW216139   1.628   7.284   6.222
 4900SOL     OW16140   0.591   6.301   5.857
 4900SOL    HW116141   0.593   6.381   5.804
 4900SOL    HW216142   0.526   6.319   5.925
 4901SOL     OW16143   1.277   5.956   6.524
 4901SOL    HW116144   1.191   5.915   6.526
 4901SOL    HW216145   1.331   5.902   6.582
 4902SOL     OW16146   1.570   7.265   5.896
 4902SOL    HW116147   1.665   7.277   5.890
 4902SOL    HW216148   1.543   7.245   5.806
 4903SOL     OW16149   0.784   6.200   7.038
 4903SOL    HW116150   0.759   6.170   7.125
 4903SOL    HW216151   0.750   6.133   6.979
 4904SOL     OW16152   1.392   6.061   7.263
 4904SOL    HW116153   1.401   6.104   7.348
 4904SOL    HW216154   1.445   5.982   7.271
 4905SOL     OW16155   0.952   6.465   7.174
 4905SOL    HW116156   1.005   6.397   7.134
 4905SOL    HW216157   0.900   6.501   7.101
 4906SOL     OW16158   0.991   6.000   6.811
 4906SOL    HW116159   0.900   6.000   6.840
 4906SOL    HW216160   0.989   5.951   6.728
 4907SOL     OW16161   1.052   6.288   6.010
 4907SOL    HW116162   1.073   6.279   6.103
 4907SOL    HW216163   0.972   6.237   5.999
 4908SOL     OW16164   0.102   6.389   6.355
 4908SOL    HW116165   0.183   6.392   6.405
 4908SOL    HW216166   0.046   6.456   6.395
 4909SOL     OW16167   0.142   7.403   7.152
 4909SOL    HW116168   0.145   7.391   7.247
 4909SOL    HW216169   0.050   7.386   7.129
 4910SOL     OW16170   0.898   5.941   5.786
 4910SOL    HW116171   0.942   6.001   5.726
 4910SOL    HW216172   0.899   5.856   5.741
 4911SOL     OW16173   1.702   6.165   7.424
 4911SOL    HW116174   1.669   6.236   7.369
 4911SOL    HW216175   1.728   6.097   7.362
 4912SOL     OW16176   1.381   6.722   6.113
 4912SOL    HW116177   1.466   6.707   6.072
 4912SOL    HW216178   1.337   6.784   6.054
 4913SOL     OW16179   0.551   5.759   6.476
 4913SOL    HW116180   0.554   5.798   6.563
 4913SOL    HW216181   0.553   5.834   6.416
 4914SOL     OW16182   1.001   7.026   6.049
 4914SOL    HW116183   0.970   7.105   6.004
 4914SOL    HW216184   1.012   7.053   6.140
 4915SOL     OW16185   0.366   7.405   6.442
 4915SOL    HW116186   0.415   7.323   6.455
 4915SOL    HW216187   0.430   7.474   6.458
 4916SOL     OW16188   1.813   6.669   6.478
 4916SOL    HW116189   1.794   6.606   6.409
 4916SOL    HW216190   1.744   6.656   6.543
 4917SOL     OW16191   1.199   7.130   7.110
 4917SOL    HW116192   1.187   7.050   7.162
 4917SOL    HW216193   1.194   7.100   7.019
 4918SOL     OW16194   0.288   6.539   5.835
 4918SOL    HW116195   0.365   6.555   5.781
 4918SOL    HW216196   0.255   6.454   5.806
 4919SOL     OW16197   1.467   6.359   6.333
 4919SOL    HW116198   1.481   6.299   6.407
 4919SOL    HW216199   1.553   6.399   6.319
 4920SOL     OW16200   0.474   6.847   7.319
 4920SOL    HW116201   0.443   6.853   7.228
 4920SOL    HW216202   0.395   6.833   7.370
 4921SOL     OW16203   1.126   7.367   5.808
 4921SOL    HW116204   1.054   7.325   5.855
 4921SOL    HW216205   1.152   7.304   5.741
 4922SOL     OW16206   0.189   5.853   7.086
 4922SOL    HW116207   0.150   5.936   7.059
 4922SOL    HW216208   0.116   5.802   7.121
 4923SOL     OW16209   1.623   6.983   5.697
 4923SOL    HW116210   1.593   7.057   5.644
 4923SOL    HW216211   1.568   6.910   5.667
 4924SOL     OW16212   0.455   7.336   5.895
 4924SOL    HW116213   0.505   7.382   5.962
 4924SOL    HW216214   0.521   7.290   5.843
 4925SOL     OW16215   1.396   5.690   6.023
 4925SOL    HW116216   1.381   5.664   5.932
 4925SOL    HW216217   1.491   5.692   6.032
 4926SOL     OW16218   0.242   7.373   6.811
 4926SOL    HW116219   0.283   7.290   6.834
 4926SOL    HW216220   0.203   7.357   6.725
 4927SOL     OW16221   0.947   7.288   6.479
 4927SOL    HW116222   1.035   7.248   6.480
 4927SOL    HW216223   0.896   7.232   6.421
 4928SOL     OW16224   0.403   6.287   6.073
 4928SOL    HW116225   0.426   6.194   6.079
 4928SOL    HW216226   0.308   6.289   6.087
 4929SOL     OW16227   1.523   5.812   7.309
 4929SOL    HW116228   1.529   5.834   7.402
 4929SOL    HW216229   1.470   5.733   7.306
 4930SOL     OW16230   0.651   5.693   5.693
 4930SOL    HW116231   0.704   5.617   5.713
 4930SOL    HW216232   0.598   5.666   5.618
 4931SOL     OW16233   0.773   5.870   7.347
 4931SOL    HW116234   0.854   5.821   7.337
 4931SOL    HW216235   0.728   5.828   7.420
 4932SOL     OW16236   0.874   7.107   6.780
 4932SOL    HW116237   0.869   7.079   6.689
 4932SOL    HW216238   0.945   7.055   6.818
 4933SOL     OW16239   1.335   6.178   7.019
 4933SOL    HW116240   1.369   6.146   7.102
 4933SOL    HW216241   1.379   6.262   7.006
 4934SOL     OW16242   0.819   6.998   6.503
 4934SOL    HW116243   0.907   6.965   6.488
 4934SOL    HW216244   0.797   7.046   6.423
 4935SOL     OW16245   0.922   6.091   6.482
 4935SOL    HW116246   0.901   6.084   6.389
 4935SOL    HW216247   0.956   6.005   6.506
 4936SOL     OW16248   0.560   5.654   6.084
 4936SOL    HW116249   0.476   5.650   6.131
 4936SOL    HW216250   0.550   5.726   6.023
 4937SOL     OW16251   1.440   6.789   5.624
 4937SOL    HW116252   1.472   6.712   5.671
 4937SOL    HW216253   1.353   6.805   5.662
 4938SOL     OW16254   0.283   5.647   5.770
 4938SOL    HW116255   0.339   5.702   5.717
 4938SOL    HW216256   0.343   5.587   5.815
 4939SOL     OW16257   0.946   5.843   6.042
 4939SOL    HW116258   0.923   5.874   5.955
 4939SOL    HW216259   1.041   5.852   6.047
 4940SOL     OW16260   1.079   6.268   7.040
 4940SOL    HW116261   1.020   6.192   7.037
 4940SOL    HW216262   1.166   6.230   7.032
 4941SOL     OW16263   1.202   7.172   6.387
 4941SOL    HW116264   1.228   7.232   6.317
 4941SOL    HW216265   1.280   7.163   6.440
 4942SOL     OW16266   0.444   6.770   6.298
 4942SOL    HW116267   0.397   6.739   6.375
 4942SOL    HW216268   0.399   6.728   6.224
 4943SOL     OW16269   1.257   7.381   6.198
 4943SOL    HW116270   1.307   7.438   6.140
 4943SOL    HW216271   1.197   7.440   6.243
 4944SOL     OW16272   1.025   6.120   5.620
 4944SOL    HW116273   0.990   6.206   5.598
 4944SOL    HW216274   1.096   6.139   5.681
 4945SOL     OW16275   0.126   6.108   7.012
 4945SOL    HW116276   0.195   6.123   6.947
 4945SOL    HW216277   0.111   6.195   7.050
 4946SOL     OW16278   0.564   5.810   6.754
 4946SOL    HW116279   0.608   5.727   6.771
 4946SOL    HW216280   0.474   5.795   6.783
 4947SOL     OW16281   0.860   6.049   6.217
 4947SOL    HW116282   0.830   6.095   6.138
 4947SOL    HW216283   0.892   5.965   6.185
 4948SOL     OW16284   0.998   5.651   6.339
 4948SOL    HW116285   0.947   5.638   6.259
 4948SOL    HW216286   0.986   5.570   6.388
 4949SOL     OW16287   1.455   6.748   6.437
 4949SOL    HW116288   1.392   6.681   6.410
 4949SOL    HW216289   1.514   6.756   6.362
 4950SOL     OW16290   1.443   6.202   6.574
 4950SOL    HW116291   1.408   6.117   6.551
 4950SOL    HW216292   1.536   6.186   6.590
 4951SOL     OW16293   1.834   6.401   5.980
 4951SOL    HW116294   1.891   6.352   6.039
 4951SOL    HW216295   1.808   6.337   5.913
 4952SOL     OW16296   0.490   6.998   5.744
 4952SOL    HW116297   0.407   6.966   5.781
 4952SOL    HW216298   0.499   6.951   5.661
 4953SOL     OW16299   1.669   6.850   6.236
 4953SOL    HW116300   1.764   6.841   6.241
 4953SOL    HW216301   1.653   6.945   6.240
 4954SOL     OW16302   1.399   6.163   5.657
 4954SOL    HW116303   1.341   6.130   5.726
 4954SOL    HW216304   1.481   6.117   5.671
 4955SOL     OW16305   0.532   5.847   5.894
 4955SOL    HW116306   0.581   5.794   5.830
 4955SOL    HW216307   0.509   5.926   5.846
 4956SOL     OW16308   1.750   6.822   7.164
 4956SOL    HW116309   1.836   6.788   7.142
 4956SOL    HW216310   1.764   6.916   7.177
 4957SOL     OW16311   1.050   6.941   6.922
 4957SOL    HW116312   0.974   6.905   6.968
 4957SOL    HW216313   1.125   6.895   6.960
 4958SOL     OW16314   1.598   7.206   7.253
 4958SOL    HW116315   1.587   7.264   7.178
 4958SOL    HW216316   1.679   7.157   7.233
 4959SOL     OW16317   1.144   6.807   6.691
 4959SOL    HW116318   1.073   6.838   6.749
 4959SOL    HW216319   1.116   6.832   6.603
 4960SOL     OW16320   1.613   6.668   6.667
 4960SOL    HW116321   1.597   6.730   6.737
 4960SOL    HW216322   1.544   6.685   6.603
 4961SOL     OW16323   0.910   5.688   6.970
 4961SOL    HW116324   0.933   5.659   6.881
 4961SOL    HW216325   0.993   5.719   7.007
 4962SOL     OW16326   0.979   6.698   7.309
 4962SOL    HW116327   0.886   6.709   7.331
 4962SOL    HW216328   0.981   6.620   7.254
 4963SOL     OW16329   0.703   6.625   5.971
 4963SOL    HW116330   0.707   6.600   6.063
 4963SOL    HW216331   0.781   6.585   5.931
 4964SOL     OW16332   0.427   6.406   6.838
 4964SOL    HW116333   0.494   6.417   6.906
 4964SOL    HW216334   0.399   6.315   6.847
 4965SOL     OW16335   1.259   5.955   6.875
 4965SOL    HW116336   1.293   6.036   6.914
 4965SOL    HW216337   1.171   5.979   6.845
 4966SOL     OW16338   0.064   7.163   6.938
 4966SOL    HW116339   0.059   7.254   6.910
 4966SOL    HW216340   0.158   7.144   6.939
 4967SOL     OW16341   0.383   6.704   6.041
 4967SOL    HW116342   0.333   6.768   5.989
 4967SOL    HW216343   0.365   6.620   5.999
 4968SOL     OW16344   0.555   6.127   6.444
 4968SOL    HW116345   0.568   6.190   6.373
 4968SOL    HW216346   0.629   6.142   6.503
 4969SOL     OW16347   1.251   6.933   5.971
 4969SOL    HW116348   1.307   7.002   6.006
 4969SOL    HW216349   1.163   6.954   6.004
 4970SOL     OW16350   1.292   7.045   6.734
 4970SOL    HW116351   1.349   7.048   6.810
 4970SOL    HW216352   1.248   6.960   6.740
 4971SOL     OW16353   1.590   6.196   6.084
 4971SOL    HW116354   1.539   6.273   6.109
 4971SOL    HW216355   1.637   6.224   6.005
 4972SOL     OW16356   0.338   7.121   6.889
 4972SOL    HW116357   0.326   7.071   6.809
 4972SOL    HW216358   0.433   7.132   6.897
 4973SOL     OW16359   0.429   6.337   7.193
 4973SOL    HW116360   0.492   6.375   7.132
 4973SOL    HW216361   0.468   6.254   7.219
 4974SOL     OW16362   1.612   6.374   7.275
 4974SOL    HW116363   1.526   6.413   7.263
 4974SOL    HW216364   1.664   6.409   7.203
 4975SOL     OW16365   0.999   5.721   7.338
 4975SOL    HW116366   1.060   5.791   7.315
 4975SOL    HW216367   1.042   5.641   7.310
 4976SOL     OW16368   0.443   5.680   7.359
 4976SOL    HW116369   0.443   5.623   7.282
 4976SOL    HW216370   0.390   5.634   7.424
 4977SOL     OW16371   0.594   6.459   6.620
 4977SOL    HW116372   0.626   6.549   6.624
 4977SOL    HW216373   0.534   6.451   6.694
 4978SOL     OW16374   1.337   6.448   6.618
 4978SOL    HW116375   1.286   6.451   6.537
 4978SOL    HW216376   1.381   6.363   6.615
 4979SOL     OW16377   1.199   6.112   5.848
 4979SOL    HW116378   1.210   6.031   5.897
 4979SOL    HW216379   1.157   6.173   5.909
 4980SOL     OW16380   0.308   5.759   6.838
 4980SOL    HW116381   0.251   5.799   6.904
 4980SOL    HW216382   0.282   5.667   6.836
 4981SOL     OW16383   0.066   6.893   6.858
 4981SOL    HW116384   0.083   6.832   6.930
 4981SOL    HW216385   0.049   6.977   6.901
 4982SOL     OW16386   0.731   6.213   6.647
 4982SOL    HW116387   0.804   6.195   6.588
 4982SOL    HW216388   0.703   6.302   6.623
 4983SOL     OW16389   1.745   6.543   7.451
 4983SOL    HW116390   1.705   6.479   7.393
 4983SOL    HW216391   1.678   6.559   7.519
 4984SOL     OW16392   0.314   5.651   6.204
 4984SOL    HW116393   0.280   5.739   6.223
 4984SOL    HW216394   0.322   5.609   6.290
 4985SOL     OW16395   1.617   5.950   5.954
 4985SOL    HW116396   1.657   5.886   6.013
 4985SOL    HW216397   1.596   6.024   6.012
 4986SOL     OW16398   1.017   6.343   6.538
 4986SOL    HW116399   1.023   6.359   6.632
 4986SOL    HW216400   1.000   6.249   6.530
 4987SOL     OW16401   0.951   7.156   7.301
 4987SOL    HW116402   0.983   7.211   7.230
 4987SOL    HW216403   0.997   7.073   7.289
 4988SOL     OW16404   1.832   7.085   7.177
 4988SOL    HW116405   1.861   7.115   7.091
 4988SOL    HW216406   1.909   7.094   7.234
 4989SOL     OW16407   0.374   6.530   7.381
 4989SOL    HW116408   0.450   6.532   7.440
 4989SOL    HW216409   0.392   6.459   7.320
 4990SOL     OW16410   1.498   5.873   5.719
 4990SOL    HW116411   1.449   5.793   5.738
 4990SOL    HW216412   1.544   5.894   5.801
 4991SOL     OW16413   1.284   6.410   5.616
 4991SOL    HW116414   1.329   6.326   5.620
 4991SOL    HW216415   1.316   6.450   5.534
 4992SOL     OW16416   1.069   6.921   6.448
 4992SOL    HW116417   1.073   6.848   6.387
 4992SOL    HW216418   1.131   6.986   6.413
 4993SOL     OW16419   0.320   6.390   6.523
 4993SOL    HW116420   0.415   6.401   6.519
 4993SOL    HW216421   0.306   6.304   6.562
 4994SOL     OW16422   0.343   6.108   6.603
 4994SOL    HW116423   0.301   6.025   6.582
 4994SOL    HW216424   0.417   6.114   6.542
 4995SOL     OW16425   1.134   5.960   7.271
 4995SOL    HW116426   1.088   6.014   7.336
 4995SOL    HW216427   1.221   6.000   7.264
 4996SOL     OW16428   1.153   5.781   7.060
 4996SOL    HW116429   1.145   5.846   7.131
 4996SOL    HW216430   1.199   5.828   6.990
 4997SOL     OW16431   7.982   6.883   5.774
 4997SOL    HW116432   7.900   6.905   5.819
 4997SOL    HW216433   7.955   6.855   5.687
 4998SOL     OW16434   0.131   7.346   6.565
 4998SOL    HW116435   0.088   7.286   6.504
 4998SOL    HW216436   0.207   7.379   6.517
 4999SOL     OW16437   0.513   7.167   6.511
 4999SOL    HW116438   0.574   7.239   6.529
 4999SOL    HW216439   0.569   7.090   6.502
 5000SOL     OW16440   0.965   6.380   6.812
 5000SOL    HW116441   1.026   6.357   6.881
 5000SOL    HW216442   0.892   6.319   6.822
 5001SOL     OW16443   0.074   6.169   6.724
 5001SOL    HW116444   0.133   6.095   6.713
 5001SOL    HW216445   0.003   6.134   6.778
 5002SOL     OW16446   0.248   6.119   7.284
 5002SOL    HW116447   0.284   6.083   7.203
 5002SOL    HW216448   0.190   6.189   7.256
 5003SOL     OW16449   1.379   6.524   7.243
 5003SOL    HW116450   1.404   6.616   7.235
 5003SOL    HW216451   1.376   6.491   7.153
 5004SOL     OW16452   0.814   6.154   5.958
 5004SOL    HW116453   0.832   6.080   5.901
 5004SOL    HW216454   0.741   6.200   5.916
 5005SOL     OW16455   1.657   6.167   6.793
 5005SOL    HW116456   1.601   6.093   6.771
 5005SOL    HW216457   1.727   6.166   6.728
 5006SOL     OW16458   0.346   7.137   7.316
 5006SOL    HW116459   0.291   7.200   7.363
 5006SOL    HW216460   0.286   7.067   7.291
 5007SOL     OW16461   0.690   6.035   6.847
 5007SOL    HW116462   0.649   5.956   6.812
 5007SOL    HW216463   0.696   6.094   6.771
 5008SOL     OW16464   0.843   7.289   7.023
 5008SOL    HW116465   0.880   7.229   6.959
 5008SOL    HW216466   0.892   7.370   7.012
 5009SOL     OW16467   0.460   6.073   5.763
 5009SOL    HW116468   0.517   6.148   5.780
 5009SOL    HW216469   0.378   6.094   5.807
 5010SOL     OW16470   0.160   6.712   7.046
 5010SOL    HW116471   0.141   6.665   7.127
 5010SOL    HW216472   0.163   6.644   6.979
 5011SOL     OW16473   1.308   6.628   6.814
 5011SOL    HW116474   1.330   6.562   6.748
 5011SOL    HW216475   1.251   6.690   6.768
 5012SOL     OW16476   1.305   6.446   5.889
 5012SOL    HW116477   1.237   6.396   5.934
 5012SOL    HW216478   1.292   6.427   5.796
 5013SOL     OW16479   1.784   7.327   6.740
 5013SOL    HW116480   1.845   7.349   6.670
 5013SOL    HW216481   1.751   7.240   6.717
 5014SOL     OW16482   1.238   7.315   6.692
 5014SOL    HW116483   1.320   7.344   6.653
 5014SOL    HW216484   1.252   7.222   6.710
 5015SOL     OW16485   0.073   6.823   6.600
 5015SOL    HW116486   0.068   6.844   6.693
 5015SOL    HW216487  -0.017   6.830   6.569
 5016SOL     OW16488   0.696   7.268   7.290
 5016SOL    HW116489   0.692   7.346   7.344
 5016SOL    HW216490   0.788   7.241   7.293
 5017SOL     OW16491   1.743   5.744   6.095
 5017SOL    HW116492   1.804   5.731   6.022
 5017SOL    HW216493   1.723   5.656   6.126
 5018SOL     OW16494   1.389   7.153   6.078
 5018SOL    HW116495   1.450   7.182   6.010
 5018SOL    HW216496   1.343   7.232   6.105
 5019SOL     OW16497   0.189   7.331   7.423
 5019SOL    HW116498   0.124   7.276   7.467
 5019SOL    HW216499   0.218   7.392   7.491
 5020SOL     OW16500   1.276   6.532   6.272
 5020SOL    HW116501   1.347   6.469   6.288
 5020SOL    HW216502   1.312   6.592   6.206
 5021SOL     OW16503   0.799   6.860   7.002
 5021SOL    HW116504   0.766   6.902   7.082
 5021SOL    HW216505   0.723   6.856   6.944
 5022SOL     OW16506   0.666   7.207   5.746
 5022SOL    HW116507   0.680   7.224   5.653
 5022SOL    HW216508   0.610   7.130   5.749
 5023SOL     OW16509   1.628   7.284   6.965
 5023SOL    HW116510   1.683   7.303   6.889
 5023SOL    HW216511   1.601   7.370   6.997
 5024SOL     OW16512   1.847   5.719   6.534
 5024SOL    HW116513   1.879   5.691   6.449
 5024SOL    HW216514   1.758   5.752   6.517
 5025SOL     OW16515   0.260   5.908   6.295
 5025SOL    HW116516   0.173   5.942   6.273
 5025SOL    HW216517   0.259   5.899   6.390
 5026SOL     OW16518   1.200   7.183   5.621
 5026SOL    HW116519   1.194   7.090   5.642
 5026SOL    HW216520   1.142   7.194   5.545
 5027SOL     OW16521   0.827   6.587   6.964
 5027SOL    HW116522   0.876   6.561   6.886
 5027SOL    HW216523   0.833   6.682   6.966
 5028SOL     OW16524   0.924   6.507   5.885
 5028SOL    HW116525   0.980   6.534   5.812
 5028SOL    HW216526   0.972   6.434   5.925
 5029SOL     OW16527   1.475   7.254   5.628
 5029SOL    HW116528   1.387   7.220   5.610
 5029SOL    HW216529   1.521   7.245   5.545
 5030SOL     OW16530   0.371   6.889   7.072
 5030SOL    HW116531   0.342   6.966   7.023
 5030SOL    HW216532   0.302   6.825   7.059
 5031SOL     OW16533   1.593   6.855   6.862
 5031SOL    HW116534   1.683   6.865   6.894
 5031SOL    HW216535   1.545   6.929   6.900
 5032SOL     OW16536   1.057   6.702   6.296
 5032SOL    HW116537   0.994   6.643   6.337
 5032SOL    HW216538   1.131   6.645   6.272
 5033SOL     OW16539   1.020   5.827   6.557
 5033SOL    HW116540   1.014   5.783   6.472
 5033SOL    HW216541   1.017   5.756   6.621
 5034SOL     OW16542   0.602   7.066   6.103
 5034SOL    HW116543   0.649   7.044   6.022
 5034SOL    HW216544   0.514   7.089   6.074
 5035SOL     OW16545   1.768   5.967   6.977
 5035SOL    HW116546   1.747   6.042   6.922
 5035SOL    HW216547   1.788   5.897   6.915
 5036SOL     OW16548   0.246   6.905   5.868
 5036SOL    HW116549   0.152   6.912   5.855
 5036SOL    HW216550   0.264   6.955   5.947
 5037SOL     OW16551   0.121   6.584   7.292
 5037SOL    HW116552   0.079   6.653   7.343
 5037SOL    HW216553   0.207   6.572   7.333
 5038SOL     OW16554   0.680   5.788   7.095
 5038SOL    HW116555   0.758   5.763   7.045
 5038SOL    HW216556   0.715   5.819   7.179
 5039SOL     OW16557   0.119   5.957   5.631
 5039SOL    HW116558   0.034   5.914   5.637
 5039SOL    HW216559   0.117   6.004   5.548
 5040SOL     OW16560   1.426   6.445   6.986
 5040SOL    HW116561   1.374   6.504   6.931
 5040SOL    HW216562   1.512   6.443   6.945
 5041SOL     OW16563   0.114   5.826   5.933
 5041SOL    HW116564   0.053   5.820   5.859
 5041SOL    HW216565   0.188   5.772   5.908
 5042SOL     OW16566   1.184   6.914   5.705
 5042SOL    HW116567   1.109   6.854   5.708
 5042SOL    HW216568   1.215   6.918   5.796
 5043SOL     OW16569   0.624   6.417   7.024
 5043SOL    HW116570   0.683   6.491   7.007
 5043SOL    HW216571   0.682   6.341   7.028
 5044SOL     OW16572   1.480   7.368   6.571
 5044SOL    HW116573   1.512   7.428   6.504
 5044SOL    HW216574   1.559   7.330   6.609
 5045SOL     OW16575   0.710   6.141   7.294
 5045SOL    HW116576   0.764   6.198   7.348
 5045SOL    HW216577   0.736   6.052   7.320
 5046SOL     OW16578   1.476   6.784   7.215
 5046SOL    HW116579   1.473   6.798   7.310
 5046SOL    HW216580   1.568   6.797   7.191
 5047SOL     OW16581   0.409   7.327   7.135
 5047SOL    HW116582   0.320   7.358   7.114
 5047SOL    HW216583   0.395   7.248   7.187
 5048SOL     OW16584   1.663   6.457   6.845
 5048SOL    HW116585   1.663   6.371   6.803
 5048SOL    HW216586   1.654   6.520   6.773
 5049SOL     OW16587   1.216   5.904   6.040
 5049SOL    HW116588   1.278   5.832   6.031
 5049SOL    HW216589   1.246   5.952   6.118
 5050SOL     OW16590   0.587   6.353   6.264
 5050SOL    HW116591   0.666   6.333   6.215
 5050SOL    HW216592   0.516   6.334   6.203
 5051SOL     OW16593   1.752   5.959   7.251
 5051SOL    HW116594   1.759   5.967   7.156
 5051SOL    HW216595   1.680   5.898   7.264
 5052SOL     OW16596   1.762   6.512   7.095
 5052SOL    HW116597   1.748   6.606   7.107
 5052SOL    HW216598   1.737   6.495   7.004
 5053SOL     OW16599   0.837   6.971   5.625
 5053SOL    HW116600   0.832   7.035   5.696
 5053SOL    HW216601   0.880   7.018   5.554
 5054SOL     OW16602   0.673   7.386   6.542
 5054SOL    HW116603   0.649   7.472   6.507
 5054SOL    HW216604   0.765   7.377   6.520
 5055SOL     OW16605   0.875   6.556   6.438
 5055SOL    HW116606   0.922   6.479   6.471
 5055SOL    HW216607   0.835   6.595   6.516
 5056SOL     OW16608   1.070   6.574   5.668
 5056SOL    HW116609   1.054   6.621   5.587
 5056SOL    HW216610   1.146   6.519   5.650
 5057SOL     OW16611   1.859   7.133   6.432
 5057SOL    HW116612   1.781   7.112   6.381
 5057SOL    HW216613   1.880   7.051   6.478
 5058SOL     OW16614   0.231   6.859   7.446
 5058SOL    HW116615   0.160   6.892   7.390
 5058SOL    HW216616   0.198   6.869   7.535
 5059SOL     OW16617   0.136   6.841   6.233
 5059SOL    HW116618   0.050   6.811   6.262
 5059SOL    HW216619   0.198   6.783   6.279
 5060SOL     OW16620   0.665   7.007   7.191
 5060SOL    HW116621   0.600   6.953   7.236
 5060SOL    HW216622   0.662   7.091   7.235
 5061SOL     OW16623   1.810   5.759   6.811
 5061SOL    HW116624   1.810   5.667   6.837
 5061SOL    HW216625   1.824   5.756   6.716
 5062SOL     OW16626   0.441   6.024   6.108
 5062SOL    HW116627   0.475   5.954   6.052
 5062SOL    HW216628   0.387   5.978   6.173
 5063SOL     OW16629   1.677   7.087   6.686
 5063SOL    HW116630   1.609   7.056   6.626
 5063SOL    HW216631   1.712   7.007   6.726
 5064SOL     OW16632   0.367   6.138   6.869
 5064SOL    HW116633   0.442   6.083   6.891
 5064SOL    HW216634   0.356   6.128   6.775
 5065SOL     OW16635   0.796   7.171   6.273
 5065SOL    HW116636   0.820   7.249   6.222
 5065SOL    HW216637   0.723   7.132   6.224
 5066SOL     OW16638   1.427   5.813   6.700
 5066SOL    HW116639   1.433   5.719   6.714
 5066SOL    HW216640   1.374   5.845   6.774
 5067SOL     OW16641   1.004   5.598   6.722
 5067SOL    HW116642   0.952   5.531   6.676
 5067SOL    HW216643   1.091   5.560   6.728
 5068SOL     OW16644   0.763   6.901   5.960
 5068SOL    HW116645   0.769   6.824   5.903
 5068SOL    HW216646   0.855   6.926   5.975
 5069SOL     OW16647   0.621   7.136   6.893
 5069SOL    HW116648   0.659   7.104   6.975
 5069SOL    HW216649   0.695   7.141   6.832
 5070SOL     OW16650   1.359   5.633   5.759
 5070SOL    HW116651   1.396   5.580   5.688
 5070SOL    HW216652   1.270   5.600   5.770
 5071SOL     OW16653   1.280   6.049   6.262
 5071SOL    HW116654   1.238   6.134   6.271
 5071SOL    HW216655   1.288   6.017   6.352
 5072SOL     OW16656   1.605   5.815   6.480
 5072SOL    HW116657   1.533   5.823   6.542
 5072SOL    HW216658   1.596   5.891   6.423
 5073SOL     OW16659   0.885   7.243   5.927
 5073SOL    HW116660   0.812   7.235   5.866
 5073SOL    HW216661   0.860   7.314   5.986
 5074SOL     OW16662   0.243   6.287   7.531
 5074SOL    HW116663   0.210   6.226   7.598
 5074SOL    HW216664   0.248   6.235   7.451
 5075SOL     OW16665   0.232   5.852   8.428
 5075SOL    HW116666   0.260   5.820   8.514
 5075SOL    HW216667   0.164   5.789   8.400
 5076SOL     OW16668   7.996   5.970   8.076
 5076SOL    HW116669   7.906   5.980   8.106
 5076SOL    HW216670   7.997   5.888   8.029
 5077SOL     OW16671   0.559   6.883   8.632
 5077SOL    HW116672   0.473   6.899   8.593
 5077SOL    HW216673   0.582   6.966   8.674
 5078SOL     OW16674   1.570   7.102   8.160
 5078SOL    HW116675   1.528   7.068   8.239
 5078SOL    HW216676   1.503   7.097   8.092
 5079SOL     OW16677   1.131   6.289   8.142
 5079SOL    HW116678   1.180   6.370   8.130
 5079SOL    HW216679   1.084   6.301   8.225
 5080SOL     OW16680   1.746   6.190   7.688
 5080SOL    HW116681   1.734   6.190   7.593
 5080SOL    HW216682   1.728   6.100   7.715
 5081SOL     OW16683   0.725   6.722   8.494
 5081SOL    HW116684   0.668   6.767   8.557
 5081SOL    HW216685   0.773   6.792   8.450
 5082SOL     OW16686   0.872   6.353   9.277
 5082SOL    HW116687   0.861   6.421   9.343
 5082SOL    HW216688   0.898   6.400   9.198
 5083SOL     OW16689   0.694   6.595   8.090
 5083SOL    HW116690   0.751   6.577   8.165
 5083SOL    HW216691   0.623   6.648   8.125
 5084SOL     OW16692   0.718   6.738   9.265
 5084SOL    HW116693   0.762   6.815   9.301
 5084SOL    HW216694   0.636   6.772   9.229
 5085SOL     OW16695   0.334   6.995   8.510
 5085SOL    HW116696   0.255   6.956   8.473
 5085SOL    HW216697   0.365   7.055   8.442
 5086SOL     OW16698   1.458   7.088   8.812
 5086SOL    HW116699   1.512   7.166   8.824
 5086SOL    HW216700   1.388   7.097   8.877
 5087SOL     OW16701   0.452   5.978   8.928
 5087SOL    HW116702   0.526   5.918   8.934
 5087SOL    HW216703   0.375   5.922   8.935
 5088SOL     OW16704   1.604   6.020   8.194
 5088SOL    HW116705   1.537   6.035   8.127
 5088SOL    HW216706   1.626   6.107   8.227
 5089SOL     OW16707   0.222   7.276   7.908
 5089SOL    HW116708   0.175   7.358   7.923
 5089SOL    HW216709   0.290   7.298   7.845
 5090SOL     OW16710   1.136   6.929   9.142
 5090SOL    HW116711   1.173   6.925   9.231
 5090SOL    HW216712   1.084   6.850   9.135
 5091SOL     OW16713   0.300   7.027   7.991
 5091SOL    HW116714   0.263   7.115   7.987
 5091SOL    HW216715   0.242   6.978   8.049
 5092SOL     OW16716   0.297   6.655   8.397
 5092SOL    HW116717   0.243   6.576   8.386
 5092SOL    HW216718   0.235   6.724   8.417
 5093SOL     OW16719   0.605   7.380   8.863
 5093SOL    HW116720   0.529   7.355   8.915
 5093SOL    HW216721   0.628   7.468   8.895
 5094SOL     OW16722   0.580   6.566   7.589
 5094SOL    HW116723   0.627   6.613   7.520
 5094SOL    HW216724   0.619   6.599   7.671
 5095SOL     OW16725   1.593   5.714   8.914
 5095SOL    HW116726   1.617   5.784   8.853
 5095SOL    HW216727   1.573   5.759   8.995
 5096SOL     OW16728   0.121   6.209   7.994
 5096SOL    HW116729   0.087   6.125   8.027
 5096SOL    HW216730   0.109   6.270   8.067
 5097SOL     OW16731   1.825   7.356   7.785
 5097SOL    HW116732   1.902   7.328   7.835
 5097SOL    HW216733   1.852   7.437   7.742
 5098SOL     OW16734   0.031   7.172   7.580
 5098SOL    HW116735   0.019   7.078   7.595
 5098SOL    HW216736  -0.035   7.214   7.635
 5099SOL     OW16737   1.698   6.507   8.098
 5099SOL    HW116738   1.769   6.450   8.069
 5099SOL    HW216739   1.670   6.553   8.019
 5100SOL     OW16740   1.649   6.684   7.879
 5100SOL    HW116741   1.735   6.681   7.837
 5100SOL    HW216742   1.659   6.751   7.947
 5101SOL     OW16743   0.149   6.347   9.034
 5101SOL    HW116744   0.244   6.344   9.031
 5101SOL    HW216745   0.129   6.432   9.076
 5102SOL     OW16746   0.601   6.977   8.190
 5102SOL    HW116747   0.560   6.890   8.193
 5102SOL    HW216748   0.593   7.004   8.099
 5103SOL     OW16749   1.284   6.824   8.864
 5103SOL    HW116750   1.313   6.752   8.807
 5103SOL    HW216751   1.341   6.817   8.941
 5104SOL     OW16752   0.831   5.591   7.970
 5104SOL    HW116753   0.870   5.674   7.940
 5104SOL    HW216754   0.737   5.608   7.971
 5105SOL     OW16755   0.188   6.510   8.725
 5105SOL    HW116756   0.276   6.476   8.713
 5105SOL    HW216757   0.144   6.493   8.642
 5106SOL     OW16758   1.529   6.586   7.649
 5106SOL    HW116759   1.461   6.526   7.679
 5106SOL    HW216760   1.573   6.615   7.729
 5107SOL     OW16761   1.213   7.404   9.078
 5107SOL    HW116762   1.196   7.457   9.000
 5107SOL    HW216763   1.215   7.314   9.045
 5108SOL     OW16764   0.348   5.838   9.252
 5108SOL    HW116765   0.402   5.913   9.275
 5108SOL    HW216766   0.260   5.863   9.280
 5109SOL     OW16767   1.457   7.009   8.388
 5109SOL    HW116768   1.396   7.020   8.461
 5109SOL    HW216769   1.449   6.917   8.363
 5110SOL     OW16770   1.646   7.329   8.030
 5110SOL    HW116771   1.632   7.300   7.940
 5110SOL    HW216772   1.625   7.252   8.084
 5111SOL     OW16773   0.587   6.291   7.711
 5111SOL    HW116774   0.590   6.374   7.662
 5111SOL    HW216775   0.523   6.306   7.780
 5112SOL     OW16776   1.278   5.957   8.387
 5112SOL    HW116777   1.190   5.919   8.390
 5112SOL    HW216778   1.331   5.899   8.441
 5113SOL     OW16779   1.567   7.271   7.762
 5113SOL    HW116780   1.659   7.295   7.751
 5113SOL    HW216781   1.537   7.250   7.674
 5114SOL     OW16782   0.784   6.213   8.885
 5114SOL    HW116783   0.765   6.186   8.975
 5114SOL    HW216784   0.755   6.139   8.831
 5115SOL     OW16785   1.391   6.062   9.126
 5115SOL    HW116786   1.399   6.106   9.210
 5115SOL    HW216787   1.448   5.986   9.133
 5116SOL     OW16788   0.948   6.468   9.037
 5116SOL    HW116789   1.003   6.400   8.998
 5116SOL    HW216790   0.900   6.505   8.964
 5117SOL     OW16791   0.995   6.000   8.673
 5117SOL    HW116792   0.902   6.008   8.697
 5117SOL    HW216793   0.995   5.944   8.595
 5118SOL     OW16794   1.054   6.284   7.872
 5118SOL    HW116795   1.073   6.275   7.965
 5118SOL    HW216796   0.971   6.239   7.860
 5119SOL     OW16797   0.091   6.380   8.214
 5119SOL    HW116798   0.167   6.397   8.269
 5119SOL    HW216799   0.043   6.463   8.214
 5120SOL     OW16800   0.123   7.398   9.013
 5120SOL    HW116801   0.135   7.380   9.106
 5120SOL    HW216802   0.027   7.399   9.001
 5121SOL     OW16803   0.898   5.941   7.649
 5121SOL    HW116804   0.942   6.000   7.587
 5121SOL    HW216805   0.891   5.858   7.602
 5122SOL     OW16806   1.699   6.155   9.280
 5122SOL    HW116807   1.668   6.229   9.228
 5122SOL    HW216808   1.731   6.092   9.216
 5123SOL     OW16809   1.384   6.729   7.988
 5123SOL    HW116810   1.461   6.710   7.934
 5123SOL    HW216811   1.331   6.788   7.934
 5124SOL     OW16812   0.595   5.768   8.341
 5124SOL    HW116813   0.571   5.815   8.420
 5124SOL    HW216814   0.561   5.822   8.269
 5125SOL     OW16815   1.003   7.036   7.921
 5125SOL    HW116816   0.972   7.107   7.865
 5125SOL    HW216817   0.971   7.059   8.008
 5126SOL     OW16818   1.808   6.650   8.316
 5126SOL    HW116819   1.760   6.616   8.240
 5126SOL    HW216820   1.743   6.650   8.386
 5127SOL     OW16821   1.229   7.127   8.962
 5127SOL    HW116822   1.216   7.057   9.027
 5127SOL    HW216823   1.155   7.118   8.902
 5128SOL     OW16824   0.308   6.521   7.687
 5128SOL    HW116825   0.388   6.553   7.646
 5128SOL    HW216826   0.283   6.444   7.636
 5129SOL     OW16827   1.473   6.357   8.186
 5129SOL    HW116828   1.479   6.299   8.262
 5129SOL    HW216829   1.562   6.393   8.177
 5130SOL     OW16830   0.472   6.849   9.179
 5130SOL    HW116831   0.443   6.854   9.088
 5130SOL    HW216832   0.391   6.835   9.229
 5131SOL     OW16833   1.128   7.358   7.680
 5131SOL    HW116834   1.049   7.322   7.719
 5131SOL    HW216835   1.153   7.296   7.612
 5132SOL     OW16836   0.194   5.870   8.923
 5132SOL    HW116837   0.138   5.948   8.921
 5132SOL    HW216838   0.163   5.822   9.000
 5133SOL     OW16839   1.632   6.977   7.560
 5133SOL    HW116840   1.594   7.058   7.526
 5133SOL    HW216841   1.571   6.909   7.530
 5134SOL     OW16842   0.456   7.343   7.754
 5134SOL    HW116843   0.506   7.378   7.828
 5134SOL    HW216844   0.520   7.289   7.706
 5135SOL     OW16845   1.398   5.692   7.887
 5135SOL    HW116846   1.390   5.666   7.796
 5135SOL    HW216847   1.491   5.683   7.906
 5136SOL     OW16848   0.278   7.381   8.669
 5136SOL    HW116849   0.310   7.307   8.721
 5136SOL    HW216850   0.201   7.345   8.624
 5137SOL     OW16851   0.931   7.285   8.340
 5137SOL    HW116852   1.013   7.240   8.359
 5137SOL    HW216853   0.892   7.235   8.269
 5138SOL     OW16854   0.403   6.279   7.937
 5138SOL    HW116855   0.427   6.186   7.945
 5138SOL    HW216856   0.308   6.278   7.930
 5139SOL     OW16857   1.525   5.818   9.169
 5139SOL    HW116858   1.534   5.834   9.263
 5139SOL    HW216859   1.462   5.746   9.163
 5140SOL     OW16860   0.650   5.714   7.541
 5140SOL    HW116861   0.690   5.630   7.563
 5140SOL    HW216862   0.584   5.693   7.475
 5141SOL     OW16863   0.765   5.830   9.228
 5141SOL    HW116864   0.846   5.783   9.206
 5141SOL    HW216865   0.787   5.881   9.306
 5142SOL     OW16866   0.879   7.113   8.641
 5142SOL    HW116867   0.859   7.072   8.557
 5142SOL    HW216868   0.945   7.056   8.681
 5143SOL     OW16869   1.338   6.180   8.883
 5143SOL    HW116870   1.370   6.146   8.966
 5143SOL    HW216871   1.380   6.265   8.873
 5144SOL     OW16872   0.812   6.975   8.396
 5144SOL    HW116873   0.898   6.962   8.355
 5144SOL    HW216874   0.751   6.984   8.323
 5145SOL     OW16875   0.927   6.082   8.345
 5145SOL    HW116876   0.905   6.075   8.253
 5145SOL    HW216877   0.959   5.995   8.369
 5146SOL     OW16878   0.567   5.648   7.950
 5146SOL    HW116879   0.496   5.646   8.015
 5146SOL    HW216880   0.543   5.718   7.890
 5147SOL     OW16881   1.439   6.792   7.490
 5147SOL    HW116882   1.467   6.713   7.536
 5147SOL    HW216883   1.350   6.808   7.522
 5148SOL     OW16884   0.305   5.643   7.601
 5148SOL    HW116885   0.304   5.720   7.657
 5148SOL    HW216886   0.365   5.582   7.646
 5149SOL     OW16887   0.947   5.839   7.905
 5149SOL    HW116888   0.923   5.873   7.818
 5149SOL    HW216889   1.042   5.851   7.910
 5150SOL     OW16890   1.083   6.270   8.906
 5150SOL    HW116891   1.026   6.193   8.904
 5150SOL    HW216892   1.172   6.234   8.900
 5151SOL     OW16893   1.203   7.162   8.247
 5151SOL    HW116894   1.225   7.227   8.180
 5151SOL    HW216895   1.284   7.152   8.298
 5152SOL     OW16896   0.469   6.730   8.179
 5152SOL    HW116897   0.399   6.718   8.243
 5152SOL    HW216898   0.425   6.719   8.094
 5153SOL     OW16899   1.265   7.382   8.070
 5153SOL    HW116900   1.306   7.443   8.009
 5153SOL    HW216901   1.191   7.431   8.106
 5154SOL     OW16902   1.025   6.118   7.478
 5154SOL    HW116903   0.983   6.201   7.456
 5154SOL    HW216904   1.094   6.141   7.540
 5155SOL     OW16905   0.113   6.160   8.837
 5155SOL    HW116906   0.203   6.162   8.806
 5155SOL    HW216907   0.108   6.230   8.902
 5156SOL     OW16908   0.558   5.824   8.616
 5156SOL    HW116909   0.599   5.737   8.614
 5156SOL    HW216910   0.468   5.807   8.644
 5157SOL     OW16911   0.863   6.047   8.081
 5157SOL    HW116912   0.829   6.097   8.007
 5157SOL    HW216913   0.890   5.964   8.043
 5158SOL     OW16914   1.007   5.650   8.199
 5158SOL    HW116915   0.953   5.638   8.120
 5158SOL    HW216916   0.990   5.571   8.251
 5159SOL     OW16917   1.438   6.751   8.298
 5159SOL    HW116918   1.371   6.683   8.301
 5159SOL    HW216919   1.467   6.754   8.207
 5160SOL     OW16920   1.461   6.199   8.419
 5160SOL    HW116921   1.410   6.118   8.414
 5160SOL    HW216922   1.521   6.185   8.493
 5161SOL     OW16923   1.835   6.398   7.840
 5161SOL    HW116924   1.895   6.346   7.892
 5161SOL    HW216925   1.804   6.338   7.772
 5162SOL     OW16926   0.482   7.003   7.602
 5162SOL    HW116927   0.408   6.965   7.650
 5162SOL    HW216928   0.467   6.978   7.511
 5163SOL     OW16929   1.683   6.855   8.084
 5163SOL    HW116930   1.777   6.852   8.098
 5163SOL    HW216931   1.658   6.944   8.108
 5164SOL     OW16932   1.396   6.161   7.520
 5164SOL    HW116933   1.335   6.134   7.589
 5164SOL    HW216934   1.478   6.117   7.543
 5165SOL     OW16935   0.519   5.843   7.756
 5165SOL    HW116936   0.573   5.793   7.694
 5165SOL    HW216937   0.495   5.922   7.708
 5166SOL     OW16938   1.746   6.825   9.017
 5166SOL    HW116939   1.818   6.776   9.057
 5166SOL    HW216940   1.766   6.916   9.036
 5167SOL     OW16941   1.051   6.939   8.777
 5167SOL    HW116942   0.976   6.909   8.829
 5167SOL    HW216943   1.127   6.900   8.820
 5168SOL     OW16944   1.611   7.224   9.112
 5168SOL    HW116945   1.600   7.251   9.021
 5168SOL    HW216946   1.689   7.168   9.112
 5169SOL     OW16947   1.136   6.800   8.550
 5169SOL    HW116948   1.078   6.840   8.616
 5169SOL    HW216949   1.105   6.835   8.467
 5170SOL     OW16950   1.626   6.682   8.521
 5170SOL    HW116951   1.619   6.742   8.595
 5170SOL    HW216952   1.547   6.698   8.469
 5171SOL     OW16953   0.906   5.689   8.841
 5171SOL    HW116954   0.925   5.664   8.750
 5171SOL    HW216955   0.989   5.722   8.874
 5172SOL     OW16956   0.984   6.703   9.168
 5172SOL    HW116957   0.894   6.719   9.197
 5172SOL    HW216958   0.978   6.621   9.117
 5173SOL     OW16959   0.715   6.653   7.817
 5173SOL    HW116960   0.703   6.632   7.910
 5173SOL    HW216961   0.790   6.601   7.790
 5174SOL     OW16962   0.445   6.412   8.673
 5174SOL    HW116963   0.502   6.428   8.748
 5174SOL    HW216964   0.413   6.323   8.686
 5175SOL     OW16965   1.263   5.960   8.735
 5175SOL    HW116966   1.296   6.039   8.778
 5175SOL    HW216967   1.173   5.982   8.709
 5176SOL     OW16968   0.058   7.197   8.770
 5176SOL    HW116969   0.039   7.247   8.849
 5176SOL    HW216970   0.139   7.150   8.789
 5177SOL     OW16971   0.333   6.692   7.935
 5177SOL    HW116972   0.332   6.762   7.870
 5177SOL    HW216973   0.337   6.612   7.883
 5178SOL     OW16974   0.549   6.132   8.322
 5178SOL    HW116975   0.565   6.166   8.234
 5178SOL    HW216976   0.624   6.164   8.373
 5179SOL     OW16977   1.247   6.934   7.843
 5179SOL    HW116978   1.304   7.004   7.875
 5179SOL    HW216979   1.160   6.958   7.875
 5180SOL     OW16980   1.292   7.048   8.599
 5180SOL    HW116981   1.347   7.054   8.677
 5180SOL    HW216982   1.237   6.971   8.614
 5181SOL     OW16983   1.586   6.197   7.945
 5181SOL    HW116984   1.521   6.263   7.972
 5181SOL    HW216985   1.631   6.237   7.870
 5182SOL     OW16986   0.341   7.121   8.756
 5182SOL    HW116987   0.328   7.069   8.677
 5182SOL    HW216988   0.436   7.124   8.768
 5183SOL     OW16989   0.422   6.308   9.048
 5183SOL    HW116990   0.477   6.367   8.997
 5183SOL    HW216991   0.482   6.240   9.079
 5184SOL     OW16992   1.610   6.367   9.135
 5184SOL    HW116993   1.525   6.409   9.130
 5184SOL    HW216994   1.663   6.409   9.067
 5185SOL     OW16995   1.008   5.720   9.199
 5185SOL    HW116996   1.060   5.796   9.173
 5185SOL    HW216997   1.056   5.645   9.164
 5186SOL     OW16998   1.345   6.445   8.470
 5186SOL    HW116999   1.273   6.435   8.408
 5186SOL    HW217000   1.394   6.364   8.464
 5187SOL     OW17001   1.201   6.113   7.710
 5187SOL    HW117002   1.210   6.033   7.762
 5187SOL    HW217003   1.156   6.174   7.768
 5188SOL     OW17004   0.297   5.772   8.689
 5188SOL    HW117005   0.261   5.805   8.771
 5188SOL    HW217006   0.281   5.677   8.692
 5189SOL     OW17007   0.063   6.896   8.724
 5189SOL    HW117008   0.084   6.831   8.790
 5189SOL    HW217009   0.044   6.976   8.773
 5190SOL     OW17010   0.748   6.226   8.487
 5190SOL    HW117011   0.809   6.169   8.440
 5190SOL    HW217012   0.799   6.304   8.508
 5191SOL     OW17013   1.733   6.553   9.304
 5191SOL    HW117014   1.694   6.479   9.257
 5191SOL    HW217015   1.675   6.566   9.379
 5192SOL     OW17016   0.350   5.661   8.115
 5192SOL    HW117017   0.303   5.745   8.115
 5192SOL    HW217018   0.287   5.598   8.081
 5193SOL     OW17019   1.624   5.958   7.809
 5193SOL    HW117020   1.658   5.888   7.865
 5193SOL    HW217021   1.602   6.029   7.870
 5194SOL     OW17022   1.020   6.339   8.404
 5194SOL    HW117023   1.022   6.350   8.499
 5194SOL    HW217024   1.003   6.245   8.392
 5195SOL     OW17025   0.996   7.168   9.164
 5195SOL    HW117026   0.970   7.200   9.078
 5195SOL    HW217027   1.023   7.077   9.149
 5196SOL     OW17028   1.846   7.087   9.056
 5196SOL    HW117029   1.875   7.114   8.968
 5196SOL    HW217030   1.925   7.094   9.110
 5197SOL     OW17031   0.367   6.534   9.247
 5197SOL    HW117032   0.442   6.546   9.305
 5197SOL    HW217033   0.367   6.441   9.225
 5198SOL     OW17034   1.510   5.868   7.574
 5198SOL    HW117035   1.456   5.793   7.599
 5198SOL    HW217036   1.553   5.895   7.655
 5199SOL     OW17037   1.290   6.412   7.478
 5199SOL    HW117038   1.331   6.326   7.482
 5199SOL    HW217039   1.320   6.450   7.396
 5200SOL     OW17040   1.063   6.923   8.310
 5200SOL    HW117041   1.068   6.849   8.250
 5200SOL    HW217042   1.117   6.991   8.268
 5201SOL     OW17043   0.354   6.371   8.364
 5201SOL    HW117044   0.408   6.350   8.288
 5201SOL    HW217045   0.333   6.285   8.403
 5202SOL     OW17046   0.329   6.100   8.464
 5202SOL    HW117047   0.293   6.013   8.445
 5202SOL    HW217048   0.409   6.105   8.413
 5203SOL     OW17049   1.133   5.967   9.138
 5203SOL    HW117050   1.089   6.024   9.201
 5203SOL    HW217051   1.221   6.003   9.130
 5204SOL     OW17052   1.147   5.790   8.925
 5204SOL    HW117053   1.144   5.859   8.991
 5204SOL    HW217054   1.199   5.828   8.854
 5205SOL     OW17055   7.997   6.909   7.679
 5205SOL    HW117056   7.902   6.916   7.691
 5205SOL    HW217057   8.013   6.814   7.679
 5206SOL     OW17058   0.179   7.388   8.363
 5206SOL    HW117059   0.122   7.311   8.365
 5206SOL    HW217060   0.119   7.462   8.349
 5207SOL     OW17061   0.475   7.179   8.336
 5207SOL    HW117062   0.553   7.217   8.375
 5207SOL    HW217063   0.508   7.108   8.281
 5208SOL     OW17064   0.957   6.365   8.675
 5208SOL    HW117065   1.034   6.358   8.732
 5208SOL    HW217066   0.887   6.321   8.724
 5209SOL     OW17067   0.067   6.137   8.569
 5209SOL    HW117068   0.159   6.118   8.549
 5209SOL    HW217069   0.065   6.145   8.664
 5210SOL     OW17070   0.193   6.096   9.142
 5210SOL    HW117071   0.276   6.087   9.094
 5210SOL    HW217072   0.163   6.184   9.119
 5211SOL     OW17073   1.382   6.518   9.103
 5211SOL    HW117074   1.402   6.611   9.100
 5211SOL    HW217075   1.380   6.490   9.012
 5212SOL     OW17076   0.815   6.156   7.818
 5212SOL    HW117077   0.830   6.081   7.760
 5212SOL    HW217078   0.740   6.201   7.781
 5213SOL     OW17079   1.640   6.187   8.630
 5213SOL    HW117080   1.633   6.125   8.702
 5213SOL    HW217081   1.728   6.172   8.594
 5214SOL     OW17082   0.290   7.121   9.175
 5214SOL    HW117083   0.248   7.190   9.227
 5214SOL    HW217084   0.279   7.042   9.227
 5215SOL     OW17085   0.714   6.035   8.693
 5215SOL    HW117086   0.659   5.960   8.672
 5215SOL    HW217087   0.702   6.096   8.620
 5216SOL     OW17088   0.927   7.262   8.911
 5216SOL    HW117089   0.898   7.221   8.830
 5216SOL    HW217090   0.913   7.356   8.897
 5217SOL     OW17091   0.447   6.056   7.591
 5217SOL    HW117092   0.508   6.128   7.605
 5217SOL    HW217093   0.370   6.079   7.641
 5218SOL     OW17094   0.157   6.711   8.906
 5218SOL    HW117095   0.133   6.674   8.991
 5218SOL    HW217096   0.166   6.636   8.848
 5219SOL     OW17097   1.317   6.629   8.666
 5219SOL    HW117098   1.336   6.563   8.598
 5219SOL    HW217099   1.253   6.687   8.625
 5220SOL     OW17100   1.312   6.442   7.754
 5220SOL    HW117101   1.238   6.400   7.799
 5220SOL    HW217102   1.294   6.428   7.661
 5221SOL     OW17103   1.786   7.323   8.604
 5221SOL    HW117104   1.841   7.342   8.528
 5221SOL    HW217105   1.751   7.235   8.587
 5222SOL     OW17106   1.239   7.320   8.563
 5222SOL    HW117107   1.323   7.343   8.524
 5222SOL    HW217108   1.246   7.227   8.582
 5223SOL     OW17109   0.090   6.820   8.468
 5223SOL    HW117110   0.079   6.846   8.559
 5223SOL    HW217111   0.004   6.833   8.428
 5224SOL     OW17112   0.674   7.258   9.172
 5224SOL    HW117113   0.618   7.335   9.181
 5224SOL    HW217114   0.744   7.285   9.113
 5225SOL     OW17115   1.735   5.748   7.951
 5225SOL    HW117116   1.801   5.728   7.884
 5225SOL    HW217117   1.712   5.663   7.988
 5226SOL     OW17118   1.394   7.153   7.946
 5226SOL    HW117119   1.447   7.184   7.872
 5226SOL    HW217120   1.338   7.227   7.968
 5227SOL     OW17121   0.157   7.336   9.284
 5227SOL    HW117122   0.098   7.281   9.336
 5227SOL    HW217123   0.210   7.382   9.348
 5228SOL     OW17124   1.274   6.525   8.129
 5228SOL    HW117125   1.346   6.465   8.144
 5228SOL    HW217126   1.309   6.590   8.068
 5229SOL     OW17127   0.802   6.865   8.873
 5229SOL    HW117128   0.780   6.904   8.958
 5229SOL    HW217129   0.724   6.879   8.819
 5230SOL     OW17130   0.663   7.202   7.607
 5230SOL    HW117131   0.676   7.203   7.512
 5230SOL    HW217132   0.606   7.126   7.622
 5231SOL     OW17133   1.618   7.313   8.840
 5231SOL    HW117134   1.672   7.317   8.762
 5231SOL    HW217135   1.604   7.405   8.864
 5232SOL     OW17136   1.844   5.753   8.415
 5232SOL    HW117137   1.875   5.666   8.393
 5232SOL    HW217138   1.757   5.759   8.376
 5233SOL     OW17139   0.258   5.920   8.156
 5233SOL    HW117140   0.168   5.945   8.132
 5233SOL    HW217141   0.253   5.905   8.251
 5234SOL     OW17142   1.209   7.186   7.484
 5234SOL    HW117143   1.197   7.093   7.503
 5234SOL    HW217144   1.163   7.199   7.401
 5235SOL     OW17145   0.826   6.595   8.827
 5235SOL    HW117146   0.877   6.587   8.747
 5235SOL    HW217147   0.823   6.689   8.845
 5236SOL     OW17148   0.926   6.505   7.746
 5236SOL    HW117149   0.983   6.535   7.675
 5236SOL    HW217150   0.973   6.431   7.785
 5237SOL     OW17151   1.488   7.225   7.500
 5237SOL    HW117152   1.395   7.208   7.483
 5237SOL    HW217153   1.529   7.226   7.413
 5238SOL     OW17154   0.370   6.884   8.929
 5238SOL    HW117155   0.338   6.967   8.896
 5238SOL    HW217156   0.296   6.824   8.921
 5239SOL     OW17157   1.609   6.869   8.732
 5239SOL    HW117158   1.662   6.845   8.808
 5239SOL    HW217159   1.547   6.934   8.766
 5240SOL     OW17160   1.055   6.692   8.171
 5240SOL    HW117161   0.978   6.635   8.173
 5240SOL    HW217162   1.127   6.633   8.147
 5241SOL     OW17163   1.024   5.828   8.416
 5241SOL    HW117164   1.019   5.782   8.332
 5241SOL    HW217165   1.017   5.758   8.481
 5242SOL     OW17166   0.608   7.074   7.936
 5242SOL    HW117167   0.659   7.027   7.870
 5242SOL    HW217168   0.518   7.073   7.902
 5243SOL     OW17169   1.733   5.980   8.829
 5243SOL    HW117170   1.807   6.040   8.827
 5243SOL    HW217171   1.760   5.907   8.773
 5244SOL     OW17172   0.266   6.912   7.750
 5244SOL    HW117173   0.173   6.918   7.733
 5244SOL    HW217174   0.278   6.960   7.833
 5245SOL     OW17175   0.106   6.584   9.149
 5245SOL    HW117176   0.044   6.641   9.195
 5245SOL    HW217177   0.185   6.587   9.204
 5246SOL     OW17178   0.670   5.782   8.960
 5246SOL    HW117179   0.750   5.763   8.912
 5246SOL    HW217180   0.698   5.805   9.048
 5247SOL     OW17181   0.135   5.922   7.456
 5247SOL    HW117182   0.066   5.885   7.512
 5247SOL    HW217183   0.089   5.984   7.399
 5248SOL     OW17184   1.425   6.445   8.844
 5248SOL    HW117185   1.376   6.506   8.788
 5248SOL    HW217186   1.513   6.445   8.807
 5249SOL     OW17187   0.162   5.833   7.777
 5249SOL    HW117188   0.083   5.819   7.725
 5249SOL    HW217189   0.158   5.765   7.845
 5250SOL     OW17190   1.182   6.916   7.570
 5250SOL    HW117191   1.101   6.864   7.571
 5250SOL    HW217192   1.209   6.918   7.662
 5251SOL     OW17193   0.617   6.426   8.881
 5251SOL    HW117194   0.676   6.500   8.876
 5251SOL    HW217195   0.674   6.349   8.887
 5252SOL     OW17196   1.484   7.369   8.447
 5252SOL    HW117197   1.490   7.375   8.352
 5252SOL    HW217198   1.554   7.309   8.472
 5253SOL     OW17199   0.725   6.159   9.145
 5253SOL    HW117200   0.762   6.229   9.198
 5253SOL    HW217201   0.755   6.079   9.187
 5254SOL     OW17202   1.471   6.780   9.075
 5254SOL    HW117203   1.458   6.795   9.169
 5254SOL    HW217204   1.564   6.797   9.061
 5255SOL     OW17205   0.386   7.321   9.012
 5255SOL    HW117206   0.296   7.349   8.991
 5255SOL    HW217207   0.375   7.239   9.059
 5256SOL     OW17208   1.662   6.462   8.701
 5256SOL    HW117209   1.660   6.374   8.662
 5256SOL    HW217210   1.656   6.522   8.627
 5257SOL     OW17211   1.219   5.907   7.905
 5257SOL    HW117212   1.279   5.833   7.896
 5257SOL    HW217213   1.251   5.954   7.982
 5258SOL     OW17214   0.540   6.366   8.153
 5258SOL    HW117215   0.609   6.425   8.121
 5258SOL    HW217216   0.495   6.336   8.075
 5259SOL     OW17217   1.758   5.948   9.104
 5259SOL    HW117218   1.747   5.966   9.010
 5259SOL    HW217219   1.681   5.895   9.127
 5260SOL     OW17220   1.746   6.519   8.955
 5260SOL    HW117221   1.739   6.614   8.962
 5260SOL    HW217222   1.728   6.500   8.863
 5261SOL     OW17223   0.845   6.952   7.489
 5261SOL    HW117224   0.823   6.982   7.578
 5261SOL    HW217225   0.877   7.030   7.445
 5262SOL     OW17226   0.657   7.383   8.374
 5262SOL    HW117227   0.661   7.479   8.368
 5262SOL    HW217228   0.749   7.356   8.375
 5263SOL     OW17229   0.842   6.539   8.312
 5263SOL    HW117230   0.907   6.475   8.342
 5263SOL    HW217231   0.825   6.593   8.389
 5264SOL     OW17232   1.082   6.583   7.538
 5264SOL    HW117233   1.055   6.624   7.456
 5264SOL    HW217234   1.153   6.524   7.512
 5265SOL     OW17235   1.844   7.170   8.309
 5265SOL    HW117236   1.777   7.139   8.249
 5265SOL    HW217237   1.867   7.093   8.362
 5266SOL     OW17238   0.222   6.888   9.303
 5266SOL    HW117239   0.131   6.867   9.281
 5266SOL    HW217240   0.225   6.888   9.398
 5267SOL     OW17241   0.149   6.831   8.115
 5267SOL    HW117242   0.069   6.788   8.143
 5267SOL    HW217243   0.192   6.768   8.057
 5268SOL     OW17244   0.687   6.995   9.083
 5268SOL    HW117245   0.608   6.951   9.115
 5268SOL    HW217246   0.680   7.084   9.117
 5269SOL     OW17247   1.808   5.764   8.686
 5269SOL    HW117248   1.810   5.669   8.697
 5269SOL    HW217249   1.821   5.777   8.592
 5270SOL     OW17250   0.453   6.018   7.983
 5270SOL    HW117251   0.473   5.950   7.919
 5270SOL    HW217252   0.388   5.978   8.041
 5271SOL     OW17253   1.679   7.081   8.551
 5271SOL    HW117254   1.609   7.051   8.493
 5271SOL    HW217255   1.690   7.010   8.614
 5272SOL     OW17256   0.365   6.157   8.735
 5272SOL    HW117257   0.409   6.098   8.797
 5272SOL    HW217258   0.371   6.112   8.651
 5273SOL     OW17259   0.827   7.173   8.115
 5273SOL    HW117260   0.816   7.250   8.058
 5273SOL    HW217261   0.752   7.118   8.095
 5274SOL     OW17262   1.415   5.802   8.566
 5274SOL    HW117263   1.406   5.712   8.596
 5274SOL    HW217264   1.372   5.854   8.633
 5275SOL     OW17265   0.994   5.609   8.584
 5275SOL    HW117266   0.959   5.542   8.526
 5275SOL    HW217267   1.068   5.566   8.628
 5276SOL     OW17268   0.775   6.925   7.776
 5276SOL    HW117269   0.745   6.834   7.775
 5276SOL    HW217270   0.860   6.921   7.820
 5277SOL     OW17271   0.621   7.139   8.731
 5277SOL    HW117272   0.618   7.222   8.778
 5277SOL    HW217273   0.711   7.133   8.698
 5278SOL     OW17274   1.364   5.631   7.621
 5278SOL    HW117275   1.404   5.559   7.572
 5278SOL    HW217276   1.274   5.604   7.635
 5279SOL     OW17277   1.296   6.053   8.127
 5279SOL    HW117278   1.242   6.131   8.132
 5279SOL    HW217279   1.293   6.016   8.215
 5280SOL     OW17280   1.585   5.774   8.337
 5280SOL    HW117281   1.526   5.796   8.409
 5280SOL    HW217282   1.582   5.851   8.280
 5281SOL     OW17283   0.064   6.649   7.720
 5281SOL    HW117284   0.150   6.610   7.702
 5281SOL    HW217285   0.035   6.606   7.801
 5282SOL     OW17286   0.889   7.246   7.781
 5282SOL    HW117287   0.811   7.223   7.729
 5282SOL    HW217288   0.859   7.312   7.842
 5283SOL     OW17289   0.236   6.286   9.378
 5283SOL    HW117290   0.169   6.289   9.447
 5283SOL    HW217291   0.227   6.199   9.340
 5284SOL     OW17292   0.240   5.855  10.292
 5284SOL    HW117293   0.244   5.830  10.384
 5284SOL    HW217294   0.154   5.826  10.263
 5285SOL     OW17295   7.995   5.991   9.921
 5285SOL    HW117296   7.984   6.030  10.008
 5285SOL    HW217297   7.915   5.940   9.907
 5286SOL     OW17298   1.579   7.106  10.022
 5286SOL    HW117299   1.534   7.077  10.101
 5286SOL    HW217300   1.512   7.105   9.953
 5287SOL     OW17301   1.133   6.286  10.001
 5287SOL    HW117302   1.182   6.367   9.988
 5287SOL    HW217303   1.089   6.298  10.085
 5288SOL     OW17304   1.748   6.194   9.544
 5288SOL    HW117305   1.739   6.188   9.449
 5288SOL    HW217306   1.731   6.106   9.575
 5289SOL     OW17307   0.791   6.726  10.339
 5289SOL    HW117308   0.728   6.747  10.409
 5289SOL    HW217309   0.807   6.810  10.296
 5290SOL     OW17310   0.876   6.345  11.131
 5290SOL    HW117311   0.859   6.415  11.194
 5290SOL    HW217312   0.898   6.391  11.050
 5291SOL     OW17313   0.687   6.580   9.952
 5291SOL    HW117314   0.754   6.573  10.020
 5291SOL    HW217315   0.620   6.636   9.989
 5292SOL     OW17316   0.718   6.738  11.134
 5292SOL    HW117317   0.764   6.818  11.162
 5292SOL    HW217318   0.637   6.770  11.095
 5293SOL     OW17319   0.287   7.044  10.356
 5293SOL    HW117320   0.273   6.956  10.320
 5293SOL    HW217321   0.353   7.083  10.297
 5294SOL     OW17322   1.451   7.078  10.673
 5294SOL    HW117323   1.498   7.162  10.665
 5294SOL    HW217324   1.387   7.093  10.743
 5295SOL     OW17325   0.458   5.970  10.794
 5295SOL    HW117326   0.532   5.911  10.803
 5295SOL    HW217327   0.382   5.916  10.814
 5296SOL     OW17328   1.601   6.025  10.059
 5296SOL    HW117329   1.540   6.053   9.991
 5296SOL    HW217330   1.603   6.098  10.121
 5297SOL     OW17331   0.233   7.283   9.790
 5297SOL    HW117332   0.202   7.366   9.826
 5297SOL    HW217333   0.311   7.306   9.741
 5298SOL     OW17334   1.137   6.925  11.003
 5298SOL    HW117335   1.175   6.917  11.091
 5298SOL    HW217336   1.085   6.846  10.991
 5299SOL     OW17337   0.283   7.014   9.826
 5299SOL    HW117338   0.268   7.108   9.836
 5299SOL    HW217339   0.229   6.974   9.894
 5300SOL     OW17340   0.277   6.667  10.206
 5300SOL    HW117341   0.276   6.576  10.235
 5300SOL    HW217342   0.203   6.708  10.250
 5301SOL     OW17343   0.638   7.374  10.764
 5301SOL    HW117344   0.550   7.351  10.794
 5301SOL    HW217345   0.644   7.469  10.779
 5302SOL     OW17346   0.584   6.571   9.446
 5302SOL    HW117347   0.633   6.618   9.378
 5302SOL    HW217348   0.620   6.602   9.528
 5303SOL     OW17349   1.592   5.713  10.775
 5303SOL    HW117350   1.633   5.785  10.727
 5303SOL    HW217351   1.572   5.751  10.861
 5304SOL     OW17352   0.147   6.219   9.858
 5304SOL    HW117353   0.100   6.139   9.880
 5304SOL    HW217354   0.123   6.281   9.926
 5305SOL     OW17355   1.842   7.338   9.636
 5305SOL    HW117356   1.911   7.312   9.697
 5305SOL    HW217357   1.861   7.429   9.615
 5306SOL     OW17358   0.015   7.174   9.447
 5306SOL    HW117359  -0.002   7.081   9.432
 5306SOL    HW217360   0.004   7.186   9.541
 5307SOL     OW17361   1.692   6.509   9.959
 5307SOL    HW117362   1.770   6.461   9.934
 5307SOL    HW217363   1.667   6.558   9.881
 5308SOL     OW17364   1.648   6.690   9.739
 5308SOL    HW117365   1.734   6.685   9.697
 5308SOL    HW217366   1.659   6.754   9.809
 5309SOL     OW17367   0.143   6.339  10.895
 5309SOL    HW117368   0.238   6.352  10.885
 5309SOL    HW217369   0.112   6.421  10.933
 5310SOL     OW17370   0.615   6.981  10.039
 5310SOL    HW117371   0.570   6.897  10.048
 5310SOL    HW217372   0.596   7.009   9.950
 5311SOL     OW17373   1.282   6.816  10.732
 5311SOL    HW117374   1.312   6.749  10.671
 5311SOL    HW217375   1.344   6.812  10.805
 5312SOL     OW17376   0.821   5.586   9.829
 5312SOL    HW117377   0.863   5.668   9.802
 5312SOL    HW217378   0.728   5.606   9.832
 5313SOL     OW17379   0.182   6.514  10.600
 5313SOL    HW117380   0.271   6.487  10.576
 5313SOL    HW217381   0.133   6.513  10.518
 5314SOL     OW17382   1.529   6.589   9.510
 5314SOL    HW117383   1.461   6.530   9.543
 5314SOL    HW217384   1.573   6.621   9.588
 5315SOL     OW17385   1.167   7.389  10.941
 5315SOL    HW117386   1.209   7.451  10.881
 5315SOL    HW217387   1.194   7.303  10.908
 5316SOL     OW17388   0.355   5.836  11.137
 5316SOL    HW117389   0.401   5.917  11.158
 5316SOL    HW217390   0.263   5.854  11.153
 5317SOL     OW17391   1.457   7.011  10.249
 5317SOL    HW117392   1.396   7.023  10.322
 5317SOL    HW217393   1.448   6.919  10.225
 5318SOL     OW17394   1.641   7.354   9.883
 5318SOL    HW117395   1.627   7.313   9.798
 5318SOL    HW217396   1.635   7.282   9.945
 5319SOL     OW17397   0.594   6.302   9.579
 5319SOL    HW117398   0.595   6.387   9.536
 5319SOL    HW217399   0.532   6.311   9.651
 5320SOL     OW17400   1.282   5.959  10.247
 5320SOL    HW117401   1.192   5.925  10.254
 5320SOL    HW217402   1.333   5.903  10.304
 5321SOL     OW17403   1.574   7.268   9.621
 5321SOL    HW117404   1.668   7.283   9.612
 5321SOL    HW217405   1.545   7.248   9.532
 5322SOL     OW17406   0.797   6.203  10.756
 5322SOL    HW117407   0.765   6.178  10.843
 5322SOL    HW217408   0.759   6.137  10.697
 5323SOL     OW17409   1.389   6.060  10.988
 5323SOL    HW117410   1.395   6.106  11.072
 5323SOL    HW217411   1.449   5.986  10.997
 5324SOL     OW17412   0.948   6.472  10.895
 5324SOL    HW117413   1.005   6.405  10.856
 5324SOL    HW217414   0.905   6.512  10.820
 5325SOL     OW17415   0.993   5.991  10.544
 5325SOL    HW117416   0.905   6.013  10.573
 5325SOL    HW217417   0.984   5.967  10.452
 5326SOL     OW17418   1.053   6.280   9.732
 5326SOL    HW117419   1.071   6.277   9.826
 5326SOL    HW217420   0.969   6.235   9.722
 5327SOL     OW17421   0.087   6.385  10.083
 5327SOL    HW117422   0.165   6.397  10.137
 5327SOL    HW217423   0.057   6.474  10.063
 5328SOL     OW17424   0.136   7.418  10.876
 5328SOL    HW117425   0.136   7.403  10.970
 5328SOL    HW217426   0.048   7.392  10.848
 5329SOL     OW17427   0.891   5.921   9.467
 5329SOL    HW117428   0.935   5.997   9.429
 5329SOL    HW217429   0.953   5.849   9.457
 5330SOL     OW17430   1.696   6.153  11.142
 5330SOL    HW117431   1.666   6.229  11.091
 5330SOL    HW217432   1.730   6.093  11.076
 5331SOL     OW17433   1.385   6.730   9.852
 5331SOL    HW117434   1.463   6.718   9.798
 5331SOL    HW217435   1.330   6.789   9.800
 5332SOL     OW17436   0.556   5.758  10.209
 5332SOL    HW117437   0.556   5.792  10.299
 5332SOL    HW217438   0.550   5.836  10.154
 5333SOL     OW17439   0.998   7.039   9.784
 5333SOL    HW117440   0.968   7.110   9.727
 5333SOL    HW217441   0.960   7.059   9.869
 5334SOL     OW17442   0.359   7.396  10.171
 5334SOL    HW117443   0.407   7.315  10.185
 5334SOL    HW217444   0.422   7.465  10.191
 5335SOL     OW17445   1.804   6.643  10.183
 5335SOL    HW117446   1.754   6.618  10.105
 5335SOL    HW217447   1.739   6.647  10.253
 5336SOL     OW17448   1.220   7.123  10.826
 5336SOL    HW117449   1.212   7.050  10.887
 5336SOL    HW217450   1.154   7.106  10.759
 5337SOL     OW17451   0.334   6.532   9.572
 5337SOL    HW117452   0.412   6.556   9.523
 5337SOL    HW217453   0.290   6.467   9.517
 5338SOL     OW17454   1.484   6.339  10.030
 5338SOL    HW117455   1.482   6.300  10.117
 5338SOL    HW217456   1.562   6.395  10.031
 5339SOL     OW17457   0.472   6.837  11.052
 5339SOL    HW117458   0.439   6.852  10.963
 5339SOL    HW217459   0.394   6.817  11.103
 5340SOL     OW17460   1.133   7.368   9.539
 5340SOL    HW117461   1.053   7.338   9.582
 5340SOL    HW217462   1.151   7.301   9.473
 5341SOL     OW17463   0.195   5.875  10.805
 5341SOL    HW117464   0.154   5.959  10.786
 5341SOL    HW217465   0.150   5.844  10.884
 5342SOL     OW17466   1.626   6.973   9.400
 5342SOL    HW117467   1.581   7.056   9.384
 5342SOL    HW217468   1.561   6.906   9.380
 5343SOL     OW17469   1.399   5.690   9.757
 5343SOL    HW117470   1.393   5.668   9.664
 5343SOL    HW217471   1.492   5.706   9.772
 5344SOL     OW17472   0.248   7.374  10.540
 5344SOL    HW117473   0.293   7.291  10.557
 5344SOL    HW217474   0.206   7.361  10.455
 5345SOL     OW17475   0.986   7.256  10.187
 5345SOL    HW117476   1.069   7.215  10.163
 5345SOL    HW217477   0.923   7.219  10.126
 5346SOL     OW17478   0.417   6.274   9.791
 5346SOL    HW117479   0.430   6.180   9.805
 5346SOL    HW217480   0.323   6.288   9.806
 5347SOL     OW17481   1.526   5.813  11.033
 5347SOL    HW117482   1.537   5.834  11.125
 5347SOL    HW217483   1.458   5.746  11.031
 5348SOL     OW17484   0.605   5.670   9.379
 5348SOL    HW117485   0.670   5.611   9.418
 5348SOL    HW217486   0.657   5.727   9.321
 5349SOL     OW17487   0.759   5.863  11.063
 5349SOL    HW117488   0.841   5.814  11.064
 5349SOL    HW217489   0.719   5.844  11.149
 5350SOL     OW17490   0.894   7.103  10.493
 5350SOL    HW117491   0.842   7.048  10.434
 5350SOL    HW217492   0.937   7.040  10.551
 5351SOL     OW17493   1.336   6.173  10.741
 5351SOL    HW117494   1.368   6.144  10.827
 5351SOL    HW217495   1.372   6.261  10.731
 5352SOL     OW17496   0.813   6.988  10.245
 5352SOL    HW117497   0.898   6.975  10.204
 5352SOL    HW217498   0.750   6.985  10.172
 5353SOL     OW17499   0.933   6.093  10.213
 5353SOL    HW117500   0.905   6.087  10.121
 5353SOL    HW217501   0.962   6.004  10.235
 5354SOL     OW17502   0.555   5.650   9.805
 5354SOL    HW117503   0.476   5.650   9.859
 5354SOL    HW217504   0.545   5.725   9.747
 5355SOL     OW17505   1.426   6.790   9.348
 5355SOL    HW117506   1.457   6.715   9.399
 5355SOL    HW217507   1.340   6.811   9.384
 5356SOL     OW17508   0.324   5.640   9.483
 5356SOL    HW117509   0.345   5.723   9.527
 5356SOL    HW217510   0.361   5.573   9.540
 5357SOL     OW17511   0.939   5.832   9.764
 5357SOL    HW117512   0.911   5.880   9.685
 5357SOL    HW217513   1.033   5.850   9.770
 5358SOL     OW17514   1.081   6.273  10.769
 5358SOL    HW117515   1.012   6.206  10.768
 5358SOL    HW217516   1.163   6.224  10.761
 5359SOL     OW17517   1.225   7.161  10.104
 5359SOL    HW117518   1.249   7.227  10.039
 5359SOL    HW217519   1.303   7.151  10.159
 5360SOL     OW17520   0.477   6.740  10.034
 5360SOL    HW117521   0.413   6.719  10.102
 5360SOL    HW217522   0.431   6.725   9.952
 5361SOL     OW17523   1.264   7.378   9.923
 5361SOL    HW117524   1.306   7.443   9.867
 5361SOL    HW217525   1.184   7.421   9.955
 5362SOL     OW17526   1.019   6.125   9.340
 5362SOL    HW117527   0.978   6.209   9.322
 5362SOL    HW217528   1.086   6.144   9.405
 5363SOL     OW17529   0.110   6.129  10.717
 5363SOL    HW117530   0.198   6.139  10.679
 5363SOL    HW217531   0.097   6.208  10.770
 5364SOL     OW17532   0.558   5.812  10.484
 5364SOL    HW117533   0.606   5.753  10.543
 5364SOL    HW217534   0.467   5.804  10.511
 5365SOL     OW17535   0.864   6.042   9.954
 5365SOL    HW117536   0.810   6.099   9.900
 5365SOL    HW217537   0.884   5.967   9.897
 5366SOL     OW17538   1.021   5.641  10.059
 5366SOL    HW117539   0.960   5.640   9.985
 5366SOL    HW217540   0.994   5.565  10.112
 5367SOL     OW17541   1.436   6.749  10.165
 5367SOL    HW117542   1.368   6.682  10.174
 5367SOL    HW217543   1.456   6.751  10.072
 5368SOL     OW17544   1.466   6.200  10.274
 5368SOL    HW117545   1.408   6.124  10.278
 5368SOL    HW217546   1.523   6.191  10.351
 5369SOL     OW17547   1.831   6.394   9.709
 5369SOL    HW117548   1.898   6.346   9.756
 5369SOL    HW217549   1.804   6.335   9.639
 5370SOL     OW17550   0.499   7.003   9.464
 5370SOL    HW117551   0.421   6.981   9.515
 5370SOL    HW217552   0.479   6.972   9.376
 5371SOL     OW17553   1.687   6.856   9.946
 5371SOL    HW117554   1.781   6.852   9.961
 5371SOL    HW217555   1.662   6.944   9.972
 5372SOL     OW17556   1.394   6.161   9.380
 5372SOL    HW117557   1.336   6.136   9.452
 5372SOL    HW217558   1.482   6.141   9.412
 5373SOL     OW17559   0.509   5.830   9.603
 5373SOL    HW117560   0.551   5.785   9.530
 5373SOL    HW217561   0.497   5.920   9.571
 5374SOL     OW17562   1.746   6.817  10.865
 5374SOL    HW117563   1.832   6.776  10.859
 5374SOL    HW217564   1.764   6.907  10.892
 5375SOL     OW17565   1.052   6.942  10.655
 5375SOL    HW117566   0.978   6.908  10.706
 5375SOL    HW217567   1.128   6.896  10.690
 5376SOL     OW17568   1.139   6.805  10.411
 5376SOL    HW117569   1.067   6.819  10.472
 5376SOL    HW217570   1.104   6.832  10.326
 5377SOL     OW17571   1.623   6.682  10.385
 5377SOL    HW117572   1.617   6.745  10.457
 5377SOL    HW217573   1.546   6.701  10.331
 5378SOL     OW17574   0.924   5.671  10.701
 5378SOL    HW117575   0.944   5.658  10.608
 5378SOL    HW217576   1.001   5.715  10.736
 5379SOL     OW17577   0.983   6.699  11.037
 5379SOL    HW117578   0.892   6.716  11.059
 5379SOL    HW217579   0.980   6.622  10.979
 5380SOL     OW17580   0.709   6.643   9.681
 5380SOL    HW117581   0.693   6.623   9.773
 5380SOL    HW217582   0.784   6.589   9.657
 5381SOL     OW17583   0.429   6.400  10.559
 5381SOL    HW117584   0.493   6.418  10.628
 5381SOL    HW217585   0.397   6.312  10.577
 5382SOL     OW17586   1.261   5.955  10.595
 5382SOL    HW117587   1.294   6.035  10.637
 5382SOL    HW217588   1.170   5.976  10.572
 5383SOL     OW17589   0.074   7.159  10.661
 5383SOL    HW117590   0.072   7.246  10.621
 5383SOL    HW217591   0.167   7.136  10.664
 5384SOL     OW17592   0.339   6.698   9.799
 5384SOL    HW117593   0.339   6.778   9.747
 5384SOL    HW217594   0.343   6.627   9.734
 5385SOL     OW17595   0.552   6.114  10.170
 5385SOL    HW117596   0.566   6.171  10.095
 5385SOL    HW217597   0.616   6.143  10.235
 5386SOL     OW17598   1.243   6.937   9.704
 5386SOL    HW117599   1.301   7.006   9.737
 5386SOL    HW217600   1.156   6.960   9.737
 5387SOL     OW17601   1.288   7.043  10.459
 5387SOL    HW117602   1.340   7.043  10.540
 5387SOL    HW217603   1.234   6.964  10.466
 5388SOL     OW17604   1.576   6.196   9.802
 5388SOL    HW117605   1.529   6.252   9.864
 5388SOL    HW217606   1.624   6.257   9.746
 5389SOL     OW17607   0.338   7.118  10.608
 5389SOL    HW117608   0.318   7.076  10.524
 5389SOL    HW217609   0.432   7.132  10.606
 5390SOL     OW17610   0.428   6.318  10.917
 5390SOL    HW117611   0.482   6.369  10.857
 5390SOL    HW217612   0.484   6.245  10.944
 5391SOL     OW17613   1.611   6.368  10.999
 5391SOL    HW117614   1.525   6.409  10.993
 5391SOL    HW217615   1.663   6.409  10.930
 5392SOL     OW17616   0.995   5.723  11.068
 5392SOL    HW117617   1.051   5.797  11.048
 5392SOL    HW217618   1.045   5.646  11.040
 5393SOL     OW17619   0.495   5.611  11.053
 5393SOL    HW117620   0.442   5.565  10.988
 5393SOL    HW217621   0.446   5.691  11.071
 5394SOL     OW17622   0.586   6.465  10.345
 5394SOL    HW117623   0.602   6.560  10.340
 5394SOL    HW217624   0.528   6.455  10.420
 5395SOL     OW17625   1.337   6.446  10.324
 5395SOL    HW117626   1.249   6.424  10.294
 5395SOL    HW217627   1.387   6.365  10.314
 5396SOL     OW17628   1.195   6.107   9.569
 5396SOL    HW117629   1.208   6.032   9.627
 5396SOL    HW217630   1.156   6.174   9.625
 5397SOL     OW17631   0.301   5.765  10.571
 5397SOL    HW117632   0.275   5.819  10.645
 5397SOL    HW217633   0.229   5.703  10.560
 5398SOL     OW17634   0.037   6.889  10.584
 5398SOL    HW117635   0.070   6.835  10.655
 5398SOL    HW217636   0.056   6.979  10.611
 5399SOL     OW17637   0.717   6.221  10.362
 5399SOL    HW117638   0.797   6.215  10.310
 5399SOL    HW217639   0.686   6.310  10.350
 5400SOL     OW17640   1.742   6.545  11.172
 5400SOL    HW117641   1.700   6.478  11.118
 5400SOL    HW217642   1.679   6.563  11.241
 5401SOL     OW17643   0.311   5.655   9.928
 5401SOL    HW117644   0.282   5.745   9.945
 5401SOL    HW217645   0.315   5.615  10.015
 5402SOL     OW17646   1.615   5.960   9.670
 5402SOL    HW117647   1.651   5.898   9.733
 5402SOL    HW217648   1.594   6.038   9.722
 5403SOL     OW17649   1.039   6.339  10.266
 5403SOL    HW117650   1.026   6.356  10.359
 5403SOL    HW217651   1.009   6.248  10.254
 5404SOL     OW17652   0.979   7.150  11.025
 5404SOL    HW117653   0.970   7.197  10.943
 5404SOL    HW217654   1.023   7.068  11.002
 5405SOL     OW17655   1.872   7.056  10.908
 5405SOL    HW117656   1.879   7.105  10.826
 5405SOL    HW217657   1.946   7.086  10.961
 5406SOL     OW17658   0.365   6.523  11.103
 5406SOL    HW117659   0.443   6.539  11.156
 5406SOL    HW217660   0.386   6.446  11.051
 5407SOL     OW17661   1.520   5.854   9.435
 5407SOL    HW117662   1.458   5.790   9.468
 5407SOL    HW217663   1.558   5.894   9.514
 5408SOL     OW17664   1.283   6.409   9.335
 5408SOL    HW117665   1.327   6.324   9.341
 5408SOL    HW217666   1.317   6.448   9.254
 5409SOL     OW17667   1.064   6.925  10.160
 5409SOL    HW117668   1.068   6.849  10.102
 5409SOL    HW217669   1.126   6.987  10.123
 5410SOL     OW17670   0.316   6.391  10.245
 5410SOL    HW117671   0.410   6.411  10.245
 5410SOL    HW217672   0.310   6.306  10.289
 5411SOL     OW17673   0.338   6.106  10.333
 5411SOL    HW117674   0.296   6.023  10.310
 5411SOL    HW217675   0.411   6.114  10.273
 5412SOL     OW17676   1.134   5.955  11.001
 5412SOL    HW117677   1.086   6.012  11.061
 5412SOL    HW217678   1.221   5.995  10.994
 5413SOL     OW17679   1.163   5.781  10.786
 5413SOL    HW117680   1.150   5.844  10.857
 5413SOL    HW217681   1.205   5.830  10.716
 5414SOL     OW17682   7.981   6.892   9.505
 5414SOL    HW117683   7.892   6.913   9.534
 5414SOL    HW217684   7.989   6.798   9.520
 5415SOL     OW17685   0.110   7.372  10.307
 5415SOL    HW117686   0.030   7.377  10.255
 5415SOL    HW217687   0.181   7.378  10.243
 5416SOL     OW17688   0.513   7.170  10.223
 5416SOL    HW117689   0.560   7.152  10.305
 5416SOL    HW217690   0.545   7.104  10.162
 5417SOL     OW17691   0.980   6.363  10.527
 5417SOL    HW117692   1.036   6.349  10.603
 5417SOL    HW217693   0.891   6.355  10.562
 5418SOL     OW17694   0.068   6.142  10.440
 5418SOL    HW117695   0.159   6.146  10.411
 5418SOL    HW217696   0.073   6.137  10.535
 5419SOL     OW17697   0.207   6.108  11.019
 5419SOL    HW117698   0.285   6.090  10.965
 5419SOL    HW217699   0.169   6.186  10.981
 5420SOL     OW17700   1.382   6.516  10.966
 5420SOL    HW117701   1.403   6.609  10.961
 5420SOL    HW217702   1.376   6.488  10.875
 5421SOL     OW17703   0.816   6.149   9.665
 5421SOL    HW117704   0.806   6.081   9.599
 5421SOL    HW217705   0.744   6.210   9.647
 5422SOL     OW17706   1.640   6.186  10.486
 5422SOL    HW117707   1.631   6.130  10.563
 5422SOL    HW217708   1.728   6.169  10.453
 5423SOL     OW17709   0.340   7.130  11.059
 5423SOL    HW117710   0.283   7.196  11.097
 5423SOL    HW217711   0.281   7.065  11.021
 5424SOL     OW17712   0.713   6.034  10.559
 5424SOL    HW117713   0.655   5.964  10.529
 5424SOL    HW217714   0.706   6.101  10.490
 5425SOL     OW17715   0.924   7.268  10.772
 5425SOL    HW117716   0.850   7.225  10.729
 5425SOL    HW217717   0.907   7.361  10.761
 5426SOL     OW17718   0.467   6.070   9.485
 5426SOL    HW117719   0.515   6.151   9.503
 5426SOL    HW217720   0.379   6.086   9.521
 5427SOL     OW17721   0.149   6.719  10.773
 5427SOL    HW117722   0.132   6.674  10.856
 5427SOL    HW217723   0.163   6.649  10.710
 5428SOL     OW17724   1.320   6.629  10.526
 5428SOL    HW117725   1.336   6.565  10.456
 5428SOL    HW217726   1.256   6.690  10.488
 5429SOL     OW17727   1.317   6.442   9.611
 5429SOL    HW117728   1.243   6.412   9.664
 5429SOL    HW217729   1.288   6.429   9.520
 5430SOL     OW17730   1.800   7.322  10.468
 5430SOL    HW117731   1.853   7.347  10.392
 5430SOL    HW217732   1.762   7.237  10.444
 5431SOL     OW17733   1.215   7.303  10.412
 5431SOL    HW117734   1.294   7.344  10.379
 5431SOL    HW217735   1.242   7.214  10.436
 5432SOL     OW17736   0.059   6.779  10.337
 5432SOL    HW117737   0.054   6.820  10.423
 5432SOL    HW217738   0.002   6.832  10.281
 5433SOL     OW17739   0.677   7.264  11.063
 5433SOL    HW117740   0.608   7.328  11.046
 5433SOL    HW217741   0.741   7.279  10.993
 5434SOL     OW17742   1.726   5.745   9.814
 5434SOL    HW117743   1.794   5.729   9.749
 5434SOL    HW217744   1.710   5.660   9.854
 5435SOL     OW17745   1.397   7.153   9.807
 5435SOL    HW117746   1.450   7.187   9.735
 5435SOL    HW217747   1.341   7.226   9.832
 5436SOL     OW17748   0.172   7.327  11.145
 5436SOL    HW117749   0.105   7.279  11.194
 5436SOL    HW217750   0.213   7.385  11.209
 5437SOL     OW17751   1.280   6.514   9.975
 5437SOL    HW117752   1.354   6.454   9.989
 5437SOL    HW217753   1.316   6.586   9.924
 5438SOL     OW17754   0.817   6.864  10.764
 5438SOL    HW117755   0.776   6.910  10.837
 5438SOL    HW217756   0.749   6.863  10.696
 5439SOL     OW17757   0.728   7.174   9.435
 5439SOL    HW117758   0.705   7.208   9.349
 5439SOL    HW217759   0.647   7.134   9.467
 5440SOL     OW17760   1.576   7.314  10.652
 5440SOL    HW117761   1.662   7.338  10.616
 5440SOL    HW217762   1.582   7.340  10.745
 5441SOL     OW17763   1.831   5.753  10.280
 5441SOL    HW117764   1.864   5.667  10.252
 5441SOL    HW217765   1.747   5.762  10.236
 5442SOL     OW17766   0.256   5.907  10.013
 5442SOL    HW117767   0.171   5.944   9.990
 5442SOL    HW217768   0.256   5.905  10.109
 5443SOL     OW17769   1.208   7.185   9.345
 5443SOL    HW117770   1.196   7.095   9.375
 5443SOL    HW217771   1.139   7.197   9.280
 5444SOL     OW17772   0.826   6.597  10.684
 5444SOL    HW117773   0.826   6.606  10.588
 5444SOL    HW217774   0.818   6.686  10.717
 5445SOL     OW17775   0.916   6.491   9.600
 5445SOL    HW117776   0.975   6.527   9.534
 5445SOL    HW217777   0.969   6.426   9.646
 5446SOL     OW17778   1.482   7.231   9.358
 5446SOL    HW117779   1.390   7.211   9.342
 5446SOL    HW217780   1.522   7.232   9.271
 5447SOL     OW17781   0.362   6.894  10.815
 5447SOL    HW117782   0.396   6.923  10.731
 5447SOL    HW217783   0.290   6.835  10.793
 5448SOL     OW17784   1.610   6.873  10.588
 5448SOL    HW117785   1.666   6.852  10.663
 5448SOL    HW217786   1.547   6.937  10.622
 5449SOL     OW17787   1.068   6.694  10.021
 5449SOL    HW117788   0.994   6.642  10.053
 5449SOL    HW217789   1.133   6.629   9.995
 5450SOL     OW17790   1.028   5.832  10.274
 5450SOL    HW117791   1.027   5.783  10.192
 5450SOL    HW217792   1.021   5.764  10.342
 5451SOL     OW17793   0.619   7.091   9.783
 5451SOL    HW117794   0.648   7.035   9.711
 5451SOL    HW217795   0.569   7.160   9.741
 5452SOL     OW17796   1.728   5.979  10.694
 5452SOL    HW117797   1.800   6.042  10.693
 5452SOL    HW217798   1.756   5.910  10.633
 5453SOL     OW17799   0.249   6.924   9.577
 5453SOL    HW117800   0.153   6.921   9.570
 5453SOL    HW217801   0.265   6.963   9.663
 5454SOL     OW17802   0.107   6.585  11.024
 5454SOL    HW117803   0.076   6.669  11.057
 5454SOL    HW217804   0.193   6.574  11.064
 5455SOL     OW17805   0.680   5.773  10.809
 5455SOL    HW117806   0.766   5.755  10.770
 5455SOL    HW217807   0.699   5.808  10.895
 5456SOL     OW17808   0.096   5.926   9.327
 5456SOL    HW117809   0.036   5.974   9.383
 5456SOL    HW217810   0.119   5.988   9.257
 5457SOL     OW17811   1.421   6.441  10.705
 5457SOL    HW117812   1.372   6.503  10.651
 5457SOL    HW217813   1.510   6.444  10.669
 5458SOL     OW17814   0.112   5.824   9.658
 5458SOL    HW117815   0.037   5.862   9.612
 5458SOL    HW217816   0.117   5.734   9.624
 5459SOL     OW17817   1.172   6.921   9.427
 5459SOL    HW117818   1.077   6.906   9.423
 5459SOL    HW217819   1.192   6.917   9.520
 5460SOL     OW17820   0.622   6.418  10.750
 5460SOL    HW117821   0.672   6.499  10.736
 5460SOL    HW217822   0.688   6.349  10.754
 5461SOL     OW17823   1.469   7.379  10.311
 5461SOL    HW117824   1.512   7.421  10.236
 5461SOL    HW217825   1.540   7.333  10.356
 5462SOL     OW17826   0.711   6.149  11.007
 5462SOL    HW117827   0.759   6.209  11.064
 5462SOL    HW217828   0.731   6.062  11.041
 5463SOL     OW17829   1.474   6.776  10.936
 5463SOL    HW117830   1.464   6.795  11.029
 5463SOL    HW217831   1.566   6.795  10.917
 5464SOL     OW17832   0.397   7.324  10.872
 5464SOL    HW117833   0.308   7.353  10.849
 5464SOL    HW217834   0.383   7.243  10.920
 5465SOL     OW17835   1.660   6.464  10.565
 5465SOL    HW117836   1.661   6.379  10.521
 5465SOL    HW217837   1.653   6.527  10.494
 5466SOL     OW17838   1.211   5.901   9.766
 5466SOL    HW117839   1.274   5.830   9.762
 5466SOL    HW217840   1.237   5.954   9.841
 5467SOL     OW17841   0.606   6.313   9.985
 5467SOL    HW117842   0.640   6.402   9.975
 5467SOL    HW217843   0.539   6.306   9.917
 5468SOL     OW17844   1.758   5.947  10.965
 5468SOL    HW117845   1.745   5.966  10.873
 5468SOL    HW217846   1.682   5.893  10.989
 5469SOL     OW17847   1.745   6.520  10.820
 5469SOL    HW117848   1.731   6.614  10.832
 5469SOL    HW217849   1.728   6.504  10.727
 5470SOL     OW17850   0.885   6.944   9.368
 5470SOL    HW117851   0.842   6.943   9.453
 5470SOL    HW217852   0.868   7.031   9.333
 5471SOL     OW17853   0.759   7.435  10.282
 5471SOL    HW117854   0.689   7.498  10.263
 5471SOL    HW217855   0.738   7.359  10.228
 5472SOL     OW17856   0.877   6.547  10.152
 5472SOL    HW117857   0.925   6.476  10.194
 5472SOL    HW217858   0.846   6.601  10.224
 5473SOL     OW17859   1.074   6.571   9.397
 5473SOL    HW117860   1.056   6.629   9.322
 5473SOL    HW217861   1.148   6.518   9.369
 5474SOL     OW17862   1.847   7.137  10.146
 5474SOL    HW117863   1.763   7.124  10.102
 5474SOL    HW217864   1.849   7.070  10.215
 5475SOL     OW17865   0.222   6.840  11.167
 5475SOL    HW117866   0.171   6.899  11.111
 5475SOL    HW217867   0.204   6.871  11.256
 5476SOL     OW17868   0.132   6.847   9.978
 5476SOL    HW117869   0.054   6.801  10.007
 5476SOL    HW217870   0.191   6.777   9.948
 5477SOL     OW17871   0.681   7.000  10.958
 5477SOL    HW117872   0.600   6.953  10.976
 5477SOL    HW217873   0.668   7.087  10.997
 5478SOL     OW17874   1.801   5.765  10.550
 5478SOL    HW117875   1.847   5.683  10.568
 5478SOL    HW217876   1.811   5.778  10.456
 5479SOL     OW17877   0.446   6.010   9.841
 5479SOL    HW117878   0.444   5.941   9.774
 5479SOL    HW217879   0.385   5.979   9.908
 5480SOL     OW17880   1.691   7.079  10.400
 5480SOL    HW117881   1.612   7.056  10.351
 5480SOL    HW217882   1.698   7.012  10.468
 5481SOL     OW17883   0.353   6.143  10.606
 5481SOL    HW117884   0.409   6.085  10.659
 5481SOL    HW217885   0.369   6.116  10.516
 5482SOL     OW17886   0.825   7.176   9.985
 5482SOL    HW117887   0.804   7.244   9.922
 5482SOL    HW217888   0.751   7.115   9.982
 5483SOL     OW17889   1.429   5.817  10.429
 5483SOL    HW117890   1.476   5.752  10.481
 5483SOL    HW217891   1.375   5.864  10.493
 5484SOL     OW17892   1.010   5.598  10.438
 5484SOL    HW117893   0.961   5.537  10.382
 5484SOL    HW217894   1.098   5.563  10.442
 5485SOL     OW17895   0.788   6.905   9.624
 5485SOL    HW117896   0.752   6.818   9.641
 5485SOL    HW217897   0.858   6.915   9.689
 5486SOL     OW17898   0.600   7.189  10.555
 5486SOL    HW117899   0.626   7.241  10.631
 5486SOL    HW217900   0.636   7.102  10.571
 5487SOL     OW17901   1.353   5.638   9.490
 5487SOL    HW117902   1.382   5.580   9.420
 5487SOL    HW217903   1.265   5.607   9.512
 5488SOL     OW17904   1.285   6.047   9.984
 5488SOL    HW117905   1.237   6.130   9.989
 5488SOL    HW217906   1.288   6.016  10.074
 5489SOL     OW17907   1.572   5.774  10.190
 5489SOL    HW117908   1.521   5.803  10.265
 5489SOL    HW217909   1.577   5.851  10.133
 5490SOL     OW17910   0.044   6.630   9.582
 5490SOL    HW117911   0.127   6.617   9.627
 5490SOL    HW217912  -0.021   6.635   9.651
 5491SOL     OW17913   0.895   7.254   9.641
 5491SOL    HW117914   0.836   7.225   9.572
 5491SOL    HW217915   0.842   7.314   9.693
 5492SOL     OW17916   0.243   6.279  11.256
 5492SOL    HW117917   0.202   6.228  11.326
 5492SOL    HW217918   0.235   6.223  11.178
 5493SOL     OW17919   0.237   5.855  12.151
 5493SOL    HW117920   0.266   5.824  12.236
 5493SOL    HW217921   0.164   5.797  12.128
 5494SOL     OW17922   8.000   5.965  11.794
 5494SOL    HW117923   7.908   5.960  11.817
 5494SOL    HW217924   8.007   5.918  11.711
 5495SOL     OW17925   0.553   6.861  12.349
 5495SOL    HW117926   0.472   6.890  12.309
 5495SOL    HW217927   0.616   6.930  12.330
 5496SOL     OW17928   1.572   7.102  11.904
 5496SOL    HW117929   1.551   7.080  11.995
 5496SOL    HW217930   1.493   7.078  11.855
 5497SOL     OW17931   1.133   6.288  11.863
 5497SOL    HW117932   1.182   6.370  11.853
 5497SOL    HW217933   1.085   6.299  11.946
 5498SOL     OW17934   1.777   6.182  11.397
 5498SOL    HW117935   1.749   6.177  11.305
 5498SOL    HW217936   1.738   6.105  11.438
 5499SOL     OW17937   0.741   6.705  12.207
 5499SOL    HW117938   0.687   6.732  12.282
 5499SOL    HW217939   0.768   6.787  12.166
 5500SOL     OW17940   0.687   6.584  11.815
 5500SOL    HW117941   0.755   6.578  11.883
 5500SOL    HW217942   0.620   6.640  11.854
 5501SOL     OW17943   0.338   7.008  12.245
 5501SOL    HW117944   0.277   6.958  12.190
 5501SOL    HW217945   0.386   7.063  12.183
 5502SOL     OW17946   1.604   6.024  11.918
 5502SOL    HW117947   1.536   6.046  11.855
 5502SOL    HW217948   1.605   6.097  11.979
 5503SOL     OW17949   0.230   7.286  11.655
 5503SOL    HW117950   0.226   7.370  11.699
 5503SOL    HW217951   0.294   7.299  11.584
 5504SOL     OW17952   0.288   7.025  11.699
 5504SOL    HW117953   0.265   7.118  11.704
 5504SOL    HW217954   0.232   6.983  11.765
 5505SOL     OW17955   0.273   6.668  12.066
 5505SOL    HW117956   0.280   6.575  12.091
 5505SOL    HW217957   0.196   6.699  12.113
 5506SOL     OW17958   0.580   6.571  11.312
 5506SOL    HW117959   0.628   6.619  11.244
 5506SOL    HW217960   0.617   6.602  11.394
 5507SOL     OW17961   0.139   6.211  11.725
 5507SOL    HW117962   0.091   6.134  11.755
 5507SOL    HW217963   0.115   6.280  11.787
 5508SOL     OW17964   1.828   7.334  11.526
 5508SOL    HW117965   1.907   7.309  11.572
 5508SOL    HW217966   1.848   7.420  11.488
 5509SOL     OW17967   0.014   7.177  11.314
 5509SOL    HW117968   0.009   7.082  11.304
 5509SOL    HW217969  -0.003   7.193  11.407
 5510SOL     OW17970   1.693   6.502  11.826
 5510SOL    HW117971   1.779   6.461  11.823
 5510SOL    HW217972   1.684   6.545  11.740
 5511SOL     OW17973   1.653   6.688  11.603
 5511SOL    HW117974   1.738   6.683  11.559
 5511SOL    HW217975   1.664   6.753  11.671
 5512SOL     OW17976   0.160   6.320   0.289
 5512SOL    HW117977   0.153   6.288   0.379
 5512SOL    HW217978   0.227   6.388   0.293
 5513SOL     OW17979   0.611   6.978  11.903
 5513SOL    HW117980   0.566   6.893  11.906
 5513SOL    HW217981   0.599   7.008  11.813
 5514SOL     OW17982   0.824   5.591  11.685
 5514SOL    HW117983   0.865   5.674  11.662
 5514SOL    HW217984   0.730   5.610  11.689
 5515SOL     OW17985   0.186   6.494  12.469
 5515SOL    HW117986   0.276   6.468  12.447
 5515SOL    HW217987   0.142   6.500  12.384
 5516SOL     OW17988   1.530   6.588  11.372
 5516SOL    HW117989   1.461   6.530  11.405
 5516SOL    HW217990   1.576   6.617  11.450
 5517SOL     OW17991   1.475   6.993  12.134
 5517SOL    HW117992   1.405   7.010  12.196
 5517SOL    HW217993   1.456   6.905  12.100
 5518SOL     OW17994   1.635   7.341  11.757
 5518SOL    HW117995   1.687   7.301  11.688
 5518SOL    HW217996   1.621   7.272  11.822
 5519SOL     OW17997   0.594   6.304  11.440
 5519SOL    HW117998   0.593   6.387  11.393
 5519SOL    HW217999   0.531   6.316  11.511
 5520SOL     OW18000   1.284   5.957  12.107
 5520SOL    HW118001   1.195   5.921  12.114
 5520SOL    HW218002   1.337   5.902  12.164
 5521SOL     OW18003   1.552   7.266  11.474
 5521SOL    HW118004   1.647   7.278  11.480
 5521SOL    HW218005   1.537   7.239  11.384
 5522SOL     OW18006   0.984   5.996  12.390
 5522SOL    HW118007   0.891   6.010  12.403
 5522SOL    HW218008   0.989   5.931  12.320
 5523SOL     OW18009   1.056   6.283  11.594
 5523SOL    HW118010   1.074   6.278  11.688
 5523SOL    HW218011   0.971   6.239  11.584
 5524SOL     OW18012   0.090   6.392  11.936
 5524SOL    HW118013   0.168   6.404  11.990
 5524SOL    HW218014   0.056   6.480  11.923
 5525SOL     OW18015   0.094   7.328   0.288
 5525SOL    HW118016   0.067   7.363   0.373
 5525SOL    HW218017   0.074   7.397   0.226
 5526SOL     OW18018   0.903   5.931  11.364
 5526SOL    HW118019   0.937   6.000  11.307
 5526SOL    HW218020   0.936   5.850  11.325
 5527SOL     OW18021   1.386   6.725  11.698
 5527SOL    HW118022   1.474   6.711  11.663
 5527SOL    HW218023   1.329   6.724  11.621
 5528SOL     OW18024   0.553   5.758  12.059
 5528SOL    HW118025   0.559   5.793  12.148
 5528SOL    HW218026   0.555   5.835  12.002
 5529SOL     OW18027   1.006   7.050  11.649
 5529SOL    HW118028   0.969   7.115  11.589
 5529SOL    HW218029   0.964   7.069  11.733
 5530SOL     OW18030   0.350   7.388  12.029
 5530SOL    HW118031   0.399   7.306  12.038
 5530SOL    HW218032   0.415   7.456  12.047
 5531SOL     OW18033   1.798   6.651  12.046
 5531SOL    HW118034   1.746   6.618  11.973
 5531SOL    HW218035   1.738   6.652  12.120
 5532SOL     OW18036   0.305   6.525  11.407
 5532SOL    HW118037   0.385   6.560  11.369
 5532SOL    HW218038   0.285   6.448  11.354
 5533SOL     OW18039   1.481   6.340  11.893
 5533SOL    HW118040   1.480   6.296  11.978
 5533SOL    HW218041   1.561   6.391  11.893
 5534SOL     OW18042   1.159   7.316  11.440
 5534SOL    HW118043   1.066   7.306  11.463
 5534SOL    HW218044   1.166   7.274  11.354
 5535SOL     OW18045   1.622   6.976  11.273
 5535SOL    HW118046   1.584   7.057  11.240
 5535SOL    HW218047   1.559   6.908  11.248
 5536SOL     OW18048   0.454   7.332  11.480
 5536SOL    HW118049   0.500   7.378  11.550
 5536SOL    HW218050   0.522   7.286  11.431
 5537SOL     OW18051   1.402   5.694  11.619
 5537SOL    HW118052   1.398   5.669  11.526
 5537SOL    HW218053   1.495   5.700  11.638
 5538SOL     OW18054   0.199   7.384  12.390
 5538SOL    HW118055   0.239   7.304  12.425
 5538SOL    HW218056   0.174   7.362  12.300
 5539SOL     OW18057   0.949   7.277  12.069
 5539SOL    HW118058   1.017   7.215  12.097
 5539SOL    HW218059   0.907   7.234  11.995
 5540SOL     OW18060   0.411   6.280  11.654
 5540SOL    HW118061   0.431   6.187  11.667
 5540SOL    HW218062   0.316   6.285  11.667
 5541SOL     OW18063   0.637   5.694  11.278
 5541SOL    HW118064   0.709   5.632  11.287
 5541SOL    HW218065   0.588   5.663  11.201
 5542SOL     OW18066   0.806   6.947  12.103
 5542SOL    HW118067   0.894   6.954  12.067
 5542SOL    HW218068   0.748   6.968  12.030
 5543SOL     OW18069   0.926   6.102  12.068
 5543SOL    HW118070   0.901   6.090  11.976
 5543SOL    HW218071   0.959   6.016  12.095
 5544SOL     OW18072   0.558   5.649  11.664
 5544SOL    HW118073   0.477   5.647  11.716
 5544SOL    HW218074   0.550   5.727  11.609
 5545SOL     OW18075   1.429   6.789  11.209
 5545SOL    HW118076   1.458   6.713  11.260
 5545SOL    HW218077   1.340   6.807  11.240
 5546SOL     OW18078   0.287   5.637  11.347
 5546SOL    HW118079   0.344   5.707  11.313
 5546SOL    HW218080   0.347   5.580  11.395
 5547SOL     OW18081   0.943   5.835  11.625
 5547SOL    HW118082   0.919   5.874  11.541
 5547SOL    HW218083   1.037   5.850  11.633
 5548SOL     OW18084   1.253   7.144  11.946
 5548SOL    HW118085   1.248   7.224  11.895
 5548SOL    HW218086   1.308   7.167  12.021
 5549SOL     OW18087   0.471   6.740  11.892
 5549SOL    HW118088   0.407   6.717  11.959
 5549SOL    HW218089   0.426   6.725  11.809
 5550SOL     OW18090   1.258   7.382  11.783
 5550SOL    HW118091   1.313   7.460  11.774
 5550SOL    HW218092   1.176   7.415  11.822
 5551SOL     OW18093   1.022   6.118  11.199
 5551SOL    HW118094   0.979   6.201  11.178
 5551SOL    HW218095   1.088   6.142  11.264
 5552SOL     OW18096   0.563   5.827  12.327
 5552SOL    HW118097   0.610   5.772  12.389
 5552SOL    HW218098   0.472   5.824  12.356
 5553SOL     OW18099   0.863   6.042  11.808
 5553SOL    HW118100   0.822   6.098  11.742
 5553SOL    HW218101   0.889   5.963  11.759
 5554SOL     OW18102   1.017   5.638  11.913
 5554SOL    HW118103   0.958   5.628  11.838
 5554SOL    HW218104   0.996   5.565  11.971
 5555SOL     OW18105   1.427   6.745  12.028
 5555SOL    HW118106   1.369   6.668  12.031
 5555SOL    HW218107   1.454   6.750  11.936
 5556SOL     OW18108   1.464   6.199  12.135
 5556SOL    HW118109   1.410   6.120  12.141
 5556SOL    HW218110   1.526   6.192  12.208
 5557SOL     OW18111   1.832   6.396  11.557
 5557SOL    HW118112   1.891   6.350  11.616
 5557SOL    HW218113   1.812   6.332  11.488
 5558SOL     OW18114   0.486   7.009  11.319
 5558SOL    HW118115   0.413   6.969  11.366
 5558SOL    HW218116   0.464   6.999  11.226
 5559SOL     OW18117   1.687   6.858  11.806
 5559SOL    HW118118   1.780   6.845  11.825
 5559SOL    HW218119   1.667   6.944  11.844
 5560SOL     OW18120   1.393   6.161  11.242
 5560SOL    HW118121   1.334   6.136  11.313
 5560SOL    HW218122   1.480   6.132  11.272
 5561SOL     OW18123   0.524   5.845  11.481
 5561SOL    HW118124   0.572   5.796  11.414
 5561SOL    HW218125   0.505   5.929  11.440
 5562SOL     OW18126   1.099   6.826  12.281
 5562SOL    HW118127   1.013   6.834  12.322
 5562SOL    HW218128   1.086   6.855  12.191
 5563SOL     OW18129   1.619   6.679  12.254
 5563SOL    HW118130   1.607   6.721  12.339
 5563SOL    HW218131   1.539   6.700  12.205
 5564SOL     OW18132   0.709   6.647  11.544
 5564SOL    HW118133   0.695   6.626  11.637
 5564SOL    HW218134   0.785   6.595  11.519
 5565SOL     OW18135   0.446   6.406  12.450
 5565SOL    HW118136   0.500   6.443  12.520
 5565SOL    HW218137   0.474   6.314  12.444
 5566SOL     OW18138   1.252   5.953  12.429
 5566SOL    HW118139   1.295   6.029  12.468
 5566SOL    HW218140   1.163   5.984  12.410
 5567SOL     OW18141   0.325   6.697  11.656
 5567SOL    HW118142   0.328   6.768  11.593
 5567SOL    HW218143   0.334   6.618  11.603
 5568SOL     OW18144   0.535   6.128  12.042
 5568SOL    HW118145   0.554   6.183  11.967
 5568SOL    HW218146   0.605   6.146  12.104
 5569SOL     OW18147   1.235   6.943  11.555
 5569SOL    HW118148   1.286   6.920  11.632
 5569SOL    HW218149   1.151   6.973  11.590
 5570SOL     OW18150   1.280   7.033  12.318
 5570SOL    HW118151   1.336   7.028  12.396
 5570SOL    HW218152   1.222   6.957  12.326
 5571SOL     OW18153   1.575   6.204  11.659
 5571SOL    HW118154   1.527   6.253  11.725
 5571SOL    HW218155   1.630   6.269  11.615
 5572SOL     OW18156   0.354   7.109  12.497
 5572SOL    HW118157   0.337   7.064  12.414
 5572SOL    HW218158   0.429   7.165  12.479
 5573SOL     OW18159   0.586   6.468  12.203
 5573SOL    HW118160   0.633   6.551  12.195
 5573SOL    HW218161   0.536   6.477  12.285
 5574SOL     OW18162   1.329   6.447  12.177
 5574SOL    HW118163   1.246   6.416  12.141
 5574SOL    HW218164   1.387   6.371  12.174
 5575SOL     OW18165   1.199   6.110  11.433
 5575SOL    HW118166   1.209   6.032  11.488
 5575SOL    HW218167   1.156   6.174  11.489
 5576SOL     OW18168   0.302   5.795  12.425
 5576SOL    HW118169   0.340   5.792  12.512
 5576SOL    HW218170   0.275   5.705  12.408
 5577SOL     OW18171   0.060   6.923  12.429
 5577SOL    HW118172   0.035   6.875  12.508
 5577SOL    HW218173   0.077   7.012  12.460
 5578SOL     OW18174   0.721   6.221  12.221
 5578SOL    HW118175   0.795   6.202  12.164
 5578SOL    HW218176   0.697   6.311  12.201
 5579SOL     OW18177   0.315   5.653  11.785
 5579SOL    HW118178   0.287   5.742  11.807
 5579SOL    HW218179   0.321   5.608  11.870
 5580SOL     OW18180   1.624   5.968  11.527
 5580SOL    HW118181   1.652   5.900  11.589
 5580SOL    HW218182   1.599   6.042  11.582
 5581SOL     OW18183   1.033   6.346  12.128
 5581SOL    HW118184   1.014   6.367  12.220
 5581SOL    HW218185   1.003   6.256  12.117
 5582SOL     OW18186   1.524   5.859  11.296
 5582SOL    HW118187   1.463   5.792  11.328
 5582SOL    HW218188   1.561   5.897  11.375
 5583SOL     OW18189   1.288   6.412  11.202
 5583SOL    HW118190   1.329   6.326  11.206
 5583SOL    HW218191   1.319   6.449  11.119
 5584SOL     OW18192   1.071   6.934  12.022
 5584SOL    HW118193   1.074   6.857  11.967
 5584SOL    HW218194   1.136   6.993  11.985
 5585SOL     OW18195   0.320   6.398  12.106
 5585SOL    HW118196   0.415   6.413  12.107
 5585SOL    HW218197   0.311   6.306  12.130
 5586SOL     OW18198   0.293   6.118  12.152
 5586SOL    HW118199   0.277   6.023  12.155
 5586SOL    HW218200   0.379   6.126  12.111
 5587SOL     OW18201   1.199   5.802   0.157
 5587SOL    HW118202   1.116   5.835   0.192
 5587SOL    HW218203   1.213   5.853   0.077
 5588SOL     OW18204   7.993   6.897  11.383
 5588SOL    HW118205   7.901   6.912  11.402
 5588SOL    HW218206   8.002   6.802  11.381
 5589SOL     OW18207   0.108   7.339  12.131
 5589SOL    HW118208   0.081   7.278  12.062
 5589SOL    HW218209   0.189   7.378  12.098
 5590SOL     OW18210   0.493   7.153  12.080
 5590SOL    HW118211   0.565   7.207  12.114
 5590SOL    HW218212   0.535   7.096  12.015
 5591SOL     OW18213   0.959   6.399  12.388
 5591SOL    HW118214   1.035   6.418  12.443
 5591SOL    HW218215   0.915   6.326  12.433
 5592SOL     OW18216   0.106   6.146  12.347
 5592SOL    HW118217   0.176   6.145  12.282
 5592SOL    HW218218   0.037   6.200  12.308
 5593SOL     OW18219   0.816   6.156  11.539
 5593SOL    HW118220   0.819   6.082  11.478
 5593SOL    HW218221   0.743   6.209  11.508
 5594SOL     OW18222   1.654   6.195  12.334
 5594SOL    HW118223   1.655   6.136  12.409
 5594SOL    HW218224   1.745   6.194  12.301
 5595SOL     OW18225   0.721   6.038  12.419
 5595SOL    HW118226   0.656   5.973  12.391
 5595SOL    HW218227   0.713   6.109  12.355
 5596SOL     OW18228   0.878   7.243   0.037
 5596SOL    HW118229   0.884   7.287  -0.048
 5596SOL    HW218230   0.920   7.304   0.098
 5597SOL     OW18231   0.467   6.072  11.347
 5597SOL    HW118232   0.517   6.152  11.362
 5597SOL    HW218233   0.380   6.091  11.380
 5598SOL     OW18234   1.277   6.635  12.371
 5598SOL    HW118235   1.304   6.572  12.304
 5598SOL    HW218236   1.223   6.698  12.324
 5599SOL     OW18237   1.308   6.454  11.477
 5599SOL    HW118238   1.240   6.407  11.526
 5599SOL    HW218239   1.288   6.438  11.385
 5600SOL     OW18240   1.749   7.336  12.291
 5600SOL    HW118241   1.824   7.350  12.233
 5600SOL    HW218242   1.739   7.241  12.294
 5601SOL     OW18243   1.244   7.300  12.272
 5601SOL    HW118244   1.324   7.338  12.236
 5601SOL    HW218245   1.263   7.207  12.281
 5602SOL     OW18246   0.054   6.769  12.203
 5602SOL    HW118247   0.059   6.824  12.281
 5602SOL    HW218248  -0.006   6.816  12.145
 5603SOL     OW18249   1.715   5.744  11.669
 5603SOL    HW118250   1.788   5.727  11.610
 5603SOL    HW218251   1.701   5.660  11.714
 5604SOL     OW18252   1.281   6.519  11.847
 5604SOL    HW118253   1.352   6.456  11.860
 5604SOL    HW218254   1.319   6.586  11.790
 5605SOL     OW18255   0.668   7.210  11.331
 5605SOL    HW118256   0.678   7.228  11.238
 5605SOL    HW218257   0.611   7.133  11.335
 5606SOL     OW18258   1.621   7.372   0.040
 5606SOL    HW118259   1.678   7.350  -0.034
 5606SOL    HW218260   1.667   7.444   0.085
 5607SOL     OW18261   1.840   5.753  12.145
 5607SOL    HW118262   1.875   5.668  12.118
 5607SOL    HW218263   1.755   5.758  12.102
 5608SOL     OW18264   0.260   5.903  11.874
 5608SOL    HW118265   0.171   5.932  11.854
 5608SOL    HW218266   0.262   5.896  11.970
 5609SOL     OW18267   1.194   7.186  11.208
 5609SOL    HW118268   1.187   7.092  11.225
 5609SOL    HW218269   1.131   7.202  11.137
 5610SOL     OW18270   0.798   6.612  12.499
 5610SOL    HW118271   0.841   6.552  12.437
 5610SOL    HW218272   0.871   6.651  12.547
 5611SOL     OW18273   0.921   6.501  11.470
 5611SOL    HW118274   0.978   6.532  11.399
 5611SOL    HW218275   0.971   6.430  11.511
 5612SOL     OW18276   1.474   7.217  11.219
 5612SOL    HW118277   1.382   7.202  11.197
 5612SOL    HW218278   1.510   7.261  11.142
 5613SOL     OW18279   1.068   6.699  11.887
 5613SOL    HW118280   0.993   6.650  11.919
 5613SOL    HW218281   1.133   6.633  11.865
 5614SOL     OW18282   1.027   5.838  12.125
 5614SOL    HW118283   1.023   5.796  12.040
 5614SOL    HW218284   1.027   5.765  12.188
 5615SOL     OW18285   0.609   7.080  11.652
 5615SOL    HW118286   0.658   7.029  11.588
 5615SOL    HW218287   0.524   7.095  11.611
 5616SOL     OW18288   1.769   6.014   0.021
 5616SOL    HW118289   1.854   6.012   0.065
 5616SOL    HW218290   1.755   5.924  -0.008
 5617SOL     OW18291   0.260   6.915  11.458
 5617SOL    HW118292   0.166   6.921  11.442
 5617SOL    HW218293   0.274   6.961  11.540
 5618SOL     OW18294   0.101   5.930  11.193
 5618SOL    HW118295   0.033   5.969  11.248
 5618SOL    HW218296   0.124   5.998  11.130
 5619SOL     OW18297   0.084   5.830  11.539
 5619SOL    HW118298   0.028   5.823  11.462
 5619SOL    HW218299   0.163   5.780  11.516
 5620SOL     OW18300   1.171   6.917  11.282
 5620SOL    HW118301   1.076   6.903  11.278
 5620SOL    HW218302   1.191   6.918  11.375
 5621SOL     OW18303   1.489   7.369  12.156
 5621SOL    HW118304   1.514   7.443  12.101
 5621SOL    HW218305   1.569   7.348  12.205
 5622SOL     OW18306   1.688   6.464  12.434
 5622SOL    HW118307   1.670   6.377  12.398
 5622SOL    HW218308   1.674   6.523  12.360
 5623SOL     OW18309   1.215   5.903  11.628
 5623SOL    HW118310   1.278   5.831  11.624
 5623SOL    HW218311   1.243   5.955  11.704
 5624SOL     OW18312   0.590   6.324  11.858
 5624SOL    HW118313   0.632   6.408  11.841
 5624SOL    HW218314   0.529   6.313  11.785
 5625SOL     OW18315   1.798   6.493   0.193
 5625SOL    HW118316   1.819   6.585   0.209
 5625SOL    HW218317   1.753   6.493   0.109
 5626SOL     OW18318   0.886   6.958  11.227
 5626SOL    HW118319   0.826   6.986  11.297
 5626SOL    HW218320   0.887   7.030  11.165
 5627SOL     OW18321   0.689   7.315  12.166
 5627SOL    HW118322   0.654   7.402  12.145
 5627SOL    HW218323   0.778   7.316  12.129
 5628SOL     OW18324   0.875   6.556  12.019
 5628SOL    HW118325   0.924   6.483  12.058
 5628SOL    HW218326   0.834   6.599  12.093
 5629SOL     OW18327   1.077   6.574  11.264
 5629SOL    HW118328   1.053   6.627  11.187
 5629SOL    HW218329   1.150   6.521  11.234
 5630SOL     OW18330   1.863   7.130  12.021
 5630SOL    HW118331   1.774   7.113  11.990
 5630SOL    HW218332   1.882   7.057  12.080
 5631SOL     OW18333   0.129   6.845  11.834
 5631SOL    HW118334   0.057   6.791  11.868
 5631SOL    HW218335   0.192   6.783  11.799
 5632SOL     OW18336   1.806   5.758  12.418
 5632SOL    HW118337   1.865   5.685  12.439
 5632SOL    HW218338   1.809   5.765  12.323
 5633SOL     OW18339   0.449   6.018  11.703
 5633SOL    HW118340   0.471   5.950  11.640
 5633SOL    HW218341   0.388   5.976  11.764
 5634SOL     OW18342   1.704   7.075  12.287
 5634SOL    HW118343   1.628   7.029  12.249
 5634SOL    HW218344   1.728   7.023  12.363
 5635SOL     OW18345   0.834   7.177  11.843
 5635SOL    HW118346   0.817   7.256  11.791
 5635SOL    HW218347   0.755   7.123  11.831
 5636SOL     OW18348   1.444   5.822  12.288
 5636SOL    HW118349   1.506   5.775  12.344
 5636SOL    HW218350   1.380   5.860  12.348
 5637SOL     OW18351   1.026   5.610  12.272
 5637SOL    HW118352   0.976   5.543  12.225
 5637SOL    HW218353   1.112   5.569  12.288
 5638SOL     OW18354   0.769   6.918  11.499
 5638SOL    HW118355   0.736   6.828  11.501
 5638SOL    HW218356   0.857   6.912  11.536
 5639SOL     OW18357   1.360   5.638  11.349
 5639SOL    HW118358   1.396   5.565  11.298
 5639SOL    HW218359   1.270   5.612  11.368
 5640SOL     OW18360   1.291   6.050  11.847
 5640SOL    HW118361   1.241   6.131  11.853
 5640SOL    HW218362   1.291   6.016  11.937
 5641SOL     OW18363   1.582   5.773  12.051
 5641SOL    HW118364   1.529   5.799  12.127
 5641SOL    HW218365   1.584   5.852  11.996
 5642SOL     OW18366   0.047   6.627  11.441
 5642SOL    HW118367   0.138   6.606  11.419
 5642SOL    HW218368   0.044   6.623  11.536
 5643SOL     OW18369   0.893   7.252  11.498
 5643SOL    HW118370   0.818   7.231  11.443
 5643SOL    HW218371   0.860   7.313  11.563
 5644SOL     OW18372   0.239   7.703   0.984
 5644SOL    HW118373   0.256   7.681   1.076
 5644SOL    HW218374   0.147   7.678   0.970
 5645SOL     OW18375   8.014   7.829   0.584
 5645SOL    HW118376   7.934   7.854   0.631
 5645SOL    HW218377   7.986   7.764   0.521
 5646SOL     OW18378   1.680   0.053   0.184
 5646SOL    HW118379   1.681  -0.037   0.151
 5646SOL    HW218380   1.686   0.043   0.279
 5647SOL     OW18381   0.453   7.835   1.555
 5647SOL    HW118382   0.508   7.824   1.477
 5647SOL    HW218383   0.372   7.790   1.533
 5648SOL     OW18384   1.593   7.918   0.704
 5648SOL    HW118385   1.502   7.909   0.674
 5648SOL    HW218386   1.586   7.955   0.792
 5649SOL     OW18387   1.586   7.578   1.461
 5649SOL    HW118388   1.634   7.650   1.421
 5649SOL    HW218389   1.562   7.610   1.548
 5650SOL     OW18390   0.131   0.081   0.557
 5650SOL    HW118391   0.085  -0.003   0.554
 5650SOL    HW218392   0.104   0.120   0.640
 5651SOL     OW18393   0.814   7.442   0.531
 5651SOL    HW118394   0.859   7.521   0.502
 5651SOL    HW218395   0.721   7.465   0.529
 5652SOL     OW18396   0.357   7.708   1.839
 5652SOL    HW118397   0.382   7.785   1.788
 5652SOL    HW218398   0.266   7.724   1.863
 5653SOL     OW18399   1.261   7.797   0.934
 5653SOL    HW118400   1.173   7.764   0.951
 5653SOL    HW218401   1.318   7.741   0.988
 5654SOL     OW18402   1.413   7.922   1.691
 5654SOL    HW118403   1.438   7.947   1.779
 5654SOL    HW218404   1.462   7.841   1.674
 5655SOL     OW18405   0.933   0.397   1.513
 5655SOL    HW118406   0.988   0.323   1.487
 5655SOL    HW218407   0.846   0.375   1.480
 5656SOL     OW18408   0.992   7.813   1.235
 5656SOL    HW118409   0.906   7.840   1.268
 5656SOL    HW218410   0.973   7.767   1.153
 5657SOL     OW18411   0.875   7.781   0.214
 5657SOL    HW118412   0.941   7.815   0.153
 5657SOL    HW218413   0.866   7.689   0.190
 5658SOL     OW18414   1.701   0.031   1.794
 5658SOL    HW118415   1.755   0.095   1.747
 5658SOL    HW218416   1.724  -0.053   1.754
 5659SOL     OW18417   0.561   7.623   0.901
 5659SOL    HW118418   0.559   7.652   0.993
 5659SOL    HW218419   0.557   7.703   0.850
 5660SOL     OW18420   0.205   7.729   1.489
 5660SOL    HW118421   0.166   7.813   1.466
 5660SOL    HW218422   0.148   7.694   1.557
 5661SOL     OW18423   1.410   7.540   0.454
 5661SOL    HW118424   1.402   7.511   0.363
 5661SOL    HW218425   1.504   7.555   0.466
 5662SOL     OW18426   1.521   7.662   1.732
 5662SOL    HW118427   1.522   7.694   1.822
 5662SOL    HW218428   1.474   7.579   1.737
 5663SOL     OW18429   0.626   7.553   0.116
 5663SOL    HW118430   0.719   7.531   0.117
 5663SOL    HW218431   0.611   7.589   0.028
 5664SOL     OW18432   0.795   7.744   1.828
 5664SOL    HW118433   0.870   7.695   1.792
 5664SOL    HW218434   0.720   7.686   1.814
 5665SOL     OW18435   1.338   0.007   1.428
 5665SOL    HW118436   1.379  -0.010   1.513
 5665SOL    HW218437   1.276   0.078   1.446
 5666SOL     OW18438   0.547   7.498   0.493
 5666SOL    HW118439   0.469   7.506   0.547
 5666SOL    HW218440   0.550   7.579   0.442
 5667SOL     OW18441   0.310   7.534   0.206
 5667SOL    HW118442   0.383   7.571   0.156
 5667SOL    HW218443   0.342   7.448   0.235
 5668SOL     OW18444   0.951   7.664   0.461
 5668SOL    HW118445   0.913   7.723   0.396
 5668SOL    HW218446   1.043   7.690   0.466
 5669SOL     OW18447   0.133  -0.017   1.414
 5669SOL    HW118448   0.202   0.029   1.365
 5669SOL    HW218449   0.078   0.053   1.449
 5670SOL     OW18450   0.561   7.671   1.173
 5670SOL    HW118451   0.596   7.603   1.231
 5670SOL    HW218452   0.467   7.673   1.193
 5671SOL     OW18453   1.027   7.501   0.746
 5671SOL    HW118454   0.967   7.515   0.672
 5671SOL    HW218455   0.989   7.426   0.793
 5672SOL     OW18456   1.495   7.952   0.957
 5672SOL    HW118457   1.403   7.927   0.971
 5672SOL    HW218458   1.526   7.979   1.043
 5673SOL     OW18459   0.552   7.712   0.327
 5673SOL    HW118460   0.579   7.662   0.250
 5673SOL    HW218461   0.589   7.799   0.314
 5674SOL     OW18462   0.930   7.534   1.392
 5674SOL    HW118463   0.951   7.521   1.299
 5674SOL    HW218464   1.008   7.576   1.428
 5675SOL     OW18465   1.262   7.798   1.277
 5675SOL    HW118466   1.293   7.878   1.320
 5675SOL    HW218467   1.168   7.814   1.262
 5676SOL     OW18468   0.556   7.934   0.845
 5676SOL    HW118469   0.513   7.977   0.771
 5676SOL    HW218470   0.589   8.006   0.899
 5677SOL     OW18471   0.999   7.590   1.744
 5677SOL    HW118472   1.064   7.659   1.728
 5677SOL    HW218473   1.041   7.510   1.713
 5678SOL     OW18474   0.505   7.495   1.754
 5678SOL    HW118475   0.458   7.442   1.689
 5678SOL    HW218476   0.448   7.571   1.769
 5679SOL     OW18477   0.303   7.631   1.250
 5679SOL    HW118478   0.267   7.665   1.332
 5679SOL    HW218479   0.279   7.538   1.251
 5680SOL     OW18480   0.766   0.067   1.030
 5680SOL    HW118481   0.804   0.055   0.943
 5680SOL    HW218482   0.698   0.134   1.018
 5681SOL     OW18483   0.310   7.522   0.629
 5681SOL    HW118484   0.280   7.611   0.646
 5681SOL    HW218485   0.319   7.482   0.716
 5682SOL     OW18486   1.605   7.807   0.367
 5682SOL    HW118487   1.649   7.737   0.415
 5682SOL    HW218488   1.574   7.867   0.434
 5683SOL     OW18489   1.465   7.716   0.123
 5683SOL    HW118490   1.444   7.631   0.161
 5683SOL    HW218491   1.519   7.759   0.190
 5684SOL     OW18492   0.334   7.952   1.044
 5684SOL    HW118493   0.310   7.865   1.014
 5684SOL    HW218494   0.385   7.989   0.972
 5685SOL     OW18495   1.152   7.825   1.684
 5685SOL    HW118496   1.101   7.903   1.705
 5685SOL    HW218497   1.243   7.854   1.683
 5686SOL     OW18498   1.171   7.638   1.481
 5686SOL    HW118499   1.160   7.707   1.546
 5686SOL    HW218500   1.213   7.682   1.407
 5687SOL     OW18501   0.074   7.988   1.122
 5687SOL    HW118502   0.166   7.998   1.100
 5687SOL    HW218503   0.074   7.963   1.214
 5688SOL     OW18504   0.196   7.964   1.701
 5688SOL    HW118505   0.229   7.969   1.611
 5688SOL    HW218506   0.113   8.010   1.699
 5689SOL     OW18507   0.800   0.031   0.280
 5689SOL    HW118508   0.827  -0.061   0.273
 5689SOL    HW218509   0.739   0.033   0.354
 5690SOL     OW18510   1.613   8.008   1.199
 5690SOL    HW118511   1.614   7.958   1.281
 5690SOL    HW218512   1.700   7.994   1.161
 5691SOL     OW18513   0.723   7.885   1.240
 5691SOL    HW118514   0.660   7.819   1.212
 5691SOL    HW218515   0.723   7.949   1.169
 5692SOL     OW18516   0.907   7.523   0.114
 5692SOL    HW118517   0.941   7.547   0.028
 5692SOL    HW218518   0.985   7.516   0.169
 5693SOL     OW18519   1.721   7.597   0.504
 5693SOL    HW118520   1.793   7.578   0.444
 5693SOL    HW218521   1.705   7.513   0.548
 5694SOL     OW18522   1.843   7.620   0.965
 5694SOL    HW118523   1.872   7.532   0.940
 5694SOL    HW218524   1.757   7.630   0.923
 5695SOL     OW18525   0.254   7.774   0.713
 5695SOL    HW118526   0.165   7.805   0.693
 5695SOL    HW218527   0.254   7.762   0.808
 5696SOL     OW18528   1.021   7.673   0.975
 5696SOL    HW118529   1.017   7.635   0.888
 5696SOL    HW218530   1.017   7.598   1.035
 5697SOL     OW18531   1.738   7.826   1.400
 5697SOL    HW118532   1.803   7.896   1.397
 5697SOL    HW218533   1.767   7.763   1.334
 5698SOL     OW18534   0.687   7.626   1.484
 5698SOL    HW118535   0.776   7.607   1.452
 5698SOL    HW218536   0.698   7.702   1.542
 5699SOL     OW18537   0.098   7.771  12.526
 5699SOL    HW118538   0.059   7.753  12.441
 5699SOL    HW218539   0.104   7.867  12.530
 5700SOL     OW18540   0.104   7.651   0.351
 5700SOL    HW118541   0.119   7.744   0.339
 5700SOL    HW218542   0.180   7.609   0.311
 5701SOL     OW18543   0.781   8.017   1.733
 5701SOL    HW118544   0.687   8.026   1.716
 5701SOL    HW218545   0.792   7.924   1.756
 5702SOL     OW18546   1.219   7.741   0.451
 5702SOL    HW118547   1.287   7.674   0.455
 5702SOL    HW218548   1.246   7.807   0.516
 5703SOL     OW18549   0.639   0.230   0.642
 5703SOL    HW118550   0.626   0.325   0.641
 5703SOL    HW218551   0.552   0.194   0.660
 5704SOL     OW18552   1.756   7.795   1.672
 5704SOL    HW118553   1.753   7.810   1.578
 5704SOL    HW218554   1.685   7.733   1.689
 5705SOL     OW18555   1.796   7.623   1.234
 5705SOL    HW118556   1.837   7.537   1.248
 5705SOL    HW218557   1.811   7.642   1.142
 5706SOL     OW18558   0.359   7.857   0.474
 5706SOL    HW118559   0.413   7.787   0.437
 5706SOL    HW218560   0.325   7.821   0.555
 5707SOL     OW18561   1.429   7.662   1.115
 5707SOL    HW118562   1.494   7.619   1.172
 5707SOL    HW218563   1.372   7.709   1.176
 5708SOL     OW18564   1.011   7.447   1.132
 5708SOL    HW118565   0.958   7.393   1.073
 5708SOL    HW218566   1.098   7.407   1.130
 5709SOL     OW18567   1.363   7.473   0.195
 5709SOL    HW118568   1.384   7.429   0.112
 5709SOL    HW218569   1.269   7.459   0.206
 5710SOL     OW18570   1.314   7.893   0.676
 5710SOL    HW118571   1.274   7.981   0.675
 5710SOL    HW218572   1.296   7.860   0.764
 5711SOL     OW18573   1.583   7.649   0.880
 5711SOL    HW118574   1.529   7.670   0.957
 5711SOL    HW218575   1.576   7.727   0.824
 5712SOL     OW18576   0.240   7.701   2.853
 5712SOL    HW118577   0.268   7.681   2.943
 5712SOL    HW218578   0.148   7.676   2.851
 5713SOL     OW18579   8.012   7.828   2.452
 5713SOL    HW118580   7.925   7.818   2.491
 5713SOL    HW218581   8.015   7.762   2.382
 5714SOL     OW18582   1.681   0.050   2.065
 5714SOL    HW118583   1.699   0.022   1.976
 5714SOL    HW218584   1.766   0.082   2.097
 5715SOL     OW18585   0.454   7.849   3.384
 5715SOL    HW118586   0.526   7.787   3.368
 5715SOL    HW218587   0.375   7.796   3.376
 5716SOL     OW18588   1.595   7.926   2.578
 5716SOL    HW118589   1.503   7.909   2.558
 5716SOL    HW218590   1.593   7.981   2.657
 5717SOL     OW18591   1.574   7.584   3.319
 5717SOL    HW118592   1.626   7.654   3.281
 5717SOL    HW218593   1.556   7.613   3.409
 5718SOL     OW18594   0.107   0.086   2.422
 5718SOL    HW118595   0.075  -0.004   2.419
 5718SOL    HW218596   0.059   0.126   2.495
 5719SOL     OW18597   0.830   7.456   2.360
 5719SOL    HW118598   0.863   7.544   2.340
 5719SOL    HW218599   0.736   7.469   2.376
 5720SOL     OW18600   0.348   7.702   3.655
 5720SOL    HW118601   0.394   7.786   3.662
 5720SOL    HW218602   0.258   7.722   3.680
 5721SOL     OW18603   1.260   7.776   2.782
 5721SOL    HW118604   1.172   7.743   2.798
 5721SOL    HW218605   1.316   7.723   2.839
 5722SOL     OW18606   1.402   7.908   3.544
 5722SOL    HW118607   1.424   7.960   3.622
 5722SOL    HW218608   1.456   7.829   3.552
 5723SOL     OW18609   0.913   0.362   3.417
 5723SOL    HW118610   0.998   0.324   3.393
 5723SOL    HW218611   0.876   0.393   3.334
 5724SOL     OW18612   0.977   7.825   3.124
 5724SOL    HW118613   0.946   7.799   3.210
 5724SOL    HW218614   0.966   7.747   3.069
 5725SOL     OW18615   1.701   0.036   3.620
 5725SOL    HW118616   1.786   0.078   3.636
 5725SOL    HW218617   1.723  -0.053   3.592
 5726SOL     OW18618   0.564   7.635   2.758
 5726SOL    HW118619   0.560   7.644   2.853
 5726SOL    HW218620   0.562   7.724   2.725
 5727SOL     OW18621   0.197   7.735   3.366
 5727SOL    HW118622   0.112   7.778   3.355
 5727SOL    HW218623   0.183   7.672   3.436
 5728SOL     OW18624   1.403   7.556   2.303
 5728SOL    HW118625   1.402   7.523   2.213
 5728SOL    HW218626   1.494   7.546   2.331
 5729SOL     OW18627   1.522   7.657   3.598
 5729SOL    HW118628   1.523   7.689   3.688
 5729SOL    HW218629   1.487   7.568   3.605
 5730SOL     OW18630   0.659   7.536   1.973
 5730SOL    HW118631   0.681   7.448   2.003
 5730SOL    HW218632   0.603   7.521   1.897
 5731SOL     OW18633   0.765   7.723   3.613
 5731SOL    HW118634   0.846   7.673   3.607
 5731SOL    HW218635   0.722   7.689   3.691
 5732SOL     OW18636   1.355   0.005   3.288
 5732SOL    HW118637   1.358  -0.026   3.379
 5732SOL    HW218638   1.429   0.065   3.281
 5733SOL     OW18639   0.562   7.508   2.359
 5733SOL    HW118640   0.482   7.510   2.411
 5733SOL    HW218641   0.561   7.589   2.308
 5734SOL     OW18642   0.277   7.508   2.033
 5734SOL    HW118643   0.329   7.568   1.979
 5734SOL    HW218644   0.341   7.451   2.076
 5735SOL     OW18645   0.931   7.720   2.276
 5735SOL    HW118646   0.904   7.785   2.341
 5735SOL    HW218647   1.026   7.717   2.284
 5736SOL     OW18648   0.134   0.016   3.248
 5736SOL    HW118649   0.221  -0.008   3.277
 5736SOL    HW218650   0.109   0.090   3.303
 5737SOL     OW18651   0.561   7.661   3.029
 5737SOL    HW118652   0.602   7.594   3.083
 5737SOL    HW218653   0.471   7.666   3.061
 5738SOL     OW18654   1.009   7.488   2.596
 5738SOL    HW118655   0.953   7.466   2.522
 5738SOL    HW218656   0.992   7.419   2.660
 5739SOL     OW18657   1.468   7.962   2.821
 5739SOL    HW118658   1.392   7.907   2.843
 5739SOL    HW218659   1.513   7.973   2.904
 5740SOL     OW18660   0.585   7.718   2.171
 5740SOL    HW118661   0.554   7.666   2.098
 5740SOL    HW218662   0.521   7.789   2.178
 5741SOL     OW18663   0.915   7.564   3.244
 5741SOL    HW118664   0.943   7.519   3.164
 5741SOL    HW218665   0.997   7.584   3.290
 5742SOL     OW18666   1.261   7.822   3.117
 5742SOL    HW118667   1.297   7.892   3.172
 5742SOL    HW218668   1.166   7.833   3.124
 5743SOL     OW18669   0.567   7.960   2.716
 5743SOL    HW118670   0.538   7.985   2.628
 5743SOL    HW218671   0.589   8.043   2.758
 5744SOL     OW18672   0.995   7.585   3.598
 5744SOL    HW118673   1.062   7.653   3.590
 5744SOL    HW218674   1.040   7.505   3.573
 5745SOL     OW18675   0.511   7.489   3.602
 5745SOL    HW118676   0.466   7.434   3.538
 5745SOL    HW218677   0.451   7.563   3.617
 5746SOL     OW18678   0.303   7.645   3.117
 5746SOL    HW118679   0.267   7.676   3.201
 5746SOL    HW218680   0.289   7.551   3.119
 5747SOL     OW18681   0.318   7.527   2.480
 5747SOL    HW118682   0.279   7.610   2.507
 5747SOL    HW218683   0.323   7.476   2.560
 5748SOL     OW18684   1.612   7.828   2.287
 5748SOL    HW118685   1.621   7.734   2.303
 5748SOL    HW218686   1.683   7.868   2.338
 5749SOL     OW18687   1.485   7.750   1.995
 5749SOL    HW118688   1.440   7.668   2.016
 5749SOL    HW218689   1.552   7.759   2.063
 5750SOL     OW18690   1.243   0.256   1.958
 5750SOL    HW118691   1.338   0.247   1.960
 5750SOL    HW218692   1.224   0.292   1.871
 5751SOL     OW18693   0.322   7.957   2.870
 5751SOL    HW118694   0.299   7.864   2.863
 5751SOL    HW218695   0.399   7.967   2.814
 5752SOL     OW18696   1.145   7.821   3.545
 5752SOL    HW118697   1.097   7.901   3.564
 5752SOL    HW218698   1.237   7.846   3.551
 5753SOL     OW18699   1.156   7.659   3.325
 5753SOL    HW118700   1.154   7.714   3.404
 5753SOL    HW218701   1.224   7.698   3.271
 5754SOL     OW18702   0.079   0.026   2.979
 5754SOL    HW118703   0.167  -0.001   2.951
 5754SOL    HW218704   0.075   0.003   3.072
 5755SOL     OW18705   0.213   8.016   3.548
 5755SOL    HW118706   0.226   7.936   3.497
 5755SOL    HW218707   0.119   8.033   3.544
 5756SOL     OW18708   0.790   7.955   2.126
 5756SOL    HW118709   0.856   7.979   2.192
 5756SOL    HW218710   0.707   7.982   2.166
 5757SOL     OW18711   1.612   8.008   3.043
 5757SOL    HW118712   1.610   7.979   3.135
 5757SOL    HW218713   1.705   8.007   3.020
 5758SOL     OW18714   0.685   7.919   3.048
 5758SOL    HW118715   0.672   7.906   3.142
 5758SOL    HW218716   0.645   7.842   3.008
 5759SOL     OW18717   1.701   7.583   2.346
 5759SOL    HW118718   1.783   7.575   2.297
 5759SOL    HW218719   1.695   7.500   2.394
 5760SOL     OW18720   1.837   7.612   2.826
 5760SOL    HW118721   1.867   7.526   2.797
 5760SOL    HW218722   1.750   7.621   2.787
 5761SOL     OW18723   0.249   7.776   2.582
 5761SOL    HW118724   0.159   7.801   2.562
 5761SOL    HW218725   0.248   7.755   2.675
 5762SOL     OW18726   1.016   7.664   2.820
 5762SOL    HW118727   1.010   7.617   2.737
 5762SOL    HW218728   1.013   7.595   2.887
 5763SOL     OW18729   1.729   7.838   3.257
 5763SOL    HW118730   1.802   7.899   3.259
 5763SOL    HW218731   1.755   7.771   3.193
 5764SOL     OW18732   0.682   7.668   3.353
 5764SOL    HW118733   0.763   7.633   3.317
 5764SOL    HW218734   0.701   7.684   3.445
 5765SOL     OW18735   0.101   7.780   1.887
 5765SOL    HW118736   0.006   7.769   1.878
 5765SOL    HW218737   0.122   7.857   1.834
 5766SOL     OW18738   0.087   7.663   2.230
 5766SOL    HW118739   0.047   7.694   2.149
 5766SOL    HW218740   0.165   7.615   2.202
 5767SOL     OW18741   0.774   8.001   3.571
 5767SOL    HW118742   0.680   8.019   3.575
 5767SOL    HW218743   0.781   7.906   3.584
 5768SOL     OW18744   1.205   7.755   2.326
 5768SOL    HW118745   1.272   7.688   2.316
 5768SOL    HW218746   1.237   7.810   2.398
 5769SOL     OW18747   0.636   0.235   2.508
 5769SOL    HW118748   0.612   0.327   2.495
 5769SOL    HW218749   0.552   0.190   2.514
 5770SOL     OW18750   1.755   7.787   3.528
 5770SOL    HW118751   1.753   7.799   3.433
 5770SOL    HW218752   1.684   7.726   3.546
 5771SOL     OW18753   1.793   7.634   3.097
 5771SOL    HW118754   1.859   7.574   3.132
 5771SOL    HW218755   1.808   7.634   3.003
 5772SOL     OW18756   0.393   7.836   2.358
 5772SOL    HW118757   0.459   7.770   2.380
 5772SOL    HW218758   0.325   7.825   2.425
 5773SOL     OW18759   1.432   7.669   2.972
 5773SOL    HW118760   1.482   7.611   3.029
 5773SOL    HW218761   1.379   7.721   3.032
 5774SOL     OW18762   1.012   7.455   3.005
 5774SOL    HW118763   0.953   7.387   2.974
 5774SOL    HW218764   1.099   7.416   2.997
 5775SOL     OW18765   1.369   7.498   2.026
 5775SOL    HW118766   1.412   7.417   2.000
 5775SOL    HW218767   1.278   7.473   2.043
 5776SOL     OW18768   1.302   7.910   2.543
 5776SOL    HW118769   1.252   7.989   2.564
 5776SOL    HW218770   1.297   7.857   2.623
 5777SOL     OW18771   1.580   7.656   2.741
 5777SOL    HW118772   1.529   7.662   2.821
 5777SOL    HW218773   1.576   7.743   2.702
 5778SOL     OW18774   0.227   7.713   4.709
 5778SOL    HW118775   0.264   7.684   4.793
 5778SOL    HW218776   0.144   7.666   4.702
 5779SOL     OW18777   8.002   7.836   4.325
 5779SOL    HW118778   7.910   7.825   4.346
 5779SOL    HW218779   8.017   7.778   4.250
 5780SOL     OW18780   1.639   0.020   3.915
 5780SOL    HW118781   1.690  -0.014   3.841
 5780SOL    HW218782   1.703   0.032   3.985
 5781SOL     OW18783   0.446   7.846   5.268
 5781SOL    HW118784   0.523   7.804   5.230
 5781SOL    HW218785   0.373   7.791   5.239
 5782SOL     OW18786   1.586   7.935   4.422
 5782SOL    HW118787   1.492   7.923   4.414
 5782SOL    HW218788   1.596   7.990   4.500
 5783SOL     OW18789   1.583   7.578   5.184
 5783SOL    HW118790   1.623   7.648   5.131
 5783SOL    HW218791   1.567   7.619   5.269
 5784SOL     OW18792   0.091   0.104   4.276
 5784SOL    HW118793   0.054   0.017   4.289
 5784SOL    HW218794   0.116   0.132   4.364
 5785SOL     OW18795   0.815   7.443   4.218
 5785SOL    HW118796   0.855   7.529   4.206
 5785SOL    HW218797   0.723   7.461   4.236
 5786SOL     OW18798   0.347   7.694   5.549
 5786SOL    HW118799   0.376   7.775   5.507
 5786SOL    HW218800   0.258   7.712   5.579
 5787SOL     OW18801   1.265   7.791   4.646
 5787SOL    HW118802   1.178   7.753   4.661
 5787SOL    HW218803   1.323   7.738   4.701
 5788SOL     OW18804   1.416   7.939   5.422
 5788SOL    HW118805   1.390   7.945   5.514
 5788SOL    HW218806   1.462   7.856   5.415
 5789SOL     OW18807   0.938   0.403   5.229
 5789SOL    HW118808   0.963   0.317   5.194
 5789SOL    HW218809   0.842   0.398   5.237
 5790SOL     OW18810   0.990   7.818   4.968
 5790SOL    HW118811   0.902   7.840   4.999
 5790SOL    HW218812   0.977   7.749   4.903
 5791SOL     OW18813   0.896   7.792   3.915
 5791SOL    HW118814   0.953   7.807   3.840
 5791SOL    HW218815   0.899   7.698   3.930
 5792SOL     OW18816   1.757   0.047   5.523
 5792SOL    HW118817   1.691   0.098   5.477
 5792SOL    HW218818   1.760  -0.036   5.476
 5793SOL     OW18819   0.515   7.646   4.586
 5793SOL    HW118820   0.564   7.612   4.661
 5793SOL    HW218821   0.532   7.740   4.588
 5794SOL     OW18822   0.201   7.722   5.214
 5794SOL    HW118823   0.162   7.809   5.204
 5794SOL    HW218824   0.162   7.688   5.295
 5795SOL     OW18825   1.408   7.563   4.155
 5795SOL    HW118826   1.404   7.515   4.072
 5795SOL    HW218827   1.495   7.544   4.189
 5796SOL     OW18828   1.522   7.678   5.455
 5796SOL    HW118829   1.521   7.697   5.549
 5796SOL    HW218830   1.484   7.590   5.448
 5797SOL     OW18831   0.649   7.564   3.825
 5797SOL    HW118832   0.694   7.487   3.860
 5797SOL    HW218833   0.600   7.530   3.750
 5798SOL     OW18834   0.783   7.736   5.488
 5798SOL    HW118835   0.860   7.678   5.480
 5798SOL    HW218836   0.728   7.693   5.554
 5799SOL     OW18837   1.359   0.016   5.150
 5799SOL    HW118838   1.388  -0.012   5.237
 5799SOL    HW218839   1.294   0.084   5.167
 5800SOL     OW18840   0.549   7.507   4.220
 5800SOL    HW118841   0.478   7.513   4.284
 5800SOL    HW218842   0.541   7.585   4.166
 5801SOL     OW18843   0.279   7.495   3.900
 5801SOL    HW118844   0.339   7.566   3.881
 5801SOL    HW218845   0.331   7.431   3.949
 5802SOL     OW18846   0.936   7.682   4.180
 5802SOL    HW118847   0.918   7.765   4.134
 5802SOL    HW218848   1.027   7.691   4.209
 5803SOL     OW18849   0.134  -0.016   5.148
 5803SOL    HW118850   0.215   0.005   5.101
 5803SOL    HW218851   0.100   0.069   5.175
 5804SOL     OW18852   0.563   7.705   4.918
 5804SOL    HW118853   0.588   7.615   4.899
 5804SOL    HW218854   0.468   7.702   4.932
 5805SOL     OW18855   1.017   7.499   4.468
 5805SOL    HW118856   0.953   7.479   4.400
 5805SOL    HW218857   1.010   7.427   4.530
 5806SOL     OW18858   1.474   7.976   4.685
 5806SOL    HW118859   1.398   7.919   4.696
 5806SOL    HW218860   1.514   7.979   4.772
 5807SOL     OW18861   0.530   7.710   4.031
 5807SOL    HW118862   0.574   7.662   3.960
 5807SOL    HW218863   0.577   7.793   4.037
 5808SOL     OW18864   0.908   7.536   5.115
 5808SOL    HW118865   0.928   7.511   5.024
 5808SOL    HW218866   0.991   7.571   5.149
 5809SOL     OW18867   1.263   7.797   5.009
 5809SOL    HW118868   1.296   7.879   5.046
 5809SOL    HW218869   1.170   7.813   4.994
 5810SOL     OW18870   0.555   7.935   4.592
 5810SOL    HW118871   0.524   7.998   4.527
 5810SOL    HW218872   0.627   7.979   4.637
 5811SOL     OW18873   1.005   7.583   5.482
 5811SOL    HW118874   1.068   7.649   5.454
 5811SOL    HW218875   1.042   7.500   5.452
 5812SOL     OW18876   0.503   7.490   5.454
 5812SOL    HW118877   0.513   7.506   5.360
 5812SOL    HW218878   0.436   7.551   5.483
 5813SOL     OW18879   0.291   7.642   4.968
 5813SOL    HW118880   0.262   7.662   5.057
 5813SOL    HW218881   0.295   7.547   4.965
 5814SOL     OW18882   0.764   0.065   4.737
 5814SOL    HW118883   0.822   0.071   4.661
 5814SOL    HW218884   0.704   0.139   4.726
 5815SOL     OW18885   0.301   7.525   4.345
 5815SOL    HW118886   0.283   7.614   4.377
 5815SOL    HW218887   0.319   7.475   4.424
 5816SOL     OW18888   1.595   7.827   4.142
 5816SOL    HW118889   1.629   7.740   4.160
 5816SOL    HW218890   1.626   7.881   4.215
 5817SOL     OW18891   1.490   7.734   3.866
 5817SOL    HW118892   1.441   7.652   3.875
 5817SOL    HW218893   1.569   7.720   3.919
 5818SOL     OW18894   1.303   0.170   3.781
 5818SOL    HW118895   1.374   0.223   3.816
 5818SOL    HW218896   1.256   0.229   3.721
 5819SOL     OW18897   0.332   7.956   4.751
 5819SOL    HW118898   0.304   7.866   4.730
 5819SOL    HW218899   0.413   7.968   4.702
 5820SOL     OW18900   1.151   7.832   5.400
 5820SOL    HW118901   1.103   7.909   5.430
 5820SOL    HW218902   1.241   7.863   5.390
 5821SOL     OW18903   1.152   7.634   5.204
 5821SOL    HW118904   1.147   7.706   5.266
 5821SOL    HW218905   1.203   7.670   5.131
 5822SOL     OW18906   0.097   8.017   4.856
 5822SOL    HW118907   0.182   7.990   4.821
 5822SOL    HW218908   0.078   7.953   4.925
 5823SOL     OW18909   0.194   7.953   5.433
 5823SOL    HW118910   0.245   7.970   5.353
 5823SOL    HW218911   0.119   8.012   5.426
 5824SOL     OW18912   0.796   0.043   3.966
 5824SOL    HW118913   0.838  -0.043   3.957
 5824SOL    HW218914   0.740   0.034   4.043
 5825SOL     OW18915   1.623   8.010   4.923
 5825SOL    HW118916   1.613   7.941   4.989
 5825SOL    HW218917   1.702   7.985   4.875
 5826SOL     OW18918   0.727   7.915   4.973
 5826SOL    HW118919   0.667   7.841   4.964
 5826SOL    HW218920   0.723   7.961   4.889
 5827SOL     OW18921   1.708   7.593   4.211
 5827SOL    HW118922   1.788   7.580   4.160
 5827SOL    HW218923   1.696   7.511   4.259
 5828SOL     OW18924   1.847   7.615   4.690
 5828SOL    HW118925   1.872   7.525   4.667
 5828SOL    HW218926   1.764   7.629   4.646
 5829SOL     OW18927   0.250   7.778   4.439
 5829SOL    HW118928   0.159   7.803   4.426
 5829SOL    HW218929   0.258   7.759   4.532
 5830SOL     OW18930   1.025   7.669   4.692
 5830SOL    HW118931   1.015   7.626   4.607
 5830SOL    HW218932   1.017   7.599   4.756
 5831SOL     OW18933   1.742   7.821   5.114
 5831SOL    HW118934   1.806   7.892   5.104
 5831SOL    HW218935   1.770   7.755   5.051
 5832SOL     OW18936   0.674   7.634   5.244
 5832SOL    HW118937   0.747   7.614   5.186
 5832SOL    HW218938   0.715   7.679   5.319
 5833SOL     OW18939   0.103   7.799   3.717
 5833SOL    HW118940   0.023   7.770   3.760
 5833SOL    HW218941   0.103   7.894   3.726
 5834SOL     OW18942   0.078   7.670   4.103
 5834SOL    HW118943   0.047   7.658   4.013
 5834SOL    HW218944   0.167   7.634   4.103
 5835SOL     OW18945   0.781   8.013   5.452
 5835SOL    HW118946   0.687   8.022   5.440
 5835SOL    HW218947   0.796   7.918   5.453
 5836SOL     OW18948   1.287   7.810   4.146
 5836SOL    HW118949   1.321   7.721   4.151
 5836SOL    HW218950   1.281   7.839   4.237
 5837SOL     OW18951   0.635   0.235   4.331
 5837SOL    HW118952   0.634   0.324   4.366
 5837SOL    HW218953   0.566   0.189   4.377
 5838SOL     OW18954   1.756   7.815   5.386
 5838SOL    HW118955   1.748   7.822   5.291
 5838SOL    HW218956   1.690   7.750   5.411
 5839SOL     OW18957   1.819   7.616   4.962
 5839SOL    HW118958   1.818   7.521   4.974
 5839SOL    HW218959   1.827   7.628   4.868
 5840SOL     OW18960   0.377   7.862   4.215
 5840SOL    HW118961   0.411   7.785   4.169
 5840SOL    HW218962   0.337   7.827   4.294
 5841SOL     OW18963   1.433   7.666   4.817
 5841SOL    HW118964   1.449   7.572   4.819
 5841SOL    HW218965   1.386   7.684   4.899
 5842SOL     OW18966   1.000   7.456   4.863
 5842SOL    HW118967   0.951   7.397   4.806
 5842SOL    HW218968   1.087   7.417   4.870
 5843SOL     OW18969   1.371   7.489   3.879
 5843SOL    HW118970   1.413   7.407   3.852
 5843SOL    HW218971   1.280   7.464   3.898
 5844SOL     OW18972   1.300   7.925   4.406
 5844SOL    HW118973   1.235   7.993   4.425
 5844SOL    HW218974   1.297   7.867   4.482
 5845SOL     OW18975   1.604   7.681   4.592
 5845SOL    HW118976   1.545   7.668   4.666
 5845SOL    HW218977   1.572   7.761   4.550
 5846SOL     OW18978   0.243   7.717   6.577
 5846SOL    HW118979   0.264   7.689   6.666
 5846SOL    HW218980   0.162   7.672   6.556
 5847SOL     OW18981   8.008   7.816   6.189
 5847SOL    HW118982   7.913   7.812   6.198
 5847SOL    HW218983   8.027   7.767   6.109
 5848SOL     OW18984   1.652   0.053   5.775
 5848SOL    HW118985   1.705   0.043   5.696
 5848SOL    HW218986   1.685  -0.013   5.835
 5849SOL     OW18987   0.443   7.850   7.134
 5849SOL    HW118988   0.507   7.839   7.065
 5849SOL    HW218989   0.369   7.795   7.107
 5850SOL     OW18990   1.596   7.931   6.286
 5850SOL    HW118991   1.503   7.913   6.268
 5850SOL    HW218992   1.595   7.972   6.372
 5851SOL     OW18993   0.121   0.071   6.155
 5851SOL    HW118994   0.079  -0.015   6.157
 5851SOL    HW218995   0.072   0.124   6.217
 5852SOL     OW18996   0.825   7.437   6.118
 5852SOL    HW118997   0.870   7.516   6.086
 5852SOL    HW218998   0.732   7.460   6.116
 5853SOL     OW18999   0.352   7.702   7.420
 5853SOL    HW119000   0.378   7.780   7.370
 5853SOL    HW219001   0.261   7.719   7.444
 5854SOL     OW19002   1.267   7.789   6.521
 5854SOL    HW119003   1.177   7.759   6.538
 5854SOL    HW219004   1.322   7.735   6.577
 5855SOL     OW19005   1.410   7.974   7.295
 5855SOL    HW119006   1.391   7.978   7.389
 5855SOL    HW219007   1.455   7.890   7.282
 5856SOL     OW19008   0.927   0.390   7.111
 5856SOL    HW119009   0.991   0.325   7.082
 5856SOL    HW219010   0.848   0.369   7.061
 5857SOL     OW19011   0.976   7.820   6.829
 5857SOL    HW119012   0.888   7.841   6.857
 5857SOL    HW219013   0.964   7.765   6.751
 5858SOL     OW19014   0.904   7.776   5.783
 5858SOL    HW119015   0.908   7.819   5.697
 5858SOL    HW219016   0.934   7.686   5.766
 5859SOL     OW19017   1.730   0.030   7.412
 5859SOL    HW119018   1.693   0.094   7.351
 5859SOL    HW219019   1.738  -0.050   7.360
 5860SOL     OW19020   0.554   7.629   6.474
 5860SOL    HW119021   0.551   7.664   6.563
 5860SOL    HW219022   0.551   7.707   6.418
 5861SOL     OW19023   0.208   7.715   7.077
 5861SOL    HW119024   0.160   7.798   7.076
 5861SOL    HW219025   0.155   7.657   7.131
 5862SOL     OW19026   1.401   7.548   6.023
 5862SOL    HW119027   1.394   7.521   5.932
 5862SOL    HW219028   1.491   7.525   6.048
 5863SOL     OW19029   1.501   7.721   7.318
 5863SOL    HW119030   1.505   7.661   7.392
 5863SOL    HW219031   1.508   7.664   7.241
 5864SOL     OW19032   0.648   7.564   5.675
 5864SOL    HW119033   0.706   7.490   5.692
 5864SOL    HW219034   0.593   7.535   5.602
 5865SOL     OW19035   0.768   7.727   7.340
 5865SOL    HW119036   0.849   7.675   7.335
 5865SOL    HW219037   0.722   7.694   7.416
 5866SOL     OW19038   1.338   0.014   7.004
 5866SOL    HW119039   1.396  -0.001   7.079
 5866SOL    HW219040   1.280   0.084   7.032
 5867SOL     OW19041   0.563   7.504   6.083
 5867SOL    HW119042   0.481   7.507   6.132
 5867SOL    HW219043   0.559   7.580   6.026
 5868SOL     OW19044   0.280   7.511   5.770
 5868SOL    HW119045   0.334   7.573   5.722
 5868SOL    HW219046   0.342   7.452   5.813
 5869SOL     OW19047   0.955   7.665   6.043
 5869SOL    HW119048   0.920   7.723   5.974
 5869SOL    HW219049   1.045   7.694   6.055
 5870SOL     OW19050   0.137  -0.018   7.031
 5870SOL    HW119051   0.152  -0.013   6.936
 5870SOL    HW219052   0.107   0.069   7.055
 5871SOL     OW19053   0.561   7.672   6.749
 5871SOL    HW119054   0.593   7.581   6.752
 5871SOL    HW219055   0.471   7.667   6.781
 5872SOL     OW19056   1.017   7.514   6.339
 5872SOL    HW119057   0.962   7.512   6.260
 5872SOL    HW219058   0.994   7.434   6.386
 5873SOL     OW19059   1.491   7.958   6.544
 5873SOL    HW119060   1.407   7.915   6.559
 5873SOL    HW219061   1.522   7.980   6.632
 5874SOL     OW19062   0.545   7.702   5.896
 5874SOL    HW119063   0.579   7.658   5.818
 5874SOL    HW219064   0.576   7.793   5.888
 5875SOL     OW19065   0.922   7.543   6.966
 5875SOL    HW119066   0.949   7.522   6.876
 5875SOL    HW219067   1.000   7.584   7.005
 5876SOL     OW19068   1.252   7.809   6.852
 5876SOL    HW119069   1.285   7.883   6.903
 5876SOL    HW219070   1.157   7.817   6.856
 5877SOL     OW19071   0.545   7.922   6.436
 5877SOL    HW119072   0.508   7.979   6.368
 5877SOL    HW219073   0.607   7.978   6.482
 5878SOL     OW19074   1.000   7.587   7.341
 5878SOL    HW119075   1.060   7.659   7.320
 5878SOL    HW219076   1.041   7.510   7.302
 5879SOL     OW19077   0.501   7.486   7.347
 5879SOL    HW119078   0.452   7.427   7.290
 5879SOL    HW219079   0.445   7.564   7.355
 5880SOL     OW19080   0.309   7.631   6.836
 5880SOL    HW119081   0.271   7.663   6.918
 5880SOL    HW219082   0.286   7.539   6.834
 5881SOL     OW19083   0.753   0.056   6.610
 5881SOL    HW119084   0.811   0.069   6.535
 5881SOL    HW219085   0.687   0.123   6.602
 5882SOL     OW19086   0.318   7.522   6.199
 5882SOL    HW119087   0.285   7.607   6.227
 5882SOL    HW219088   0.320   7.470   6.279
 5883SOL     OW19089   1.614   7.817   5.968
 5883SOL    HW119090   1.655   7.737   6.000
 5883SOL    HW219091   1.610   7.874   6.046
 5884SOL     OW19092   1.485   7.748   5.725
 5884SOL    HW119093   1.443   7.664   5.740
 5884SOL    HW219094   1.537   7.764   5.804
 5885SOL     OW19095   1.349   0.257   5.638
 5885SOL    HW119096   1.312   0.170   5.647
 5885SOL    HW219097   1.283   0.307   5.590
 5886SOL     OW19098   0.308   7.985   6.589
 5886SOL    HW119099   0.298   7.890   6.581
 5886SOL    HW219100   0.394   8.003   6.549
 5887SOL     OW19101   1.149   7.831   7.279
 5887SOL    HW119102   1.105   7.913   7.300
 5887SOL    HW219103   1.241   7.855   7.270
 5888SOL     OW19104   1.153   7.644   7.069
 5888SOL    HW119105   1.154   7.716   7.133
 5888SOL    HW219106   1.220   7.668   7.005
 5889SOL     OW19107   0.105   8.020   6.759
 5889SOL    HW119108   0.170   8.000   6.692
 5889SOL    HW219109   0.033   7.959   6.741
 5890SOL     OW19110   0.192   7.951   7.307
 5890SOL    HW119111   0.235   7.950   7.221
 5890SOL    HW219112   0.110   7.999   7.292
 5891SOL     OW19113   0.791   0.026   5.832
 5891SOL    HW119114   0.840  -0.056   5.841
 5891SOL    HW219115   0.739   0.031   5.912
 5892SOL     OW19116   1.626   8.022   6.780
 5892SOL    HW119117   1.620   7.978   6.865
 5892SOL    HW219118   1.701   7.981   6.737
 5893SOL     OW19119   0.707   7.890   6.829
 5893SOL    HW119120   0.651   7.819   6.799
 5893SOL    HW219121   0.714   7.949   6.754
 5894SOL     OW19122   1.739   7.605   6.091
 5894SOL    HW119123   1.806   7.584   6.027
 5894SOL    HW219124   1.713   7.521   6.127
 5895SOL     OW19125   1.844   7.616   6.556
 5895SOL    HW119126   1.871   7.528   6.533
 5895SOL    HW219127   1.757   7.625   6.517
 5896SOL     OW19128   0.255   7.766   6.299
 5896SOL    HW119129   0.165   7.791   6.280
 5896SOL    HW219130   0.259   7.760   6.395
 5897SOL     OW19131   1.019   7.676   6.567
 5897SOL    HW119132   1.014   7.638   6.479
 5897SOL    HW219133   1.020   7.600   6.626
 5898SOL     OW19134   1.745   7.854   6.977
 5898SOL    HW119135   1.826   7.901   6.959
 5898SOL    HW219136   1.753   7.772   6.929
 5899SOL     OW19137   0.685   7.601   7.095
 5899SOL    HW119138   0.765   7.612   7.043
 5899SOL    HW219139   0.695   7.663   7.167
 5900SOL     OW19140   0.101   7.779   5.623
 5900SOL    HW119141   0.006   7.771   5.615
 5900SOL    HW219142   0.123   7.856   5.570
 5901SOL     OW19143   0.087   7.675   5.956
 5901SOL    HW119144   0.049   7.704   5.873
 5901SOL    HW219145   0.166   7.627   5.931
 5902SOL     OW19146   0.784   8.005   7.307
 5902SOL    HW119147   0.692   8.025   7.294
 5902SOL    HW219148   0.788   7.909   7.307
 5903SOL     OW19149   1.221   7.759   6.053
 5903SOL    HW119150   1.283   7.688   6.038
 5903SOL    HW219151   1.256   7.805   6.130
 5904SOL     OW19152   0.630   0.251   6.268
 5904SOL    HW119153   0.605   0.333   6.224
 5904SOL    HW219154   0.559   0.190   6.246
 5905SOL     OW19155   1.753   7.816   7.245
 5905SOL    HW119156   1.749   7.836   7.152
 5905SOL    HW219157   1.677   7.759   7.261
 5906SOL     OW19158   1.829   7.639   6.832
 5906SOL    HW119159   1.795   7.553   6.855
 5906SOL    HW219160   1.836   7.638   6.737
 5907SOL     OW19161   0.390   7.860   6.079
 5907SOL    HW119162   0.417   7.783   6.029
 5907SOL    HW219163   0.345   7.824   6.156
 5908SOL     OW19164   1.437   7.672   6.708
 5908SOL    HW119165   1.479   7.607   6.764
 5908SOL    HW219166   1.377   7.719   6.767
 5909SOL     OW19167   1.005   7.448   6.721
 5909SOL    HW119168   0.959   7.386   6.664
 5909SOL    HW219169   1.095   7.414   6.725
 5910SOL     OW19170   1.369   7.495   5.752
 5910SOL    HW119171   1.412   7.420   5.711
 5910SOL    HW219172   1.279   7.466   5.765
 5911SOL     OW19173   1.316   7.903   6.273
 5911SOL    HW119174   1.265   7.984   6.283
 5911SOL    HW219175   1.304   7.856   6.355
 5912SOL     OW19176   1.585   7.653   6.475
 5912SOL    HW119177   1.533   7.663   6.555
 5912SOL    HW219178   1.570   7.733   6.425
 5913SOL     OW19179   0.242   7.717   8.448
 5913SOL    HW119180   0.274   7.693   8.535
 5913SOL    HW219181   0.147   7.710   8.455
 5914SOL     OW19182   8.013   7.813   8.049
 5914SOL    HW119183   7.921   7.823   8.074
 5914SOL    HW219184   8.011   7.763   7.967
 5915SOL     OW19185   1.703   0.031   7.703
 5915SOL    HW119186   1.708   0.060   7.612
 5915SOL    HW219187   1.721  -0.063   7.700
 5916SOL     OW19188   0.457   7.840   8.994
 5916SOL    HW119189   0.525   7.784   8.958
 5916SOL    HW219190   0.375   7.796   8.970
 5917SOL     OW19191   1.603   7.937   8.145
 5917SOL    HW119192   1.512   7.922   8.120
 5917SOL    HW219193   1.598   7.981   8.230
 5918SOL     OW19194   1.596   7.575   8.913
 5918SOL    HW119195   1.622   7.659   8.875
 5918SOL    HW219196   1.565   7.597   9.001
 5919SOL     OW19197   0.118   0.072   8.039
 5919SOL    HW119198   0.084  -0.017   8.030
 5919SOL    HW219199   0.054   0.118   8.093
 5920SOL     OW19200   0.814   7.434   7.970
 5920SOL    HW119201   0.859   7.514   7.942
 5920SOL    HW219202   0.722   7.459   7.976
 5921SOL     OW19203   0.348   7.704   9.269
 5921SOL    HW119204   0.400   7.783   9.258
 5921SOL    HW219205   0.258   7.735   9.274
 5922SOL     OW19206   1.269   7.802   8.383
 5922SOL    HW119207   1.181   7.767   8.395
 5922SOL    HW219208   1.325   7.744   8.435
 5923SOL     OW19209   1.400   7.928   9.149
 5923SOL    HW119210   1.383   7.947   9.241
 5923SOL    HW219211   1.442   7.842   9.150
 5924SOL     OW19212   0.928   0.403   8.953
 5924SOL    HW119213   0.976   0.324   8.926
 5924SOL    HW219214   0.836   0.379   8.945
 5925SOL     OW19215   1.002   7.819   8.685
 5925SOL    HW119216   0.916   7.840   8.721
 5925SOL    HW219217   0.985   7.759   8.613
 5926SOL     OW19218   0.908   7.779   7.645
 5926SOL    HW119219   0.920   7.832   7.566
 5926SOL    HW219220   0.935   7.691   7.619
 5927SOL     OW19221   0.533   7.633   8.348
 5927SOL    HW119222   0.544   7.655   8.441
 5927SOL    HW219223   0.535   7.717   8.303
 5928SOL     OW19224   0.194   7.726   8.946
 5928SOL    HW119225   0.113   7.775   8.937
 5928SOL    HW219226   0.172   7.653   9.003
 5929SOL     OW19227   1.407   7.545   7.883
 5929SOL    HW119228   1.379   7.530   7.792
 5929SOL    HW219229   1.493   7.502   7.889
 5930SOL     OW19230   1.507   7.665   9.177
 5930SOL    HW119231   1.511   7.683   9.271
 5930SOL    HW219232   1.450   7.589   9.170
 5931SOL     OW19233   0.651   7.570   7.553
 5931SOL    HW119234   0.700   7.492   7.577
 5931SOL    HW219235   0.593   7.542   7.482
 5932SOL     OW19236   0.776   7.723   9.210
 5932SOL    HW119237   0.855   7.671   9.200
 5932SOL    HW219238   0.723   7.674   9.274
 5933SOL     OW19239   1.363   0.017   8.882
 5933SOL    HW119240   1.380  -0.013   8.971
 5933SOL    HW219241   1.295   0.084   8.892
 5934SOL     OW19242   0.548   7.503   7.962
 5934SOL    HW119243   0.468   7.508   8.015
 5934SOL    HW219244   0.543   7.579   7.904
 5935SOL     OW19245   0.280   7.515   7.629
 5935SOL    HW119246   0.330   7.575   7.575
 5935SOL    HW219247   0.346   7.456   7.666
 5936SOL     OW19248   0.946   7.663   7.906
 5936SOL    HW119249   0.917   7.720   7.835
 5936SOL    HW219250   1.037   7.690   7.922
 5937SOL     OW19251   0.129   0.004   8.828
 5937SOL    HW119252   0.199  -0.024   8.888
 5937SOL    HW219253   0.066   0.049   8.883
 5938SOL     OW19254   0.566   7.667   8.621
 5938SOL    HW119255   0.608   7.604   8.680
 5938SOL    HW219256   0.475   7.671   8.651
 5939SOL     OW19257   1.025   7.499   8.193
 5939SOL    HW119258   0.966   7.507   8.117
 5939SOL    HW219259   0.990   7.425   8.242
 5940SOL     OW19260   1.508   7.944   8.409
 5940SOL    HW119261   1.417   7.916   8.409
 5940SOL    HW219262   1.512   8.010   8.479
 5941SOL     OW19263   0.541   7.702   7.770
 5941SOL    HW119264   0.575   7.657   7.692
 5941SOL    HW219265   0.573   7.791   7.762
 5942SOL     OW19266   0.917   7.538   8.839
 5942SOL    HW119267   0.940   7.515   8.750
 5942SOL    HW219268   0.997   7.575   8.876
 5943SOL     OW19269   1.274   7.804   8.727
 5943SOL    HW119270   1.304   7.885   8.768
 5943SOL    HW219271   1.181   7.819   8.710
 5944SOL     OW19272   0.543   7.918   8.289
 5944SOL    HW119273   0.499   7.963   8.217
 5944SOL    HW219274   0.585   7.987   8.339
 5945SOL     OW19275   1.005   7.582   9.193
 5945SOL    HW119276   1.073   7.644   9.168
 5945SOL    HW219277   1.046   7.496   9.184
 5946SOL     OW19278   0.506   7.492   9.186
 5946SOL    HW119279   0.457   7.436   9.126
 5946SOL    HW219280   0.446   7.564   9.206
 5947SOL     OW19281   0.309   7.645   8.705
 5947SOL    HW119282   0.270   7.673   8.788
 5947SOL    HW219283   0.298   7.550   8.704
 5948SOL     OW19284   0.772   0.061   8.469
 5948SOL    HW119285   0.813   0.056   8.383
 5948SOL    HW219286   0.696   0.118   8.456
 5949SOL     OW19287   0.311   7.510   8.119
 5949SOL    HW119288   0.300   7.604   8.135
 5949SOL    HW219289   0.224   7.480   8.091
 5950SOL     OW19290   1.626   7.793   7.854
 5950SOL    HW119291   1.600   7.738   7.928
 5950SOL    HW219292   1.571   7.872   7.863
 5951SOL     OW19293   1.472   7.756   7.624
 5951SOL    HW119294   1.431   7.670   7.619
 5951SOL    HW219295   1.542   7.745   7.688
 5952SOL     OW19296   1.291   0.270   7.533
 5952SOL    HW119297   1.282   0.174   7.532
 5952SOL    HW219298   1.240   0.299   7.458
 5953SOL     OW19299   0.324   7.980   8.484
 5953SOL    HW119300   0.313   7.887   8.462
 5953SOL    HW219301   0.390   8.011   8.422
 5954SOL     OW19302   1.144   7.831   9.117
 5954SOL    HW119303   1.090   7.903   9.148
 5954SOL    HW219304   1.233   7.866   9.118
 5955SOL     OW19305   1.161   7.638   8.919
 5955SOL    HW119306   1.148   7.706   8.985
 5955SOL    HW219307   1.208   7.681   8.848
 5956SOL     OW19308   0.073   0.032   8.561
 5956SOL    HW119309   0.163   0.012   8.533
 5956SOL    HW219310   0.073   0.014   8.655
 5957SOL     OW19311   0.204   8.019   9.104
 5957SOL    HW119312   0.215   7.931   9.139
 5957SOL    HW219313   0.111   8.039   9.116
 5958SOL     OW19314   0.792   0.028   7.697
 5958SOL    HW119315   0.839  -0.055   7.707
 5958SOL    HW219316   0.739   0.035   7.777
 5959SOL     OW19317   1.636   8.030   8.661
 5959SOL    HW119318   1.617   7.963   8.727
 5959SOL    HW219319   1.698   7.989   8.602
 5960SOL     OW19320   0.732   7.888   8.683
 5960SOL    HW119321   0.665   7.822   8.666
 5960SOL    HW219322   0.729   7.946   8.607
 5961SOL     OW19323   1.769   7.564   7.984
 5961SOL    HW119324   1.810   7.578   7.898
 5961SOL    HW219325   1.732   7.476   7.978
 5962SOL     OW19326   0.257   7.768   8.169
 5962SOL    HW119327   0.169   7.794   8.142
 5962SOL    HW219328   0.253   7.767   8.265
 5963SOL     OW19329   1.032   7.668   8.420
 5963SOL    HW119330   1.026   7.628   8.333
 5963SOL    HW219331   1.021   7.596   8.481
 5964SOL     OW19332   1.745   7.821   8.849
 5964SOL    HW119333   1.808   7.893   8.839
 5964SOL    HW219334   1.774   7.755   8.786
 5965SOL     OW19335   0.679   7.641   8.943
 5965SOL    HW119336   0.764   7.617   8.906
 5965SOL    HW219337   0.698   7.667   9.033
 5966SOL     OW19338   0.095   7.772   7.492
 5966SOL    HW119339   0.006   7.751   7.464
 5966SOL    HW219340   0.120   7.847   7.438
 5967SOL     OW19341   0.105   7.666   7.802
 5967SOL    HW119342   0.066   7.718   7.732
 5967SOL    HW219343   0.172   7.613   7.758
 5968SOL     OW19344   0.771   8.003   9.195
 5968SOL    HW119345   0.679   8.016   9.170
 5968SOL    HW219346   0.785   7.909   9.189
 5969SOL     OW19347   1.210   7.741   7.931
 5969SOL    HW119348   1.279   7.679   7.907
 5969SOL    HW219349   1.253   7.802   7.991
 5970SOL     OW19350   0.628   0.250   8.132
 5970SOL    HW119351   0.603   0.330   8.085
 5970SOL    HW219352   0.562   0.186   8.107
 5971SOL     OW19353   1.723   7.834   9.124
 5971SOL    HW119354   1.728   7.840   9.029
 5971SOL    HW219355   1.659   7.764   9.140
 5972SOL     OW19356   1.818   7.618   8.687
 5972SOL    HW119357   1.827   7.525   8.709
 5972SOL    HW219358   1.778   7.618   8.600
 5973SOL     OW19359   0.390   7.863   7.945
 5973SOL    HW119360   0.415   7.786   7.893
 5973SOL    HW219361   0.344   7.827   8.021
 5974SOL     OW19362   1.435   7.657   8.555
 5974SOL    HW119363   1.427   7.565   8.579
 5974SOL    HW219364   1.388   7.705   8.623
 5975SOL     OW19365   1.003   7.453   8.588
 5975SOL    HW119366   0.949   7.385   8.548
 5975SOL    HW219367   1.091   7.415   8.591
 5976SOL     OW19368   1.355   7.501   7.618
 5976SOL    HW119369   1.392   7.442   7.553
 5976SOL    HW219370   1.268   7.466   7.636
 5977SOL     OW19371   1.329   7.898   8.129
 5977SOL    HW119372   1.280   7.981   8.121
 5977SOL    HW219373   1.303   7.864   8.215
 5978SOL     OW19374   1.617   7.674   8.339
 5978SOL    HW119375   1.559   7.654   8.413
 5978SOL    HW219376   1.596   7.764   8.315
 5979SOL     OW19377   0.255   7.735  10.309
 5979SOL    HW119378   0.269   7.696  10.395
 5979SOL    HW219379   0.171   7.701  10.279
 5980SOL     OW19380   7.995   7.811   9.925
 5980SOL    HW119381   7.909   7.852   9.940
 5980SOL    HW219382   7.974   7.720   9.905
 5981SOL     OW19383   1.734   7.991   9.479
 5981SOL    HW119384   1.791   8.052   9.526
 5981SOL    HW219385   1.697   7.934   9.547
 5982SOL     OW19386   0.460   7.834  10.862
 5982SOL    HW119387   0.529   7.781  10.823
 5982SOL    HW219388   0.379   7.790  10.837
 5983SOL     OW19389   1.590   7.936  10.012
 5983SOL    HW119390   1.499   7.925   9.983
 5983SOL    HW219391   1.584   7.959  10.104
 5984SOL     OW19392   1.658   7.578  10.768
 5984SOL    HW119393   1.579   7.630  10.755
 5984SOL    HW219394   1.635   7.517  10.839
 5985SOL     OW19395   0.111   0.073   9.852
 5985SOL    HW119396   0.090  -0.020   9.849
 5985SOL    HW219397   0.049   0.109   9.916
 5986SOL     OW19398   0.820   7.458   9.850
 5986SOL    HW119399   0.865   7.533   9.810
 5986SOL    HW219400   0.728   7.486   9.855
 5987SOL     OW19401   0.354   7.707  11.147
 5987SOL    HW119402   0.377   7.785  11.097
 5987SOL    HW219403   0.263   7.722  11.173
 5988SOL     OW19404   1.277   7.802  10.242
 5988SOL    HW119405   1.187   7.768  10.246
 5988SOL    HW219406   1.326   7.747  10.302
 5989SOL     OW19407   1.405   7.932  10.999
 5989SOL    HW119408   1.396   7.954  11.092
 5989SOL    HW219409   1.449   7.847  10.999
 5990SOL     OW19410   0.930   0.384  10.816
 5990SOL    HW119411   0.951   0.298  10.779
 5990SOL    HW219412   0.835   0.384  10.825
 5991SOL     OW19413   0.989   7.810  10.550
 5991SOL    HW119414   0.911   7.845  10.594
 5991SOL    HW219415   0.958   7.782  10.464
 5992SOL     OW19416   0.869   7.794   9.516
 5992SOL    HW119417   0.934   7.802   9.446
 5992SOL    HW219418   0.815   7.720   9.490
 5993SOL     OW19419   1.739   0.039  11.089
 5993SOL    HW119420   1.670   0.106  11.085
 5993SOL    HW219421   1.718  -0.021  11.018
 5994SOL     OW19422   0.555   7.613  10.211
 5994SOL    HW119423   0.543   7.653  10.297
 5994SOL    HW219424   0.555   7.687  10.150
 5995SOL     OW19425   0.220   7.711  10.808
 5995SOL    HW119426   0.156   7.782  10.800
 5995SOL    HW219427   0.171   7.638  10.847
 5996SOL     OW19428   1.403   7.555   9.746
 5996SOL    HW119429   1.391   7.523   9.657
 5996SOL    HW219430   1.493   7.528   9.769
 5997SOL     OW19431   1.512   7.690  11.041
 5997SOL    HW119432   1.506   7.694  11.137
 5997SOL    HW219433   1.516   7.596  11.022
 5998SOL     OW19434   0.653   7.557   9.407
 5998SOL    HW119435   0.635   7.492   9.475
 5998SOL    HW219436   0.605   7.526   9.331
 5999SOL     OW19437   0.782   7.730  11.072
 5999SOL    HW119438   0.859   7.673  11.065
 5999SOL    HW219439   0.726   7.688  11.136
 6000SOL     OW19440   1.369   0.023  10.736
 6000SOL    HW119441   1.389  -0.013  10.822
 6000SOL    HW219442   1.301   0.088  10.752
 6001SOL     OW19443   0.560   7.561   9.844
 6001SOL    HW119444   0.479   7.546   9.894
 6001SOL    HW219445   0.552   7.505   9.767
 6002SOL     OW19446   0.273   7.505   9.467
 6002SOL    HW119447   0.326   7.567   9.417
 6002SOL    HW219448   0.337   7.455   9.518
 6003SOL     OW19449   0.958   7.680   9.759
 6003SOL    HW119450   0.934   7.719   9.675
 6003SOL    HW219451   1.049   7.706   9.772
 6004SOL     OW19452   0.120  -0.027  10.750
 6004SOL    HW119453   0.123  -0.028  10.654
 6004SOL    HW219454   0.104   0.065  10.772
 6005SOL     OW19455   0.566   7.668  10.483
 6005SOL    HW119456   0.596   7.581  10.509
 6005SOL    HW219457   0.474   7.671  10.511
 6006SOL     OW19458   1.021   7.491  10.044
 6006SOL    HW119459   0.953   7.489   9.977
 6006SOL    HW219460   1.003   7.414  10.099
 6007SOL     OW19461   1.483   7.995  10.262
 6007SOL    HW119462   1.404   7.941  10.266
 6007SOL    HW219463   1.520   7.990  10.350
 6008SOL     OW19464   0.572   7.771   9.575
 6008SOL    HW119465   0.576   7.685   9.533
 6008SOL    HW219466   0.504   7.763   9.642
 6009SOL     OW19467   0.923   7.555  10.702
 6009SOL    HW119468   0.929   7.627  10.639
 6009SOL    HW219469   1.006   7.559  10.750
 6010SOL     OW19470   1.269   7.805  10.592
 6010SOL    HW119471   1.300   7.887  10.630
 6010SOL    HW219472   1.175   7.819  10.577
 6011SOL     OW19473   0.602   7.946  10.141
 6011SOL    HW119474   0.547   7.970  10.067
 6011SOL    HW219475   0.565   7.995  10.215
 6012SOL     OW19476   1.008   7.582  11.064
 6012SOL    HW119477   1.070   7.651  11.042
 6012SOL    HW219478   1.049   7.502  11.032
 6013SOL     OW19479   0.495   7.491  11.062
 6013SOL    HW119480   0.451   7.441  10.993
 6013SOL    HW219481   0.438   7.566  11.078
 6014SOL     OW19482   0.311   7.633  10.561
 6014SOL    HW119483   0.276   7.664  10.644
 6014SOL    HW219484   0.290   7.540  10.559
 6015SOL     OW19485   0.769   0.069  10.340
 6015SOL    HW119486   0.748   0.032  10.255
 6015SOL    HW219487   0.709   0.143  10.349
 6016SOL     OW19488   0.310   7.534   9.943
 6016SOL    HW119489   0.222   7.573   9.947
 6016SOL    HW219490   0.313   7.474  10.017
 6017SOL     OW19491   1.617   7.819   9.677
 6017SOL    HW119492   1.658   7.744   9.721
 6017SOL    HW219493   1.573   7.867   9.747
 6018SOL     OW19494   1.487   7.741   9.443
 6018SOL    HW119495   1.442   7.659   9.463
 6018SOL    HW219496   1.540   7.759   9.521
 6019SOL     OW19497   1.328   0.247   9.353
 6019SOL    HW119498   1.292   0.163   9.383
 6019SOL    HW219499   1.258   0.285   9.301
 6020SOL     OW19500   0.371   7.980  10.322
 6020SOL    HW119501   0.337   7.890  10.318
 6020SOL    HW219502   0.363   8.012  10.232
 6021SOL     OW19503   1.147   7.828  10.987
 6021SOL    HW119504   1.097   7.906  11.011
 6021SOL    HW219505   1.238   7.857  10.986
 6022SOL     OW19506   1.171   7.638  10.790
 6022SOL    HW119507   1.158   7.704  10.857
 6022SOL    HW219508   1.217   7.683  10.719
 6023SOL     OW19509   0.101   7.998  10.481
 6023SOL    HW119510   0.141   7.934  10.423
 6023SOL    HW219511   0.007   7.988  10.467
 6024SOL     OW19512   0.200   7.970  11.019
 6024SOL    HW119513   0.221   7.950  10.928
 6024SOL    HW219514   0.115   8.014  11.015
 6025SOL     OW19515   1.623   8.003  10.498
 6025SOL    HW119516   1.619   7.954  10.580
 6025SOL    HW219517   1.708   7.980  10.460
 6026SOL     OW19518   0.727   7.883  10.550
 6026SOL    HW119519   0.660   7.816  10.535
 6026SOL    HW219520   0.711   7.948  10.482
 6027SOL     OW19521   1.732   7.607   9.813
 6027SOL    HW119522   1.803   7.587   9.751
 6027SOL    HW219523   1.709   7.522   9.851
 6028SOL     OW19524   1.846   7.617  10.273
 6028SOL    HW119525   1.872   7.528  10.250
 6028SOL    HW219526   1.759   7.627  10.236
 6029SOL     OW19527   0.249   7.824  10.030
 6029SOL    HW119528   0.157   7.816  10.003
 6029SOL    HW219529   0.252   7.782  10.116
 6030SOL     OW19530   1.025   7.681  10.248
 6030SOL    HW119531   1.033   7.635  10.165
 6030SOL    HW219532   0.955   7.634  10.295
 6031SOL     OW19533   1.742   7.853  10.705
 6031SOL    HW119534   1.819   7.908  10.700
 6031SOL    HW219535   1.764   7.776  10.654
 6032SOL     OW19536   0.682   7.648  10.818
 6032SOL    HW119537   0.766   7.622  10.780
 6032SOL    HW219538   0.705   7.682  10.905
 6033SOL     OW19539   0.099   7.813   9.289
 6033SOL    HW119540   0.052   7.741   9.330
 6033SOL    HW219541   0.067   7.892   9.333
 6034SOL     OW19542   0.097   7.672   9.653
 6034SOL    HW119543   0.057   7.652   9.568
 6034SOL    HW219544   0.183   7.631   9.650
 6035SOL     OW19545   0.779   8.009  11.036
 6035SOL    HW119546   0.685   8.021  11.028
 6035SOL    HW219547   0.792   7.915  11.039
 6036SOL     OW19548   1.226   7.768   9.765
 6036SOL    HW119549   1.284   7.692   9.758
 6036SOL    HW219550   1.258   7.817   9.840
 6037SOL     OW19551   0.636   0.247   9.949
 6037SOL    HW119552   0.637   0.331   9.995
 6037SOL    HW219553   0.566   0.197   9.992
 6038SOL     OW19554   1.761   7.789  10.973
 6038SOL    HW119555   1.753   7.806  10.879
 6038SOL    HW219556   1.689   7.728  10.992
 6039SOL     OW19557   1.836   7.655  10.546
 6039SOL    HW119558   1.804   7.573  10.582
 6039SOL    HW219559   1.839   7.641  10.452
 6040SOL     OW19560   0.412   7.793   9.807
 6040SOL    HW119561   0.465   7.717   9.830
 6040SOL    HW219562   0.347   7.800   9.877
 6041SOL     OW19563   1.433   7.667  10.420
 6041SOL    HW119564   1.448   7.578  10.452
 6041SOL    HW219565   1.385   7.710  10.491
 6042SOL     OW19566   1.366   7.495   9.475
 6042SOL    HW119567   1.404   7.419   9.432
 6042SOL    HW219568   1.276   7.469   9.494
 6043SOL     OW19569   1.313   7.909   9.992
 6043SOL    HW119570   1.246   7.977   9.988
 6043SOL    HW219571   1.298   7.865  10.076
 6044SOL     OW19572   1.590   7.653  10.193
 6044SOL    HW119573   1.535   7.663  10.270
 6044SOL    HW219574   1.552   7.715  10.129
 6045SOL     OW19575   0.228   7.725  12.155
 6045SOL    HW119576   0.295   7.682  12.208
 6045SOL    HW219577   0.145   7.699  12.196
 6046SOL     OW19578   8.008   7.827  11.769
 6046SOL    HW119579   7.913   7.839  11.776
 6046SOL    HW219580   8.019   7.775  11.689
 6047SOL     OW19581   1.767   7.938  11.363
 6047SOL    HW119582   1.735   8.027  11.346
 6047SOL    HW219583   1.715   7.909  11.438
 6048SOL     OW19584   1.587   7.919  11.873
 6048SOL    HW119585   1.495   7.915  11.846
 6048SOL    HW219586   1.585   7.957  11.960
 6049SOL     OW19587   0.112   0.090  11.730
 6049SOL    HW119588   0.068   0.005  11.734
 6049SOL    HW219589   0.095   0.129  11.816
 6050SOL     OW19590   0.821   7.430  11.695
 6050SOL    HW119591   0.865   7.510  11.669
 6050SOL    HW219592   0.728   7.453  11.699
 6051SOL     OW19593   1.275   7.786  12.101
 6051SOL    HW119594   1.184   7.762  12.119
 6051SOL    HW219595   1.325   7.740  12.168
 6052SOL     OW19596   0.970   7.821  12.421
 6052SOL    HW119597   0.890   7.869  12.440
 6052SOL    HW219598   0.956   7.781  12.335
 6053SOL     OW19599   0.895   7.785  11.365
 6053SOL    HW119600   0.905   7.818  11.276
 6053SOL    HW219601   0.886   7.690  11.354
 6054SOL     OW19602   1.417   7.541  11.601
 6054SOL    HW119603   1.414   7.542  11.506
 6054SOL    HW219604   1.509   7.555  11.622
 6055SOL     OW19605   0.657   7.564  11.266
 6055SOL    HW119606   0.696   7.481  11.292
 6055SOL    HW219607   0.596   7.541  11.196
 6056SOL     OW19608   0.560   7.498  11.667
 6056SOL    HW119609   0.488   7.507  11.730
 6056SOL    HW219610   0.555   7.578  11.614
 6057SOL     OW19611   0.281   7.496  11.340
 6057SOL    HW119612   0.336   7.564  11.299
 6057SOL    HW219613   0.343   7.441  11.387
 6058SOL     OW19614   0.957   7.659  11.627
 6058SOL    HW119615   0.913   7.729  11.579
 6058SOL    HW219616   1.047   7.690  11.636
 6059SOL     OW19617   0.115   0.041   0.058
 6059SOL    HW119618   0.198   0.029   0.105
 6059SOL    HW219619   0.062   0.096   0.115
 6060SOL     OW19620   0.580   7.668  12.372
 6060SOL    HW119621   0.593   7.644  12.280
 6060SOL    HW219622   0.485   7.665  12.384
 6061SOL     OW19623   1.034   7.484  11.906
 6061SOL    HW119624   0.962   7.504  11.847
 6061SOL    HW219625   0.998   7.419  11.966
 6062SOL     OW19626   1.491   7.973  12.124
 6062SOL    HW119627   1.405   7.931  12.133
 6062SOL    HW219628   1.521   7.985  12.214
 6063SOL     OW19629   0.545   7.703  11.485
 6063SOL    HW119630   0.581   7.661  11.406
 6063SOL    HW219631   0.565   7.796  11.472
 6064SOL     OW19632   1.249   7.839  12.435
 6064SOL    HW119633   1.270   7.872  12.523
 6064SOL    HW219634   1.155   7.822  12.439
 6065SOL     OW19635   0.578  -0.002  12.036
 6065SOL    HW119636   0.542  -0.022  11.949
 6065SOL    HW219637   0.567   0.093  12.044
 6066SOL     OW19638   0.316   7.637  12.417
 6066SOL    HW119639   0.252   7.689  12.466
 6066SOL    HW219640   0.278   7.550  12.412
 6067SOL     OW19641   0.772   0.068  12.213
 6067SOL    HW119642   0.729   0.021  12.142
 6067SOL    HW219643   0.729   0.154  12.215
 6068SOL     OW19644   0.309   7.520  11.791
 6068SOL    HW119645   0.286   7.609  11.820
 6068SOL    HW219646   0.319   7.471  11.873
 6069SOL     OW19647   1.606   7.819  11.559
 6069SOL    HW119648   1.648   7.744  11.601
 6069SOL    HW219649   1.579   7.875  11.631
 6070SOL     OW19650   1.487   7.748  11.313
 6070SOL    HW119651   1.447   7.662  11.326
 6070SOL    HW219652   1.536   7.764  11.394
 6071SOL     OW19653   1.321   0.253  11.224
 6071SOL    HW119654   1.283   0.170  11.254
 6071SOL    HW219655   1.252   0.292  11.170
 6072SOL     OW19656   0.337   7.973  12.189
 6072SOL    HW119657   0.307   7.885  12.167
 6072SOL    HW219658   0.421   7.983  12.143
 6073SOL     OW19659   1.156   7.688   0.174
 6073SOL    HW119660   1.175   7.716   0.263
 6073SOL    HW219661   1.239   7.699   0.127
 6074SOL     OW19662   0.087   0.023  12.283
 6074SOL    HW119663   0.179   0.012  12.260
 6074SOL    HW219664   0.087   0.039  12.377
 6075SOL     OW19665   0.794   0.037  11.414
 6075SOL    HW119666   0.841  -0.046  11.419
 6075SOL    HW219667   0.737   0.037  11.491
 6076SOL     OW19668   1.629   8.018  12.356
 6076SOL    HW119669   1.631   7.960  12.432
 6076SOL    HW219670   1.713   8.003  12.312
 6077SOL     OW19671   0.689   7.910  12.425
 6077SOL    HW119672   0.649   7.828  12.399
 6077SOL    HW219673   0.706   7.956  12.342
 6078SOL     OW19674   1.713   7.596  11.675
 6078SOL    HW119675   1.788   7.575  11.618
 6078SOL    HW219676   1.694   7.514  11.720
 6079SOL     OW19677   1.842   7.619  12.135
 6079SOL    HW119678   1.870   7.530  12.113
 6079SOL    HW219679   1.753   7.625  12.100
 6080SOL     OW19680   0.250   7.771  11.884
 6080SOL    HW119681   0.161   7.797  11.862
 6080SOL    HW219682   0.250   7.758  11.979
 6081SOL     OW19683   1.027   7.677  12.160
 6081SOL    HW119684   0.998   7.645  12.075
 6081SOL    HW219685   1.017   7.602  12.219
 6082SOL     OW19686   1.743   7.832   0.034
 6082SOL    HW119687   1.831   7.869   0.041
 6082SOL    HW219688   1.755   7.745  -0.004
 6083SOL     OW19689   0.101   7.784  11.203
 6083SOL    HW119690   0.010   7.764  11.181
 6083SOL    HW219691   0.122   7.861  11.150
 6084SOL     OW19692   0.076   7.671  11.546
 6084SOL    HW119693   0.041   7.668  11.457
 6084SOL    HW219694   0.166   7.638  11.537
 6085SOL     OW19695   1.224   7.752  11.633
 6085SOL    HW119696   1.291   7.685  11.631
 6085SOL    HW219697   1.250   7.810  11.704
 6086SOL     OW19698   0.646   0.255  11.795
 6086SOL    HW119699   0.602   0.339  11.780
 6086SOL    HW219700   0.577   0.198  11.830
 6087SOL     OW19701   1.817   7.604  12.411
 6087SOL    HW119702   1.844   7.512  12.416
 6087SOL    HW219703   1.822   7.624  12.317
 6088SOL     OW19704   0.390   7.857  11.668
 6088SOL    HW119705   0.426   7.779  11.626
 6088SOL    HW219706   0.345   7.823  11.746
 6089SOL     OW19707   1.438   7.687  12.301
 6089SOL    HW119708   1.493   7.640  12.363
 6089SOL    HW219709   1.379   7.738  12.355
 6090SOL     OW19710   1.005   7.434  12.313
 6090SOL    HW119711   0.960   7.392  12.240
 6090SOL    HW219712   1.095   7.401  12.308
 6091SOL     OW19713   1.373   7.497  11.333
 6091SOL    HW119714   1.413   7.442  11.265
 6091SOL    HW219715   1.280   7.477  11.328
 6092SOL     OW19716   1.304   7.903  11.855
 6092SOL    HW119717   1.233   7.966  11.857
 6092SOL    HW219718   1.297   7.857  11.939
 6093SOL     OW19719   1.579   7.650  12.060
 6093SOL    HW119720   1.529   7.666  12.140
 6093SOL    HW219721   1.563   7.727  12.005
 6094SOL     OW19722   2.133   0.591   0.045
 6094SOL    HW119723   2.086   0.647   0.106
 6094SOL    HW219724   2.070   0.573  -0.025
 6095SOL     OW19725   2.061   0.331   1.032
 6095SOL    HW119726   2.099   0.277   1.101
 6095SOL    HW219727   1.996   0.274   0.990
 6096SOL     OW19728   1.866   0.387   0.629
 6096SOL    HW119729   1.777   0.401   0.661
 6096SOL    HW219730   1.875   0.291   0.625
 6097SOL     OW19731   2.417   1.296   1.196
 6097SOL    HW119732   2.339   1.316   1.144
 6097SOL    HW219733   2.451   1.382   1.223
 6098SOL     OW19734   3.427   1.528   0.721
 6098SOL    HW119735   3.391   1.505   0.807
 6098SOL    HW219736   3.351   1.531   0.663
 6099SOL     OW19737   2.990   0.717   0.699
 6099SOL    HW119738   3.044   0.795   0.691
 6099SOL    HW219739   2.945   0.727   0.783
 6100SOL     OW19740   3.562   0.627   0.284
 6100SOL    HW119741   3.572   0.615   0.190
 6100SOL    HW219742   3.549   0.539   0.319
 6101SOL     OW19743   2.588   1.134   1.047
 6101SOL    HW119744   2.531   1.170   1.115
 6101SOL    HW219745   2.630   1.212   1.008
 6102SOL     OW19746   2.740   0.761   1.829
 6102SOL    HW119747   2.758   0.823   1.900
 6102SOL    HW219748   2.763   0.808   1.749
 6103SOL     OW19749   2.550   0.995   0.653
 6103SOL    HW119750   2.617   0.989   0.721
 6103SOL    HW219751   2.483   1.052   0.690
 6104SOL     OW19752   2.568   1.149   1.790
 6104SOL    HW119753   2.599   1.228   1.834
 6104SOL    HW219754   2.474   1.164   1.776
 6105SOL     OW19755   2.195   1.420   1.074
 6105SOL    HW119756   2.120   1.384   1.027
 6105SOL    HW219757   2.240   1.475   1.009
 6106SOL     OW19758   3.329   1.508   1.357
 6106SOL    HW119759   3.386   1.585   1.370
 6106SOL    HW219760   3.265   1.514   1.428
 6107SOL     OW19761   2.306   0.390   1.471
 6107SOL    HW119762   2.388   0.341   1.479
 6107SOL    HW219763   2.238   0.328   1.497
 6108SOL     OW19764   3.465   0.453   0.713
 6108SOL    HW119765   3.373   0.472   0.694
 6108SOL    HW219766   3.476   0.481   0.804
 6109SOL     OW19767   2.085   1.709   0.470
 6109SOL    HW119768   2.102   1.783   0.528
 6109SOL    HW219769   2.161   1.706   0.412
 6110SOL     OW19770   3.002   1.348   1.696
 6110SOL    HW119771   3.052   1.337   1.777
 6110SOL    HW219772   2.951   1.267   1.688
 6111SOL     OW19773   2.051   1.448   0.549
 6111SOL    HW119774   2.067   1.539   0.526
 6111SOL    HW219775   1.986   1.451   0.619
 6112SOL     OW19776   2.100   1.087   0.850
 6112SOL    HW119777   2.119   1.009   0.901
 6112SOL    HW219778   2.060   1.148   0.913
 6113SOL     OW19779   2.440   1.802   1.398
 6113SOL    HW119780   2.374   1.780   1.463
 6113SOL    HW219781   2.486   1.878   1.434
 6114SOL     OW19782   2.482   0.923   0.150
 6114SOL    HW119783   2.541   0.953   0.080
 6114SOL    HW219784   2.494   0.986   0.221
 6115SOL     OW19785   3.432   0.148   1.476
 6115SOL    HW119786   3.468   0.182   1.395
 6115SOL    HW219787   3.508   0.131   1.532
 6116SOL     OW19788   1.988   0.637   0.549
 6116SOL    HW119789   1.958   0.548   0.567
 6116SOL    HW219790   1.993   0.679   0.635
 6117SOL     OW19791   3.721   1.739   0.332
 6117SOL    HW119792   3.792   1.713   0.390
 6117SOL    HW219793   3.737   1.832   0.316
 6118SOL     OW19794   1.889   1.509   0.158
 6118SOL    HW119795   1.796   1.489   0.146
 6118SOL    HW219796   1.889   1.598   0.193
 6119SOL     OW19797   3.526   0.908   0.658
 6119SOL    HW119798   3.616   0.876   0.657
 6119SOL    HW219799   3.522   0.970   0.585
 6120SOL     OW19800   3.515   1.108   0.468
 6120SOL    HW119801   3.587   1.109   0.404
 6120SOL    HW219802   3.536   1.179   0.529
 6121SOL     OW19803   2.003   0.752   1.583
 6121SOL    HW119804   2.097   0.762   1.592
 6121SOL    HW219805   1.969   0.842   1.584
 6122SOL     OW19806   2.478   1.396   0.732
 6122SOL    HW119807   2.435   1.310   0.741
 6122SOL    HW219808   2.461   1.422   0.642
 6123SOL     OW19809   3.152   1.231   1.417
 6123SOL    HW119810   3.190   1.162   1.362
 6123SOL    HW219811   3.206   1.231   1.496
 6124SOL     OW19812   2.696   0.031   0.577
 6124SOL    HW119813   2.723   0.114   0.538
 6124SOL    HW219814   2.600   0.037   0.582
 6125SOL     OW19815   2.060   0.976   1.283
 6125SOL    HW119816   2.141   0.927   1.266
 6125SOL    HW219817   1.990   0.918   1.253
 6126SOL     OW19818   3.339   1.015   0.230
 6126SOL    HW119819   3.303   0.936   0.190
 6126SOL    HW219820   3.434   1.002   0.228
 6127SOL     OW19821   3.026   1.801   1.606
 6127SOL    HW119822   3.064   1.871   1.553
 6127SOL    HW219823   3.075   1.723   1.581
 6128SOL     OW19824   2.184   0.243   1.787
 6128SOL    HW119825   2.266   0.285   1.814
 6128SOL    HW219826   2.130   0.243   1.866
 6129SOL     OW19827   3.321   1.422   0.954
 6129SOL    HW119828   3.260   1.439   1.025
 6129SOL    HW219829   3.307   1.331   0.930
 6130SOL     OW19830   3.516   1.766   0.584
 6130SOL    HW119831   3.499   1.729   0.497
 6130SOL    HW219832   3.499   1.694   0.644
 6131SOL     OW19833   3.157   0.362   0.919
 6131SOL    HW119834   3.067   0.331   0.925
 6131SOL    HW219835   3.204   0.312   0.986
 6132SOL     OW19836   3.455   1.671   0.329
 6132SOL    HW119837   3.550   1.684   0.323
 6132SOL    HW219838   3.423   1.691   0.241
 6133SOL     OW19839   2.647   0.633   1.451
 6133SOL    HW119840   2.626   0.603   1.539
 6133SOL    HW219841   2.623   0.559   1.394
 6134SOL     OW19842   3.271   0.480   1.682
 6134SOL    HW119843   3.273   0.530   1.763
 6134SOL    HW219844   3.332   0.409   1.696
 6135SOL     OW19845   2.815   0.888   1.588
 6135SOL    HW119846   2.873   0.821   1.551
 6135SOL    HW219847   2.759   0.914   1.515
 6136SOL     OW19848   2.848   0.402   1.247
 6136SOL    HW119849   2.758   0.434   1.253
 6136SOL    HW219850   2.845   0.333   1.180
 6137SOL     OW19851   2.893   0.688   0.435
 6137SOL    HW119852   2.911   0.682   0.529
 6137SOL    HW219853   2.807   0.646   0.425
 6138SOL     OW19854   1.977   0.833   0.756
 6138SOL    HW119855   2.051   0.821   0.816
 6138SOL    HW219856   1.900   0.815   0.809
 6139SOL     OW19857   1.956   1.820   1.556
 6139SOL    HW119858   1.958   1.805   1.651
 6139SOL    HW219859   1.958   1.916   1.547
 6140SOL     OW19860   2.733   0.358   0.209
 6140SOL    HW119861   2.787   0.424   0.165
 6140SOL    HW219862   2.738   0.281   0.153
 6141SOL     OW19863   3.560   0.548   1.821
 6141SOL    HW119864   3.523   0.626   1.779
 6141SOL    HW219865   3.616   0.509   1.754
 6142SOL     OW19866   3.233   1.154   0.465
 6142SOL    HW119867   3.328   1.151   0.470
 6142SOL    HW219868   3.209   1.087   0.402
 6143SOL     OW19869   2.459   0.231   0.945
 6143SOL    HW119870   2.423   0.255   1.031
 6143SOL    HW219871   2.415   0.291   0.884
 6144SOL     OW19872   2.891   1.449   0.481
 6144SOL    HW119873   2.844   1.515   0.430
 6144SOL    HW219874   2.859   1.461   0.571
 6145SOL     OW19875   2.215   1.821   0.883
 6145SOL    HW119876   2.266   1.740   0.883
 6145SOL    HW219877   2.280   1.890   0.894
 6146SOL     OW19878   3.656   1.062   0.867
 6146SOL    HW119879   3.597   1.033   0.798
 6146SOL    HW219880   3.602   1.066   0.945
 6147SOL     OW19881   3.094   1.538   1.508
 6147SOL    HW119882   3.087   1.469   1.574
 6147SOL    HW219883   3.008   1.540   1.467
 6148SOL     OW19884   2.222   0.936   0.279
 6148SOL    HW119885   2.239   0.983   0.198
 6148SOL    HW219886   2.148   0.879   0.259
 6149SOL     OW19887   2.305   1.244   1.736
 6149SOL    HW119888   2.233   1.187   1.764
 6149SOL    HW219889   2.319   1.303   1.810
 6150SOL     OW19890   2.969   1.774   0.265
 6150SOL    HW119891   2.891   1.733   0.302
 6150SOL    HW219892   2.995   1.716   0.193
 6151SOL     OW19893   2.054   0.252   1.524
 6151SOL    HW119894   2.008   0.336   1.522
 6151SOL    HW219895   2.090   0.247   1.613
 6152SOL     OW19896   3.501   1.395   0.097
 6152SOL    HW119897   3.441   1.463   0.065
 6152SOL    HW219898   3.447   1.317   0.108
 6153SOL     OW19899   2.316   1.732   0.328
 6153SOL    HW119900   2.364   1.791   0.385
 6153SOL    HW219901   2.382   1.694   0.270
 6154SOL     OW19902   3.274   0.134   0.422
 6154SOL    HW119903   3.278   0.087   0.339
 6154SOL    HW219904   3.364   0.132   0.455
 6155SOL     OW19905   2.114   1.773   1.208
 6155SOL    HW119906   2.179   1.756   1.276
 6155SOL    HW219907   2.165   1.799   1.131
 6156SOL     OW19908   2.795   1.703   0.897
 6156SOL    HW119909   2.871   1.657   0.933
 6156SOL    HW219910   2.765   1.647   0.826
 6157SOL     OW19911   2.260   0.694   0.475
 6157SOL    HW119912   2.282   0.603   0.493
 6157SOL    HW219913   2.165   0.699   0.490
 6158SOL     OW19914   3.410   0.250   1.753
 6158SOL    HW119915   3.394   0.271   1.844
 6158SOL    HW219916   3.470   0.176   1.756
 6159SOL     OW19917   2.453   0.098   0.102
 6159SOL    HW119918   2.525   0.088   0.164
 6159SOL    HW219919   2.467   0.028   0.038
 6160SOL     OW19920   2.599   0.309   1.774
 6160SOL    HW119921   2.689   0.280   1.760
 6160SOL    HW219922   2.560   0.241   1.828
 6161SOL     OW19923   2.731   1.514   1.191
 6161SOL    HW119924   2.714   1.473   1.106
 6161SOL    HW219925   2.805   1.465   1.227
 6162SOL     OW19926   3.206   0.596   1.438
 6162SOL    HW119927   3.245   0.564   1.519
 6162SOL    HW219928   3.243   0.683   1.427
 6163SOL     OW19929   2.679   1.379   0.946
 6163SOL    HW119930   2.765   1.372   0.906
 6163SOL    HW219931   2.620   1.395   0.872
 6164SOL     OW19932   2.797   0.523   0.895
 6164SOL    HW119933   2.777   0.512   0.802
 6164SOL    HW219934   2.825   0.436   0.924
 6165SOL     OW19935   2.426   0.035   0.436
 6165SOL    HW119936   2.355   0.007   0.494
 6165SOL    HW219937   2.418   0.130   0.433
 6166SOL     OW19938   3.249   1.220   0.081
 6166SOL    HW119939   3.285   1.156   0.141
 6166SOL    HW219940   3.229   1.170   0.002
 6167SOL     OW19941   2.189   0.031   0.210
 6167SOL    HW119942   2.276   0.058   0.182
 6167SOL    HW219943   2.204  -0.022   0.288
 6168SOL     OW19944   2.806   0.264   0.464
 6168SOL    HW119945   2.772   0.281   0.376
 6168SOL    HW219946   2.901   0.267   0.453
 6169SOL     OW19947   2.948   0.687   1.454
 6169SOL    HW119948   2.891   0.617   1.486
 6169SOL    HW219949   3.036   0.650   1.458
 6170SOL     OW19950   3.095   1.558   0.778
 6170SOL    HW119951   3.100   1.636   0.723
 6170SOL    HW219952   3.146   1.580   0.856
 6171SOL     OW19953   2.338   1.157   0.725
 6171SOL    HW119954   2.271   1.137   0.790
 6171SOL    HW219955   2.294   1.144   0.641
 6172SOL     OW19956   3.123   1.789   0.617
 6172SOL    HW119957   3.169   1.852   0.562
 6172SOL    HW219958   3.051   1.838   0.656
 6173SOL     OW19959   2.864   0.574   0.109
 6173SOL    HW119960   2.879   0.622   0.027
 6173SOL    HW219961   2.951   0.566   0.148
 6174SOL     OW19962   1.953   0.568   1.388
 6174SOL    HW119963   2.044   0.561   1.359
 6174SOL    HW219964   1.955   0.630   1.460
 6175SOL     OW19965   2.419   0.247   1.217
 6175SOL    HW119966   2.461   0.200   1.288
 6175SOL    HW219967   2.325   0.234   1.231
 6176SOL     OW19968   2.748   0.482   0.629
 6176SOL    HW119969   2.659   0.508   0.606
 6176SOL    HW219970   2.759   0.396   0.590
 6177SOL     OW19971   2.865   0.033   0.786
 6177SOL    HW119972   2.807   0.030   0.710
 6177SOL    HW219973   2.877  -0.059   0.810
 6178SOL     OW19974   3.302   1.161   0.870
 6178SOL    HW119975   3.235   1.094   0.860
 6178SOL    HW219976   3.344   1.166   0.784
 6179SOL     OW19977   3.356   0.582   0.945
 6179SOL    HW119978   3.296   0.510   0.966
 6179SOL    HW219979   3.409   0.592   1.024
 6180SOL     OW19980   3.699   0.829   0.416
 6180SOL    HW119981   3.745   0.764   0.470
 6180SOL    HW219982   3.641   0.776   0.362
 6181SOL     OW19983   2.355   1.382   0.163
 6181SOL    HW119984   2.280   1.360   0.218
 6181SOL    HW219985   2.342   1.330   0.084
 6182SOL     OW19986   3.549   1.285   0.665
 6182SOL    HW119987   3.641   1.289   0.691
 6182SOL    HW219988   3.516   1.373   0.681
 6183SOL     OW19989   3.249   0.556   0.083
 6183SOL    HW119990   3.196   0.551   0.162
 6183SOL    HW219991   3.307   0.480   0.088
 6184SOL     OW19992   2.374   0.293   0.297
 6184SOL    HW119993   2.403   0.234   0.227
 6184SOL    HW219994   2.378   0.380   0.258
 6185SOL     OW19995   3.603   1.241   1.569
 6185SOL    HW119996   3.666   1.188   1.618
 6185SOL    HW219997   3.629   1.331   1.587
 6186SOL     OW19998   2.929   1.341   1.311
 6186SOL    HW119999   2.853   1.317   1.362
 6186SOL    HW220000   3.004   1.307   1.361
 6187SOL     OW20001   3.457   1.620   1.646
 6187SOL    HW120002   3.466   1.667   1.563
 6187SOL    HW220003   3.538   1.571   1.656
 6188SOL     OW20004   2.983   1.183   1.089
 6188SOL    HW120005   2.953   1.234   1.164
 6188SOL    HW220006   2.964   1.238   1.013
 6189SOL     OW20007   3.484   1.101   1.074
 6189SOL    HW120008   3.485   1.158   1.151
 6189SOL    HW220009   3.417   1.139   1.017
 6190SOL     OW20010   2.762   0.111   1.372
 6190SOL    HW120011   2.819   0.098   1.296
 6190SOL    HW220012   2.822   0.124   1.445
 6191SOL     OW20013   2.832   1.133   1.699
 6191SOL    HW120014   2.745   1.132   1.740
 6191SOL    HW220015   2.840   1.047   1.659
 6192SOL     OW20016   2.568   1.052   0.381
 6192SOL    HW120017   2.560   1.037   0.476
 6192SOL    HW220018   2.651   1.010   0.358
 6193SOL     OW20019   2.284   0.822   1.249
 6193SOL    HW120020   2.350   0.830   1.319
 6193SOL    HW220021   2.252   0.732   1.257
 6194SOL     OW20022   3.121   0.383   1.289
 6194SOL    HW120023   3.155   0.460   1.334
 6194SOL    HW220024   3.030   0.405   1.269
 6195SOL     OW20025   1.950   1.603   1.373
 6195SOL    HW120026   1.961   1.680   1.429
 6195SOL    HW220027   2.038   1.569   1.363
 6196SOL     OW20028   2.182   1.105   0.503
 6196SOL    HW120029   2.173   1.186   0.453
 6196SOL    HW220030   2.206   1.039   0.437
 6197SOL     OW20031   2.423   0.527   0.837
 6197SOL    HW120032   2.445   0.591   0.768
 6197SOL    HW220033   2.479   0.551   0.911
 6198SOL     OW20034   3.150   1.462   1.163
 6198SOL    HW120035   3.216   1.475   1.230
 6198SOL    HW220036   3.079   1.414   1.207
 6199SOL     OW20037   3.408   0.693   0.527
 6199SOL    HW120038   3.465   0.769   0.540
 6199SOL    HW220039   3.433   0.659   0.442
 6200SOL     OW20040   2.213   1.480   1.340
 6200SOL    HW120041   2.194   1.452   1.251
 6200SOL    HW220042   2.300   1.521   1.334
 6201SOL     OW20043   2.287   0.734   1.613
 6201SOL    HW120044   2.346   0.776   1.550
 6201SOL    HW220045   2.337   0.659   1.645
 6202SOL     OW20046   3.459   0.766   1.693
 6202SOL    HW120047   3.375   0.813   1.695
 6202SOL    HW220048   3.510   0.813   1.627
 6203SOL     OW20049   2.853   0.142   1.796
 6203SOL    HW120050   2.943   0.174   1.788
 6203SOL    HW220051   2.832   0.106   1.710
 6204SOL     OW20052   2.293  -0.022   1.726
 6204SOL    HW120053   2.352  -0.019   1.651
 6204SOL    HW220054   2.284   0.068   1.755
 6205SOL     OW20055   2.441   0.885   1.027
 6205SOL    HW120056   2.486   0.969   1.041
 6205SOL    HW220057   2.394   0.869   1.109
 6206SOL     OW20058   3.203   0.834   0.953
 6206SOL    HW120059   3.111   0.838   0.979
 6206SOL    HW220060   3.246   0.789   1.026
 6207SOL     OW20061   3.073   0.537   0.288
 6207SOL    HW120062   3.087   0.455   0.335
 6207SOL    HW220063   3.012   0.586   0.343
 6208SOL     OW20064   2.156   0.196   1.252
 6208SOL    HW120065   2.115   0.198   1.339
 6208SOL    HW220066   2.151   0.104   1.226
 6209SOL     OW20067   1.932   1.318   1.275
 6209SOL    HW120068   1.975   1.261   1.339
 6209SOL    HW220069   1.911   1.398   1.324
 6210SOL     OW20070   2.577   0.629   1.038
 6210SOL    HW120071   2.659   0.613   0.991
 6210SOL    HW220072   2.557   0.721   1.022
 6211SOL     OW20073   3.580   0.963   1.858
 6211SOL    HW120074   3.541   0.883   1.823
 6211SOL    HW220075   3.532   0.980   1.938
 6212SOL     OW20076   3.488   0.393   0.401
 6212SOL    HW120077   3.515   0.304   0.423
 6212SOL    HW220078   3.449   0.427   0.481
 6213SOL     OW20079   2.894   0.766   0.966
 6213SOL    HW120080   2.879   0.780   1.060
 6213SOL    HW220081   2.867   0.675   0.951
 6214SOL     OW20082   2.830   1.555   1.723
 6214SOL    HW120083   2.825   1.602   1.640
 6214SOL    HW220084   2.891   1.483   1.706
 6215SOL     OW20085   3.704   1.494   1.607
 6215SOL    HW120086   3.738   1.526   1.523
 6215SOL    HW220087   3.777   1.506   1.668
 6216SOL     OW20088   2.235   0.949   1.782
 6216SOL    HW120089   2.294   0.951   1.858
 6216SOL    HW220090   2.259   0.869   1.735
 6217SOL     OW20091   3.339   0.298   0.143
 6217SOL    HW120092   3.322   0.203   0.142
 6217SOL    HW220093   3.416   0.308   0.199
 6218SOL     OW20094   3.194   0.827   0.078
 6218SOL    HW120095   3.217   0.735   0.073
 6218SOL    HW220096   3.220   0.864  -0.007
 6219SOL     OW20097   2.932   1.343   0.854
 6219SOL    HW120098   2.944   1.269   0.794
 6219SOL    HW220099   2.993   1.409   0.822
 6220SOL     OW20100   2.179   0.818   0.937
 6220SOL    HW120101   2.271   0.841   0.954
 6220SOL    HW220102   2.171   0.728   0.969
 6221SOL     OW20103   2.209   0.551   1.002
 6221SOL    HW120104   2.155   0.472   0.998
 6221SOL    HW220105   2.276   0.537   0.935
 6222SOL     OW20106   3.004   0.436   1.647
 6222SOL    HW120107   2.964   0.461   1.730
 6222SOL    HW220108   3.097   0.455   1.658
 6223SOL     OW20109   3.070   0.210   1.498
 6223SOL    HW120110   3.032   0.280   1.551
 6223SOL    HW220111   3.086   0.251   1.413
 6224SOL     OW20112   1.948   1.766   0.937
 6224SOL    HW120113   1.922   1.695   0.879
 6224SOL    HW220114   2.038   1.787   0.911
 6225SOL     OW20115   2.351   1.574   0.905
 6225SOL    HW120116   2.420   1.637   0.927
 6225SOL    HW220117   2.393   1.513   0.844
 6226SOL     OW20118   2.825   0.784   1.230
 6226SOL    HW120119   2.889   0.762   1.298
 6226SOL    HW220120   2.743   0.746   1.261
 6227SOL     OW20121   1.899   0.555   1.109
 6227SOL    HW120122   1.952   0.487   1.067
 6227SOL    HW220123   1.930   0.557   1.200
 6228SOL     OW20124   2.040   0.498   1.690
 6228SOL    HW120125   2.135   0.500   1.703
 6228SOL    HW220126   2.017   0.589   1.671
 6229SOL     OW20127   3.240   0.931   1.658
 6229SOL    HW120128   3.269   1.022   1.660
 6229SOL    HW220129   3.244   0.906   1.566
 6230SOL     OW20130   2.615   0.585   0.347
 6230SOL    HW120131   2.671   0.544   0.282
 6230SOL    HW220132   2.564   0.514   0.384
 6231SOL     OW20133   3.508   0.617   1.163
 6231SOL    HW120134   3.496   0.563   1.241
 6231SOL    HW220135   3.598   0.599   1.136
 6232SOL     OW20136   2.106   1.537   1.711
 6232SOL    HW120137   2.090   1.612   1.769
 6232SOL    HW220138   2.103   1.462   1.770
 6233SOL     OW20139   2.584   0.461   1.252
 6233SOL    HW120140   2.523   0.387   1.244
 6233SOL    HW220141   2.564   0.516   1.176
 6234SOL     OW20142   2.794   1.658   1.464
 6234SOL    HW120143   2.757   1.647   1.376
 6234SOL    HW220144   2.804   1.753   1.473
 6235SOL     OW20145   2.369   0.560   0.176
 6235SOL    HW120146   2.431   0.536   0.107
 6235SOL    HW220147   2.283   0.556   0.135
 6236SOL     OW20148   2.089   1.170   1.472
 6236SOL    HW120149   2.055   1.127   1.550
 6236SOL    HW220150   2.086   1.103   1.404
 6237SOL     OW20151   3.185   1.033   1.207
 6237SOL    HW120152   3.246   1.028   1.133
 6237SOL    HW220153   3.109   1.080   1.172
 6238SOL     OW20154   3.115   0.851   0.369
 6238SOL    HW120155   3.041   0.791   0.381
 6238SOL    HW220156   3.143   0.836   0.279
 6239SOL     OW20157   3.598   1.740   1.116
 6239SOL    HW120158   3.680   1.763   1.073
 6239SOL    HW220159   3.596   1.644   1.115
 6240SOL     OW20160   3.095   1.720   1.076
 6240SOL    HW120161   3.183   1.751   1.052
 6240SOL    HW220162   3.111   1.635   1.117
 6241SOL     OW20163   1.954   1.284   1.002
 6241SOL    HW120164   1.939   1.287   1.096
 6241SOL    HW220165   1.885   1.227   0.968
 6242SOL     OW20166   2.531   1.665   1.708
 6242SOL    HW120167   2.485   1.748   1.725
 6242SOL    HW220168   2.623   1.690   1.703
 6243SOL     OW20169   2.781   0.127   0.046
 6243SOL    HW120170   2.869   0.148   0.075
 6243SOL    HW220171   2.743   0.079   0.120
 6244SOL     OW20172   3.535   0.149   0.521
 6244SOL    HW120173   3.574   0.103   0.446
 6244SOL    HW220174   3.531   0.082   0.590
 6245SOL     OW20175   3.237   1.568   0.473
 6245SOL    HW120176   3.310   1.603   0.422
 6245SOL    HW220177   3.196   1.646   0.512
 6246SOL     OW20178   2.015   1.778   1.827
 6246SOL    HW120179   1.960   1.726   1.885
 6246SOL    HW220180   2.063   1.837   1.885
 6247SOL     OW20181   3.189   0.899   0.628
 6247SOL    HW120182   3.179   0.867   0.538
 6247SOL    HW220183   3.202   0.993   0.618
 6248SOL     OW20184   2.695   1.278   1.439
 6248SOL    HW120185   2.711   1.269   1.533
 6248SOL    HW220186   2.622   1.340   1.434
 6249SOL     OW20187   2.514   1.604   0.198
 6249SOL    HW120188   2.582   1.616   0.132
 6249SOL    HW220189   2.476   1.519   0.177
 6250SOL     OW20190   3.479   1.739   1.381
 6250SOL    HW120191   3.527   1.749   1.299
 6250SOL    HW220192   3.466   1.828   1.412
 6251SOL     OW20193   3.732   0.164   0.929
 6251SOL    HW120194   3.728   0.081   0.976
 6251SOL    HW220195   3.641   0.184   0.908
 6252SOL     OW20196   2.127   0.401   0.718
 6252SOL    HW120197   2.033   0.394   0.705
 6252SOL    HW220198   2.156   0.312   0.737
 6253SOL     OW20199   3.052   1.617   0.061
 6253SOL    HW120200   3.016   1.531   0.082
 6253SOL    HW220201   3.021   1.635  -0.027
 6254SOL     OW20202   2.681   1.008   1.371
 6254SOL    HW120203   2.741   0.989   1.299
 6254SOL    HW220204   2.688   1.103   1.384
 6255SOL     OW20205   2.792   0.926   0.307
 6255SOL    HW120206   2.843   0.945   0.229
 6255SOL    HW220207   2.828   0.843   0.340
 6256SOL     OW20208   3.321   1.578   0.020
 6256SOL    HW120209   3.234   1.613   0.042
 6256SOL    HW220210   3.378   1.655   0.020
 6257SOL     OW20211   3.468   1.277   1.286
 6257SOL    HW120212   3.526   1.257   1.359
 6257SOL    HW220213   3.415   1.351   1.317
 6258SOL     OW20214   2.933   1.108   0.709
 6258SOL    HW120215   2.863   1.068   0.761
 6258SOL    HW220216   2.948   1.046   0.637
 6259SOL     OW20217   2.901   0.263   0.938
 6259SOL    HW120218   2.879   0.205   0.865
 6259SOL    HW220219   2.909   0.205   1.014
 6260SOL     OW20220   2.460   1.480   0.477
 6260SOL    HW120221   2.513   1.435   0.412
 6260SOL    HW220222   2.405   1.540   0.426
 6261SOL     OW20223   3.569   0.431   1.358
 6261SOL    HW120224   3.646   0.485   1.380
 6261SOL    HW220225   3.605   0.357   1.309
 6262SOL     OW20226   2.112   1.330   0.311
 6262SOL    HW120227   2.054   1.377   0.251
 6262SOL    HW220228   2.094   1.370   0.397
 6263SOL     OW20229   1.994   1.034   1.697
 6263SOL    HW120230   1.933   0.997   1.760
 6263SOL    HW220231   2.080   1.009   1.730
 6264SOL     OW20232   2.516   0.214   1.496
 6264SOL    HW120233   2.580   0.149   1.468
 6264SOL    HW220234   2.559   0.259   1.570
 6265SOL     OW20235   3.286   0.858   1.396
 6265SOL    HW120236   3.244   0.919   1.335
 6265SOL    HW220237   3.379   0.869   1.380
 6266SOL     OW20238   1.946   0.172   0.305
 6266SOL    HW120239   1.961   0.266   0.307
 6266SOL    HW220240   2.033   0.134   0.313
 6267SOL     OW20241   3.027   1.349   0.186
 6267SOL    HW120242   2.945   1.328   0.141
 6267SOL    HW220243   3.094   1.303   0.135
 6268SOL     OW20244   2.476   0.839   1.437
 6268SOL    HW120245   2.536   0.912   1.421
 6268SOL    HW220246   2.533   0.763   1.447
 6269SOL     OW20247   3.351   1.787   0.993
 6269SOL    HW120248   3.378   1.848   0.925
 6269SOL    HW220249   3.432   1.766   1.040
 6270SOL     OW20250   2.563   0.575   1.702
 6270SOL    HW120251   2.613   0.628   1.764
 6270SOL    HW220252   2.573   0.485   1.733
 6271SOL     OW20253   3.330   1.196   1.630
 6271SOL    HW120254   3.319   1.208   1.724
 6271SOL    HW220255   3.423   1.213   1.614
 6272SOL     OW20256   2.217   1.736   1.545
 6272SOL    HW120257   2.130   1.777   1.550
 6272SOL    HW220258   2.211   1.660   1.602
 6273SOL     OW20259   3.532   0.884   1.248
 6273SOL    HW120260   3.531   0.797   1.209
 6273SOL    HW220261   3.531   0.944   1.173
 6274SOL     OW20262   3.085   0.318   0.451
 6274SOL    HW120263   3.150   0.249   0.438
 6274SOL    HW220264   3.104   0.352   0.539
 6275SOL     OW20265   2.477   0.726   0.649
 6275SOL    HW120266   2.504   0.817   0.653
 6275SOL    HW220267   2.391   0.728   0.607
 6276SOL     OW20268   3.628   0.357   1.613
 6276SOL    HW120269   3.582   0.384   1.534
 6276SOL    HW220270   3.560   0.323   1.670
 6277SOL     OW20271   3.571   0.929   1.513
 6277SOL    HW120272   3.617   1.010   1.538
 6277SOL    HW220273   3.580   0.927   1.417
 6278SOL     OW20274   2.776   1.318   0.063
 6278SOL    HW120275   2.713   1.346   0.129
 6278SOL    HW220276   2.750   1.365  -0.016
 6279SOL     OW20277   2.523   1.779   0.932
 6279SOL    HW120278   2.506   1.873   0.920
 6279SOL    HW220279   2.618   1.771   0.929
 6280SOL     OW20280   2.738   0.980   0.859
 6280SOL    HW120281   2.787   0.907   0.899
 6280SOL    HW220282   2.693   1.022   0.932
 6281SOL     OW20283   2.956   0.972   0.086
 6281SOL    HW120284   2.965   1.047   0.027
 6281SOL    HW220285   3.043   0.932   0.087
 6282SOL     OW20286   3.721   1.540   0.835
 6282SOL    HW120287   3.629   1.547   0.809
 6282SOL    HW220288   3.720   1.485   0.913
 6283SOL     OW20289   2.057   1.308   1.857
 6283SOL    HW120290   1.973   1.277   1.891
 6283SOL    HW220291   2.110   1.325   1.935
 6284SOL     OW20292   2.476   1.423   1.587
 6284SOL    HW120293   2.502   1.373   1.664
 6284SOL    HW220294   2.495   1.514   1.609
 6285SOL     OW20295   3.680   0.221   1.232
 6285SOL    HW120296   3.746   0.164   1.271
 6285SOL    HW220297   3.707   0.231   1.141
 6286SOL     OW20298   2.314   0.443   0.526
 6286SOL    HW120299   2.313   0.366   0.469
 6286SOL    HW220300   2.251   0.422   0.595
 6287SOL     OW20301   3.575   1.471   1.080
 6287SOL    HW120302   3.485   1.449   1.056
 6287SOL    HW220303   3.596   1.414   1.153
 6288SOL     OW20304   2.203   0.564   1.288
 6288SOL    HW120305   2.250   0.502   1.344
 6288SOL    HW220306   2.219   0.532   1.199
 6289SOL     OW20307   2.704   1.570   0.674
 6289SOL    HW120308   2.690   1.636   0.606
 6289SOL    HW220309   2.622   1.520   0.675
 6290SOL     OW20310   3.290   0.240   1.119
 6290SOL    HW120311   3.349   0.177   1.158
 6290SOL    HW220312   3.245   0.281   1.193
 6291SOL     OW20313   2.888   0.075   1.131
 6291SOL    HW120314   2.798   0.071   1.099
 6291SOL    HW220315   2.910  -0.016   1.153
 6292SOL     OW20316   2.637   1.323   0.322
 6292SOL    HW120317   2.600   1.235   0.331
 6292SOL    HW220318   2.720   1.319   0.370
 6293SOL     OW20319   2.476   1.557   1.283
 6293SOL    HW120320   2.472   1.645   1.322
 6293SOL    HW220321   2.565   1.549   1.250
 6294SOL     OW20322   3.244   8.028   0.170
 6294SOL    HW120323   3.288   7.946   0.150
 6294SOL    HW220324   3.151   8.006   0.168
 6295SOL     OW20325   3.190   0.523   0.707
 6295SOL    HW120326   3.105   0.565   0.693
 6295SOL    HW220327   3.176   0.462   0.779
 6296SOL     OW20328   3.479   0.220   0.875
 6296SOL    HW120329   3.400   0.180   0.912
 6296SOL    HW220330   3.447   0.274   0.803
 6297SOL     OW20331   1.913   1.064   0.400
 6297SOL    HW120332   1.961   1.102   0.326
 6297SOL    HW220333   1.883   0.979   0.368
 6298SOL     OW20334   2.742   1.651   0.371
 6298SOL    HW120335   2.672   1.637   0.306
 6298SOL    HW220336   2.718   1.732   0.414
 6299SOL     OW20337   2.037   0.667   1.972
 6299SOL    HW120338   2.008   0.616   2.048
 6299SOL    HW220339   2.126   0.635   1.955
 6300SOL     OW20340   2.063   0.314   2.880
 6300SOL    HW120341   2.110   0.256   2.939
 6300SOL    HW220342   1.990   0.261   2.848
 6301SOL     OW20343   1.860   0.401   2.473
 6301SOL    HW120344   1.781   0.397   2.528
 6301SOL    HW220345   1.894   0.312   2.473
 6302SOL     OW20346   2.424   1.300   3.043
 6302SOL    HW120347   2.341   1.319   2.999
 6302SOL    HW220348   2.453   1.385   3.078
 6303SOL     OW20349   3.431   1.511   2.573
 6303SOL    HW120350   3.390   1.491   2.657
 6303SOL    HW220351   3.357   1.521   2.512
 6304SOL     OW20352   2.980   0.704   2.550
 6304SOL    HW120353   3.035   0.783   2.541
 6304SOL    HW220354   2.941   0.712   2.636
 6305SOL     OW20355   3.662   0.584   2.073
 6305SOL    HW120356   3.617   0.574   1.989
 6305SOL    HW220357   3.614   0.526   2.132
 6306SOL     OW20358   2.590   1.132   2.900
 6306SOL    HW120359   2.531   1.173   2.964
 6306SOL    HW220360   2.640   1.206   2.864
 6307SOL     OW20361   2.742   0.761   3.684
 6307SOL    HW120362   2.772   0.827   3.747
 6307SOL    HW220363   2.759   0.801   3.599
 6308SOL     OW20364   2.546   1.004   2.508
 6308SOL    HW120365   2.616   0.993   2.572
 6308SOL    HW220366   2.480   1.058   2.552
 6309SOL     OW20367   2.567   1.146   3.680
 6309SOL    HW120368   2.612   1.225   3.711
 6309SOL    HW220369   2.487   1.178   3.640
 6310SOL     OW20370   2.193   1.415   2.925
 6310SOL    HW120371   2.119   1.394   2.869
 6310SOL    HW220372   2.249   1.472   2.871
 6311SOL     OW20373   3.327   1.508   3.226
 6311SOL    HW120374   3.385   1.584   3.230
 6311SOL    HW220375   3.284   1.506   3.311
 6312SOL     OW20376   2.306   0.389   3.341
 6312SOL    HW120377   2.396   0.356   3.343
 6312SOL    HW220378   2.253   0.314   3.367
 6313SOL     OW20379   3.456   0.460   2.590
 6313SOL    HW120380   3.374   0.491   2.551
 6313SOL    HW220381   3.482   0.531   2.649
 6314SOL     OW20382   2.079   1.714   2.321
 6314SOL    HW120383   2.089   1.784   2.386
 6314SOL    HW220384   2.164   1.710   2.277
 6315SOL     OW20385   3.004   1.340   3.556
 6315SOL    HW120386   3.078   1.311   3.609
 6315SOL    HW220387   2.945   1.265   3.553
 6316SOL     OW20388   2.066   1.443   2.379
 6316SOL    HW120389   2.081   1.538   2.378
 6316SOL    HW220390   2.054   1.422   2.471
 6317SOL     OW20391   2.108   1.085   2.751
 6317SOL    HW120392   2.130   0.993   2.770
 6317SOL    HW220393   2.097   1.125   2.837
 6318SOL     OW20394   2.434   1.812   3.253
 6318SOL    HW120395   2.373   1.783   3.322
 6318SOL    HW220396   2.485   1.882   3.294
 6319SOL     OW20397   2.431   0.998   2.003
 6319SOL    HW120398   2.497   1.018   1.937
 6319SOL    HW220399   2.469   1.026   2.086
 6320SOL     OW20400   3.522   0.117   3.348
 6320SOL    HW120401   3.474   0.161   3.278
 6320SOL    HW220402   3.479   0.145   3.429
 6321SOL     OW20403   1.961   0.667   2.417
 6321SOL    HW120404   1.946   0.574   2.435
 6321SOL    HW220405   1.964   0.708   2.504
 6322SOL     OW20406   3.704   1.749   2.182
 6322SOL    HW120407   3.770   1.726   2.248
 6322SOL    HW220408   3.718   1.843   2.167
 6323SOL     OW20409   1.881   1.600   1.988
 6323SOL    HW120410   1.879   1.507   2.011
 6323SOL    HW220411   1.873   1.646   2.072
 6324SOL     OW20412   3.538   0.880   2.478
 6324SOL    HW120413   3.621   0.884   2.526
 6324SOL    HW220414   3.545   0.949   2.412
 6325SOL     OW20415   3.521   1.108   2.287
 6325SOL    HW120416   3.610   1.106   2.251
 6325SOL    HW220417   3.527   1.166   2.363
 6326SOL     OW20418   2.011   0.755   3.443
 6326SOL    HW120419   2.106   0.763   3.446
 6326SOL    HW220420   1.978   0.838   3.475
 6327SOL     OW20421   2.477   1.393   2.592
 6327SOL    HW120422   2.436   1.308   2.609
 6327SOL    HW220423   2.455   1.412   2.501
 6328SOL     OW20424   3.148   1.239   3.266
 6328SOL    HW120425   3.179   1.169   3.208
 6328SOL    HW220426   3.212   1.240   3.338
 6329SOL     OW20427   2.698  -0.001   2.396
 6329SOL    HW120428   2.735   0.086   2.387
 6329SOL    HW220429   2.604   0.014   2.407
 6330SOL     OW20430   2.048   0.964   3.120
 6330SOL    HW120431   2.138   0.929   3.118
 6330SOL    HW220432   1.994   0.892   3.089
 6331SOL     OW20433   3.391   1.006   2.066
 6331SOL    HW120434   3.319   0.954   2.102
 6331SOL    HW220435   3.439   1.037   2.143
 6332SOL     OW20436   3.017   1.808   3.476
 6332SOL    HW120437   3.050   1.871   3.413
 6332SOL    HW220438   3.049   1.724   3.445
 6333SOL     OW20439   2.168   0.232   3.627
 6333SOL    HW120440   2.244   0.281   3.659
 6333SOL    HW220441   2.099   0.251   3.690
 6334SOL     OW20442   3.309   1.422   2.800
 6334SOL    HW120443   3.257   1.436   2.880
 6334SOL    HW220444   3.307   1.328   2.786
 6335SOL     OW20445   3.517   1.758   2.436
 6335SOL    HW120446   3.495   1.710   2.356
 6335SOL    HW220447   3.515   1.691   2.505
 6336SOL     OW20448   2.452   0.708   2.128
 6336SOL    HW120449   2.486   0.795   2.110
 6336SOL    HW220450   2.393   0.720   2.202
 6337SOL     OW20451   3.161   0.373   2.787
 6337SOL    HW120452   3.071   0.340   2.792
 6337SOL    HW220453   3.208   0.322   2.853
 6338SOL     OW20454   3.440   1.670   2.170
 6338SOL    HW120455   3.531   1.698   2.168
 6338SOL    HW220456   3.419   1.651   2.078
 6339SOL     OW20457   2.627   0.643   3.308
 6339SOL    HW120458   2.624   0.609   3.398
 6339SOL    HW220459   2.620   0.566   3.253
 6340SOL     OW20460   3.270   0.483   3.539
 6340SOL    HW120461   3.271   0.531   3.622
 6340SOL    HW220462   3.347   0.425   3.544
 6341SOL     OW20463   2.809   0.881   3.446
 6341SOL    HW120464   2.864   0.813   3.408
 6341SOL    HW220465   2.761   0.918   3.372
 6342SOL     OW20466   2.860   0.412   3.075
 6342SOL    HW120467   2.774   0.438   3.108
 6342SOL    HW220468   2.842   0.335   3.022
 6343SOL     OW20469   2.912   0.702   2.281
 6343SOL    HW120470   2.934   0.702   2.374
 6343SOL    HW220471   2.830   0.652   2.275
 6344SOL     OW20472   1.943   0.840   2.638
 6344SOL    HW120473   2.025   0.818   2.682
 6344SOL    HW220474   1.911   0.917   2.684
 6345SOL     OW20475   1.966   1.817   3.437
 6345SOL    HW120476   1.976   1.805   3.532
 6345SOL    HW220477   1.921   1.901   3.428
 6346SOL     OW20478   2.765   0.340   2.063
 6346SOL    HW120479   2.808   0.395   1.997
 6346SOL    HW220480   2.760   0.253   2.023
 6347SOL     OW20481   3.569   0.571   3.694
 6347SOL    HW120482   3.533   0.647   3.648
 6347SOL    HW220483   3.595   0.511   3.624
 6348SOL     OW20484   3.246   1.138   2.396
 6348SOL    HW120485   3.333   1.135   2.355
 6348SOL    HW220486   3.200   1.207   2.348
 6349SOL     OW20487   2.331   0.231   2.766
 6349SOL    HW120488   2.381   0.246   2.847
 6349SOL    HW220489   2.394   0.250   2.696
 6350SOL     OW20490   2.846   1.442   2.322
 6350SOL    HW120491   2.826   1.527   2.282
 6350SOL    HW220492   2.832   1.456   2.416
 6351SOL     OW20493   2.212   1.819   2.739
 6351SOL    HW120494   2.266   1.741   2.727
 6351SOL    HW220495   2.274   1.891   2.743
 6352SOL     OW20496   3.651   1.020   2.715
 6352SOL    HW120497   3.589   1.076   2.669
 6352SOL    HW220498   3.662   1.062   2.801
 6353SOL     OW20499   3.077   1.545   3.385
 6353SOL    HW120500   3.072   1.475   3.449
 6353SOL    HW220501   3.046   1.506   3.304
 6354SOL     OW20502   2.171   0.965   2.110
 6354SOL    HW120503   2.258   0.984   2.074
 6354SOL    HW220504   2.163   0.870   2.105
 6355SOL     OW20505   3.328   0.742   2.582
 6355SOL    HW120506   3.331   0.711   2.672
 6355SOL    HW220507   3.409   0.792   2.571
 6356SOL     OW20508   2.331   1.264   3.605
 6356SOL    HW120509   2.305   1.269   3.513
 6356SOL    HW220510   2.249   1.268   3.653
 6357SOL     OW20511   2.985   1.789   2.073
 6357SOL    HW120512   2.913   1.757   2.128
 6357SOL    HW220513   3.013   1.712   2.024
 6358SOL     OW20514   2.045   0.250   3.367
 6358SOL    HW120515   1.999   0.333   3.365
 6358SOL    HW220516   2.074   0.240   3.458
 6359SOL     OW20517   3.491   1.373   1.935
 6359SOL    HW120518   3.451   1.460   1.933
 6359SOL    HW220519   3.418   1.313   1.924
 6360SOL     OW20520   2.308   1.723   2.140
 6360SOL    HW120521   2.343   1.744   2.226
 6360SOL    HW220522   2.384   1.695   2.089
 6361SOL     OW20523   3.277   0.131   2.263
 6361SOL    HW120524   3.293   0.037   2.256
 6361SOL    HW220525   3.358   0.167   2.300
 6362SOL     OW20526   2.114   1.784   3.090
 6362SOL    HW120527   2.176   1.736   3.145
 6362SOL    HW220528   2.145   1.771   3.001
 6363SOL     OW20529   2.805   1.700   2.761
 6363SOL    HW120530   2.888   1.662   2.788
 6363SOL    HW220531   2.774   1.644   2.691
 6364SOL     OW20532   2.245   0.717   2.324
 6364SOL    HW120533   2.266   0.626   2.342
 6364SOL    HW220534   2.155   0.728   2.354
 6365SOL     OW20535   3.412   0.206   3.586
 6365SOL    HW120536   3.418   0.238   3.676
 6365SOL    HW220537   3.333   0.153   3.585
 6366SOL     OW20538   2.509   0.079   1.897
 6366SOL    HW120539   2.562   0.061   1.974
 6366SOL    HW220540   2.422   0.045   1.919
 6367SOL     OW20541   2.594   0.301   3.636
 6367SOL    HW120542   2.675   0.250   3.633
 6367SOL    HW220543   2.545   0.265   3.710
 6368SOL     OW20544   2.732   1.514   3.057
 6368SOL    HW120545   2.720   1.477   2.969
 6368SOL    HW220546   2.806   1.465   3.093
 6369SOL     OW20547   3.201   0.603   3.299
 6369SOL    HW120548   3.239   0.573   3.381
 6369SOL    HW220549   3.238   0.691   3.287
 6370SOL     OW20550   2.682   1.380   2.807
 6370SOL    HW120551   2.769   1.371   2.769
 6370SOL    HW220552   2.624   1.394   2.732
 6371SOL     OW20553   2.783   0.514   2.753
 6371SOL    HW120554   2.748   0.494   2.666
 6371SOL    HW220555   2.828   0.434   2.780
 6372SOL     OW20556   2.413   0.073   2.314
 6372SOL    HW120557   2.346   0.046   2.376
 6372SOL    HW220558   2.368   0.131   2.253
 6373SOL     OW20559   3.280   1.195   1.901
 6373SOL    HW120560   3.320   1.126   1.953
 6373SOL    HW220561   3.205   1.223   1.953
 6374SOL     OW20562   2.171  -0.002   2.026
 6374SOL    HW120563   2.200   0.085   2.053
 6374SOL    HW220564   2.172  -0.053   2.108
 6375SOL     OW20565   2.807   0.249   2.324
 6375SOL    HW120566   2.788   0.284   2.237
 6375SOL    HW220567   2.902   0.259   2.334
 6376SOL     OW20568   2.938   0.673   3.321
 6376SOL    HW120569   2.890   0.592   3.340
 6376SOL    HW220570   3.030   0.647   3.319
 6377SOL     OW20571   3.081   1.566   2.652
 6377SOL    HW120572   3.099   1.641   2.595
 6377SOL    HW220573   3.152   1.566   2.715
 6378SOL     OW20574   2.327   1.157   2.593
 6378SOL    HW120575   2.265   1.133   2.662
 6378SOL    HW220576   2.279   1.142   2.511
 6379SOL     OW20577   3.124   1.792   2.473
 6379SOL    HW120578   3.177   1.856   2.425
 6379SOL    HW220579   3.059   1.844   2.519
 6380SOL     OW20580   2.899   0.525   1.884
 6380SOL    HW120581   2.850   0.607   1.876
 6380SOL    HW220582   2.954   0.538   1.961
 6381SOL     OW20583   1.953   0.562   3.259
 6381SOL    HW120584   2.043   0.555   3.227
 6381SOL    HW220585   1.955   0.633   3.323
 6382SOL     OW20586   2.430   0.253   3.027
 6382SOL    HW120587   2.485   0.176   3.012
 6382SOL    HW220588   2.350   0.218   3.067
 6383SOL     OW20589   2.688   0.436   2.497
 6383SOL    HW120590   2.673   0.504   2.431
 6383SOL    HW220591   2.741   0.370   2.451
 6384SOL     OW20592   2.866   0.040   2.628
 6384SOL    HW120593   2.814   0.008   2.554
 6384SOL    HW220594   2.834  -0.010   2.703
 6385SOL     OW20595   3.302   1.153   2.728
 6385SOL    HW120596   3.253   1.073   2.745
 6385SOL    HW220597   3.312   1.155   2.633
 6386SOL     OW20598   3.320   0.616   2.830
 6386SOL    HW120599   3.271   0.533   2.830
 6386SOL    HW220600   3.380   0.609   2.904
 6387SOL     OW20601   3.710   0.810   2.223
 6387SOL    HW120602   3.761   0.769   2.293
 6387SOL    HW220603   3.689   0.737   2.164
 6388SOL     OW20604   2.326   1.395   1.957
 6388SOL    HW120605   2.280   1.369   2.037
 6388SOL    HW220606   2.369   1.478   1.979
 6389SOL     OW20607   3.538   1.259   2.507
 6389SOL    HW120608   3.633   1.261   2.519
 6389SOL    HW220609   3.507   1.345   2.536
 6390SOL     OW20610   3.256   0.573   1.940
 6390SOL    HW120611   3.193   0.554   2.009
 6390SOL    HW220612   3.342   0.557   1.980
 6391SOL     OW20613   3.621   1.229   3.453
 6391SOL    HW120614   3.705   1.205   3.415
 6391SOL    HW220615   3.630   1.322   3.473
 6392SOL     OW20616   2.919   1.345   3.182
 6392SOL    HW120617   2.844   1.319   3.235
 6392SOL    HW220618   2.995   1.305   3.225
 6393SOL     OW20619   3.465   1.625   3.515
 6393SOL    HW120620   3.465   1.666   3.429
 6393SOL    HW220621   3.546   1.574   3.517
 6394SOL     OW20622   2.970   1.190   2.956
 6394SOL    HW120623   2.939   1.246   3.027
 6394SOL    HW220624   2.960   1.243   2.878
 6395SOL     OW20625   3.473   1.078   2.946
 6395SOL    HW120626   3.468   1.146   3.013
 6395SOL    HW220627   3.418   1.111   2.875
 6396SOL     OW20628   2.776   0.116   3.258
 6396SOL    HW120629   2.791   0.109   3.163
 6396SOL    HW220630   2.863   0.126   3.295
 6397SOL     OW20631   2.831   1.127   3.571
 6397SOL    HW120632   2.741   1.129   3.605
 6397SOL    HW220633   2.839   1.042   3.528
 6398SOL     OW20634   2.567   1.061   2.234
 6398SOL    HW120635   2.557   1.048   2.328
 6398SOL    HW220636   2.643   1.008   2.210
 6399SOL     OW20637   2.279   0.819   3.114
 6399SOL    HW120638   2.346   0.834   3.181
 6399SOL    HW220639   2.254   0.728   3.126
 6400SOL     OW20640   3.122   0.385   3.154
 6400SOL    HW120641   3.155   0.466   3.193
 6400SOL    HW220642   3.036   0.408   3.118
 6401SOL     OW20643   1.952   1.575   3.211
 6401SOL    HW120644   1.955   1.667   3.186
 6401SOL    HW220645   2.044   1.548   3.217
 6402SOL     OW20646   2.180   1.123   2.359
 6402SOL    HW120647   2.214   1.197   2.308
 6402SOL    HW220648   2.190   1.048   2.301
 6403SOL     OW20649   2.403   0.551   2.707
 6403SOL    HW120650   2.429   0.607   2.634
 6403SOL    HW220651   2.469   0.566   2.774
 6404SOL     OW20652   3.108   1.358   2.249
 6404SOL    HW120653   3.163   1.427   2.284
 6404SOL    HW220654   3.023   1.372   2.290
 6405SOL     OW20655   3.156   1.462   3.024
 6405SOL    HW120656   3.222   1.477   3.091
 6405SOL    HW220657   3.099   1.394   3.061
 6406SOL     OW20658   3.429   0.650   2.328
 6406SOL    HW120659   3.376   0.674   2.404
 6406SOL    HW220660   3.502   0.712   2.329
 6407SOL     OW20661   2.213   1.508   3.180
 6407SOL    HW120662   2.204   1.474   3.091
 6407SOL    HW220663   2.306   1.529   3.188
 6408SOL     OW20664   2.294   0.732   3.474
 6408SOL    HW120665   2.346   0.785   3.413
 6408SOL    HW220666   2.355   0.665   3.505
 6409SOL     OW20667   3.467   0.774   3.546
 6409SOL    HW120668   3.382   0.818   3.546
 6409SOL    HW220669   3.519   0.820   3.480
 6410SOL     OW20670   2.911   0.083   3.615
 6410SOL    HW120671   2.928   0.172   3.581
 6410SOL    HW220672   2.819   0.066   3.594
 6411SOL     OW20673   2.370   0.033   3.589
 6411SOL    HW120674   2.347  -0.031   3.522
 6411SOL    HW220675   2.298   0.096   3.588
 6412SOL     OW20676   2.423   0.900   2.883
 6412SOL    HW120677   2.481   0.975   2.893
 6412SOL    HW220678   2.390   0.882   2.971
 6413SOL     OW20679   3.201   0.870   2.854
 6413SOL    HW120680   3.111   0.839   2.846
 6413SOL    HW220681   3.253   0.790   2.861
 6414SOL     OW20682   3.052   0.526   2.119
 6414SOL    HW120683   3.066   0.450   2.175
 6414SOL    HW220684   3.014   0.592   2.177
 6415SOL     OW20685   2.166   0.181   3.112
 6415SOL    HW120686   2.131   0.211   3.196
 6415SOL    HW220687   2.184   0.088   3.126
 6416SOL     OW20688   1.887   1.322   3.127
 6416SOL    HW120689   1.920   1.257   3.189
 6416SOL    HW220690   1.913   1.406   3.163
 6417SOL     OW20691   2.580   0.627   2.902
 6417SOL    HW120692   2.660   0.598   2.858
 6417SOL    HW220693   2.578   0.721   2.889
 6418SOL     OW20694   3.621   0.943   3.723
 6418SOL    HW120695   3.562   0.897   3.663
 6418SOL    HW220696   3.570   0.955   3.803
 6419SOL     OW20697   2.216   0.055   2.518
 6419SOL    HW120698   2.211   0.145   2.551
 6419SOL    HW220699   2.253   0.005   2.590
 6420SOL     OW20700   3.495   0.409   2.217
 6420SOL    HW120701   3.529   0.346   2.281
 6420SOL    HW220702   3.468   0.484   2.269
 6421SOL     OW20703   2.888   0.760   2.822
 6421SOL    HW120704   2.878   0.775   2.916
 6421SOL    HW220705   2.862   0.668   2.810
 6422SOL     OW20706   2.831   1.550   3.585
 6422SOL    HW120707   2.825   1.595   3.501
 6422SOL    HW220708   2.891   1.477   3.569
 6423SOL     OW20709   3.709   1.499   3.466
 6423SOL    HW120710   3.730   1.527   3.377
 6423SOL    HW220711   3.789   1.516   3.516
 6424SOL     OW20712   2.213   0.923   3.663
 6424SOL    HW120713   2.285   0.950   3.719
 6424SOL    HW220714   2.250   0.856   3.606
 6425SOL     OW20715   3.373   0.280   2.013
 6425SOL    HW120716   3.365   0.193   2.053
 6425SOL    HW220717   3.415   0.334   2.081
 6426SOL     OW20718   3.131   0.812   1.882
 6426SOL    HW120719   3.182   0.733   1.896
 6426SOL    HW220720   3.173   0.855   1.807
 6427SOL     OW20721   2.930   1.339   2.714
 6427SOL    HW120722   2.943   1.268   2.651
 6427SOL    HW220723   2.990   1.407   2.685
 6428SOL     OW20724   2.173   0.817   2.794
 6428SOL    HW120725   2.263   0.842   2.811
 6428SOL    HW220726   2.167   0.726   2.825
 6429SOL     OW20727   2.186   0.548   2.862
 6429SOL    HW120728   2.154   0.458   2.863
 6429SOL    HW220729   2.265   0.544   2.807
 6430SOL     OW20730   3.026   0.364   3.572
 6430SOL    HW120731   2.968   0.424   3.618
 6430SOL    HW220732   3.106   0.415   3.558
 6431SOL     OW20733   3.023   0.218   3.342
 6431SOL    HW120734   3.037   0.269   3.422
 6431SOL    HW220735   3.060   0.272   3.272
 6432SOL     OW20736   1.856   1.322   2.056
 6432SOL    HW120737   1.767   1.334   2.023
 6432SOL    HW220738   1.854   1.235   2.097
 6433SOL     OW20739   1.945   1.789   2.786
 6433SOL    HW120740   1.927   1.703   2.749
 6433SOL    HW220741   2.037   1.805   2.767
 6434SOL     OW20742   2.354   1.569   2.773
 6434SOL    HW120743   2.418   1.636   2.798
 6434SOL    HW220744   2.398   1.517   2.706
 6435SOL     OW20745   2.826   0.781   3.089
 6435SOL    HW120746   2.896   0.762   3.153
 6435SOL    HW220747   2.746   0.751   3.132
 6436SOL     OW20748   1.901   0.558   2.978
 6436SOL    HW120749   1.973   0.523   2.926
 6436SOL    HW220750   1.933   0.557   3.069
 6437SOL     OW20751   2.056   0.532   3.597
 6437SOL    HW120752   2.143   0.516   3.559
 6437SOL    HW220753   2.022   0.606   3.547
 6438SOL     OW20754   3.243   0.930   3.539
 6438SOL    HW120755   3.242   1.020   3.572
 6438SOL    HW220756   3.245   0.940   3.444
 6439SOL     OW20757   2.681   0.561   2.228
 6439SOL    HW120758   2.692   0.485   2.171
 6439SOL    HW220759   2.602   0.603   2.195
 6440SOL     OW20760   3.496   0.604   3.035
 6440SOL    HW120761   3.489   0.551   3.115
 6440SOL    HW220762   3.585   0.588   3.004
 6441SOL     OW20763   2.088   1.540   3.588
 6441SOL    HW120764   2.092   1.603   3.661
 6441SOL    HW220765   2.104   1.455   3.629
 6442SOL     OW20766   2.586   0.457   3.117
 6442SOL    HW120767   2.531   0.381   3.096
 6442SOL    HW220768   2.574   0.517   3.044
 6443SOL     OW20769   2.757   1.683   3.346
 6443SOL    HW120770   2.758   1.647   3.257
 6443SOL    HW220771   2.783   1.774   3.335
 6444SOL     OW20772   2.281   0.545   1.978
 6444SOL    HW120773   2.351   0.594   2.021
 6444SOL    HW220774   2.278   0.462   2.024
 6445SOL     OW20775   1.983   1.136   3.321
 6445SOL    HW120776   1.998   1.092   3.404
 6445SOL    HW220777   2.012   1.074   3.254
 6446SOL     OW20778   3.167   1.035   3.074
 6446SOL    HW120779   3.203   0.985   3.002
 6446SOL    HW220780   3.097   1.087   3.035
 6447SOL     OW20781   3.169   0.876   2.158
 6447SOL    HW120782   3.119   0.837   2.230
 6447SOL    HW220783   3.134   0.835   2.079
 6448SOL     OW20784   3.645   1.750   3.023
 6448SOL    HW120785   3.707   1.769   2.953
 6448SOL    HW220786   3.615   1.661   3.005
 6449SOL     OW20787   3.092   1.723   2.946
 6449SOL    HW120788   3.176   1.755   2.912
 6449SOL    HW220789   3.112   1.636   2.980
 6450SOL     OW20790   1.914   1.304   2.853
 6450SOL    HW120791   1.912   1.299   2.949
 6450SOL    HW220792   1.887   1.217   2.824
 6451SOL     OW20793   2.550   1.672   3.596
 6451SOL    HW120794   2.512   1.759   3.587
 6451SOL    HW220795   2.635   1.678   3.552
 6452SOL     OW20796   3.542   0.151   2.350
 6452SOL    HW120797   3.636   0.153   2.369
 6452SOL    HW220798   3.509   0.076   2.400
 6453SOL     OW20799   3.246   1.573   2.345
 6453SOL    HW120800   3.311   1.611   2.285
 6453SOL    HW220801   3.202   1.649   2.384
 6454SOL     OW20802   1.998   1.806   3.707
 6454SOL    HW120803   1.952   1.736   3.753
 6454SOL    HW220804   2.054   1.847   3.774
 6455SOL     OW20805   3.134   0.926   2.520
 6455SOL    HW120806   3.206   0.868   2.544
 6455SOL    HW220807   3.175   0.998   2.473
 6456SOL     OW20808   2.674   1.276   3.287
 6456SOL    HW120809   2.654   1.312   3.374
 6456SOL    HW220810   2.603   1.306   3.231
 6457SOL     OW20811   2.516   1.594   2.008
 6457SOL    HW120812   2.541   1.620   1.919
 6457SOL    HW220813   2.560   1.510   2.021
 6458SOL     OW20814   3.479   1.736   3.253
 6458SOL    HW120815   3.538   1.740   3.177
 6458SOL    HW220816   3.463   1.827   3.277
 6459SOL     OW20817   3.718   0.165   2.817
 6459SOL    HW120818   3.717   0.070   2.804
 6459SOL    HW220819   3.635   0.195   2.780
 6460SOL     OW20820   2.132   0.309   2.589
 6460SOL    HW120821   2.066   0.376   2.606
 6460SOL    HW220822   2.176   0.298   2.673
 6461SOL     OW20823   3.072   1.593   1.892
 6461SOL    HW120824   3.056   1.505   1.926
 6461SOL    HW220825   2.998   1.611   1.835
 6462SOL     OW20826   2.685   1.008   3.233
 6462SOL    HW120827   2.747   0.998   3.160
 6462SOL    HW220828   2.689   1.102   3.254
 6463SOL     OW20829   2.768   0.904   2.142
 6463SOL    HW120830   2.831   0.938   2.080
 6463SOL    HW220831   2.818   0.844   2.197
 6464SOL     OW20832   3.351   1.621   1.905
 6464SOL    HW120833   3.256   1.615   1.893
 6464SOL    HW220834   3.385   1.629   1.816
 6465SOL     OW20835   2.215   1.297   3.365
 6465SOL    HW120836   2.221   1.370   3.304
 6465SOL    HW220837   2.138   1.248   3.335
 6466SOL     OW20838   3.450   1.274   3.128
 6466SOL    HW120839   3.542   1.284   3.152
 6466SOL    HW220840   3.405   1.345   3.174
 6467SOL     OW20841   2.922   1.108   2.561
 6467SOL    HW120842   2.855   1.059   2.608
 6467SOL    HW220843   2.992   1.045   2.546
 6468SOL     OW20844   2.905   0.266   2.790
 6468SOL    HW120845   2.889   0.206   2.718
 6468SOL    HW220846   2.907   0.209   2.868
 6469SOL     OW20847   2.430   1.453   2.328
 6469SOL    HW120848   2.510   1.456   2.275
 6469SOL    HW220849   2.415   1.543   2.354
 6470SOL     OW20850   3.585   0.417   3.239
 6470SOL    HW120851   3.660   0.476   3.246
 6470SOL    HW220852   3.617   0.345   3.184
 6471SOL     OW20853   2.121   1.344   2.134
 6471SOL    HW120854   2.026   1.342   2.119
 6471SOL    HW220855   2.130   1.384   2.220
 6472SOL     OW20856   1.970   1.008   3.566
 6472SOL    HW120857   1.900   0.996   3.631
 6472SOL    HW220858   2.050   0.986   3.614
 6473SOL     OW20859   2.533   0.234   3.365
 6473SOL    HW120860   2.594   0.169   3.332
 6473SOL    HW220861   2.556   0.243   3.458
 6474SOL     OW20862   1.912   0.356   1.897
 6474SOL    HW120863   1.852   0.337   1.825
 6474SOL    HW220864   1.977   0.414   1.860
 6475SOL     OW20865   3.287   0.865   3.258
 6475SOL    HW120866   3.239   0.927   3.203
 6475SOL    HW220867   3.377   0.870   3.226
 6476SOL     OW20868   1.908   0.173   2.136
 6476SOL    HW120869   1.936   0.241   2.075
 6476SOL    HW220870   1.985   0.154   2.189
 6477SOL     OW20871   3.034   1.332   1.989
 6477SOL    HW120872   2.957   1.278   2.008
 6477SOL    HW220873   3.073   1.349   2.075
 6478SOL     OW20874   2.469   0.853   3.298
 6478SOL    HW120875   2.530   0.926   3.284
 6478SOL    HW220876   2.525   0.776   3.306
 6479SOL     OW20877   3.342   1.784   2.839
 6479SOL    HW120878   3.372   1.862   2.792
 6479SOL    HW220879   3.421   1.748   2.879
 6480SOL     OW20880   2.553   0.576   3.570
 6480SOL    HW120881   2.611   0.631   3.623
 6480SOL    HW220882   2.575   0.487   3.596
 6481SOL     OW20883   3.343   1.217   3.455
 6481SOL    HW120884   3.315   1.221   3.546
 6481SOL    HW220885   3.438   1.220   3.458
 6482SOL     OW20886   2.230   1.735   3.425
 6482SOL    HW120887   2.138   1.762   3.418
 6482SOL    HW220888   2.226   1.647   3.464
 6483SOL     OW20889   3.529   0.878   3.122
 6483SOL    HW120890   3.525   0.795   3.075
 6483SOL    HW220891   3.517   0.945   3.054
 6484SOL     OW20892   3.078   0.319   2.304
 6484SOL    HW120893   3.144   0.251   2.293
 6484SOL    HW220894   3.104   0.365   2.383
 6485SOL     OW20895   2.460   0.738   2.513
 6485SOL    HW120896   2.497   0.826   2.514
 6485SOL    HW220897   2.386   0.744   2.453
 6486SOL     OW20898   3.616   0.377   3.509
 6486SOL    HW120899   3.602   0.392   3.415
 6486SOL    HW220900   3.553   0.309   3.532
 6487SOL     OW20901   3.610   0.935   3.381
 6487SOL    HW120902   3.601   1.029   3.401
 6487SOL    HW220903   3.592   0.928   3.288
 6488SOL     OW20904   2.669   1.379   1.881
 6488SOL    HW120905   2.686   1.366   1.974
 6488SOL    HW220906   2.732   1.446   1.854
 6489SOL     OW20907   2.524   1.776   2.808
 6489SOL    HW120908   2.503   1.864   2.779
 6489SOL    HW220909   2.619   1.770   2.799
 6490SOL     OW20910   2.733   0.970   2.712
 6490SOL    HW120911   2.787   0.901   2.751
 6490SOL    HW220912   2.695   1.015   2.787
 6491SOL     OW20913   2.922   0.978   1.930
 6491SOL    HW120914   2.927   1.041   1.858
 6491SOL    HW220915   2.998   0.921   1.919
 6492SOL     OW20916   3.704   1.574   2.675
 6492SOL    HW120917   3.612   1.551   2.659
 6492SOL    HW220918   3.740   1.498   2.720
 6493SOL     OW20919   2.090   1.297   3.724
 6493SOL    HW120920   2.017   1.236   3.716
 6493SOL    HW220921   2.101   1.310   3.818
 6494SOL     OW20922   1.955   1.201   2.528
 6494SOL    HW120923   1.989   1.164   2.610
 6494SOL    HW220924   2.024   1.185   2.464
 6495SOL     OW20925   2.527   1.416   3.475
 6495SOL    HW120926   2.467   1.370   3.534
 6495SOL    HW220927   2.543   1.500   3.518
 6496SOL     OW20928   3.688   0.215   3.092
 6496SOL    HW120929   3.618   0.149   3.085
 6496SOL    HW220930   3.719   0.227   3.002
 6497SOL     OW20931   2.272   0.459   2.383
 6497SOL    HW120932   2.271   0.396   2.311
 6497SOL    HW220933   2.256   0.407   2.462
 6498SOL     OW20934   3.560   1.505   2.957
 6498SOL    HW120935   3.483   1.458   2.925
 6498SOL    HW220936   3.626   1.436   2.971
 6499SOL     OW20937   2.200   0.555   3.153
 6499SOL    HW120938   2.250   0.500   3.213
 6499SOL    HW220939   2.226   0.526   3.066
 6500SOL     OW20940   2.688   1.583   2.534
 6500SOL    HW120941   2.653   1.663   2.495
 6500SOL    HW220942   2.610   1.531   2.555
 6501SOL     OW20943   3.289   0.239   2.984
 6501SOL    HW120944   3.346   0.175   3.026
 6501SOL    HW220945   3.240   0.280   3.055
 6502SOL     OW20946   2.882   0.091   2.994
 6502SOL    HW120947   2.794   0.067   2.964
 6502SOL    HW220948   2.921   0.009   3.022
 6503SOL     OW20949   2.662   1.329   2.151
 6503SOL    HW120950   2.625   1.249   2.187
 6503SOL    HW220951   2.727   1.357   2.215
 6504SOL     OW20952   2.479   1.560   3.142
 6504SOL    HW120953   2.477   1.647   3.181
 6504SOL    HW220954   2.570   1.549   3.113
 6505SOL     OW20955   3.216   8.001   1.991
 6505SOL    HW120956   3.287   7.953   2.034
 6505SOL    HW220957   3.151   8.014   2.060
 6506SOL     OW20958   3.141   0.463   2.528
 6506SOL    HW120959   3.095   0.545   2.541
 6506SOL    HW220960   3.153   0.428   2.616
 6507SOL     OW20961   3.476   0.228   2.730
 6507SOL    HW120962   3.394   0.208   2.775
 6507SOL    HW220963   3.456   0.306   2.678
 6508SOL     OW20964   1.900   1.062   2.149
 6508SOL    HW120965   1.995   1.062   2.139
 6508SOL    HW220966   1.879   0.974   2.179
 6509SOL     OW20967   2.748   1.669   2.194
 6509SOL    HW120968   2.665   1.673   2.148
 6509SOL    HW220969   2.741   1.734   2.263
 6510SOL     OW20970   2.073   0.644   3.858
 6510SOL    HW120971   1.988   0.623   3.896
 6510SOL    HW220972   2.067   0.615   3.766
 6511SOL     OW20973   2.070   0.315   4.723
 6511SOL    HW120974   2.143   0.253   4.718
 6511SOL    HW220975   1.992   0.262   4.707
 6512SOL     OW20976   1.869   0.384   4.363
 6512SOL    HW120977   1.778   0.393   4.392
 6512SOL    HW220978   1.880   0.291   4.344
 6513SOL     OW20979   2.422   1.299   4.906
 6513SOL    HW120980   2.341   1.317   4.858
 6513SOL    HW220981   2.452   1.385   4.936
 6514SOL     OW20982   3.433   1.510   4.419
 6514SOL    HW120983   3.397   1.552   4.498
 6514SOL    HW220984   3.363   1.517   4.355
 6515SOL     OW20985   2.991   0.700   4.419
 6515SOL    HW120986   3.043   0.779   4.402
 6515SOL    HW220987   2.947   0.718   4.502
 6516SOL     OW20988   3.662   0.593   3.945
 6516SOL    HW120989   3.626   0.595   3.857
 6516SOL    HW220990   3.615   0.523   3.990
 6517SOL     OW20991   2.593   1.130   4.771
 6517SOL    HW120992   2.531   1.174   4.829
 6517SOL    HW220993   2.640   1.202   4.728
 6518SOL     OW20994   2.738   0.763   5.544
 6518SOL    HW120995   2.740   0.832   5.610
 6518SOL    HW220996   2.759   0.807   5.462
 6519SOL     OW20997   2.544   0.995   4.369
 6519SOL    HW120998   2.614   0.988   4.434
 6519SOL    HW220999   2.480   1.053   4.409
 6520SOL     OW21000   2.574   1.149   5.548
 6520SOL    HW121001   2.624   1.225   5.580
 6520SOL    HW221002   2.498   1.187   5.504
 6521SOL     OW21003   2.195   1.420   4.786
 6521SOL    HW121004   2.123   1.384   4.734
 6521SOL    HW221005   2.245   1.472   4.724
 6522SOL     OW21006   3.335   1.499   5.088
 6522SOL    HW121007   3.388   1.579   5.086
 6522SOL    HW221008   3.268   1.516   5.154
 6523SOL     OW21009   2.281   0.375   5.246
 6523SOL    HW121010   2.369   0.336   5.241
 6523SOL    HW221011   2.224   0.309   5.207
 6524SOL     OW21012   3.468   0.457   4.446
 6524SOL    HW121013   3.398   0.477   4.384
 6524SOL    HW221014   3.482   0.539   4.494
 6525SOL     OW21015   2.085   1.713   4.189
 6525SOL    HW121016   2.105   1.786   4.248
 6525SOL    HW221017   2.165   1.702   4.137
 6526SOL     OW21018   3.000   1.343   5.421
 6526SOL    HW121019   3.050   1.332   5.502
 6526SOL    HW221020   2.950   1.261   5.412
 6527SOL     OW21021   2.081   1.441   4.245
 6527SOL    HW121022   2.079   1.536   4.247
 6527SOL    HW221023   2.040   1.414   4.328
 6528SOL     OW21024   2.114   1.089   4.604
 6528SOL    HW121025   2.129   1.002   4.641
 6528SOL    HW221026   2.071   1.138   4.675
 6529SOL     OW21027   2.430   1.841   5.111
 6529SOL    HW121028   2.367   1.802   5.171
 6529SOL    HW221029   2.510   1.850   5.163
 6530SOL     OW21030   2.429   0.993   3.867
 6530SOL    HW121031   2.483   1.029   3.798
 6530SOL    HW221032   2.472   1.020   3.948
 6531SOL     OW21033   3.502   0.123   5.223
 6531SOL    HW121034   3.506   0.168   5.139
 6531SOL    HW221035   3.450   0.181   5.279
 6532SOL     OW21036   1.969   0.661   4.284
 6532SOL    HW121037   1.954   0.568   4.304
 6532SOL    HW221038   1.969   0.704   4.369
 6533SOL     OW21039   3.706   1.751   4.049
 6533SOL    HW121040   3.772   1.728   4.114
 6533SOL    HW221041   3.720   1.844   4.033
 6534SOL     OW21042   1.890   1.597   3.844
 6534SOL    HW121043   1.883   1.504   3.863
 6534SOL    HW221044   1.872   1.640   3.928
 6535SOL     OW21045   3.538   0.902   4.348
 6535SOL    HW121046   3.624   0.872   4.319
 6535SOL    HW221047   3.513   0.968   4.283
 6536SOL     OW21048   3.511   1.107   4.163
 6536SOL    HW121049   3.596   1.114   4.119
 6536SOL    HW221050   3.517   1.169   4.235
 6537SOL     OW21051   2.001   0.735   5.320
 6537SOL    HW121052   2.092   0.764   5.317
 6537SOL    HW221053   1.950   0.816   5.327
 6538SOL     OW21054   2.467   1.392   4.458
 6538SOL    HW121055   2.428   1.305   4.463
 6538SOL    HW221056   2.457   1.417   4.366
 6539SOL     OW21057   3.136   1.225   5.159
 6539SOL    HW121058   3.166   1.168   5.088
 6539SOL    HW221059   3.208   1.224   5.222
 6540SOL     OW21060   2.697   0.048   4.309
 6540SOL    HW121061   2.737   0.117   4.256
 6540SOL    HW221062   2.610   0.036   4.270
 6541SOL     OW21063   2.043   0.959   4.999
 6541SOL    HW121064   2.133   0.925   4.993
 6541SOL    HW221065   1.995   0.913   4.932
 6542SOL     OW21066   3.442   0.949   3.936
 6542SOL    HW121067   3.352   0.967   3.910
 6542SOL    HW221068   3.456   1.003   4.014
 6543SOL     OW21069   3.023   1.804   5.337
 6543SOL    HW121070   3.049   1.873   5.276
 6543SOL    HW221071   3.056   1.723   5.298
 6544SOL     OW21072   3.309   1.347   4.749
 6544SOL    HW121073   3.305   1.437   4.718
 6544SOL    HW221074   3.303   1.294   4.669
 6545SOL     OW21075   3.527   1.753   4.296
 6545SOL    HW121076   3.502   1.717   4.211
 6545SOL    HW221077   3.501   1.686   4.360
 6546SOL     OW21078   2.460   0.714   3.993
 6546SOL    HW121079   2.476   0.798   3.951
 6546SOL    HW221080   2.397   0.733   4.062
 6547SOL     OW21081   3.156   0.371   4.661
 6547SOL    HW121082   3.066   0.341   4.661
 6547SOL    HW221083   3.201   0.314   4.724
 6548SOL     OW21084   3.440   1.672   4.034
 6548SOL    HW121085   3.532   1.699   4.026
 6548SOL    HW221086   3.413   1.655   3.944
 6549SOL     OW21087   2.648   0.633   5.176
 6549SOL    HW121088   2.621   0.601   5.262
 6549SOL    HW221089   2.617   0.567   5.114
 6550SOL     OW21090   3.281   0.499   5.397
 6550SOL    HW121091   3.286   0.541   5.482
 6550SOL    HW221092   3.331   0.418   5.406
 6551SOL     OW21093   2.806   0.886   5.308
 6551SOL    HW121094   2.864   0.820   5.272
 6551SOL    HW221095   2.763   0.926   5.232
 6552SOL     OW21096   2.849   0.410   4.963
 6552SOL    HW121097   2.759   0.440   4.975
 6552SOL    HW221098   2.851   0.376   4.873
 6553SOL     OW21099   2.912   0.704   4.149
 6553SOL    HW121100   2.934   0.697   4.242
 6553SOL    HW221101   2.831   0.655   4.140
 6554SOL     OW21102   1.947   0.826   4.506
 6554SOL    HW121103   2.031   0.815   4.551
 6554SOL    HW221104   1.910   0.905   4.544
 6555SOL     OW21105   1.979   1.840   5.303
 6555SOL    HW121106   1.987   1.823   5.397
 6555SOL    HW221107   1.887   1.863   5.291
 6556SOL     OW21108   2.753   0.354   3.931
 6556SOL    HW121109   2.799   0.406   3.864
 6556SOL    HW221110   2.755   0.265   3.897
 6557SOL     OW21111   3.558   0.576   5.557
 6557SOL    HW121112   3.530   0.651   5.505
 6557SOL    HW221113   3.592   0.514   5.492
 6558SOL     OW21114   3.246   1.124   4.261
 6558SOL    HW121115   3.323   1.120   4.205
 6558SOL    HW221116   3.195   1.198   4.227
 6559SOL     OW21117   2.328   0.237   4.650
 6559SOL    HW121118   2.386   0.275   4.715
 6559SOL    HW221119   2.374   0.248   4.567
 6560SOL     OW21120   2.848   1.435   4.187
 6560SOL    HW121121   2.827   1.516   4.141
 6560SOL    HW221122   2.872   1.463   4.275
 6561SOL     OW21123   2.225   1.819   4.600
 6561SOL    HW121124   2.273   1.736   4.604
 6561SOL    HW221125   2.291   1.886   4.613
 6562SOL     OW21126   3.654   1.016   4.597
 6562SOL    HW121127   3.604   1.044   4.521
 6562SOL    HW221128   3.604   1.048   4.672
 6563SOL     OW21129   3.082   1.540   5.228
 6563SOL    HW121130   3.069   1.462   5.283
 6563SOL    HW221131   3.059   1.510   5.140
 6564SOL     OW21132   2.170   0.960   3.977
 6564SOL    HW121133   2.256   0.979   3.939
 6564SOL    HW221134   2.150   0.872   3.947
 6565SOL     OW21135   3.340   0.745   4.447
 6565SOL    HW121136   3.348   0.715   4.537
 6565SOL    HW221137   3.416   0.802   4.434
 6566SOL     OW21138   2.329   1.265   5.466
 6566SOL    HW121139   2.305   1.270   5.374
 6566SOL    HW221140   2.246   1.268   5.513
 6567SOL     OW21141   2.979   1.785   3.944
 6567SOL    HW121142   2.912   1.738   3.994
 6567SOL    HW221143   3.009   1.722   3.879
 6568SOL     OW21144   2.009   0.259   5.210
 6568SOL    HW121145   1.984   0.343   5.172
 6568SOL    HW221146   1.993   0.268   5.303
 6569SOL     OW21147   3.478   1.368   3.821
 6569SOL    HW121148   3.439   1.454   3.804
 6569SOL    HW221149   3.407   1.306   3.801
 6570SOL     OW21150   2.326   1.728   4.049
 6570SOL    HW121151   2.372   1.789   4.108
 6570SOL    HW221152   2.393   1.701   3.985
 6571SOL     OW21153   3.280   0.131   4.135
 6571SOL    HW121154   3.292   0.102   4.045
 6571SOL    HW221155   3.369   0.148   4.167
 6572SOL     OW21156   2.110   1.786   4.953
 6572SOL    HW121157   2.166   1.727   5.002
 6572SOL    HW221158   2.124   1.762   4.861
 6573SOL     OW21159   2.804   1.692   4.631
 6573SOL    HW121160   2.892   1.656   4.633
 6573SOL    HW221161   2.761   1.647   4.558
 6574SOL     OW21162   2.254   0.700   4.192
 6574SOL    HW121163   2.271   0.607   4.205
 6574SOL    HW221164   2.160   0.710   4.209
 6575SOL     OW21165   3.380   0.238   5.449
 6575SOL    HW121166   3.385   0.252   5.543
 6575SOL    HW221167   3.333   0.155   5.440
 6576SOL     OW21168   2.460   0.138   3.823
 6576SOL    HW121169   2.530   0.092   3.870
 6576SOL    HW221170   2.437   0.080   3.751
 6577SOL     OW21171   2.626   0.242   5.496
 6577SOL    HW121172   2.686   0.289   5.438
 6577SOL    HW221173   2.622   0.297   5.575
 6578SOL     OW21174   2.725   1.499   4.929
 6578SOL    HW121175   2.721   1.476   4.836
 6578SOL    HW221176   2.804   1.457   4.961
 6579SOL     OW21177   3.201   0.599   5.154
 6579SOL    HW121178   3.244   0.574   5.236
 6579SOL    HW221179   3.236   0.686   5.134
 6580SOL     OW21180   2.676   1.378   4.669
 6580SOL    HW121181   2.766   1.372   4.635
 6580SOL    HW221182   2.623   1.395   4.591
 6581SOL     OW21183   2.780   0.512   4.618
 6581SOL    HW121184   2.750   0.504   4.528
 6581SOL    HW221185   2.823   0.429   4.637
 6582SOL     OW21186   2.450   0.056   4.189
 6582SOL    HW121187   2.385  -0.012   4.204
 6582SOL    HW221188   2.402   0.127   4.145
 6583SOL     OW21189   2.155   0.040   3.918
 6583SOL    HW121190   2.233   0.094   3.908
 6583SOL    HW221191   2.188  -0.044   3.952
 6584SOL     OW21192   2.812   0.265   4.186
 6584SOL    HW121193   2.783   0.294   4.100
 6584SOL    HW221194   2.907   0.277   4.184
 6585SOL     OW21195   2.946   0.686   5.192
 6585SOL    HW121196   2.886   0.612   5.179
 6585SOL    HW221197   3.033   0.650   5.177
 6586SOL     OW21198   3.055   1.587   4.521
 6586SOL    HW121199   3.074   1.636   4.441
 6586SOL    HW221200   3.132   1.601   4.576
 6587SOL     OW21201   2.329   1.152   4.448
 6587SOL    HW121202   2.262   1.131   4.513
 6587SOL    HW221203   2.286   1.138   4.363
 6588SOL     OW21204   3.127   1.799   4.329
 6588SOL    HW121205   3.164   1.858   4.263
 6588SOL    HW221206   3.142   1.843   4.412
 6589SOL     OW21207   2.888   0.524   3.752
 6589SOL    HW121208   2.848   0.609   3.732
 6589SOL    HW221209   2.951   0.543   3.821
 6590SOL     OW21210   1.966   0.543   5.128
 6590SOL    HW121211   2.054   0.551   5.092
 6590SOL    HW221212   1.959   0.614   5.192
 6591SOL     OW21213   2.442   0.240   4.914
 6591SOL    HW121214   2.483   0.165   4.955
 6591SOL    HW221215   2.349   0.230   4.934
 6592SOL     OW21216   2.702   0.449   4.360
 6592SOL    HW121217   2.678   0.513   4.293
 6592SOL    HW221218   2.748   0.380   4.311
 6593SOL     OW21219   2.815   8.023   4.545
 6593SOL    HW121220   2.772   8.035   4.461
 6593SOL    HW221221   2.861   7.939   4.537
 6594SOL     OW21222   3.310   1.148   4.559
 6594SOL    HW121223   3.235   1.101   4.521
 6594SOL    HW221224   3.362   1.174   4.483
 6595SOL     OW21225   3.327   0.610   4.691
 6595SOL    HW121226   3.277   0.529   4.687
 6595SOL    HW221227   3.386   0.599   4.766
 6596SOL     OW21228   3.718   0.808   4.112
 6596SOL    HW121229   3.770   0.752   4.169
 6596SOL    HW221230   3.689   0.751   4.042
 6597SOL     OW21231   2.349   1.428   3.871
 6597SOL    HW121232   2.276   1.390   3.919
 6597SOL    HW221233   2.375   1.360   3.809
 6598SOL     OW21234   3.534   1.253   4.394
 6598SOL    HW121235   3.629   1.258   4.399
 6598SOL    HW221236   3.504   1.344   4.403
 6599SOL     OW21237   3.260   0.574   3.794
 6599SOL    HW121238   3.197   0.549   3.862
 6599SOL    HW221239   3.345   0.566   3.837
 6600SOL     OW21240   2.366   0.275   4.036
 6600SOL    HW121241   2.414   0.231   3.966
 6600SOL    HW221242   2.343   0.360   3.998
 6601SOL     OW21243   3.627   1.241   5.291
 6601SOL    HW121244   3.689   1.195   5.349
 6601SOL    HW221245   3.646   1.334   5.303
 6602SOL     OW21246   2.903   1.331   5.063
 6602SOL    HW121247   2.835   1.299   5.123
 6602SOL    HW221248   2.985   1.299   5.100
 6603SOL     OW21249   3.468   1.613   5.375
 6603SOL    HW121250   3.460   1.662   5.293
 6603SOL    HW221251   3.555   1.574   5.371
 6604SOL     OW21252   2.979   1.199   4.829
 6604SOL    HW121253   2.949   1.260   4.897
 6604SOL    HW221254   2.965   1.247   4.747
 6605SOL     OW21255   3.481   1.095   4.804
 6605SOL    HW121256   3.479   1.166   4.868
 6605SOL    HW221257   3.412   1.118   4.742
 6606SOL     OW21258   2.773   0.121   5.120
 6606SOL    HW121259   2.785   0.091   5.030
 6606SOL    HW221260   2.860   0.147   5.149
 6607SOL     OW21261   2.847   1.113   5.452
 6607SOL    HW121262   2.755   1.135   5.471
 6607SOL    HW221263   2.842   1.038   5.393
 6608SOL     OW21264   2.565   1.056   4.098
 6608SOL    HW121265   2.557   1.038   4.192
 6608SOL    HW221266   2.642   1.006   4.071
 6609SOL     OW21267   2.281   0.827   4.983
 6609SOL    HW121268   2.352   0.838   5.046
 6609SOL    HW221269   2.254   0.735   4.992
 6610SOL     OW21270   3.120   0.376   5.022
 6610SOL    HW121271   3.158   0.457   5.055
 6610SOL    HW221272   3.035   0.402   4.986
 6611SOL     OW21273   1.947   1.568   5.078
 6611SOL    HW121274   1.937   1.657   5.045
 6611SOL    HW221275   2.041   1.552   5.077
 6612SOL     OW21276   2.186   1.120   4.214
 6612SOL    HW121277   2.215   1.192   4.158
 6612SOL    HW221278   2.187   1.043   4.156
 6613SOL     OW21279   2.409   0.546   4.585
 6613SOL    HW121280   2.421   0.602   4.509
 6613SOL    HW221281   2.482   0.569   4.643
 6614SOL     OW21282   3.117   1.339   4.167
 6614SOL    HW121283   3.164   1.422   4.174
 6614SOL    HW221284   3.028   1.363   4.142
 6615SOL     OW21285   3.117   1.469   4.919
 6615SOL    HW121286   3.204   1.486   4.955
 6615SOL    HW221287   3.130   1.397   4.858
 6616SOL     OW21288   3.433   0.632   4.200
 6616SOL    HW121289   3.383   0.676   4.269
 6616SOL    HW221290   3.457   0.702   4.139
 6617SOL     OW21291   2.211   1.518   5.036
 6617SOL    HW121292   2.201   1.480   4.949
 6617SOL    HW221293   2.305   1.536   5.044
 6618SOL     OW21294   2.287   0.746   5.333
 6618SOL    HW121295   2.345   0.793   5.273
 6618SOL    HW221296   2.335   0.665   5.354
 6619SOL     OW21297   3.475   0.788   5.410
 6619SOL    HW121298   3.389   0.827   5.401
 6619SOL    HW221299   3.527   0.828   5.340
 6620SOL     OW21300   2.894   0.071   5.456
 6620SOL    HW121301   2.943   0.136   5.507
 6620SOL    HW221302   2.887   0.110   5.369
 6621SOL     OW21303   2.301   0.104   5.466
 6621SOL    HW121304   2.378   0.058   5.432
 6621SOL    HW221305   2.227   0.055   5.432
 6622SOL     OW21306   2.448   0.882   4.756
 6622SOL    HW121307   2.493   0.966   4.756
 6622SOL    HW221308   2.394   0.884   4.836
 6623SOL     OW21309   3.206   0.848   4.762
 6623SOL    HW121310   3.149   0.865   4.687
 6623SOL    HW221311   3.250   0.766   4.740
 6624SOL     OW21312   3.055   0.525   3.977
 6624SOL    HW121313   3.066   0.448   4.033
 6624SOL    HW221314   3.030   0.595   4.038
 6625SOL     OW21315   2.186   0.183   4.984
 6625SOL    HW121316   2.097   0.207   5.010
 6625SOL    HW221317   2.174   0.121   4.912
 6626SOL     OW21318   1.882   1.312   4.998
 6626SOL    HW121319   1.925   1.256   5.062
 6626SOL    HW221320   1.904   1.401   5.026
 6627SOL     OW21321   2.584   0.635   4.779
 6627SOL    HW121322   2.660   0.622   4.723
 6627SOL    HW221323   2.556   0.725   4.760
 6628SOL     OW21324   3.607   0.957   5.586
 6628SOL    HW121325   3.560   0.896   5.530
 6628SOL    HW221326   3.544   0.980   5.655
 6629SOL     OW21327   2.207   0.087   4.366
 6629SOL    HW121328   2.205   0.164   4.423
 6629SOL    HW221329   2.188   0.013   4.423
 6630SOL     OW21330   3.499   0.398   4.077
 6630SOL    HW121331   3.515   0.329   4.141
 6630SOL    HW221332   3.469   0.472   4.130
 6631SOL     OW21333   2.881   0.759   4.674
 6631SOL    HW121334   2.883   0.773   4.769
 6631SOL    HW221335   2.856   0.667   4.664
 6632SOL     OW21336   2.830   1.555   5.445
 6632SOL    HW121337   2.818   1.606   5.365
 6632SOL    HW221338   2.887   1.482   5.419
 6633SOL     OW21339   3.720   1.500   5.313
 6633SOL    HW121340   3.729   1.534   5.224
 6633SOL    HW221341   3.777   1.556   5.366
 6634SOL     OW21342   2.209   0.900   5.548
 6634SOL    HW121343   2.287   0.936   5.588
 6634SOL    HW221344   2.241   0.848   5.474
 6635SOL     OW21345   3.429   0.280   3.841
 6635SOL    HW121346   3.333   0.282   3.849
 6635SOL    HW221347   3.460   0.316   3.924
 6636SOL     OW21348   3.149   0.824   3.774
 6636SOL    HW121349   3.194   0.740   3.772
 6636SOL    HW221350   3.182   0.870   3.697
 6637SOL     OW21351   2.932   1.343   4.591
 6637SOL    HW121352   2.941   1.273   4.526
 6637SOL    HW221353   2.986   1.414   4.556
 6638SOL     OW21354   2.175   0.818   4.668
 6638SOL    HW121355   2.269   0.837   4.662
 6638SOL    HW221356   2.171   0.728   4.701
 6639SOL     OW21357   2.200   0.547   4.746
 6639SOL    HW121358   2.157   0.462   4.733
 6639SOL    HW221359   2.274   0.547   4.685
 6640SOL     OW21360   3.034   0.391   5.424
 6640SOL    HW121361   2.975   0.447   5.473
 6640SOL    HW221362   3.111   0.445   5.408
 6641SOL     OW21363   3.015   0.220   5.215
 6641SOL    HW121364   3.036   0.275   5.291
 6641SOL    HW221365   3.050   0.268   5.140
 6642SOL     OW21366   1.858   1.321   3.923
 6642SOL    HW121367   1.771   1.335   3.885
 6642SOL    HW221368   1.855   1.231   3.956
 6643SOL     OW21369   1.961   1.783   4.664
 6643SOL    HW121370   1.934   1.703   4.619
 6643SOL    HW221371   2.052   1.796   4.636
 6644SOL     OW21372   2.358   1.577   4.630
 6644SOL    HW121373   2.429   1.637   4.654
 6644SOL    HW221374   2.399   1.515   4.570
 6645SOL     OW21375   2.837   0.774   4.945
 6645SOL    HW121376   2.902   0.771   5.015
 6645SOL    HW221377   2.754   0.758   4.989
 6646SOL     OW21378   1.896   0.550   4.843
 6646SOL    HW121379   1.957   0.507   4.782
 6646SOL    HW221380   1.938   0.542   4.928
 6647SOL     OW21381   2.088   0.489   5.424
 6647SOL    HW121382   2.158   0.468   5.363
 6647SOL    HW221383   2.051   0.570   5.390
 6648SOL     OW21384   3.244   0.931   5.378
 6648SOL    HW121385   3.266   1.024   5.375
 6648SOL    HW221386   3.238   0.905   5.286
 6649SOL     OW21387   2.677   0.567   4.101
 6649SOL    HW121388   2.691   0.496   4.039
 6649SOL    HW221389   2.606   0.619   4.063
 6650SOL     OW21390   3.500   0.593   4.902
 6650SOL    HW121391   3.494   0.542   4.983
 6650SOL    HW221392   3.589   0.575   4.869
 6651SOL     OW21393   2.095   1.547   5.446
 6651SOL    HW121394   2.082   1.616   5.511
 6651SOL    HW221395   2.109   1.467   5.497
 6652SOL     OW21396   2.574   0.464   4.985
 6652SOL    HW121397   2.524   0.387   4.960
 6652SOL    HW221398   2.567   0.523   4.911
 6653SOL     OW21399   2.744   1.690   5.209
 6653SOL    HW121400   2.764   1.640   5.130
 6653SOL    HW221401   2.775   1.778   5.191
 6654SOL     OW21402   2.310   0.503   3.897
 6654SOL    HW121403   2.377   0.567   3.920
 6654SOL    HW221404   2.229   0.554   3.893
 6655SOL     OW21405   1.989   1.140   5.194
 6655SOL    HW121406   1.999   1.094   5.278
 6655SOL    HW221407   2.011   1.074   5.128
 6656SOL     OW21408   3.166   1.039   4.950
 6656SOL    HW121409   3.192   0.977   4.881
 6656SOL    HW221410   3.103   1.097   4.907
 6657SOL     OW21411   3.162   0.823   4.053
 6657SOL    HW121412   3.072   0.814   4.082
 6657SOL    HW221413   3.156   0.837   3.958
 6658SOL     OW21414   3.615   1.719   4.877
 6658SOL    HW121415   3.681   1.765   4.825
 6658SOL    HW221416   3.545   1.699   4.815
 6659SOL     OW21417   3.085   1.734   4.854
 6659SOL    HW121418   3.164   1.743   4.800
 6659SOL    HW221419   3.085   1.642   4.881
 6660SOL     OW21420   1.938   1.278   4.728
 6660SOL    HW121421   1.917   1.284   4.821
 6660SOL    HW221422   1.881   1.208   4.695
 6661SOL     OW21423   2.544   1.671   5.463
 6661SOL    HW121424   2.497   1.755   5.457
 6661SOL    HW221425   2.625   1.685   5.415
 6662SOL     OW21426   3.549   0.160   4.223
 6662SOL    HW121427   3.586   0.121   4.143
 6662SOL    HW221428   3.542   0.087   4.284
 6663SOL     OW21429   3.250   1.577   4.213
 6663SOL    HW121430   3.310   1.606   4.145
 6663SOL    HW221431   3.206   1.656   4.242
 6664SOL     OW21432   2.005   1.794   5.568
 6664SOL    HW121433   1.955   1.730   5.618
 6664SOL    HW221434   2.055   1.842   5.635
 6665SOL     OW21435   3.140   0.926   4.402
 6665SOL    HW121436   3.213   0.864   4.409
 6665SOL    HW221437   3.172   0.993   4.341
 6666SOL     OW21438   2.655   1.264   5.162
 6666SOL    HW121439   2.621   1.311   5.238
 6666SOL    HW221440   2.620   1.312   5.087
 6667SOL     OW21441   2.529   1.630   3.883
 6667SOL    HW121442   2.553   1.643   3.791
 6667SOL    HW221443   2.476   1.550   3.883
 6668SOL     OW21444   3.477   1.728   5.116
 6668SOL    HW121445   3.531   1.732   5.037
 6668SOL    HW221446   3.461   1.819   5.140
 6669SOL     OW21447   3.723   0.174   4.678
 6669SOL    HW121448   3.716   0.081   4.701
 6669SOL    HW221449   3.637   0.196   4.643
 6670SOL     OW21450   2.125   0.340   4.450
 6670SOL    HW121451   2.037   0.366   4.423
 6670SOL    HW221452   2.123   0.343   4.545
 6671SOL     OW21453   3.069   1.610   3.754
 6671SOL    HW121454   3.046   1.526   3.795
 6671SOL    HW221455   3.006   1.620   3.683
 6672SOL     OW21456   2.690   1.006   5.090
 6672SOL    HW121457   2.735   1.011   5.006
 6672SOL    HW221458   2.678   1.098   5.117
 6673SOL     OW21459   2.771   0.908   4.017
 6673SOL    HW121460   2.825   0.936   3.943
 6673SOL    HW221461   2.825   0.844   4.063
 6674SOL     OW21462   3.349   1.633   3.770
 6674SOL    HW121463   3.256   1.617   3.754
 6674SOL    HW221464   3.388   1.635   3.682
 6675SOL     OW21465   2.220   1.302   5.223
 6675SOL    HW121466   2.222   1.374   5.161
 6675SOL    HW221467   2.143   1.251   5.199
 6676SOL     OW21468   3.493   1.283   5.020
 6676SOL    HW121469   3.527   1.275   5.109
 6676SOL    HW221470   3.424   1.349   5.027
 6677SOL     OW21471   2.923   1.115   4.441
 6677SOL    HW121472   2.852   1.060   4.474
 6677SOL    HW221473   2.989   1.053   4.409
 6678SOL     OW21474   2.892   0.265   4.675
 6678SOL    HW121475   2.871   0.211   4.599
 6678SOL    HW221476   2.898   0.203   4.747
 6679SOL     OW21477   2.460   1.477   4.201
 6679SOL    HW121478   2.518   1.428   4.144
 6679SOL    HW221479   2.411   1.535   4.141
 6680SOL     OW21480   3.591   0.409   5.118
 6680SOL    HW121481   3.662   0.474   5.121
 6680SOL    HW221482   3.620   0.345   5.053
 6681SOL     OW21483   2.117   1.341   3.999
 6681SOL    HW121484   2.023   1.338   3.982
 6681SOL    HW221485   2.124   1.378   4.087
 6682SOL     OW21486   1.977   1.016   5.442
 6682SOL    HW121487   1.902   0.999   5.498
 6682SOL    HW221488   2.052   0.982   5.491
 6683SOL     OW21489   2.519   0.220   5.227
 6683SOL    HW121490   2.590   0.171   5.184
 6683SOL    HW221491   2.538   0.212   5.321
 6684SOL     OW21492   1.936   0.338   3.752
 6684SOL    HW121493   1.852   0.333   3.707
 6684SOL    HW221494   1.981   0.412   3.711
 6685SOL     OW21495   3.285   0.858   5.116
 6685SOL    HW121496   3.232   0.919   5.065
 6685SOL    HW221497   3.372   0.863   5.077
 6686SOL     OW21498   1.903   0.165   4.000
 6686SOL    HW121499   1.917   0.241   3.943
 6686SOL    HW221500   1.985   0.117   3.998
 6687SOL     OW21501   2.996   1.376   3.875
 6687SOL    HW121502   2.938   1.307   3.843
 6687SOL    HW221503   3.083   1.336   3.875
 6688SOL     OW21504   2.482   0.842   5.162
 6688SOL    HW121505   2.536   0.918   5.142
 6688SOL    HW221506   2.543   0.769   5.168
 6689SOL     OW21507   2.578   0.565   5.434
 6689SOL    HW121508   2.616   0.638   5.482
 6689SOL    HW221509   2.649   0.501   5.428
 6690SOL     OW21510   3.342   1.189   5.352
 6690SOL    HW121511   3.327   1.209   5.444
 6690SOL    HW221512   3.430   1.221   5.334
 6691SOL     OW21513   2.233   1.739   5.278
 6691SOL    HW121514   2.145   1.777   5.272
 6691SOL    HW221515   2.219   1.654   5.319
 6692SOL     OW21516   3.523   0.881   4.977
 6692SOL    HW121517   3.518   0.801   4.925
 6692SOL    HW221518   3.511   0.952   4.913
 6693SOL     OW21519   3.079   0.319   4.176
 6693SOL    HW121520   3.147   0.252   4.163
 6693SOL    HW221521   3.109   0.368   4.252
 6694SOL     OW21522   2.441   0.738   4.395
 6694SOL    HW121523   2.485   0.822   4.382
 6694SOL    HW221524   2.380   0.730   4.322
 6695SOL     OW21525   3.618   0.364   5.390
 6695SOL    HW121526   3.616   0.381   5.296
 6695SOL    HW221527   3.536   0.318   5.408
 6696SOL     OW21528   3.616   0.938   5.229
 6696SOL    HW121529   3.604   1.032   5.238
 6696SOL    HW221530   3.594   0.919   5.138
 6697SOL     OW21531   2.681   1.378   3.756
 6697SOL    HW121532   2.694   1.398   3.848
 6697SOL    HW221533   2.733   1.443   3.709
 6698SOL     OW21534   2.529   1.787   4.667
 6698SOL    HW121535   2.523   1.880   4.643
 6698SOL    HW221536   2.623   1.767   4.660
 6699SOL     OW21537   2.728   0.968   4.575
 6699SOL    HW121538   2.783   0.898   4.610
 6699SOL    HW221539   2.695   1.014   4.652
 6700SOL     OW21540   2.916   0.964   3.797
 6700SOL    HW121541   2.925   1.042   3.742
 6700SOL    HW221542   3.002   0.922   3.792
 6701SOL     OW21543   3.711   1.543   4.571
 6701SOL    HW121544   3.636   1.553   4.513
 6701SOL    HW221545   3.675   1.505   4.651
 6702SOL     OW21546   2.091   1.301   5.586
 6702SOL    HW121547   2.015   1.248   5.561
 6702SOL    HW221548   2.081   1.313   5.681
 6703SOL     OW21549   1.954   1.217   4.390
 6703SOL    HW121550   1.990   1.176   4.468
 6703SOL    HW221551   2.016   1.194   4.321
 6704SOL     OW21552   2.538   1.410   5.356
 6704SOL    HW121553   2.461   1.374   5.399
 6704SOL    HW221554   2.545   1.499   5.390
 6705SOL     OW21555   3.689   0.223   4.954
 6705SOL    HW121556   3.630   0.149   4.942
 6705SOL    HW221557   3.716   0.246   4.865
 6706SOL     OW21558   2.277   0.439   4.243
 6706SOL    HW121559   2.308   0.367   4.188
 6706SOL    HW221560   2.239   0.396   4.320
 6707SOL     OW21561   3.587   1.419   4.784
 6707SOL    HW121562   3.497   1.437   4.757
 6707SOL    HW221563   3.580   1.390   4.875
 6708SOL     OW21564   2.208   0.560   5.016
 6708SOL    HW121565   2.269   0.497   5.052
 6708SOL    HW221566   2.214   0.548   4.921
 6709SOL     OW21567   2.684   1.595   4.407
 6709SOL    HW121568   2.685   1.656   4.333
 6709SOL    HW221569   2.618   1.529   4.384
 6710SOL     OW21570   3.277   0.219   4.851
 6710SOL    HW121571   3.348   0.169   4.892
 6710SOL    HW221572   3.236   0.266   4.924
 6711SOL     OW21573   2.904   0.074   4.862
 6711SOL    HW121574   2.848  -0.002   4.848
 6711SOL    HW221575   2.993   0.038   4.865
 6712SOL     OW21576   2.634   1.329   4.051
 6712SOL    HW121577   2.621   1.234   4.062
 6712SOL    HW221578   2.717   1.346   4.095
 6713SOL     OW21579   2.477   1.567   5.007
 6713SOL    HW121580   2.479   1.660   5.031
 6713SOL    HW221581   2.566   1.547   4.980
 6714SOL     OW21582   3.210   7.980   3.848
 6714SOL    HW121583   3.269   7.905   3.858
 6714SOL    HW221584   3.138   7.963   3.908
 6715SOL     OW21585   3.151   0.462   4.398
 6715SOL    HW121586   3.106   0.547   4.401
 6715SOL    HW221587   3.159   0.436   4.490
 6716SOL     OW21588   3.477   0.229   4.595
 6716SOL    HW121589   3.389   0.205   4.623
 6716SOL    HW221590   3.464   0.307   4.540
 6717SOL     OW21591   1.900   1.065   4.030
 6717SOL    HW121592   1.994   1.060   4.014
 6717SOL    HW221593   1.875   0.975   4.051
 6718SOL     OW21594   2.749   1.659   4.066
 6718SOL    HW121595   2.676   1.648   4.004
 6718SOL    HW221596   2.725   1.736   4.117
 6719SOL     OW21597   2.070   0.609   5.714
 6719SOL    HW121598   1.983   0.613   5.752
 6719SOL    HW221599   2.060   0.645   5.626
 6720SOL     OW21600   2.081   0.308   6.572
 6720SOL    HW121601   2.123   0.256   6.641
 6720SOL    HW221602   1.996   0.266   6.559
 6721SOL     OW21603   1.863   0.392   6.220
 6721SOL    HW121604   1.775   0.413   6.253
 6721SOL    HW221605   1.860   0.299   6.199
 6722SOL     OW21606   2.419   1.297   6.763
 6722SOL    HW121607   2.338   1.314   6.716
 6722SOL    HW221608   2.444   1.382   6.799
 6723SOL     OW21609   3.398   1.481   6.282
 6723SOL    HW121610   3.355   1.491   6.367
 6723SOL    HW221611   3.331   1.505   6.218
 6724SOL     OW21612   3.000   0.697   6.281
 6724SOL    HW121613   3.047   0.779   6.264
 6724SOL    HW221614   2.952   0.713   6.363
 6725SOL     OW21615   3.643   0.600   5.810
 6725SOL    HW121616   3.614   0.600   5.719
 6725SOL    HW221617   3.604   0.521   5.847
 6726SOL     OW21618   2.596   1.131   6.634
 6726SOL    HW121619   2.531   1.173   6.690
 6726SOL    HW221620   2.641   1.204   6.591
 6727SOL     OW21621   2.734   0.750   7.412
 6727SOL    HW121622   2.731   0.799   7.494
 6727SOL    HW221623   2.756   0.816   7.346
 6728SOL     OW21624   2.546   0.991   6.233
 6728SOL    HW121625   2.614   0.989   6.300
 6728SOL    HW221626   2.479   1.049   6.268
 6729SOL     OW21627   2.569   1.143   7.391
 6729SOL    HW121628   2.619   1.214   7.431
 6729SOL    HW221629   2.496   1.186   7.347
 6730SOL     OW21630   2.192   1.426   6.647
 6730SOL    HW121631   2.114   1.403   6.595
 6730SOL    HW221632   2.245   1.479   6.589
 6731SOL     OW21633   3.317   1.506   6.952
 6731SOL    HW121634   3.369   1.586   6.962
 6731SOL    HW221635   3.243   1.518   7.012
 6732SOL     OW21636   2.297   0.382   7.076
 6732SOL    HW121637   2.381   0.336   7.079
 6732SOL    HW221638   2.233   0.312   7.066
 6733SOL     OW21639   3.470   0.439   6.317
 6733SOL    HW121640   3.401   0.461   6.254
 6733SOL    HW221641   3.484   0.519   6.367
 6734SOL     OW21642   2.086   1.713   6.049
 6734SOL    HW121643   2.106   1.786   6.108
 6734SOL    HW221644   2.165   1.704   5.995
 6735SOL     OW21645   3.023   1.334   7.272
 6735SOL    HW121646   3.039   1.352   7.365
 6735SOL    HW221647   2.962   1.260   7.273
 6736SOL     OW21648   2.073   1.445   6.124
 6736SOL    HW121649   2.073   1.541   6.117
 6736SOL    HW221650   2.023   1.427   6.204
 6737SOL     OW21651   2.114   1.092   6.468
 6737SOL    HW121652   2.119   1.003   6.502
 6737SOL    HW221653   2.055   1.138   6.528
 6738SOL     OW21654   2.444   1.807   6.979
 6738SOL    HW121655   2.382   1.783   7.048
 6738SOL    HW221656   2.495   1.879   7.017
 6739SOL     OW21657   2.439   0.987   5.729
 6739SOL    HW121658   2.487   1.032   5.660
 6739SOL    HW221659   2.481   1.016   5.810
 6740SOL     OW21660   3.509   0.117   7.077
 6740SOL    HW121661   3.489   0.182   7.010
 6740SOL    HW221662   3.463   0.148   7.155
 6741SOL     OW21663   1.980   0.654   6.144
 6741SOL    HW121664   1.946   0.568   6.166
 6741SOL    HW221665   1.969   0.706   6.224
 6742SOL     OW21666   3.697   1.754   5.928
 6742SOL    HW121667   3.764   1.734   5.993
 6742SOL    HW221668   3.714   1.844   5.902
 6743SOL     OW21669   1.893   1.593   5.709
 6743SOL    HW121670   1.883   1.500   5.730
 6743SOL    HW221671   1.873   1.639   5.790
 6744SOL     OW21672   3.560   0.915   6.224
 6744SOL    HW121673   3.626   0.872   6.170
 6744SOL    HW221674   3.525   0.984   6.169
 6745SOL     OW21675   3.509   1.108   6.021
 6745SOL    HW121676   3.595   1.106   5.978
 6745SOL    HW221677   3.519   1.171   6.092
 6746SOL     OW21678   1.986   0.749   7.175
 6746SOL    HW121679   2.075   0.785   7.172
 6746SOL    HW221680   1.929   0.825   7.163
 6747SOL     OW21681   2.473   1.391   6.322
 6747SOL    HW121682   2.430   1.306   6.327
 6747SOL    HW221683   2.458   1.420   6.232
 6748SOL     OW21684   3.148   1.235   6.999
 6748SOL    HW121685   3.190   1.167   6.946
 6748SOL    HW221686   3.198   1.236   7.081
 6749SOL     OW21687   2.705   0.035   6.152
 6749SOL    HW121688   2.735   0.116   6.111
 6749SOL    HW221689   2.612   0.029   6.130
 6750SOL     OW21690   2.043   0.955   6.873
 6750SOL    HW121691   2.131   0.918   6.859
 6750SOL    HW221692   1.999   0.943   6.789
 6751SOL     OW21693   3.394   1.000   5.789
 6751SOL    HW121694   3.327   0.941   5.824
 6751SOL    HW221695   3.435   1.038   5.867
 6752SOL     OW21696   3.065   1.829   7.225
 6752SOL    HW121697   3.056   1.890   7.152
 6752SOL    HW221698   3.073   1.743   7.184
 6753SOL     OW21699   2.182   0.235   7.396
 6753SOL    HW121700   2.235   0.315   7.394
 6753SOL    HW221701   2.098   0.263   7.431
 6754SOL     OW21702   3.325   1.410   6.553
 6754SOL    HW121703   3.251   1.429   6.611
 6754SOL    HW221704   3.307   1.324   6.517
 6755SOL     OW21705   3.560   1.686   6.186
 6755SOL    HW121706   3.541   1.699   6.093
 6755SOL    HW221707   3.493   1.624   6.216
 6756SOL     OW21708   2.449   0.701   5.846
 6756SOL    HW121709   2.461   0.787   5.807
 6756SOL    HW221710   2.387   0.715   5.917
 6757SOL     OW21711   3.157   0.372   6.523
 6757SOL    HW121712   3.065   0.344   6.521
 6757SOL    HW221713   3.198   0.314   6.587
 6758SOL     OW21714   3.440   1.657   5.895
 6758SOL    HW121715   3.525   1.702   5.893
 6758SOL    HW221716   3.414   1.651   5.804
 6759SOL     OW21717   2.665   0.621   7.041
 6759SOL    HW121718   2.622   0.603   7.124
 6759SOL    HW221719   2.621   0.562   6.979
 6760SOL     OW21720   3.275   0.496   7.264
 6760SOL    HW121721   3.273   0.539   7.349
 6760SOL    HW221722   3.356   0.445   7.264
 6761SOL     OW21723   2.803   0.890   7.171
 6761SOL    HW121724   2.862   0.824   7.135
 6761SOL    HW221725   2.763   0.931   7.094
 6762SOL     OW21726   2.857   0.407   6.817
 6762SOL    HW121727   2.771   0.441   6.842
 6762SOL    HW221728   2.846   0.378   6.727
 6763SOL     OW21729   2.916   0.693   6.012
 6763SOL    HW121730   2.935   0.689   6.105
 6763SOL    HW221731   2.831   0.650   6.002
 6764SOL     OW21732   1.944   0.812   6.363
 6764SOL    HW121733   2.025   0.816   6.413
 6764SOL    HW221734   1.890   0.882   6.399
 6765SOL     OW21735   1.983   1.879   7.173
 6765SOL    HW121736   1.987   1.859   7.267
 6765SOL    HW221737   1.918   1.818   7.138
 6766SOL     OW21738   2.748   0.349   5.775
 6766SOL    HW121739   2.802   0.404   5.718
 6766SOL    HW221740   2.772   0.259   5.752
 6767SOL     OW21741   3.567   0.570   7.416
 6767SOL    HW121742   3.532   0.646   7.369
 6767SOL    HW221743   3.597   0.512   7.347
 6768SOL     OW21744   3.239   1.139   6.119
 6768SOL    HW121745   3.321   1.136   6.069
 6768SOL    HW221746   3.188   1.208   6.075
 6769SOL     OW21747   2.388   0.221   6.518
 6769SOL    HW121748   2.391   0.280   6.594
 6769SOL    HW221749   2.418   0.276   6.445
 6770SOL     OW21750   2.857   1.441   6.052
 6770SOL    HW121751   2.828   1.516   6.001
 6770SOL    HW221752   2.838   1.465   6.143
 6771SOL     OW21753   2.218   1.818   6.464
 6771SOL    HW121754   2.266   1.736   6.468
 6771SOL    HW221755   2.285   1.886   6.475
 6772SOL     OW21756   3.663   1.090   6.482
 6772SOL    HW121757   3.629   1.089   6.392
 6772SOL    HW221758   3.587   1.069   6.537
 6773SOL     OW21759   3.080   1.546   7.094
 6773SOL    HW121760   3.060   1.475   7.154
 6773SOL    HW221761   2.995   1.577   7.064
 6774SOL     OW21762   2.180   0.971   5.842
 6774SOL    HW121763   2.267   0.989   5.807
 6774SOL    HW221764   2.149   0.896   5.791
 6775SOL     OW21765   3.350   0.753   6.305
 6775SOL    HW121766   3.347   0.718   6.394
 6775SOL    HW221767   3.427   0.810   6.304
 6776SOL     OW21768   2.326   1.271   7.329
 6776SOL    HW121769   2.303   1.276   7.236
 6776SOL    HW221770   2.241   1.273   7.374
 6777SOL     OW21771   2.973   1.773   5.811
 6777SOL    HW121772   2.899   1.730   5.853
 6777SOL    HW221773   3.003   1.711   5.745
 6778SOL     OW21774   2.037   0.247   7.085
 6778SOL    HW121775   1.988   0.325   7.057
 6778SOL    HW221776   2.046   0.258   7.179
 6779SOL     OW21777   3.495   1.372   5.681
 6779SOL    HW121778   3.461   1.460   5.667
 6779SOL    HW221779   3.423   1.314   5.654
 6780SOL     OW21780   2.331   1.726   5.911
 6780SOL    HW121781   2.373   1.790   5.969
 6780SOL    HW221782   2.399   1.703   5.847
 6781SOL     OW21783   3.296   0.099   6.022
 6781SOL    HW121784   3.274   0.067   5.934
 6781SOL    HW221785   3.383   0.137   6.012
 6782SOL     OW21786   2.113   1.789   6.814
 6782SOL    HW121787   2.180   1.731   6.849
 6782SOL    HW221788   2.112   1.772   6.720
 6783SOL     OW21789   2.800   1.700   6.486
 6783SOL    HW121790   2.885   1.660   6.506
 6783SOL    HW221791   2.765   1.647   6.414
 6784SOL     OW21792   2.259   0.687   6.056
 6784SOL    HW121793   2.275   0.596   6.082
 6784SOL    HW221794   2.166   0.701   6.072
 6785SOL     OW21795   3.401   0.223   7.313
 6785SOL    HW121796   3.408   0.246   7.405
 6785SOL    HW221797   3.309   0.197   7.302
 6786SOL     OW21798   2.438   0.132   5.707
 6786SOL    HW121799   2.522   0.099   5.740
 6786SOL    HW221800   2.438   0.107   5.614
 6787SOL     OW21801   2.595   0.303   7.367
 6787SOL    HW121802   2.678   0.306   7.320
 6787SOL    HW221803   2.620   0.310   7.459
 6788SOL     OW21804   2.725   1.505   6.774
 6788SOL    HW121805   2.713   1.471   6.686
 6788SOL    HW221806   2.804   1.460   6.806
 6789SOL     OW21807   3.202   0.590   7.015
 6789SOL    HW121808   3.237   0.569   7.102
 6789SOL    HW221809   3.232   0.680   6.999
 6790SOL     OW21810   2.682   1.374   6.527
 6790SOL    HW121811   2.769   1.371   6.488
 6790SOL    HW221812   2.623   1.392   6.453
 6791SOL     OW21813   2.786   0.513   6.481
 6791SOL    HW121814   2.758   0.510   6.390
 6791SOL    HW221815   2.825   0.427   6.497
 6792SOL     OW21816   2.453   0.029   6.021
 6792SOL    HW121817   2.381  -0.023   6.057
 6792SOL    HW221818   2.418   0.118   6.017
 6793SOL     OW21819   3.287   1.199   5.622
 6793SOL    HW121820   3.314   1.127   5.678
 6793SOL    HW221821   3.205   1.231   5.660
 6794SOL     OW21822   2.172   0.086   5.775
 6794SOL    HW121823   2.267   0.077   5.782
 6794SOL    HW221824   2.139  -0.004   5.782
 6795SOL     OW21825   2.809   0.265   6.044
 6795SOL    HW121826   2.778   0.293   5.958
 6795SOL    HW221827   2.904   0.278   6.041
 6796SOL     OW21828   2.945   0.692   7.047
 6796SOL    HW121829   2.876   0.626   7.052
 6796SOL    HW221830   3.026   0.641   7.039
 6797SOL     OW21831   3.087   1.579   6.381
 6797SOL    HW121832   3.098   1.641   6.309
 6797SOL    HW221833   3.129   1.621   6.456
 6798SOL     OW21834   2.333   1.150   6.311
 6798SOL    HW121835   2.264   1.134   6.376
 6798SOL    HW221836   2.288   1.141   6.227
 6799SOL     OW21837   3.128   1.796   6.201
 6799SOL    HW121838   3.182   1.852   6.146
 6799SOL    HW221839   3.066   1.856   6.243
 6800SOL     OW21840   2.885   0.532   5.612
 6800SOL    HW121841   2.843   0.616   5.591
 6800SOL    HW221842   2.948   0.554   5.680
 6801SOL     OW21843   1.960   0.548   6.995
 6801SOL    HW121844   2.049   0.554   6.958
 6801SOL    HW221845   1.953   0.622   7.055
 6802SOL     OW21846   2.440   0.230   6.795
 6802SOL    HW121847   2.474   0.165   6.857
 6802SOL    HW221848   2.345   0.222   6.802
 6803SOL     OW21849   2.726   0.471   6.219
 6803SOL    HW121850   2.690   0.524   6.147
 6803SOL    HW221851   2.746   0.387   6.179
 6804SOL     OW21852   2.864   8.021   6.367
 6804SOL    HW121853   2.814   8.035   6.286
 6804SOL    HW221854   2.831   7.937   6.401
 6805SOL     OW21855   3.309   1.157   6.445
 6805SOL    HW121856   3.228   1.110   6.426
 6805SOL    HW221857   3.347   1.175   6.359
 6806SOL     OW21858   3.325   0.610   6.546
 6806SOL    HW121859   3.269   0.533   6.548
 6806SOL    HW221860   3.380   0.601   6.624
 6807SOL     OW21861   3.698   0.804   5.985
 6807SOL    HW121862   3.765   0.756   6.033
 6807SOL    HW221863   3.677   0.747   5.911
 6808SOL     OW21864   2.349   1.420   5.733
 6808SOL    HW121865   2.275   1.392   5.787
 6808SOL    HW221866   2.348   1.361   5.658
 6809SOL     OW21867   3.538   1.247   6.253
 6809SOL    HW121868   3.632   1.262   6.254
 6809SOL    HW221869   3.499   1.334   6.260
 6810SOL     OW21870   3.257   0.574   5.658
 6810SOL    HW121871   3.195   0.556   5.729
 6810SOL    HW221872   3.343   0.564   5.699
 6811SOL     OW21873   2.378   0.284   5.922
 6811SOL    HW121874   2.418   0.230   5.855
 6811SOL    HW221875   2.356   0.366   5.878
 6812SOL     OW21876   3.612   1.248   7.132
 6812SOL    HW121877   3.699   1.216   7.110
 6812SOL    HW221878   3.627   1.336   7.167
 6813SOL     OW21879   2.921   1.338   6.894
 6813SOL    HW121880   2.846   1.322   6.952
 6813SOL    HW221881   2.997   1.312   6.945
 6814SOL     OW21882   3.481   1.622   7.240
 6814SOL    HW121883   3.467   1.668   7.157
 6814SOL    HW221884   3.566   1.580   7.230
 6815SOL     OW21885   2.981   1.179   6.678
 6815SOL    HW121886   2.950   1.233   6.750
 6815SOL    HW221887   2.969   1.233   6.600
 6816SOL     OW21888   3.476   1.113   6.677
 6816SOL    HW121889   3.462   1.170   6.753
 6816SOL    HW221890   3.399   1.126   6.622
 6817SOL     OW21891   2.792   0.124   6.987
 6817SOL    HW121892   2.796   0.118   6.891
 6817SOL    HW221893   2.883   0.125   7.015
 6818SOL     OW21894   2.849   1.116   7.313
 6818SOL    HW121895   2.759   1.141   7.331
 6818SOL    HW221896   2.841   1.039   7.257
 6819SOL     OW21897   2.571   1.057   5.960
 6819SOL    HW121898   2.558   1.038   6.053
 6819SOL    HW221899   2.647   1.004   5.936
 6820SOL     OW21900   2.283   0.824   6.843
 6820SOL    HW121901   2.354   0.833   6.906
 6820SOL    HW221902   2.251   0.734   6.855
 6821SOL     OW21903   3.129   0.377   6.861
 6821SOL    HW121904   3.161   0.456   6.904
 6821SOL    HW221905   3.038   0.397   6.838
 6822SOL     OW21906   1.944   1.576   6.943
 6822SOL    HW121907   1.922   1.647   6.883
 6822SOL    HW221908   2.039   1.568   6.937
 6823SOL     OW21909   2.192   1.125   6.075
 6823SOL    HW121910   2.201   1.203   6.020
 6823SOL    HW221911   2.193   1.052   6.014
 6824SOL     OW21912   2.413   0.526   6.441
 6824SOL    HW121913   2.422   0.585   6.366
 6824SOL    HW221914   2.479   0.556   6.503
 6825SOL     OW21915   3.108   1.350   5.981
 6825SOL    HW121916   3.162   1.425   6.005
 6825SOL    HW221917   3.020   1.373   6.012
 6826SOL     OW21918   3.141   1.461   6.749
 6826SOL    HW121919   3.204   1.472   6.821
 6826SOL    HW221920   3.064   1.423   6.791
 6827SOL     OW21921   3.442   0.622   6.075
 6827SOL    HW121922   3.393   0.671   6.141
 6827SOL    HW221923   3.485   0.689   6.022
 6828SOL     OW21924   2.209   1.519   6.899
 6828SOL    HW121925   2.198   1.482   6.811
 6828SOL    HW221926   2.303   1.535   6.906
 6829SOL     OW21927   2.289   0.746   7.197
 6829SOL    HW121928   2.343   0.795   7.135
 6829SOL    HW221929   2.344   0.672   7.222
 6830SOL     OW21930   3.469   0.774   7.267
 6830SOL    HW121931   3.384   0.817   7.263
 6830SOL    HW221932   3.523   0.819   7.202
 6831SOL     OW21933   2.914   0.088   7.349
 6831SOL    HW121934   2.926   0.174   7.307
 6831SOL    HW221935   2.822   0.067   7.332
 6832SOL     OW21936   2.368   0.034   7.330
 6832SOL    HW121937   2.343  -0.028   7.261
 6832SOL    HW221938   2.295   0.096   7.334
 6833SOL     OW21939   2.451   0.876   6.621
 6833SOL    HW121940   2.489   0.964   6.618
 6833SOL    HW221941   2.391   0.879   6.696
 6834SOL     OW21942   3.207   0.854   6.603
 6834SOL    HW121943   3.122   0.850   6.560
 6834SOL    HW221944   3.247   0.768   6.586
 6835SOL     OW21945   3.057   0.524   5.843
 6835SOL    HW121946   3.068   0.447   5.899
 6835SOL    HW221947   3.020   0.591   5.901
 6836SOL     OW21948   2.171   0.197   6.818
 6836SOL    HW121949   2.098   0.203   6.879
 6836SOL    HW221950   2.159   0.113   6.773
 6837SOL     OW21951   1.864   1.322   6.877
 6837SOL    HW121952   1.912   1.261   6.933
 6837SOL    HW221953   1.899   1.408   6.901
 6838SOL     OW21954   2.575   0.628   6.636
 6838SOL    HW121955   2.655   0.621   6.584
 6838SOL    HW221956   2.546   0.718   6.624
 6839SOL     OW21957   3.607   0.951   7.440
 6839SOL    HW121958   3.550   0.894   7.389
 6839SOL    HW221959   3.553   0.978   7.515
 6840SOL     OW21960   2.281   0.091   6.259
 6840SOL    HW121961   2.218   0.160   6.281
 6840SOL    HW221962   2.226   0.015   6.238
 6841SOL     OW21963   3.481   0.395   5.934
 6841SOL    HW121964   3.512   0.328   5.996
 6841SOL    HW221965   3.459   0.470   5.990
 6842SOL     OW21966   2.894   0.757   6.540
 6842SOL    HW121967   2.885   0.772   6.634
 6842SOL    HW221968   2.861   0.668   6.527
 6843SOL     OW21969   3.723   1.500   7.180
 6843SOL    HW121970   3.735   1.528   7.089
 6843SOL    HW221971   3.799   1.536   7.226
 6844SOL     OW21972   2.208   0.906   7.411
 6844SOL    HW121973   2.288   0.945   7.447
 6844SOL    HW221974   2.239   0.850   7.340
 6845SOL     OW21975   3.383   0.258   5.718
 6845SOL    HW121976   3.415   0.172   5.745
 6845SOL    HW221977   3.417   0.318   5.784
 6846SOL     OW21978   3.149   0.826   5.611
 6846SOL    HW121979   3.194   0.742   5.614
 6846SOL    HW221980   3.180   0.868   5.531
 6847SOL     OW21981   2.941   1.344   6.446
 6847SOL    HW121982   2.946   1.275   6.381
 6847SOL    HW221983   2.997   1.414   6.412
 6848SOL     OW21984   2.171   0.816   6.529
 6848SOL    HW121985   2.264   0.838   6.521
 6848SOL    HW221986   2.171   0.727   6.564
 6849SOL     OW21987   2.202   0.542   6.605
 6849SOL    HW121988   2.158   0.458   6.588
 6849SOL    HW221989   2.276   0.543   6.545
 6850SOL     OW21990   3.036   0.369   7.298
 6850SOL    HW121991   2.969   0.427   7.335
 6850SOL    HW221992   3.110   0.426   7.280
 6851SOL     OW21993   3.043   0.216   7.067
 6851SOL    HW121994   3.035   0.274   7.143
 6851SOL    HW221995   3.068   0.274   6.995
 6852SOL     OW21996   1.865   1.319   5.781
 6852SOL    HW121997   1.778   1.335   5.746
 6852SOL    HW221998   1.861   1.230   5.815
 6853SOL     OW21999   1.953   1.787   6.532
 6853SOL    HW122000   1.925   1.701   6.502
 6853SOL    HW222001   2.041   1.798   6.497
 6854SOL     OW22002   2.357   1.576   6.493
 6854SOL    HW122003   2.426   1.639   6.513
 6854SOL    HW222004   2.398   1.514   6.433
 6855SOL     OW22005   2.839   0.775   6.805
 6855SOL    HW122006   2.898   0.762   6.879
 6855SOL    HW222007   2.752   0.781   6.844
 6856SOL     OW22008   1.896   0.545   6.708
 6856SOL    HW122009   1.969   0.537   6.647
 6856SOL    HW222010   1.938   0.547   6.794
 6857SOL     OW22011   2.067   0.522   7.308
 6857SOL    HW122012   2.141   0.508   7.250
 6857SOL    HW222013   2.021   0.597   7.269
 6858SOL     OW22014   3.246   0.927   7.239
 6858SOL    HW122015   3.268   1.020   7.239
 6858SOL    HW222016   3.237   0.905   7.146
 6859SOL     OW22017   2.676   0.566   5.953
 6859SOL    HW122018   2.685   0.495   5.890
 6859SOL    HW222019   2.603   0.619   5.920
 6860SOL     OW22020   3.498   0.596   6.757
 6860SOL    HW122021   3.489   0.550   6.841
 6860SOL    HW222022   3.587   0.576   6.728
 6861SOL     OW22023   2.087   1.549   7.305
 6861SOL    HW122024   2.090   1.614   7.375
 6861SOL    HW222025   2.104   1.466   7.349
 6862SOL     OW22026   2.579   0.458   6.848
 6862SOL    HW122027   2.526   0.381   6.828
 6862SOL    HW222028   2.566   0.516   6.772
 6863SOL     OW22029   2.845   1.664   7.001
 6863SOL    HW122030   2.791   1.642   6.925
 6863SOL    HW222031   2.815   1.751   7.028
 6864SOL     OW22032   2.303   0.476   5.740
 6864SOL    HW122033   2.370   0.542   5.758
 6864SOL    HW222034   2.221   0.525   5.739
 6865SOL     OW22035   1.986   1.143   7.058
 6865SOL    HW122036   2.000   1.102   7.143
 6865SOL    HW222037   2.007   1.075   6.995
 6866SOL     OW22038   3.185   1.037   6.800
 6866SOL    HW122039   3.203   0.975   6.729
 6866SOL    HW222040   3.114   1.091   6.767
 6867SOL     OW22041   3.185   0.845   5.887
 6867SOL    HW122042   3.105   0.832   5.937
 6867SOL    HW222043   3.157   0.842   5.795
 6868SOL     OW22044   3.632   1.737   6.741
 6868SOL    HW122045   3.694   1.772   6.678
 6868SOL    HW222046   3.612   1.649   6.708
 6869SOL     OW22047   3.096   1.721   6.657
 6869SOL    HW122048   3.182   1.757   6.638
 6869SOL    HW222049   3.114   1.637   6.699
 6870SOL     OW22050   1.941   1.240   6.617
 6870SOL    HW122051   1.914   1.262   6.706
 6870SOL    HW222052   1.910   1.313   6.563
 6871SOL     OW22053   2.527   1.667   7.278
 6871SOL    HW122054   2.500   1.757   7.298
 6871SOL    HW222055   2.613   1.658   7.319
 6872SOL     OW22056   3.586   0.171   6.073
 6872SOL    HW122057   3.642   0.173   5.995
 6872SOL    HW222058   3.581   0.078   6.096
 6873SOL     OW22059   3.247   1.573   6.069
 6873SOL    HW122060   3.311   1.603   6.005
 6873SOL    HW222061   3.202   1.653   6.096
 6874SOL     OW22062   1.997   1.805   7.432
 6874SOL    HW122063   1.951   1.734   7.477
 6874SOL    HW222064   2.052   1.844   7.500
 6875SOL     OW22065   3.141   0.926   6.250
 6875SOL    HW122066   3.218   0.870   6.262
 6875SOL    HW222067   3.172   1.000   6.197
 6876SOL     OW22068   2.671   1.275   7.009
 6876SOL    HW122069   2.642   1.313   7.091
 6876SOL    HW222070   2.617   1.317   6.942
 6877SOL     OW22071   2.532   1.619   5.743
 6877SOL    HW122072   2.545   1.640   5.650
 6877SOL    HW222073   2.474   1.543   5.742
 6878SOL     OW22074   3.476   1.727   6.974
 6878SOL    HW122075   3.532   1.739   6.897
 6878SOL    HW222076   3.459   1.817   7.005
 6879SOL     OW22077   3.716   0.179   6.540
 6879SOL    HW122078   3.716   0.086   6.563
 6879SOL    HW222079   3.629   0.194   6.502
 6880SOL     OW22080   2.111   0.300   6.301
 6880SOL    HW122081   2.033   0.349   6.275
 6880SOL    HW222082   2.115   0.310   6.396
 6881SOL     OW22083   3.071   1.604   5.617
 6881SOL    HW122084   3.061   1.510   5.634
 6881SOL    HW222085   3.012   1.621   5.543
 6882SOL     OW22086   2.690   1.011   6.948
 6882SOL    HW122087   2.728   1.019   6.860
 6882SOL    HW222088   2.682   1.101   6.979
 6883SOL     OW22089   2.776   0.902   5.882
 6883SOL    HW122090   2.831   0.936   5.812
 6883SOL    HW222091   2.831   0.838   5.927
 6884SOL     OW22092   3.357   1.610   5.628
 6884SOL    HW122093   3.262   1.616   5.614
 6884SOL    HW222094   3.394   1.622   5.540
 6885SOL     OW22095   2.218   1.303   7.085
 6885SOL    HW122096   2.222   1.376   7.024
 6885SOL    HW222097   2.141   1.253   7.058
 6886SOL     OW22098   3.468   1.287   6.891
 6886SOL    HW122099   3.517   1.271   6.971
 6886SOL    HW222100   3.403   1.354   6.915
 6887SOL     OW22101   2.929   1.113   6.301
 6887SOL    HW122102   2.855   1.065   6.337
 6887SOL    HW222103   2.989   1.045   6.270
 6888SOL     OW22104   2.902   0.259   6.527
 6888SOL    HW122105   2.888   0.204   6.450
 6888SOL    HW222106   2.901   0.198   6.601
 6889SOL     OW22107   2.462   1.487   6.068
 6889SOL    HW122108   2.514   1.437   6.006
 6889SOL    HW222109   2.407   1.543   6.013
 6890SOL     OW22110   3.586   0.414   6.972
 6890SOL    HW122111   3.657   0.478   6.976
 6890SOL    HW222112   3.618   0.347   6.912
 6891SOL     OW22113   2.119   1.343   5.879
 6891SOL    HW122114   2.026   1.340   5.855
 6891SOL    HW222115   2.120   1.384   5.966
 6892SOL     OW22116   1.981   1.040   7.319
 6892SOL    HW122117   1.904   1.008   7.366
 6892SOL    HW222118   2.054   0.991   7.357
 6893SOL     OW22119   2.520   0.213   7.092
 6893SOL    HW122120   2.596   0.165   7.061
 6893SOL    HW222121   2.538   0.228   7.185
 6894SOL     OW22122   1.985   0.313   5.608
 6894SOL    HW122123   1.904   0.274   5.573
 6894SOL    HW222124   1.997   0.392   5.556
 6895SOL     OW22125   3.285   0.851   6.975
 6895SOL    HW122126   3.235   0.914   6.923
 6895SOL    HW222127   3.375   0.861   6.944
 6896SOL     OW22128   1.924   0.201   5.879
 6896SOL    HW122129   1.928   0.260   5.804
 6896SOL    HW222130   2.008   0.154   5.878
 6897SOL     OW22131   3.046   1.328   5.706
 6897SOL    HW122132   2.952   1.308   5.708
 6897SOL    HW222133   3.070   1.336   5.799
 6898SOL     OW22134   2.487   0.835   7.020
 6898SOL    HW122135   2.539   0.914   7.003
 6898SOL    HW222136   2.553   0.767   7.033
 6899SOL     OW22137   3.356   1.781   6.560
 6899SOL    HW122138   3.362   1.850   6.493
 6899SOL    HW222139   3.425   1.803   6.622
 6900SOL     OW22140   2.558   0.579   7.284
 6900SOL    HW122141   2.612   0.639   7.335
 6900SOL    HW222142   2.573   0.493   7.324
 6901SOL     OW22143   3.340   1.183   7.212
 6901SOL    HW122144   3.321   1.209   7.303
 6901SOL    HW222145   3.429   1.217   7.197
 6902SOL     OW22146   2.235   1.754   7.153
 6902SOL    HW122147   2.147   1.792   7.142
 6902SOL    HW222148   2.218   1.665   7.184
 6903SOL     OW22149   3.528   0.884   6.837
 6903SOL    HW122150   3.515   0.804   6.785
 6903SOL    HW222151   3.512   0.955   6.775
 6904SOL     OW22152   3.085   0.315   6.038
 6904SOL    HW122153   3.149   0.244   6.034
 6904SOL    HW222154   3.111   0.366   6.114
 6905SOL     OW22155   2.445   0.731   6.259
 6905SOL    HW122156   2.487   0.817   6.250
 6905SOL    HW222157   2.383   0.727   6.187
 6906SOL     OW22158   3.619   0.372   7.238
 6906SOL    HW122159   3.608   0.389   7.144
 6906SOL    HW222160   3.551   0.309   7.259
 6907SOL     OW22161   3.611   0.929   7.096
 6907SOL    HW122162   3.602   1.023   7.116
 6907SOL    HW222163   3.592   0.922   7.003
 6908SOL     OW22164   2.723   1.365   5.629
 6908SOL    HW122165   2.687   1.407   5.708
 6908SOL    HW222166   2.746   1.438   5.572
 6909SOL     OW22167   2.527   1.782   6.522
 6909SOL    HW122168   2.511   1.874   6.503
 6909SOL    HW222169   2.623   1.773   6.519
 6910SOL     OW22170   2.733   0.972   6.439
 6910SOL    HW122171   2.787   0.903   6.478
 6910SOL    HW222172   2.695   1.018   6.514
 6911SOL     OW22173   2.928   0.973   5.674
 6911SOL    HW122174   2.910   1.035   5.603
 6911SOL    HW222175   3.008   0.928   5.646
 6912SOL     OW22176   3.693   1.478   6.432
 6912SOL    HW122177   3.677   1.517   6.346
 6912SOL    HW222178   3.659   1.542   6.494
 6913SOL     OW22179   2.080   1.297   7.437
 6913SOL    HW122180   2.025   1.227   7.402
 6913SOL    HW222181   2.056   1.303   7.529
 6914SOL     OW22182   1.953   1.189   6.248
 6914SOL    HW122183   1.997   1.162   6.329
 6914SOL    HW222184   2.020   1.182   6.180
 6915SOL     OW22185   2.540   1.402   7.207
 6915SOL    HW122186   2.463   1.375   7.258
 6915SOL    HW222187   2.545   1.497   7.221
 6916SOL     OW22188   3.685   0.223   6.817
 6916SOL    HW122189   3.623   0.151   6.807
 6916SOL    HW222190   3.713   0.243   6.728
 6917SOL     OW22191   2.294   0.430   6.135
 6917SOL    HW122192   2.316   0.367   6.066
 6917SOL    HW222193   2.232   0.384   6.191
 6918SOL     OW22194   3.554   1.474   6.682
 6918SOL    HW122195   3.470   1.469   6.636
 6918SOL    HW222196   3.533   1.449   6.772
 6919SOL     OW22197   2.202   0.562   6.881
 6919SOL    HW122198   2.255   0.500   6.930
 6919SOL    HW222199   2.218   0.541   6.789
 6920SOL     OW22200   2.698   1.586   6.256
 6920SOL    HW122201   2.689   1.662   6.199
 6920SOL    HW222202   2.618   1.535   6.242
 6921SOL     OW22203   3.297   0.214   6.703
 6921SOL    HW122204   3.353   0.157   6.755
 6921SOL    HW222205   3.246   0.263   6.767
 6922SOL     OW22206   2.863   0.068   6.715
 6922SOL    HW122207   2.777   0.060   6.674
 6922SOL    HW222208   2.880  -0.019   6.752
 6923SOL     OW22209   2.631   1.332   5.918
 6923SOL    HW122210   2.612   1.238   5.924
 6923SOL    HW222211   2.715   1.343   5.961
 6924SOL     OW22212   2.478   1.555   6.871
 6924SOL    HW122213   2.477   1.643   6.909
 6924SOL    HW222214   2.566   1.545   6.836
 6925SOL     OW22215   3.238   7.995   5.774
 6925SOL    HW122216   3.264   7.907   5.746
 6925SOL    HW222217   3.151   8.007   5.736
 6926SOL     OW22218   3.156   0.461   6.259
 6926SOL    HW122219   3.107   0.543   6.261
 6926SOL    HW222220   3.159   0.433   6.351
 6927SOL     OW22221   3.451   0.201   6.456
 6927SOL    HW122222   3.399   0.229   6.531
 6927SOL    HW222223   3.454   0.277   6.398
 6928SOL     OW22224   1.901   1.068   5.894
 6928SOL    HW122225   1.996   1.066   5.883
 6928SOL    HW222226   1.877   0.977   5.912
 6929SOL     OW22227   2.745   1.655   5.924
 6929SOL    HW122228   2.672   1.645   5.863
 6929SOL    HW222229   2.722   1.730   5.978
 6930SOL     OW22230   2.073   0.614   7.577
 6930SOL    HW122231   1.980   0.621   7.599
 6930SOL    HW222232   2.075   0.603   7.482
 6931SOL     OW22233   2.101   0.290   8.413
 6931SOL    HW122234   2.126   0.252   8.497
 6931SOL    HW222235   2.012   0.257   8.397
 6932SOL     OW22236   1.878   0.380   8.073
 6932SOL    HW122237   1.794   0.398   8.115
 6932SOL    HW222238   1.855   0.324   7.998
 6933SOL     OW22239   2.426   1.296   8.634
 6933SOL    HW122240   2.345   1.310   8.585
 6933SOL    HW222241   2.447   1.382   8.670
 6934SOL     OW22242   3.440   1.528   8.147
 6934SOL    HW122243   3.388   1.514   8.226
 6934SOL    HW222244   3.375   1.535   8.076
 6935SOL     OW22245   3.000   0.702   8.167
 6935SOL    HW122246   3.056   0.776   8.143
 6935SOL    HW222247   2.943   0.737   8.235
 6936SOL     OW22248   3.665   0.588   7.665
 6936SOL    HW122249   3.628   0.593   7.577
 6936SOL    HW222250   3.610   0.525   7.711
 6937SOL     OW22251   2.613   1.141   8.512
 6937SOL    HW122252   2.542   1.181   8.562
 6937SOL    HW222253   2.650   1.213   8.460
 6938SOL     OW22254   2.726   0.780   9.287
 6938SOL    HW122255   2.763   0.825   9.363
 6938SOL    HW222256   2.662   0.842   9.252
 6939SOL     OW22257   2.534   0.984   8.098
 6939SOL    HW122258   2.603   0.986   8.165
 6939SOL    HW222259   2.470   1.048   8.129
 6940SOL     OW22260   2.577   1.148   9.267
 6940SOL    HW122261   2.625   1.224   9.301
 6940SOL    HW222262   2.497   1.184   9.229
 6941SOL     OW22263   2.198   1.413   8.513
 6941SOL    HW122264   2.123   1.378   8.464
 6941SOL    HW222265   2.243   1.469   8.450
 6942SOL     OW22266   2.302   0.392   8.927
 6942SOL    HW122267   2.385   0.344   8.933
 6942SOL    HW222268   2.235   0.324   8.933
 6943SOL     OW22269   3.452   0.456   8.176
 6943SOL    HW122270   3.373   0.465   8.123
 6943SOL    HW222271   3.468   0.544   8.211
 6944SOL     OW22272   2.087   1.710   7.914
 6944SOL    HW122273   2.105   1.785   7.971
 6944SOL    HW222274   2.164   1.703   7.858
 6945SOL     OW22275   3.001   1.338   9.137
 6945SOL    HW122276   3.052   1.339   9.218
 6945SOL    HW222277   2.964   1.250   9.134
 6946SOL     OW22278   2.082   1.445   7.984
 6946SOL    HW122279   2.083   1.539   7.969
 6946SOL    HW222280   2.030   1.433   8.064
 6947SOL     OW22281   2.119   1.093   8.330
 6947SOL    HW122282   2.117   1.006   8.369
 6947SOL    HW222283   2.065   1.147   8.389
 6948SOL     OW22284   2.470   1.781   8.885
 6948SOL    HW122285   2.385   1.771   8.927
 6948SOL    HW222286   2.495   1.872   8.903
 6949SOL     OW22287   2.424   1.017   7.586
 6949SOL    HW122288   2.474   1.050   7.512
 6949SOL    HW222289   2.478   1.035   7.663
 6950SOL     OW22290   3.434   0.163   8.900
 6950SOL    HW122291   3.491   0.225   8.854
 6950SOL    HW222292   3.435   0.193   8.991
 6951SOL     OW22293   1.978   0.650   8.012
 6951SOL    HW122294   1.943   0.564   8.034
 6951SOL    HW222295   1.967   0.701   8.093
 6952SOL     OW22296   1.892   1.596   7.570
 6952SOL    HW122297   1.884   1.503   7.590
 6952SOL    HW222298   1.873   1.640   7.653
 6953SOL     OW22299   3.553   0.885   8.092
 6953SOL    HW122300   3.639   0.858   8.060
 6953SOL    HW222301   3.527   0.957   8.036
 6954SOL     OW22302   1.982   0.751   9.034
 6954SOL    HW122303   2.070   0.788   9.037
 6954SOL    HW222304   1.924   0.828   9.030
 6955SOL     OW22305   2.468   1.389   8.190
 6955SOL    HW122306   2.424   1.304   8.189
 6955SOL    HW222307   2.461   1.421   8.100
 6956SOL     OW22308   3.155   1.237   8.871
 6956SOL    HW122309   3.180   1.170   8.807
 6956SOL    HW222310   3.217   1.227   8.943
 6957SOL     OW22311   2.676   0.060   8.044
 6957SOL    HW122312   2.727   0.117   7.986
 6957SOL    HW222313   2.606   0.025   7.989
 6958SOL     OW22314   2.039   0.957   8.735
 6958SOL    HW122315   2.126   0.921   8.716
 6958SOL    HW222316   1.986   0.933   8.659
 6959SOL     OW22317   3.392   0.985   7.640
 6959SOL    HW122318   3.320   0.935   7.679
 6959SOL    HW222319   3.434   1.028   7.714
 6960SOL     OW22320   3.036   1.823   9.070
 6960SOL    HW122321   3.040   1.902   9.015
 6960SOL    HW222322   3.080   1.756   9.018
 6961SOL     OW22323   2.165   0.234   9.220
 6961SOL    HW122324   2.239   0.287   9.249
 6961SOL    HW222325   2.093   0.258   9.278
 6962SOL     OW22326   3.303   1.434   8.378
 6962SOL    HW122327   3.265   1.432   8.466
 6962SOL    HW222328   3.306   1.342   8.351
 6963SOL     OW22329   3.576   1.730   7.969
 6963SOL    HW122330   3.525   1.705   7.893
 6963SOL    HW222331   3.544   1.675   8.040
 6964SOL     OW22332   2.405   0.751   7.735
 6964SOL    HW122333   2.501   0.751   7.734
 6964SOL    HW222334   2.382   0.840   7.709
 6965SOL     OW22335   3.160   0.372   8.396
 6965SOL    HW122336   3.078   0.323   8.389
 6965SOL    HW222337   3.214   0.319   8.455
 6966SOL     OW22338   3.422   1.691   7.741
 6966SOL    HW122339   3.396   1.782   7.728
 6966SOL    HW222340   3.403   1.648   7.658
 6967SOL     OW22341   2.641   0.661   8.909
 6967SOL    HW122342   2.626   0.621   8.995
 6967SOL    HW222343   2.638   0.588   8.847
 6968SOL     OW22344   3.269   0.490   9.127
 6968SOL    HW122345   3.281   0.532   9.212
 6968SOL    HW222346   3.317   0.407   9.134
 6969SOL     OW22347   2.839   0.363   8.636
 6969SOL    HW122348   2.767   0.397   8.689
 6969SOL    HW222349   2.837   0.417   8.556
 6970SOL     OW22350   2.923   0.625   7.905
 6970SOL    HW122351   2.938   0.668   7.989
 6970SOL    HW222352   2.861   0.682   7.859
 6971SOL     OW22353   1.945   0.812   8.230
 6971SOL    HW122354   2.027   0.814   8.279
 6971SOL    HW222355   1.897   0.889   8.262
 6972SOL     OW22356   1.977   1.846   9.025
 6972SOL    HW122357   1.982   1.825   9.118
 6972SOL    HW222358   1.890   1.885   9.013
 6973SOL     OW22359   2.742   0.345   7.633
 6973SOL    HW122360   2.791   0.413   7.587
 6973SOL    HW222361   2.790   0.264   7.614
 6974SOL     OW22362   3.552   0.567   9.279
 6974SOL    HW122363   3.522   0.644   9.231
 6974SOL    HW222364   3.594   0.512   9.213
 6975SOL     OW22365   3.211   1.148   8.001
 6975SOL    HW122366   3.301   1.139   7.967
 6975SOL    HW222367   3.170   1.212   7.943
 6976SOL     OW22368   2.438   0.214   8.367
 6976SOL    HW122369   2.407   0.269   8.439
 6976SOL    HW222370   2.434   0.271   8.290
 6977SOL     OW22371   2.860   1.447   7.926
 6977SOL    HW122372   2.831   1.518   7.868
 6977SOL    HW222373   2.830   1.474   8.013
 6978SOL     OW22374   2.215   1.819   8.328
 6978SOL    HW122375   2.267   1.739   8.330
 6978SOL    HW222376   2.280   1.889   8.338
 6979SOL     OW22377   3.670   1.041   8.338
 6979SOL    HW122378   3.639   1.081   8.257
 6979SOL    HW222379   3.594   1.042   8.397
 6980SOL     OW22380   3.123   1.555   8.892
 6980SOL    HW122381   3.128   1.491   8.963
 6980SOL    HW222382   3.029   1.572   8.882
 6981SOL     OW22383   2.182   0.959   7.705
 6981SOL    HW122384   2.259   0.997   7.663
 6981SOL    HW222385   2.151   0.893   7.643
 6982SOL     OW22386   3.352   0.732   8.173
 6982SOL    HW122387   3.353   0.714   8.267
 6982SOL    HW222388   3.427   0.790   8.159
 6983SOL     OW22389   2.331   1.261   9.186
 6983SOL    HW122390   2.306   1.267   9.094
 6983SOL    HW222391   2.248   1.261   9.234
 6984SOL     OW22392   2.990   1.755   7.695
 6984SOL    HW122393   2.902   1.730   7.721
 6984SOL    HW222394   3.005   1.709   7.612
 6985SOL     OW22395   2.047   0.260   8.947
 6985SOL    HW122396   1.989   0.334   8.928
 6985SOL    HW222397   2.064   0.267   9.041
 6986SOL     OW22398   3.496   1.385   7.529
 6986SOL    HW122399   3.449   1.465   7.508
 6986SOL    HW222400   3.432   1.315   7.517
 6987SOL     OW22401   2.325   1.727   7.779
 6987SOL    HW122402   2.371   1.791   7.832
 6987SOL    HW222403   2.390   1.696   7.716
 6988SOL     OW22404   3.281   0.118   7.864
 6988SOL    HW122405   3.277   0.092   7.772
 6988SOL    HW222406   3.375   0.127   7.883
 6989SOL     OW22407   2.110   1.785   8.673
 6989SOL    HW122408   2.166   1.718   8.711
 6989SOL    HW222409   2.114   1.770   8.579
 6990SOL     OW22410   2.821   1.686   8.344
 6990SOL    HW122411   2.908   1.653   8.327
 6990SOL    HW222412   2.765   1.645   8.278
 6991SOL     OW22413   2.252   0.644   7.943
 6991SOL    HW122414   2.283   0.690   7.865
 6991SOL    HW222415   2.159   0.667   7.948
 6992SOL     OW22416   3.384   0.240   9.173
 6992SOL    HW122417   3.392   0.259   9.267
 6992SOL    HW222418   3.355   0.149   9.169
 6993SOL     OW22419   2.453   0.094   7.580
 6993SOL    HW122420   2.549   0.092   7.577
 6993SOL    HW222421   2.426   0.077   7.490
 6994SOL     OW22422   2.615   0.280   9.211
 6994SOL    HW122423   2.704   0.246   9.220
 6994SOL    HW222424   2.576   0.269   9.297
 6995SOL     OW22425   2.729   1.507   8.644
 6995SOL    HW122426   2.717   1.484   8.552
 6995SOL    HW222427   2.810   1.464   8.669
 6996SOL     OW22428   3.206   0.596   8.881
 6996SOL    HW122429   3.247   0.567   8.962
 6996SOL    HW222430   3.245   0.682   8.863
 6997SOL     OW22431   2.680   1.380   8.389
 6997SOL    HW122432   2.766   1.379   8.346
 6997SOL    HW222433   2.618   1.395   8.318
 6998SOL     OW22434   2.795   0.501   8.358
 6998SOL    HW122435   2.762   0.510   8.269
 6998SOL    HW222436   2.827   0.410   8.362
 6999SOL     OW22437   2.429   0.037   7.911
 6999SOL    HW122438   2.361   0.039   7.978
 6999SOL    HW222439   2.408   0.111   7.854
 7000SOL     OW22440   3.294   1.201   7.485
 7000SOL    HW122441   3.316   1.125   7.539
 7000SOL    HW222442   3.208   1.228   7.515
 7001SOL     OW22443   2.149   0.062   7.646
 7001SOL    HW122444   2.178   0.115   7.572
 7001SOL    HW222445   2.184  -0.026   7.627
 7002SOL     OW22446   2.810   0.263   7.913
 7002SOL    HW122447   2.775   0.286   7.827
 7002SOL    HW222448   2.905   0.277   7.905
 7003SOL     OW22449   2.944   0.646   8.926
 7003SOL    HW122450   2.901   0.564   8.952
 7003SOL    HW222451   3.036   0.623   8.918
 7004SOL     OW22452   3.076   1.602   8.265
 7004SOL    HW122453   3.089   1.663   8.192
 7004SOL    HW222454   3.165   1.575   8.289
 7005SOL     OW22455   2.329   1.151   8.171
 7005SOL    HW122456   2.259   1.134   8.234
 7005SOL    HW222457   2.288   1.142   8.085
 7006SOL     OW22458   3.123   1.800   8.071
 7006SOL    HW122459   3.180   1.851   8.013
 7006SOL    HW222460   3.055   1.862   8.099
 7007SOL     OW22461   2.883   0.527   7.478
 7007SOL    HW122462   2.836   0.607   7.455
 7007SOL    HW222463   2.947   0.554   7.544
 7008SOL     OW22464   1.959   0.551   8.852
 7008SOL    HW122465   2.048   0.559   8.818
 7008SOL    HW222466   1.950   0.624   8.913
 7009SOL     OW22467   2.428   0.249   8.661
 7009SOL    HW122468   2.463   0.202   8.737
 7009SOL    HW222469   2.334   0.233   8.664
 7010SOL     OW22470   2.709   0.440   8.096
 7010SOL    HW122471   2.684   0.512   8.038
 7010SOL    HW222472   2.756   0.379   8.039
 7011SOL     OW22473   2.820   8.000   8.263
 7011SOL    HW122474   2.771   8.019   8.184
 7011SOL    HW222475   2.858   7.913   8.249
 7012SOL     OW22476   3.308   1.164   8.305
 7012SOL    HW122477   3.244   1.133   8.241
 7012SOL    HW222478   3.385   1.187   8.253
 7013SOL     OW22479   3.322   0.617   8.427
 7013SOL    HW122480   3.277   0.533   8.422
 7013SOL    HW222481   3.388   0.605   8.495
 7014SOL     OW22482   3.712   0.793   7.847
 7014SOL    HW122483   3.780   0.745   7.895
 7014SOL    HW222484   3.698   0.741   7.768
 7015SOL     OW22485   2.351   1.418   7.589
 7015SOL    HW122486   2.276   1.383   7.638
 7015SOL    HW222487   2.358   1.363   7.512
 7016SOL     OW22488   3.524   1.261   8.177
 7016SOL    HW122489   3.547   1.220   8.094
 7016SOL    HW222490   3.507   1.353   8.154
 7017SOL     OW22491   3.260   0.580   7.521
 7017SOL    HW122492   3.196   0.554   7.586
 7017SOL    HW222493   3.341   0.594   7.571
 7018SOL     OW22494   2.374   0.268   7.770
 7018SOL    HW122495   2.397   0.207   7.699
 7018SOL    HW222496   2.353   0.349   7.725
 7019SOL     OW22497   3.614   1.247   9.029
 7019SOL    HW122498   3.697   1.210   8.998
 7019SOL    HW222499   3.633   1.338   9.048
 7020SOL     OW22500   2.917   1.347   8.781
 7020SOL    HW122501   2.842   1.330   8.838
 7020SOL    HW222502   2.992   1.308   8.828
 7021SOL     OW22503   3.465   1.617   9.094
 7021SOL    HW122504   3.466   1.674   9.017
 7021SOL    HW222505   3.551   1.576   9.094
 7022SOL     OW22506   2.994   1.211   8.545
 7022SOL    HW122507   2.932   1.252   8.605
 7022SOL    HW222508   2.968   1.243   8.459
 7023SOL     OW22509   3.465   1.075   8.519
 7023SOL    HW122510   3.457   1.133   8.594
 7023SOL    HW222511   3.400   1.107   8.456
 7024SOL     OW22512   2.777   0.103   8.843
 7024SOL    HW122513   2.744   0.031   8.897
 7024SOL    HW222514   2.857   0.132   8.888
 7025SOL     OW22515   2.818   1.102   9.127
 7025SOL    HW122516   2.746   1.111   9.190
 7025SOL    HW222517   2.792   1.158   9.054
 7026SOL     OW22518   2.571   1.050   7.822
 7026SOL    HW122519   2.556   1.033   7.915
 7026SOL    HW222520   2.629   0.979   7.794
 7027SOL     OW22521   2.276   0.826   8.698
 7027SOL    HW122522   2.340   0.842   8.767
 7027SOL    HW222523   2.247   0.736   8.713
 7028SOL     OW22524   3.120   0.369   8.748
 7028SOL    HW122525   3.160   0.448   8.785
 7028SOL    HW222526   3.040   0.399   8.706
 7029SOL     OW22527   1.938   1.568   8.799
 7029SOL    HW122528   1.914   1.650   8.755
 7029SOL    HW222529   2.034   1.567   8.797
 7030SOL     OW22530   2.199   1.122   7.933
 7030SOL    HW122531   2.207   1.199   7.877
 7030SOL    HW222532   2.198   1.048   7.871
 7031SOL     OW22533   2.417   0.537   8.322
 7031SOL    HW122534   2.425   0.596   8.247
 7031SOL    HW222535   2.486   0.565   8.382
 7032SOL     OW22536   3.103   1.353   7.845
 7032SOL    HW122537   3.163   1.424   7.869
 7032SOL    HW222538   3.017   1.383   7.873
 7033SOL     OW22539   3.163   1.423   8.623
 7033SOL    HW122540   3.127   1.415   8.711
 7033SOL    HW222541   3.119   1.356   8.572
 7034SOL     OW22542   3.453   0.634   7.923
 7034SOL    HW122543   3.397   0.675   7.988
 7034SOL    HW222544   3.504   0.706   7.886
 7035SOL     OW22545   2.209   1.522   8.758
 7035SOL    HW122546   2.199   1.480   8.673
 7035SOL    HW222547   2.303   1.538   8.766
 7036SOL     OW22548   2.287   0.739   9.062
 7036SOL    HW122549   2.336   0.792   8.999
 7036SOL    HW222550   2.342   0.662   9.076
 7037SOL     OW22551   3.464   0.783   9.141
 7037SOL    HW122552   3.379   0.826   9.132
 7037SOL    HW222553   3.518   0.824   9.073
 7038SOL     OW22554   2.865   0.151   9.216
 7038SOL    HW122555   2.942   0.184   9.263
 7038SOL    HW222556   2.900   0.123   9.131
 7039SOL     OW22557   2.317  -0.010   9.205
 7039SOL    HW122558   2.335  -0.041   9.116
 7039SOL    HW222559   2.279   0.077   9.192
 7040SOL     OW22560   2.449   0.873   8.484
 7040SOL    HW122561   2.478   0.964   8.472
 7040SOL    HW222562   2.384   0.878   8.554
 7041SOL     OW22563   3.172   0.843   8.473
 7041SOL    HW122564   3.175   0.885   8.387
 7041SOL    HW222565   3.229   0.767   8.464
 7042SOL     OW22566   3.067   0.510   7.704
 7042SOL    HW122567   3.077   0.430   7.755
 7042SOL    HW222568   3.025   0.572   7.763
 7043SOL     OW22569   2.160   0.199   8.676
 7043SOL    HW122570   2.103   0.219   8.750
 7043SOL    HW222571   2.138   0.109   8.652
 7044SOL     OW22572   1.885   1.310   8.729
 7044SOL    HW122573   1.931   1.259   8.795
 7044SOL    HW222574   1.903   1.401   8.752
 7045SOL     OW22575   2.595   0.647   8.509
 7045SOL    HW122576   2.665   0.646   8.443
 7045SOL    HW222577   2.550   0.730   8.494
 7046SOL     OW22578   3.604   0.955   9.315
 7046SOL    HW122579   3.559   0.892   9.258
 7046SOL    HW222580   3.540   0.975   9.383
 7047SOL     OW22581   2.246   0.064   8.112
 7047SOL    HW122582   2.251   0.159   8.124
 7047SOL    HW222583   2.152   0.046   8.108
 7048SOL     OW22584   3.496   0.398   7.800
 7048SOL    HW122585   3.495   0.328   7.864
 7048SOL    HW222586   3.469   0.476   7.848
 7049SOL     OW22587   2.864   0.767   8.410
 7049SOL    HW122588   2.933   0.790   8.472
 7049SOL    HW222589   2.870   0.672   8.402
 7050SOL     OW22590   2.845   1.560   9.167
 7050SOL    HW122591   2.831   1.608   9.085
 7050SOL    HW222592   2.894   1.482   9.140
 7051SOL     OW22593   3.714   1.504   9.045
 7051SOL    HW122594   3.735   1.535   8.957
 7051SOL    HW222595   3.794   1.520   9.096
 7052SOL     OW22596   2.211   0.910   9.266
 7052SOL    HW122597   2.291   0.936   9.311
 7052SOL    HW222598   2.240   0.847   9.199
 7053SOL     OW22599   3.440   0.240   7.584
 7053SOL    HW122600   3.345   0.250   7.576
 7053SOL    HW222601   3.464   0.301   7.654
 7054SOL     OW22602   3.137   0.822   7.465
 7054SOL    HW122603   3.185   0.739   7.470
 7054SOL    HW222604   3.172   0.864   7.386
 7055SOL     OW22605   2.941   1.348   8.313
 7055SOL    HW122606   2.940   1.275   8.251
 7055SOL    HW222607   2.992   1.416   8.269
 7056SOL     OW22608   2.169   0.814   8.391
 7056SOL    HW122609   2.261   0.833   8.373
 7056SOL    HW222610   2.170   0.726   8.429
 7057SOL     OW22611   2.191   0.536   8.465
 7057SOL    HW122612   2.153   0.451   8.441
 7057SOL    HW222613   2.270   0.542   8.412
 7058SOL     OW22614   3.005   0.421   9.115
 7058SOL    HW122615   2.967   0.453   9.197
 7058SOL    HW222616   3.097   0.449   9.118
 7059SOL     OW22617   3.000   0.212   8.945
 7059SOL    HW122618   3.016   0.277   9.013
 7059SOL    HW222619   3.056   0.239   8.872
 7060SOL     OW22620   1.865   1.322   7.650
 7060SOL    HW122621   1.778   1.340   7.614
 7060SOL    HW222622   1.859   1.232   7.682
 7061SOL     OW22623   1.952   1.780   8.390
 7061SOL    HW122624   1.925   1.703   8.340
 7061SOL    HW222625   2.041   1.798   8.361
 7062SOL     OW22626   2.356   1.577   8.357
 7062SOL    HW122627   2.425   1.640   8.377
 7062SOL    HW222628   2.395   1.515   8.296
 7063SOL     OW22629   2.831   0.777   8.704
 7063SOL    HW122630   2.880   0.699   8.733
 7063SOL    HW222631   2.761   0.742   8.649
 7064SOL     OW22632   1.901   0.547   8.569
 7064SOL    HW122633   1.979   0.553   8.514
 7064SOL    HW222634   1.935   0.546   8.659
 7065SOL     OW22635   2.050   0.527   9.176
 7065SOL    HW122636   2.135   0.520   9.132
 7065SOL    HW222637   2.007   0.601   9.135
 7066SOL     OW22638   3.235   0.936   9.098
 7066SOL    HW122639   3.266   1.026   9.099
 7066SOL    HW222640   3.245   0.908   9.007
 7067SOL     OW22641   2.599   0.505   7.836
 7067SOL    HW122642   2.636   0.454   7.764
 7067SOL    HW222643   2.628   0.595   7.820
 7068SOL     OW22644   3.512   0.592   8.620
 7068SOL    HW122645   3.507   0.542   8.702
 7068SOL    HW222646   3.599   0.574   8.586
 7069SOL     OW22647   2.102   1.547   9.168
 7069SOL    HW122648   2.081   1.620   9.226
 7069SOL    HW222649   2.106   1.471   9.226
 7070SOL     OW22650   2.592   0.466   8.709
 7070SOL    HW122651   2.529   0.396   8.694
 7070SOL    HW222652   2.578   0.527   8.637
 7071SOL     OW22653   2.811   1.666   8.906
 7071SOL    HW122654   2.766   1.636   8.827
 7071SOL    HW222655   2.804   1.762   8.902
 7072SOL     OW22656   2.298   0.506   7.684
 7072SOL    HW122657   2.354   0.583   7.687
 7072SOL    HW222658   2.217   0.536   7.645
 7073SOL     OW22659   1.996   1.145   8.925
 7073SOL    HW122660   2.000   1.099   9.009
 7073SOL    HW222661   2.013   1.076   8.860
 7074SOL     OW22662   3.159   1.034   8.670
 7074SOL    HW122663   3.176   0.967   8.604
 7074SOL    HW222664   3.103   1.098   8.627
 7075SOL     OW22665   3.159   0.847   7.737
 7075SOL    HW122666   3.080   0.889   7.771
 7075SOL    HW222667   3.144   0.839   7.643
 7076SOL     OW22668   3.639   1.743   8.603
 7076SOL    HW122669   3.703   1.773   8.538
 7076SOL    HW222670   3.615   1.655   8.573
 7077SOL     OW22671   3.140   1.720   8.587
 7077SOL    HW122672   3.202   1.768   8.532
 7077SOL    HW222673   3.105   1.652   8.530
 7078SOL     OW22674   1.950   1.255   8.467
 7078SOL    HW122675   1.923   1.276   8.557
 7078SOL    HW222676   1.876   1.207   8.430
 7079SOL     OW22677   2.536   1.674   9.189
 7079SOL    HW122678   2.472   1.746   9.192
 7079SOL    HW222679   2.598   1.701   9.122
 7080SOL     OW22680   3.553   0.144   7.922
 7080SOL    HW122681   3.634   0.152   7.871
 7080SOL    HW222682   3.579   0.095   8.001
 7081SOL     OW22683   3.256   1.575   7.939
 7081SOL    HW122684   3.308   1.605   7.865
 7081SOL    HW222685   3.198   1.649   7.960
 7082SOL     OW22686   2.009   1.784   9.288
 7082SOL    HW122687   1.957   1.722   9.339
 7082SOL    HW222688   2.052   1.839   9.354
 7083SOL     OW22689   3.154   0.921   8.132
 7083SOL    HW122690   3.231   0.865   8.122
 7083SOL    HW222691   3.173   0.997   8.077
 7084SOL     OW22692   2.670   1.281   8.891
 7084SOL    HW122693   2.632   1.326   8.966
 7084SOL    HW222694   2.624   1.316   8.815
 7085SOL     OW22695   2.523   1.628   7.627
 7085SOL    HW122696   2.593   1.634   7.562
 7085SOL    HW222697   2.473   1.550   7.601
 7086SOL     OW22698   3.468   1.739   8.822
 7086SOL    HW122699   3.540   1.743   8.760
 7086SOL    HW222700   3.462   1.828   8.858
 7087SOL     OW22701   2.152   0.341   8.130
 7087SOL    HW122702   2.062   0.359   8.102
 7087SOL    HW222703   2.147   0.333   8.225
 7088SOL     OW22704   3.087   1.598   7.480
 7088SOL    HW122705   3.071   1.508   7.510
 7088SOL    HW222706   3.006   1.623   7.436
 7089SOL     OW22707   2.698   1.017   8.832
 7089SOL    HW122708   2.708   1.016   8.737
 7089SOL    HW222709   2.683   1.110   8.854
 7090SOL     OW22710   3.361   1.618   7.484
 7090SOL    HW122711   3.266   1.616   7.473
 7090SOL    HW222712   3.395   1.630   7.396
 7091SOL     OW22713   2.229   1.301   8.941
 7091SOL    HW122714   2.223   1.378   8.885
 7091SOL    HW222715   2.149   1.252   8.925
 7092SOL     OW22716   3.466   1.232   8.740
 7092SOL    HW122717   3.560   1.248   8.747
 7092SOL    HW222718   3.425   1.304   8.789
 7093SOL     OW22719   2.918   1.122   8.171
 7093SOL    HW122720   2.846   1.062   8.189
 7093SOL    HW222721   2.973   1.076   8.107
 7094SOL     OW22722   2.906   0.246   8.342
 7094SOL    HW122723   2.919   0.285   8.256
 7094SOL    HW222724   2.877   0.156   8.324
 7095SOL     OW22725   2.468   1.488   7.937
 7095SOL    HW122726   2.521   1.436   7.877
 7095SOL    HW222727   2.416   1.546   7.881
 7096SOL     OW22728   3.584   0.418   8.839
 7096SOL    HW122729   3.655   0.481   8.847
 7096SOL    HW222730   3.618   0.351   8.780
 7097SOL     OW22731   2.122   1.333   7.741
 7097SOL    HW122732   2.030   1.338   7.715
 7097SOL    HW222733   2.125   1.379   7.826
 7098SOL     OW22734   1.978   1.031   9.175
 7098SOL    HW122735   1.902   1.005   9.226
 7098SOL    HW222736   2.052   0.988   9.219
 7099SOL     OW22737   2.517   0.220   8.953
 7099SOL    HW122738   2.565   0.139   8.939
 7099SOL    HW222739   2.545   0.250   9.040
 7100SOL     OW22740   1.940   0.337   7.481
 7100SOL    HW122741   1.853   0.316   7.446
 7100SOL    HW222742   1.969   0.412   7.430
 7101SOL     OW22743   3.286   0.861   8.842
 7101SOL    HW122744   3.239   0.922   8.786
 7101SOL    HW222745   3.376   0.862   8.809
 7102SOL     OW22746   1.962   0.227   7.765
 7102SOL    HW122747   1.939   0.273   7.685
 7102SOL    HW222748   2.027   0.162   7.738
 7103SOL     OW22749   3.049   1.333   7.568
 7103SOL    HW122750   2.973   1.275   7.564
 7103SOL    HW222751   3.072   1.336   7.661
 7104SOL     OW22752   2.465   0.858   8.888
 7104SOL    HW122753   2.522   0.934   8.872
 7104SOL    HW222754   2.526   0.784   8.889
 7105SOL     OW22755   3.358   1.784   8.433
 7105SOL    HW122756   3.349   1.852   8.366
 7105SOL    HW222757   3.448   1.794   8.465
 7106SOL     OW22758   2.575   0.566   9.155
 7106SOL    HW122759   2.625   0.613   9.222
 7106SOL    HW222760   2.595   0.474   9.170
 7107SOL     OW22761   3.341   1.192   9.074
 7107SOL    HW122762   3.331   1.208   9.168
 7107SOL    HW222763   3.434   1.209   9.057
 7108SOL     OW22764   2.229   1.739   9.007
 7108SOL    HW122765   2.146   1.783   8.991
 7108SOL    HW222766   2.205   1.656   9.048
 7109SOL     OW22767   3.522   0.872   8.700
 7109SOL    HW122768   3.529   0.789   8.653
 7109SOL    HW222769   3.512   0.938   8.630
 7110SOL     OW22770   3.080   0.303   7.905
 7110SOL    HW122771   3.151   0.240   7.896
 7110SOL    HW222772   3.107   0.361   7.976
 7111SOL     OW22773   2.446   0.722   8.127
 7111SOL    HW122774   2.486   0.807   8.111
 7111SOL    HW222775   2.384   0.710   8.055
 7112SOL     OW22776   3.618   0.359   9.106
 7112SOL    HW122777   3.607   0.383   9.014
 7112SOL    HW222778   3.535   0.317   9.130
 7113SOL     OW22779   3.593   0.933   8.960
 7113SOL    HW122780   3.609   1.027   8.971
 7113SOL    HW222781   3.586   0.920   8.866
 7114SOL     OW22782   2.707   1.341   7.506
 7114SOL    HW122783   2.678   1.364   7.594
 7114SOL    HW222784   2.738   1.424   7.469
 7115SOL     OW22785   2.529   1.783   8.389
 7115SOL    HW122786   2.502   1.872   8.368
 7115SOL    HW222787   2.624   1.784   8.383
 7116SOL     OW22788   2.715   0.974   8.306
 7116SOL    HW122789   2.767   0.903   8.342
 7116SOL    HW222790   2.689   1.026   8.382
 7117SOL     OW22791   2.981   1.040   7.539
 7117SOL    HW122792   2.934   1.069   7.462
 7117SOL    HW222793   3.028   0.962   7.511
 7118SOL     OW22794   3.687   1.533   8.323
 7118SOL    HW122795   3.628   1.531   8.248
 7118SOL    HW222796   3.735   1.450   8.318
 7119SOL     OW22797   2.090   1.298   9.305
 7119SOL    HW122798   2.025   1.240   9.264
 7119SOL    HW222799   2.056   1.311   9.394
 7120SOL     OW22800   1.946   1.213   8.115
 7120SOL    HW122801   1.991   1.171   8.188
 7120SOL    HW222802   2.008   1.208   8.042
 7121SOL     OW22803   2.547   1.410   9.091
 7121SOL    HW122804   2.463   1.374   9.119
 7121SOL    HW222805   2.545   1.501   9.121
 7122SOL     OW22806   3.691   0.221   8.701
 7122SOL    HW122807   3.738   0.149   8.744
 7122SOL    HW222808   3.711   0.210   8.608
 7123SOL     OW22809   3.482   1.501   8.600
 7123SOL    HW122810   3.465   1.489   8.507
 7123SOL    HW222811   3.559   1.448   8.617
 7124SOL     OW22812   2.202   0.566   8.741
 7124SOL    HW122813   2.252   0.504   8.794
 7124SOL    HW222814   2.215   0.537   8.651
 7125SOL     OW22815   2.692   1.594   8.118
 7125SOL    HW122816   2.698   1.669   8.058
 7125SOL    HW222817   2.617   1.545   8.087
 7126SOL     OW22818   3.290   0.223   8.580
 7126SOL    HW122819   3.354   0.161   8.615
 7126SOL    HW222820   3.251   0.263   8.657
 7127SOL     OW22821   2.630   1.325   7.787
 7127SOL    HW122822   2.613   1.231   7.789
 7127SOL    HW222823   2.720   1.333   7.819
 7128SOL     OW22824   2.481   1.549   8.744
 7128SOL    HW122825   2.483   1.632   8.792
 7128SOL    HW222826   2.566   1.546   8.700
 7129SOL     OW22827   3.205   7.976   7.594
 7129SOL    HW122828   3.257   7.896   7.593
 7129SOL    HW222829   3.124   7.952   7.638
 7130SOL     OW22830   3.148   0.455   8.128
 7130SOL    HW122831   3.105   0.540   8.124
 7130SOL    HW222832   3.161   0.439   8.222
 7131SOL     OW22833   3.522   0.228   8.319
 7131SOL    HW122834   3.449   0.181   8.360
 7131SOL    HW222835   3.480   0.305   8.278
 7132SOL     OW22836   1.898   1.068   7.764
 7132SOL    HW122837   1.992   1.068   7.747
 7132SOL    HW222838   1.876   0.976   7.781
 7133SOL     OW22839   2.741   1.659   7.809
 7133SOL    HW122840   2.682   1.649   7.735
 7133SOL    HW222841   2.717   1.743   7.848
 7134SOL     OW22842   2.074   0.625   9.443
 7134SOL    HW122843   1.985   0.625   9.479
 7134SOL    HW222844   2.062   0.606   9.350
 7135SOL     OW22845   2.059   0.326  10.310
 7135SOL    HW122846   2.118   0.268  10.356
 7135SOL    HW222847   1.983   0.272  10.288
 7136SOL     OW22848   1.871   0.380   9.956
 7136SOL    HW122849   1.802   0.361  10.020
 7136SOL    HW222850   1.890   0.295   9.916
 7137SOL     OW22851   2.441   1.296  10.492
 7137SOL    HW122852   2.357   1.297  10.447
 7137SOL    HW222853   2.451   1.385  10.527
 7138SOL     OW22854   3.435   1.515  10.016
 7138SOL    HW122855   3.388   1.497  10.097
 7138SOL    HW222856   3.367   1.523   9.949
 7139SOL     OW22857   2.951   0.746   9.983
 7139SOL    HW122858   3.039   0.709   9.985
 7139SOL    HW222859   2.912   0.719  10.065
 7140SOL     OW22860   3.656   0.596   9.526
 7140SOL    HW122861   3.619   0.590   9.438
 7140SOL    HW222862   3.612   0.528   9.576
 7141SOL     OW22863   2.650   1.154  10.375
 7141SOL    HW122864   2.578   1.182  10.431
 7141SOL    HW222865   2.666   1.229  10.318
 7142SOL     OW22866   2.748   0.764  11.142
 7142SOL    HW122867   2.688   0.827  11.182
 7142SOL    HW222868   2.771   0.803  11.057
 7143SOL     OW22869   2.546   1.003   9.952
 7143SOL    HW122870   2.609   0.989  10.022
 7143SOL    HW222871   2.477   1.056   9.991
 7144SOL     OW22872   2.574   1.153  11.130
 7144SOL    HW122873   2.615   1.238  11.143
 7144SOL    HW222874   2.490   1.172  11.088
 7145SOL     OW22875   2.199   1.425  10.361
 7145SOL    HW122876   2.128   1.411  10.299
 7145SOL    HW222877   2.262   1.480  10.315
 7146SOL     OW22878   3.317   1.505  10.664
 7146SOL    HW122879   3.376   1.580  10.671
 7146SOL    HW222880   3.249   1.522  10.729
 7147SOL     OW22881   2.304   0.389  10.791
 7147SOL    HW122882   2.390   0.348  10.795
 7147SOL    HW222883   2.243   0.316  10.792
 7148SOL     OW22884   3.478   0.461  10.044
 7148SOL    HW122885   3.391   0.460  10.005
 7148SOL    HW222886   3.470   0.520  10.119
 7149SOL     OW22887   2.087   1.712   9.776
 7149SOL    HW122888   2.105   1.788   9.831
 7149SOL    HW222889   2.161   1.708   9.715
 7150SOL     OW22890   3.004   1.337  10.991
 7150SOL    HW122891   3.089   1.294  10.989
 7150SOL    HW222892   2.941   1.266  11.005
 7151SOL     OW22893   2.093   1.449   9.850
 7151SOL    HW122894   2.084   1.543   9.837
 7151SOL    HW222895   2.031   1.428   9.920
 7152SOL     OW22896   2.118   1.075  10.220
 7152SOL    HW122897   2.138   0.982  10.214
 7152SOL    HW222898   2.108   1.092  10.313
 7153SOL     OW22899   2.464   1.784  10.743
 7153SOL    HW122900   2.380   1.772  10.787
 7153SOL    HW222901   2.489   1.874  10.764
 7154SOL     OW22902   2.438   0.989   9.451
 7154SOL    HW122903   2.485   1.037   9.383
 7154SOL    HW222904   2.477   1.018   9.533
 7155SOL     OW22905   3.533   0.123  10.797
 7155SOL    HW122906   3.457   0.089  10.749
 7155SOL    HW222907   3.495   0.164  10.875
 7156SOL     OW22908   1.978   0.651   9.869
 7156SOL    HW122909   1.950   0.561   9.889
 7156SOL    HW222910   1.973   0.697   9.952
 7157SOL     OW22911   3.704   1.756   9.644
 7157SOL    HW122912   3.780   1.734   9.699
 7157SOL    HW222913   3.720   1.846   9.617
 7158SOL     OW22914   1.900   1.587   9.434
 7158SOL    HW122915   1.880   1.496   9.458
 7158SOL    HW222916   1.874   1.638   9.511
 7159SOL     OW22917   3.576   0.936   9.961
 7159SOL    HW122918   3.642   0.875   9.927
 7159SOL    HW222919   3.538   0.975   9.882
 7160SOL     OW22920   3.511   1.108   9.740
 7160SOL    HW122921   3.598   1.106   9.701
 7160SOL    HW222922   3.519   1.168   9.814
 7161SOL     OW22923   1.988   0.752  10.891
 7161SOL    HW122924   2.078   0.782  10.903
 7161SOL    HW222925   1.935   0.830  10.903
 7162SOL     OW22926   2.470   1.389  10.049
 7162SOL    HW122927   2.424   1.305  10.052
 7162SOL    HW222928   2.460   1.419   9.958
 7163SOL     OW22929   3.154   1.226  10.732
 7163SOL    HW122930   3.203   1.189  10.659
 7163SOL    HW222931   3.217   1.226  10.805
 7164SOL     OW22932   2.698   0.014   9.852
 7164SOL    HW122933   2.735   0.099   9.829
 7164SOL    HW222934   2.604   0.027   9.848
 7165SOL     OW22935   2.043   0.969  10.554
 7165SOL    HW122936   2.129   0.928  10.552
 7165SOL    HW222937   1.981   0.896  10.542
 7166SOL     OW22938   3.387   1.004   9.512
 7166SOL    HW122939   3.319   0.948   9.549
 7166SOL    HW222940   3.435   1.036   9.589
 7167SOL     OW22941   3.041   1.813  10.942
 7167SOL    HW122942   3.046   1.885  10.879
 7167SOL    HW222943   3.074   1.737  10.894
 7168SOL     OW22944   2.171   0.248  11.083
 7168SOL    HW122945   2.240   0.306  11.115
 7168SOL    HW222946   2.096   0.267  11.140
 7169SOL     OW22947   3.324   1.419  10.259
 7169SOL    HW122948   3.256   1.428  10.326
 7169SOL    HW222949   3.314   1.330  10.226
 7170SOL     OW22950   3.520   1.758   9.889
 7170SOL    HW122951   3.506   1.730   9.799
 7170SOL    HW222952   3.499   1.681   9.942
 7171SOL     OW22953   2.457   0.718   9.581
 7171SOL    HW122954   2.461   0.804   9.539
 7171SOL    HW222955   2.392   0.729   9.651
 7172SOL     OW22956   3.126   0.412  10.287
 7172SOL    HW122957   3.129   0.416  10.191
 7172SOL    HW222958   3.167   0.328  10.309
 7173SOL     OW22959   3.443   1.665   9.621
 7173SOL    HW122960   3.533   1.696   9.612
 7173SOL    HW222961   3.413   1.653   9.531
 7174SOL     OW22962   2.621   0.642  10.758
 7174SOL    HW122963   2.619   0.604  10.846
 7174SOL    HW222964   2.617   0.567  10.699
 7175SOL     OW22965   3.267   0.486  10.988
 7175SOL    HW122966   3.273   0.528  11.074
 7175SOL    HW222967   3.335   0.418  10.990
 7176SOL     OW22968   2.814   0.880  10.899
 7176SOL    HW122969   2.858   0.804  10.861
 7176SOL    HW222970   2.757   0.912  10.828
 7177SOL     OW22971   2.866   0.432  10.522
 7177SOL    HW122972   2.774   0.435  10.550
 7177SOL    HW222973   2.864   0.385  10.439
 7178SOL     OW22974   2.911   0.707   9.718
 7178SOL    HW122975   2.924   0.723   9.811
 7178SOL    HW222976   2.831   0.655   9.713
 7179SOL     OW22977   1.954   0.810  10.089
 7179SOL    HW122978   2.036   0.802  10.138
 7179SOL    HW222979   1.911   0.886  10.127
 7180SOL     OW22980   1.976   1.869  10.897
 7180SOL    HW122981   1.982   1.843  10.989
 7180SOL    HW222982   1.887   1.843  10.871
 7181SOL     OW22983   2.751   0.347   9.506
 7181SOL    HW122984   2.803   0.400   9.446
 7181SOL    HW222985   2.771   0.256   9.481
 7182SOL     OW22986   3.564   0.576  11.142
 7182SOL    HW122987   3.531   0.650  11.091
 7182SOL    HW222988   3.593   0.512  11.077
 7183SOL     OW22989   3.240   1.148   9.830
 7183SOL    HW122990   3.322   1.134   9.784
 7183SOL    HW222991   3.193   1.212   9.777
 7184SOL     OW22992   2.332   0.234  10.237
 7184SOL    HW122993   2.387   0.247  10.315
 7184SOL    HW222994   2.389   0.253  10.163
 7185SOL     OW22995   2.858   1.447   9.778
 7185SOL    HW122996   2.830   1.519   9.721
 7185SOL    HW222997   2.830   1.474   9.866
 7186SOL     OW22998   2.218   1.819  10.190
 7186SOL    HW122999   2.271   1.740  10.193
 7186SOL    HW223000   2.281   1.890  10.201
 7187SOL     OW23001   3.670   1.056  10.191
 7187SOL    HW123002   3.629   1.028  10.108
 7187SOL    HW223003   3.599   1.053  10.254
 7188SOL     OW23004   3.082   1.550  10.813
 7188SOL    HW123005   3.065   1.474  10.869
 7188SOL    HW223006   2.996   1.574  10.778
 7189SOL     OW23007   2.173   0.962   9.569
 7189SOL    HW123008   2.255   0.986   9.525
 7189SOL    HW223009   2.146   0.881   9.526
 7190SOL     OW23010   3.318   0.758  10.016
 7190SOL    HW123011   3.282   0.670  10.029
 7190SOL    HW223012   3.403   0.756  10.061
 7191SOL     OW23013   2.334   1.267  11.045
 7191SOL    HW123014   2.307   1.274  10.953
 7191SOL    HW223015   2.252   1.263  11.094
 7192SOL     OW23016   2.986   1.771   9.544
 7192SOL    HW123017   2.906   1.733   9.579
 7192SOL    HW223018   3.011   1.712   9.473
 7193SOL     OW23019   2.045   0.244  10.820
 7193SOL    HW123020   1.979   0.313  10.809
 7193SOL    HW223021   2.077   0.256  10.910
 7194SOL     OW23022   3.489   1.376   9.413
 7194SOL    HW123023   3.454   1.462   9.392
 7194SOL    HW223024   3.423   1.314   9.380
 7195SOL     OW23025   2.333   1.727   9.636
 7195SOL    HW123026   2.375   1.793   9.691
 7195SOL    HW223027   2.399   1.706   9.570
 7196SOL     OW23028   3.281   0.123   9.710
 7196SOL    HW123029   3.319   0.096   9.627
 7196SOL    HW223030   3.356   0.136   9.768
 7197SOL     OW23031   2.109   1.787  10.538
 7197SOL    HW123032   2.163   1.714  10.570
 7197SOL    HW223033   2.103   1.772  10.444
 7198SOL     OW23034   2.811   1.697  10.203
 7198SOL    HW123035   2.900   1.662  10.202
 7198SOL    HW223036   2.765   1.649  10.134
 7199SOL     OW23037   2.259   0.697   9.780
 7199SOL    HW123038   2.276   0.604   9.797
 7199SOL    HW223039   2.165   0.707   9.794
 7200SOL     OW23040   3.412   0.220  11.032
 7200SOL    HW123041   3.414   0.243  11.125
 7200SOL    HW223042   3.330   0.171  11.021
 7201SOL     OW23043   2.435   0.124   9.412
 7201SOL    HW123044   2.512   0.086   9.455
 7201SOL    HW223045   2.413   0.062   9.343
 7202SOL     OW23046   2.612   0.296  11.082
 7202SOL    HW123047   2.691   0.243  11.072
 7202SOL    HW223048   2.561   0.250  11.149
 7203SOL     OW23049   2.732   1.514  10.500
 7203SOL    HW123050   2.714   1.494  10.408
 7203SOL    HW223051   2.803   1.455  10.524
 7204SOL     OW23052   3.194   0.607  10.755
 7204SOL    HW123053   3.231   0.567  10.833
 7204SOL    HW223054   3.246   0.687  10.742
 7205SOL     OW23055   2.683   1.391  10.239
 7205SOL    HW123056   2.764   1.394  10.188
 7205SOL    HW223057   2.613   1.397  10.174
 7206SOL     OW23058   2.777   0.522  10.195
 7206SOL    HW123059   2.749   0.504  10.106
 7206SOL    HW223060   2.811   0.438  10.227
 7207SOL     OW23061   2.434   0.054   9.773
 7207SOL    HW123062   2.353   0.016   9.806
 7207SOL    HW223063   2.407   0.131   9.723
 7208SOL     OW23064   3.286   1.198   9.344
 7208SOL    HW123065   3.318   1.127   9.399
 7208SOL    HW223066   3.205   1.227   9.387
 7209SOL     OW23067   2.160   0.050   9.520
 7209SOL    HW123068   2.244   0.083   9.489
 7209SOL    HW223069   2.183  -0.013   9.589
 7210SOL     OW23070   2.805   0.256   9.770
 7210SOL    HW123071   2.779   0.294   9.687
 7210SOL    HW223072   2.900   0.267   9.774
 7211SOL     OW23073   2.930   0.667  10.774
 7211SOL    HW123074   2.880   0.586  10.783
 7211SOL    HW223075   3.021   0.638  10.766
 7212SOL     OW23076   3.075   1.594  10.111
 7212SOL    HW123077   3.085   1.651  10.034
 7212SOL    HW223078   3.152   1.612  10.164
 7213SOL     OW23079   2.325   1.152  10.041
 7213SOL    HW123080   2.258   1.130  10.105
 7213SOL    HW223081   2.283   1.142   9.956
 7214SOL     OW23082   3.121   1.796   9.925
 7214SOL    HW123083   3.176   1.852   9.870
 7214SOL    HW223084   3.056   1.856   9.961
 7215SOL     OW23085   2.893   0.530   9.343
 7215SOL    HW123086   2.859   0.619   9.329
 7215SOL    HW223087   2.955   0.540   9.415
 7216SOL     OW23088   1.955   0.562  10.701
 7216SOL    HW123089   2.047   0.559  10.673
 7216SOL    HW223090   1.953   0.629  10.769
 7217SOL     OW23091   2.442   0.226  10.500
 7217SOL    HW123092   2.477   0.163  10.563
 7217SOL    HW223093   2.348   0.225  10.516
 7218SOL     OW23094   2.690   0.443   9.942
 7218SOL    HW123095   2.673   0.507   9.873
 7218SOL    HW223096   2.743   0.376   9.900
 7219SOL     OW23097   2.831   0.032  10.099
 7219SOL    HW123098   2.789   0.023  10.014
 7219SOL    HW223099   2.875  -0.051  10.113
 7220SOL     OW23100   3.303   1.165  10.165
 7220SOL    HW123101   3.247   1.095  10.131
 7220SOL    HW223102   3.364   1.184  10.093
 7221SOL     OW23103   3.325   0.610  10.297
 7221SOL    HW123104   3.256   0.544  10.298
 7221SOL    HW223105   3.378   0.591  10.374
 7222SOL     OW23106   3.686   0.805   9.700
 7222SOL    HW123107   3.749   0.760   9.755
 7222SOL    HW223108   3.673   0.747   9.625
 7223SOL     OW23109   2.351   1.417   9.457
 7223SOL    HW123110   2.277   1.391   9.512
 7223SOL    HW223111   2.336   1.373   9.374
 7224SOL     OW23112   3.531   1.259   9.970
 7224SOL    HW123113   3.627   1.255   9.974
 7224SOL    HW223114   3.511   1.352   9.973
 7225SOL     OW23115   3.258   0.575   9.388
 7225SOL    HW123116   3.200   0.554   9.461
 7225SOL    HW223117   3.346   0.562   9.424
 7226SOL     OW23118   2.372   0.277   9.625
 7226SOL    HW123119   2.403   0.227   9.550
 7226SOL    HW223120   2.351   0.363   9.589
 7227SOL     OW23121   3.607   1.244  10.882
 7227SOL    HW123122   3.694   1.205  10.873
 7227SOL    HW223123   3.623   1.336  10.903
 7228SOL     OW23124   2.927   1.313  10.600
 7228SOL    HW123125   2.846   1.303  10.649
 7228SOL    HW223126   2.995   1.283  10.659
 7229SOL     OW23127   3.468   1.624  10.965
 7229SOL    HW123128   3.461   1.662  10.878
 7229SOL    HW223129   3.551   1.577  10.964
 7230SOL     OW23130   3.474   1.088  10.383
 7230SOL    HW123131   3.462   1.151  10.453
 7230SOL    HW223132   3.404   1.109  10.320
 7231SOL     OW23133   2.758   0.132  10.692
 7231SOL    HW123134   2.778   0.106  10.602
 7231SOL    HW223135   2.843   0.148  10.732
 7232SOL     OW23136   2.841   1.112  11.038
 7232SOL    HW123137   2.748   1.122  11.058
 7232SOL    HW223138   2.845   1.034  10.983
 7233SOL     OW23139   2.573   1.060   9.680
 7233SOL    HW123140   2.561   1.040   9.773
 7233SOL    HW223141   2.646   1.005   9.653
 7234SOL     OW23142   2.275   0.826  10.561
 7234SOL    HW123143   2.340   0.840  10.630
 7234SOL    HW223144   2.248   0.735  10.572
 7235SOL     OW23145   3.137   0.394  10.591
 7235SOL    HW123146   3.159   0.471  10.643
 7235SOL    HW223147   3.047   0.410  10.561
 7236SOL     OW23148   1.935   1.563  10.655
 7236SOL    HW123149   1.907   1.646  10.617
 7236SOL    HW223150   2.031   1.566  10.651
 7237SOL     OW23151   2.192   1.124   9.802
 7237SOL    HW123152   2.196   1.198   9.741
 7237SOL    HW223153   2.192   1.047   9.745
 7238SOL     OW23154   2.412   0.545  10.166
 7238SOL    HW123155   2.426   0.606  10.093
 7238SOL    HW223156   2.489   0.556  10.221
 7239SOL     OW23157   3.106   1.359   9.695
 7239SOL    HW123158   3.164   1.428   9.727
 7239SOL    HW223159   3.020   1.381   9.731
 7240SOL     OW23160   3.140   1.429  10.467
 7240SOL    HW123161   3.210   1.452  10.529
 7240SOL    HW223162   3.064   1.413  10.523
 7241SOL     OW23163   3.441   0.646   9.769
 7241SOL    HW123164   3.380   0.682   9.833
 7241SOL    HW223165   3.504   0.717   9.753
 7242SOL     OW23166   2.206   1.527  10.612
 7242SOL    HW123167   2.197   1.483  10.527
 7242SOL    HW223168   2.301   1.539  10.622
 7243SOL     OW23169   2.286   0.737  10.924
 7243SOL    HW123170   2.339   0.786  10.862
 7243SOL    HW223171   2.336   0.658  10.942
 7244SOL     OW23172   3.472   0.787  11.000
 7244SOL    HW123173   3.385   0.826  10.992
 7244SOL    HW223174   3.523   0.827  10.930
 7245SOL     OW23175   2.844   0.131  11.037
 7245SOL    HW123176   2.899   0.209  11.044
 7245SOL    HW223177   2.880   0.083  10.963
 7246SOL     OW23178   2.310   0.003  11.087
 7246SOL    HW123179   2.378  -0.010  11.021
 7246SOL    HW223180   2.275   0.091  11.069
 7247SOL     OW23181   2.442   0.874  10.345
 7247SOL    HW123182   2.471   0.965  10.355
 7247SOL    HW223183   2.385   0.859  10.420
 7248SOL     OW23184   3.207   0.856  10.328
 7248SOL    HW123185   3.156   0.853  10.247
 7248SOL    HW223186   3.258   0.775  10.327
 7249SOL     OW23187   3.056   0.522   9.570
 7249SOL    HW123188   3.070   0.445   9.626
 7249SOL    HW223189   3.019   0.588   9.629
 7250SOL     OW23190   2.175   0.199  10.549
 7250SOL    HW123191   2.113   0.209  10.621
 7250SOL    HW223192   2.155   0.113  10.512
 7251SOL     OW23193   1.932   1.302  10.560
 7251SOL    HW123194   1.959   1.247  10.633
 7251SOL    HW223195   1.927   1.391  10.596
 7252SOL     OW23196   2.592   0.634  10.367
 7252SOL    HW123197   2.662   0.615  10.305
 7252SOL    HW223198   2.558   0.719  10.340
 7253SOL     OW23199   3.605   0.962  11.170
 7253SOL    HW123200   3.564   0.893  11.119
 7253SOL    HW223201   3.548   0.973  11.246
 7254SOL     OW23202   2.215   0.081   9.965
 7254SOL    HW123203   2.204   0.168  10.003
 7254SOL    HW223204   2.229   0.023  10.040
 7255SOL     OW23205   3.485   0.402   9.660
 7255SOL    HW123206   3.500   0.333   9.726
 7255SOL    HW223207   3.461   0.479   9.711
 7256SOL     OW23208   2.872   0.768  10.279
 7256SOL    HW123209   2.887   0.773  10.374
 7256SOL    HW223210   2.862   0.675  10.261
 7257SOL     OW23211   2.836   1.554  11.023
 7257SOL    HW123212   2.822   1.601  10.941
 7257SOL    HW223213   2.888   1.478  10.999
 7258SOL     OW23214   3.711   1.502  10.911
 7258SOL    HW123215   3.735   1.528  10.822
 7258SOL    HW223216   3.791   1.514  10.962
 7259SOL     OW23217   2.216   0.922  11.115
 7259SOL    HW123218   2.293   0.935  11.171
 7259SOL    HW223219   2.241   0.853  11.054
 7260SOL     OW23220   3.397   0.273   9.439
 7260SOL    HW123221   3.433   0.187   9.462
 7260SOL    HW223222   3.422   0.329   9.512
 7261SOL     OW23223   3.143   0.821   9.332
 7261SOL    HW123224   3.191   0.738   9.341
 7261SOL    HW223225   3.180   0.861   9.253
 7262SOL     OW23226   2.959   1.349  10.173
 7262SOL    HW123227   2.952   1.284  10.103
 7262SOL    HW223228   3.001   1.424  10.131
 7263SOL     OW23229   2.184   0.809  10.240
 7263SOL    HW123230   2.279   0.823  10.238
 7263SOL    HW223231   2.174   0.721  10.278
 7264SOL     OW23232   2.203   0.548  10.329
 7264SOL    HW123233   2.155   0.466  10.315
 7264SOL    HW223234   2.277   0.542  10.269
 7265SOL     OW23235   3.023   0.360  11.032
 7265SOL    HW123236   2.962   0.423  11.070
 7265SOL    HW223237   3.099   0.412  11.006
 7266SOL     OW23238   2.998   0.196  10.800
 7266SOL    HW123239   3.037   0.256  10.863
 7266SOL    HW223240   3.073   0.153  10.758
 7267SOL     OW23241   1.872   1.314   9.507
 7267SOL    HW123242   1.785   1.332   9.471
 7267SOL    HW223243   1.866   1.225   9.541
 7268SOL     OW23244   1.958   1.771  10.257
 7268SOL    HW123245   1.932   1.695  10.205
 7268SOL    HW223246   2.044   1.794  10.224
 7269SOL     OW23247   2.366   1.579  10.220
 7269SOL    HW123248   2.435   1.644  10.237
 7269SOL    HW223249   2.405   1.519  10.156
 7270SOL     OW23250   2.840   0.809  10.558
 7270SOL    HW123251   2.885   0.763  10.629
 7270SOL    HW223252   2.758   0.761  10.547
 7271SOL     OW23253   1.890   0.561  10.426
 7271SOL    HW123254   1.956   0.513  10.376
 7271SOL    HW223255   1.921   0.555  10.517
 7272SOL     OW23256   2.049   0.530  11.041
 7272SOL    HW123257   2.128   0.512  10.990
 7272SOL    HW223258   2.006   0.602  10.995
 7273SOL     OW23259   3.240   0.939  10.967
 7273SOL    HW123260   3.268   1.031  10.962
 7273SOL    HW223261   3.241   0.909  10.876
 7274SOL     OW23262   2.677   0.566   9.677
 7274SOL    HW123263   2.683   0.493   9.616
 7274SOL    HW223264   2.603   0.618   9.646
 7275SOL     OW23265   3.505   0.609  10.506
 7275SOL    HW123266   3.499   0.545  10.576
 7275SOL    HW223267   3.588   0.590  10.463
 7276SOL     OW23268   2.100   1.547  11.032
 7276SOL    HW123269   2.077   1.611  11.099
 7276SOL    HW223270   2.106   1.464  11.079
 7277SOL     OW23271   2.589   0.451  10.568
 7277SOL    HW123272   2.533   0.376  10.546
 7277SOL    HW223273   2.576   0.512  10.496
 7278SOL     OW23274   2.806   1.667  10.766
 7278SOL    HW123275   2.763   1.634  10.687
 7278SOL    HW223276   2.797   1.762  10.760
 7279SOL     OW23277   2.317   0.502   9.484
 7279SOL    HW123278   2.376   0.573   9.509
 7279SOL    HW223279   2.231   0.544   9.476
 7280SOL     OW23280   2.017   1.139  10.772
 7280SOL    HW123281   2.010   1.092  10.855
 7280SOL    HW223282   2.027   1.070  10.706
 7281SOL     OW23283   3.115   1.051  10.484
 7281SOL    HW123284   3.162   0.988  10.430
 7281SOL    HW223285   3.065   0.997  10.545
 7282SOL     OW23286   3.171   0.861   9.609
 7282SOL    HW123287   3.104   0.818   9.663
 7282SOL    HW223288   3.146   0.840   9.519
 7283SOL     OW23289   3.650   1.736  10.478
 7283SOL    HW123290   3.707   1.763  10.406
 7283SOL    HW223291   3.615   1.651  10.450
 7284SOL     OW23292   3.103   1.724  10.417
 7284SOL    HW123293   3.183   1.756  10.374
 7284SOL    HW223294   3.120   1.631  10.432
 7285SOL     OW23295   2.537   1.671  11.050
 7285SOL    HW123296   2.474   1.743  11.047
 7285SOL    HW223297   2.604   1.696  10.986
 7286SOL     OW23298   3.544   0.149   9.798
 7286SOL    HW123299   3.625   0.152   9.747
 7286SOL    HW223300   3.570   0.111   9.882
 7287SOL     OW23301   3.257   1.570   9.803
 7287SOL    HW123302   3.317   1.600   9.735
 7287SOL    HW223303   3.206   1.648   9.826
 7288SOL     OW23304   2.004   1.791  11.159
 7288SOL    HW123305   1.953   1.724  11.206
 7288SOL    HW223306   2.042   1.845  11.228
 7289SOL     OW23307   3.165   0.977  10.024
 7289SOL    HW123308   3.215   0.896  10.014
 7289SOL    HW223309   3.186   1.028   9.946
 7290SOL     OW23310   2.679   1.290  10.726
 7290SOL    HW123311   2.653   1.324  10.811
 7290SOL    HW223312   2.603   1.309  10.669
 7291SOL     OW23313   2.537   1.616   9.466
 7291SOL    HW123314   2.545   1.639   9.374
 7291SOL    HW223315   2.476   1.541   9.467
 7292SOL     OW23316   3.478   1.728  10.701
 7292SOL    HW123317   3.537   1.732  10.626
 7292SOL    HW223318   3.463   1.819  10.726
 7293SOL     OW23319   3.718   0.155  10.267
 7293SOL    HW123320   3.741   0.098  10.194
 7293SOL    HW223321   3.629   0.185  10.247
 7294SOL     OW23322   2.133   0.331  10.035
 7294SOL    HW123323   2.044   0.363  10.021
 7294SOL    HW223324   2.144   0.330  10.130
 7295SOL     OW23325   3.068   1.603   9.342
 7295SOL    HW123326   3.059   1.511   9.366
 7295SOL    HW223327   3.001   1.617   9.275
 7296SOL     OW23328   2.679   1.013  10.697
 7296SOL    HW123329   2.729   0.988  10.619
 7296SOL    HW223330   2.684   1.108  10.699
 7297SOL     OW23331   2.774   0.907   9.586
 7297SOL    HW123332   2.837   0.946   9.525
 7297SOL    HW223333   2.825   0.844   9.636
 7298SOL     OW23334   3.355   1.616   9.351
 7298SOL    HW123335   3.260   1.620   9.337
 7298SOL    HW223336   3.393   1.627   9.264
 7299SOL     OW23337   2.233   1.309  10.800
 7299SOL    HW123338   2.215   1.384  10.744
 7299SOL    HW223339   2.159   1.250  10.786
 7300SOL     OW23340   3.448   1.271  10.589
 7300SOL    HW123341   3.535   1.270  10.629
 7300SOL    HW223342   3.406   1.350  10.623
 7301SOL     OW23343   2.926   1.108  10.057
 7301SOL    HW123344   2.849   1.051  10.064
 7301SOL    HW223345   2.996   1.051  10.028
 7302SOL     OW23346   2.828   0.256  10.274
 7302SOL    HW123347   2.838   0.208  10.191
 7302SOL    HW223348   2.864   0.197  10.340
 7303SOL     OW23349   2.473   1.492   9.796
 7303SOL    HW123350   2.519   1.440   9.729
 7303SOL    HW223351   2.409   1.544   9.746
 7304SOL     OW23352   3.590   0.418  10.693
 7304SOL    HW123353   3.673   0.465  10.687
 7304SOL    HW223354   3.606   0.334  10.651
 7305SOL     OW23355   2.127   1.337   9.610
 7305SOL    HW123356   2.036   1.337   9.582
 7305SOL    HW223357   2.127   1.384   9.693
 7306SOL     OW23358   1.976   1.032  11.025
 7306SOL    HW123359   1.900   1.009  11.078
 7306SOL    HW223360   2.050   0.995  11.071
 7307SOL     OW23361   2.529   0.230  10.811
 7307SOL    HW123362   2.598   0.179  10.769
 7307SOL    HW223363   2.552   0.230  10.904
 7308SOL     OW23364   1.927   0.331   9.330
 7308SOL    HW123365   1.835   0.356   9.343
 7308SOL    HW223366   1.964   0.404   9.280
 7309SOL     OW23367   3.299   0.868  10.709
 7309SOL    HW123368   3.253   0.904  10.633
 7309SOL    HW223369   3.390   0.861  10.681
 7310SOL     OW23370   1.916   0.164   9.579
 7310SOL    HW123371   1.927   0.248   9.535
 7310SOL    HW223372   2.001   0.122   9.573
 7311SOL     OW23373   3.040   1.335   9.425
 7311SOL    HW123374   2.946   1.316   9.428
 7311SOL    HW223375   3.066   1.339   9.517
 7312SOL     OW23376   2.464   0.853  10.750
 7312SOL    HW123377   2.526   0.924  10.737
 7312SOL    HW223378   2.518   0.774  10.753
 7313SOL     OW23379   3.340   1.782  10.286
 7313SOL    HW123380   3.355   1.854  10.225
 7313SOL    HW223381   3.427   1.757  10.316
 7314SOL     OW23382   2.569   0.564  11.019
 7314SOL    HW123383   2.630   0.611  11.076
 7314SOL    HW223384   2.584   0.472  11.040
 7315SOL     OW23385   3.334   1.203  10.945
 7315SOL    HW123386   3.332   1.208  11.041
 7315SOL    HW223387   3.425   1.219  10.922
 7316SOL     OW23388   2.226   1.743  10.876
 7316SOL    HW123389   2.144   1.789  10.858
 7316SOL    HW223390   2.199   1.661  10.917
 7317SOL     OW23391   3.533   0.879  10.564
 7317SOL    HW123392   3.528   0.790  10.529
 7317SOL    HW223393   3.521   0.935  10.488
 7318SOL     OW23394   3.075   0.310   9.753
 7318SOL    HW123395   3.144   0.244   9.742
 7318SOL    HW223396   3.104   0.362   9.828
 7319SOL     OW23397   2.444   0.744   9.982
 7319SOL    HW123398   2.487   0.827   9.963
 7319SOL    HW223399   2.381   0.733   9.910
 7320SOL     OW23400   3.620   0.383  10.961
 7320SOL    HW123401   3.606   0.398  10.867
 7320SOL    HW223402   3.554   0.318  10.985
 7321SOL     OW23403   3.614   0.934  10.820
 7321SOL    HW123404   3.604   1.029  10.829
 7321SOL    HW223405   3.600   0.917  10.727
 7322SOL     OW23406   2.735   1.361   9.355
 7322SOL    HW123407   2.690   1.395   9.433
 7322SOL    HW223408   2.748   1.438   9.300
 7323SOL     OW23409   2.534   1.786  10.249
 7323SOL    HW123410   2.507   1.876  10.229
 7323SOL    HW223411   2.629   1.787  10.239
 7324SOL     OW23412   2.714   0.966  10.168
 7324SOL    HW123413   2.766   0.891  10.198
 7324SOL    HW223414   2.690   1.012  10.249
 7325SOL     OW23415   2.930   0.983   9.379
 7325SOL    HW123416   2.920   1.033   9.298
 7325SOL    HW223417   3.010   0.932   9.366
 7326SOL     OW23418   3.716   1.552  10.150
 7326SOL    HW123419   3.637   1.543  10.096
 7326SOL    HW223420   3.721   1.469  10.198
 7327SOL     OW23421   2.095   1.301  11.166
 7327SOL    HW123422   2.023   1.241  11.143
 7327SOL    HW223423   2.085   1.314  11.260
 7328SOL     OW23424   1.960   1.223   9.985
 7328SOL    HW123425   1.993   1.170  10.058
 7328SOL    HW223426   2.020   1.203   9.913
 7329SOL     OW23427   2.562   1.401  10.956
 7329SOL    HW123428   2.476   1.363  10.976
 7329SOL    HW223429   2.555   1.492  10.984
 7330SOL     OW23430   3.704   0.197  10.547
 7330SOL    HW123431   3.623   0.147  10.555
 7330SOL    HW223432   3.713   0.216  10.454
 7331SOL     OW23433   2.286   0.438   9.835
 7331SOL    HW123434   2.308   0.366   9.777
 7331SOL    HW223435   2.240   0.397   9.908
 7332SOL     OW23436   3.548   1.495  10.410
 7332SOL    HW123437   3.475   1.470  10.354
 7332SOL    HW223438   3.569   1.415  10.459
 7333SOL     OW23439   2.205   0.566  10.605
 7333SOL    HW123440   2.254   0.503  10.658
 7333SOL    HW223441   2.220   0.538  10.515
 7334SOL     OW23442   2.697   1.589   9.976
 7334SOL    HW123443   2.693   1.669   9.923
 7334SOL    HW223444   2.619   1.540   9.950
 7335SOL     OW23445   3.287   0.228  10.435
 7335SOL    HW123446   3.320   0.163  10.497
 7335SOL    HW223447   3.238   0.290  10.488
 7336SOL     OW23448   2.911   0.072  10.454
 7336SOL    HW123449   2.887  -0.019  10.475
 7336SOL    HW223450   3.004   0.079  10.479
 7337SOL     OW23451   2.634   1.331   9.637
 7337SOL    HW123452   2.610   1.239   9.645
 7337SOL    HW223453   2.718   1.338   9.683
 7338SOL     OW23454   2.480   1.552  10.600
 7338SOL    HW123455   2.480   1.634  10.649
 7338SOL    HW223456   2.568   1.548  10.560
 7339SOL     OW23457   3.221   7.993   9.433
 7339SOL    HW123458   3.304   7.948   9.450
 7339SOL    HW223459   3.169   7.980   9.512
 7340SOL     OW23460   3.473   0.232  10.200
 7340SOL    HW123461   3.396   0.236  10.256
 7340SOL    HW223462   3.460   0.303  10.137
 7341SOL     OW23463   1.903   1.063   9.625
 7341SOL    HW123464   1.996   1.056   9.603
 7341SOL    HW223465   1.876   0.974   9.645
 7342SOL     OW23466   2.748   1.660   9.645
 7342SOL    HW123467   2.675   1.646   9.584
 7342SOL    HW223468   2.720   1.734   9.699
 7343SOL     OW23469   2.082   0.637  11.299
 7343SOL    HW123470   1.995   0.631  11.339
 7343SOL    HW223471   2.069   0.608  11.209
 7344SOL     OW23472   2.077   0.310  12.163
 7344SOL    HW123473   2.118   0.260  12.234
 7344SOL    HW223474   1.995   0.264  12.146
 7345SOL     OW23475   1.868   0.390  11.800
 7345SOL    HW123476   1.801   0.351  11.857
 7345SOL    HW223477   1.883   0.325  11.732
 7346SOL     OW23478   2.421   1.287  12.348
 7346SOL    HW123479   2.343   1.319  12.302
 7346SOL    HW223480   2.489   1.352  12.330
 7347SOL     OW23481   3.431   1.513  11.883
 7347SOL    HW123482   3.394   1.494  11.970
 7347SOL    HW223483   3.355   1.514  11.825
 7348SOL     OW23484   2.997   0.699  11.864
 7348SOL    HW123485   3.044   0.781  11.856
 7348SOL    HW223486   2.946   0.707  11.945
 7349SOL     OW23487   3.645   0.597  11.396
 7349SOL    HW123488   3.615   0.594  11.305
 7349SOL    HW223489   3.608   0.518  11.436
 7350SOL     OW23490   2.615   1.135  12.224
 7350SOL    HW123491   2.535   1.168  12.265
 7350SOL    HW223492   2.665   1.214  12.203
 7351SOL     OW23493   2.553   0.992  11.813
 7351SOL    HW123494   2.619   0.987  11.881
 7351SOL    HW223495   2.484   1.048  11.850
 7352SOL     OW23496   2.201   1.414  12.231
 7352SOL    HW123497   2.128   1.371  12.186
 7352SOL    HW223498   2.243   1.468  12.165
 7353SOL     OW23499   3.469   0.449  11.908
 7353SOL    HW123500   3.393   0.472  11.854
 7353SOL    HW223501   3.478   0.522  11.969
 7354SOL     OW23502   2.087   1.728  11.621
 7354SOL    HW123503   2.110   1.794  11.686
 7354SOL    HW223504   2.165   1.718  11.568
 7355SOL     OW23505   2.129   1.446  11.702
 7355SOL    HW123506   2.084   1.530  11.707
 7355SOL    HW223507   2.077   1.388  11.758
 7356SOL     OW23508   2.135   1.107  12.078
 7356SOL    HW123509   2.117   1.014  12.094
 7356SOL    HW223510   2.072   1.132  12.010
 7357SOL     OW23511   2.437   0.983  11.311
 7357SOL    HW123512   2.486   1.033  11.246
 7357SOL    HW223513   2.473   1.012  11.395
 7358SOL     OW23514   1.982   0.653  11.731
 7358SOL    HW123515   1.945   0.568  11.752
 7358SOL    HW223516   1.969   0.706  11.810
 7359SOL     OW23517   3.705   1.752  11.500
 7359SOL    HW123518   3.775   1.728  11.561
 7359SOL    HW223519   3.721   1.844  11.481
 7360SOL     OW23520   1.896   1.593  11.304
 7360SOL    HW123521   1.886   1.498  11.311
 7360SOL    HW223522   1.838   1.627  11.372
 7361SOL     OW23523   3.555   0.916  11.824
 7361SOL    HW123524   3.641   0.875  11.814
 7361SOL    HW223525   3.542   0.963  11.742
 7362SOL     OW23526   3.516   1.103  11.604
 7362SOL    HW123527   3.603   1.102  11.563
 7362SOL    HW223528   3.524   1.165  11.676
 7363SOL     OW23529   2.018   0.763   0.227
 7363SOL    HW123530   1.982   0.706   0.295
 7363SOL    HW223531   1.943   0.812   0.194
 7364SOL     OW23532   2.464   1.397  11.895
 7364SOL    HW123533   2.429   1.309  11.909
 7364SOL    HW223534   2.452   1.413  11.802
 7365SOL     OW23535   2.709   0.037  11.744
 7365SOL    HW123536   2.740   0.119  11.705
 7365SOL    HW223537   2.614   0.039  11.733
 7366SOL     OW23538   2.069   0.991  12.475
 7366SOL    HW123539   2.142   0.939  12.442
 7366SOL    HW223540   1.992   0.957  12.428
 7367SOL     OW23541   3.401   0.995  11.378
 7367SOL    HW123542   3.328   0.942  11.411
 7367SOL    HW223543   3.445   1.028  11.456
 7368SOL     OW23544   3.347   1.408  12.131
 7368SOL    HW123545   3.273   1.432  12.185
 7368SOL    HW223546   3.324   1.322  12.094
 7369SOL     OW23547   3.510   1.759  11.747
 7369SOL    HW123548   3.494   1.719  11.662
 7369SOL    HW223549   3.497   1.687  11.810
 7370SOL     OW23550   2.457   0.721  11.447
 7370SOL    HW123551   2.450   0.805  11.402
 7370SOL    HW223552   2.392   0.725  11.517
 7371SOL     OW23553   3.146   0.364  12.102
 7371SOL    HW123554   3.055   0.340  12.121
 7371SOL    HW223555   3.198   0.316  12.167
 7372SOL     OW23556   3.441   1.672  11.482
 7372SOL    HW123557   3.533   1.697  11.476
 7372SOL    HW223558   3.415   1.656  11.391
 7373SOL     OW23559   2.853   0.408  12.365
 7373SOL    HW123560   2.776   0.425  12.419
 7373SOL    HW223561   2.825   0.340  12.303
 7374SOL     OW23562   2.915   0.703  11.596
 7374SOL    HW123563   2.934   0.694  11.689
 7374SOL    HW223564   2.832   0.656  11.585
 7375SOL     OW23565   1.936   0.808  11.952
 7375SOL    HW123566   2.019   0.805  11.999
 7375SOL    HW223567   1.888   0.881  11.991
 7376SOL     OW23568   2.751   0.353  11.381
 7376SOL    HW123569   2.792   0.402  11.309
 7376SOL    HW223570   2.730   0.268  11.343
 7377SOL     OW23571   3.246   1.138  11.711
 7377SOL    HW123572   3.328   1.131  11.662
 7377SOL    HW223573   3.194   1.202  11.661
 7378SOL     OW23574   2.373   0.232  12.088
 7378SOL    HW123575   2.387   0.264  12.178
 7378SOL    HW223576   2.406   0.302  12.032
 7379SOL     OW23577   2.851   1.452  11.652
 7379SOL    HW123578   2.824   1.529  11.602
 7379SOL    HW223579   2.827   1.473  11.742
 7380SOL     OW23580   2.225   1.812  12.040
 7380SOL    HW123581   2.267   1.727  12.050
 7380SOL    HW223582   2.294   1.876  12.060
 7381SOL     OW23583   3.664   1.058  12.048
 7381SOL    HW123584   3.615   1.035  11.969
 7381SOL    HW223585   3.599   1.059  12.118
 7382SOL     OW23586   2.172   0.963  11.427
 7382SOL    HW123587   2.253   0.978  11.378
 7382SOL    HW223588   2.140   0.879  11.395
 7383SOL     OW23589   3.344   0.753  11.894
 7383SOL    HW123590   3.343   0.713  11.981
 7383SOL    HW223591   3.423   0.808  11.894
 7384SOL     OW23592   2.986   1.780  11.398
 7384SOL    HW123593   2.910   1.742  11.443
 7384SOL    HW223594   3.010   1.714  11.333
 7385SOL     OW23595   3.483   1.374  11.269
 7385SOL    HW123596   3.448   1.461  11.252
 7385SOL    HW223597   3.410   1.315  11.251
 7386SOL     OW23598   2.320   1.758  11.475
 7386SOL    HW123599   2.368   1.804  11.543
 7386SOL    HW223600   2.387   1.711  11.425
 7387SOL     OW23601   3.284   0.123  11.602
 7387SOL    HW123602   3.251   0.070  11.530
 7387SOL    HW223603   3.364   0.163  11.568
 7388SOL     OW23604   2.096   1.793  12.390
 7388SOL    HW123605   2.132   1.718  12.437
 7388SOL    HW223606   2.074   1.759  12.303
 7389SOL     OW23607   2.769   1.690  12.083
 7389SOL    HW123608   2.771   1.618  12.146
 7389SOL    HW223609   2.749   1.648  12.000
 7390SOL     OW23610   2.264   0.685  11.645
 7390SOL    HW123611   2.280   0.592  11.663
 7390SOL    HW223612   2.170   0.697  11.662
 7391SOL     OW23613   2.475   0.140  11.265
 7391SOL    HW123614   2.542   0.094  11.315
 7391SOL    HW223615   2.444   0.076  11.201
 7392SOL     OW23616   2.783   0.524  12.064
 7392SOL    HW123617   2.758   0.513  11.972
 7392SOL    HW223618   2.816   0.438  12.090
 7393SOL     OW23619   2.445   0.033  11.607
 7393SOL    HW123620   2.372   0.008  11.663
 7393SOL    HW223621   2.423   0.121  11.576
 7394SOL     OW23622   3.282   1.181  11.217
 7394SOL    HW123623   3.336   1.118  11.265
 7394SOL    HW223624   3.192   1.157  11.240
 7395SOL     OW23625   2.131   0.026  11.370
 7395SOL    HW123626   2.203   0.047  11.311
 7395SOL    HW223627   2.172  -0.022  11.442
 7396SOL     OW23628   2.816   0.266  11.636
 7396SOL    HW123629   2.785   0.292  11.550
 7396SOL    HW223630   2.911   0.279  11.634
 7397SOL     OW23631   3.103   1.560  11.950
 7397SOL    HW123632   3.104   1.629  11.885
 7397SOL    HW223633   3.140   1.600  12.029
 7398SOL     OW23634   2.348   1.148  11.907
 7398SOL    HW123635   2.279   1.138  11.972
 7398SOL    HW223636   2.303   1.133  11.823
 7399SOL     OW23637   3.124   1.785  11.779
 7399SOL    HW123638   3.175   1.849  11.730
 7399SOL    HW223639   3.056   1.836  11.823
 7400SOL     OW23640   2.884   0.529  11.204
 7400SOL    HW123641   2.845   0.614  11.186
 7400SOL    HW223642   2.947   0.547  11.275
 7401SOL     OW23643   2.434   0.251  12.361
 7401SOL    HW123644   2.472   0.200  12.432
 7401SOL    HW223645   2.339   0.241  12.371
 7402SOL     OW23646   2.730   0.475  11.803
 7402SOL    HW123647   2.692   0.525  11.731
 7402SOL    HW223648   2.747   0.388  11.766
 7403SOL     OW23649   2.890   7.993  11.941
 7403SOL    HW123650   2.836   8.010  11.864
 7403SOL    HW223651   2.845   7.923  11.988
 7404SOL     OW23652   3.304   1.157  12.026
 7404SOL    HW123653   3.217   1.118  12.013
 7404SOL    HW223654   3.340   1.165  11.937
 7405SOL     OW23655   3.329   0.614  12.138
 7405SOL    HW123656   3.276   0.535  12.142
 7405SOL    HW223657   3.392   0.606  12.209
 7406SOL     OW23658   3.695   0.810  11.557
 7406SOL    HW123659   3.754   0.764  11.617
 7406SOL    HW223660   3.676   0.746  11.488
 7407SOL     OW23661   2.364   1.411  11.328
 7407SOL    HW123662   2.282   1.394  11.375
 7407SOL    HW223663   2.354   1.367  11.244
 7408SOL     OW23664   3.542   1.264  11.816
 7408SOL    HW123665   3.637   1.262  11.832
 7408SOL    HW223666   3.516   1.353  11.837
 7409SOL     OW23667   3.257   0.587  11.245
 7409SOL    HW123668   3.196   0.554  11.310
 7409SOL    HW223669   3.343   0.555  11.274
 7410SOL     OW23670   2.371   0.272  11.480
 7410SOL    HW123671   2.410   0.224  11.407
 7410SOL    HW223672   2.348   0.357  11.443
 7411SOL     OW23673   2.963   1.244  12.293
 7411SOL    HW123674   2.881   1.289  12.313
 7411SOL    HW223675   2.976   1.257  12.199
 7412SOL     OW23676   3.472   1.086  12.236
 7412SOL    HW123677   3.458   1.146  12.310
 7412SOL    HW223678   3.405   1.110  12.173
 7413SOL     OW23679   2.571   1.048  11.541
 7413SOL    HW123680   2.552   1.029  11.633
 7413SOL    HW223681   2.652   1.000  11.524
 7414SOL     OW23682   2.291   0.819  12.429
 7414SOL    HW123683   2.358   0.828  12.496
 7414SOL    HW223684   2.261   0.729  12.436
 7415SOL     OW23685   3.116   0.367  12.424
 7415SOL    HW123686   3.152   0.445  12.466
 7415SOL    HW223687   3.026   0.390  12.403
 7416SOL     OW23688   2.233   1.109  11.663
 7416SOL    HW123689   2.151   1.158  11.671
 7416SOL    HW223690   2.217   1.049  11.589
 7417SOL     OW23691   2.416   0.530  12.036
 7417SOL    HW123692   2.427   0.591  11.963
 7417SOL    HW223693   2.483   0.556  12.099
 7418SOL     OW23694   3.075   1.345  11.544
 7418SOL    HW123695   3.150   1.404  11.558
 7418SOL    HW223696   3.006   1.380  11.601
 7419SOL     OW23697   3.150   1.452  12.314
 7419SOL    HW123698   3.199   1.445  12.396
 7419SOL    HW223699   3.087   1.380  12.318
 7420SOL     OW23700   3.434   0.624  11.651
 7420SOL    HW123701   3.389   0.671  11.721
 7420SOL    HW223702   3.492   0.690  11.612
 7421SOL     OW23703   2.214   1.562  12.460
 7421SOL    HW123704   2.202   1.501  12.387
 7421SOL    HW223705   2.303   1.547  12.490
 7422SOL     OW23706   2.454   0.870  12.204
 7422SOL    HW123707   2.475   0.963  12.191
 7422SOL    HW223708   2.388   0.870  12.273
 7423SOL     OW23709   3.190   0.852  12.207
 7423SOL    HW123710   3.110   0.832  12.158
 7423SOL    HW223711   3.247   0.777  12.192
 7424SOL     OW23712   3.058   0.532  11.431
 7424SOL    HW123713   3.071   0.451  11.480
 7424SOL    HW223714   3.013   0.590  11.492
 7425SOL     OW23715   2.171   0.195  12.398
 7425SOL    HW123716   2.108   0.204  12.469
 7425SOL    HW223717   2.164   0.104  12.371
 7426SOL     OW23718   1.914   1.324  12.450
 7426SOL    HW123719   1.956   1.247  12.488
 7426SOL    HW223720   1.923   1.392  12.517
 7427SOL     OW23721   2.588   0.630  12.236
 7427SOL    HW123722   2.661   0.613  12.176
 7427SOL    HW223723   2.556   0.717  12.212
 7428SOL     OW23724   2.269   0.085  11.832
 7428SOL    HW123725   2.220   0.161  11.865
 7428SOL    HW223726   2.222   0.009  11.866
 7429SOL     OW23727   3.484   0.372  11.552
 7429SOL    HW123728   3.533   0.330  11.623
 7429SOL    HW223729   3.455   0.456  11.590
 7430SOL     OW23730   2.894   0.761  12.135
 7430SOL    HW123731   2.890   0.769  12.231
 7430SOL    HW223732   2.860   0.673  12.117
 7431SOL     OW23733   3.437   0.299  11.292
 7431SOL    HW123734   3.342   0.287  11.293
 7431SOL    HW223735   3.461   0.313  11.383
 7432SOL     OW23736   3.139   0.836  11.202
 7432SOL    HW123737   3.178   0.749  11.209
 7432SOL    HW223738   3.169   0.870  11.118
 7433SOL     OW23739   3.006   1.301  12.034
 7433SOL    HW123740   2.970   1.250  11.961
 7433SOL    HW223741   3.027   1.386  11.996
 7434SOL     OW23742   2.168   0.815  12.103
 7434SOL    HW123743   2.261   0.830  12.086
 7434SOL    HW223744   2.164   0.727  12.141
 7435SOL     OW23745   2.186   0.551  12.178
 7435SOL    HW123746   2.152   0.462  12.174
 7435SOL    HW223747   2.268   0.548  12.129
 7436SOL     OW23748   3.016   0.220   0.142
 7436SOL    HW123749   3.070   0.236   0.218
 7436SOL    HW223750   3.066   0.257   0.069
 7437SOL     OW23751   1.867   1.317  11.360
 7437SOL    HW123752   1.780   1.333  11.324
 7437SOL    HW223753   1.862   1.227  11.395
 7438SOL     OW23754   1.959   1.783  12.113
 7438SOL    HW123755   1.924   1.703  12.074
 7438SOL    HW223756   2.047   1.790  12.077
 7439SOL     OW23757   2.362   1.576  12.076
 7439SOL    HW123758   2.438   1.612  12.123
 7439SOL    HW223759   2.400   1.513  12.015
 7440SOL     OW23760   2.849   0.785  12.409
 7440SOL    HW123761   2.882   0.850  12.471
 7440SOL    HW223762   2.754   0.790  12.417
 7441SOL     OW23763   1.927   0.548  12.313
 7441SOL    HW123764   1.998   0.551  12.250
 7441SOL    HW223765   1.915   0.454  12.331
 7442SOL     OW23766   2.679   0.576  11.540
 7442SOL    HW123767   2.688   0.498  11.485
 7442SOL    HW223768   2.602   0.621  11.507
 7443SOL     OW23769   3.517   0.607  12.336
 7443SOL    HW123770   3.514   0.559  12.419
 7443SOL    HW223771   3.608   0.598  12.307
 7444SOL     OW23772   2.513   0.495  12.458
 7444SOL    HW123773   2.486   0.411  12.421
 7444SOL    HW223774   2.540   0.547  12.383
 7445SOL     OW23775   2.734   1.667   0.052
 7445SOL    HW123776   2.739   1.646  -0.041
 7445SOL    HW223777   2.757   1.760   0.057
 7446SOL     OW23778   2.315   0.503  11.352
 7446SOL    HW123779   2.377   0.572  11.374
 7446SOL    HW223780   2.232   0.548  11.339
 7447SOL     OW23781   3.166   1.069  12.372
 7447SOL    HW123782   3.183   0.998  12.309
 7447SOL    HW223783   3.096   1.120  12.331
 7448SOL     OW23784   3.169   0.870  11.475
 7448SOL    HW123785   3.111   0.817  11.530
 7448SOL    HW223786   3.150   0.841  11.386
 7449SOL     OW23787   3.613   1.759  12.302
 7449SOL    HW123788   3.686   1.772  12.242
 7449SOL    HW223789   3.599   1.664  12.302
 7450SOL     OW23790   3.111   1.722  12.280
 7450SOL    HW123791   3.190   1.757  12.239
 7450SOL    HW223792   3.125   1.627  12.283
 7451SOL     OW23793   1.906   1.328  12.180
 7451SOL    HW123794   1.918   1.307  12.273
 7451SOL    HW223795   1.925   1.247  12.134
 7452SOL     OW23796   3.630   0.131  11.692
 7452SOL    HW123797   3.617   0.108  11.600
 7452SOL    HW223798   3.581   0.065  11.741
 7453SOL     OW23799   3.245   1.558  11.643
 7453SOL    HW123800   3.311   1.596  11.586
 7453SOL    HW223801   3.199   1.633  11.681
 7454SOL     OW23802   3.139   0.930  11.847
 7454SOL    HW123803   3.213   0.871  11.860
 7454SOL    HW223804   3.175   1.001  11.792
 7455SOL     OW23805   2.529   1.627  11.325
 7455SOL    HW123806   2.541   1.642  11.231
 7455SOL    HW223807   2.473   1.549  11.330
 7456SOL     OW23808   3.494   1.787   0.052
 7456SOL    HW123809   3.545   1.781  -0.029
 7456SOL    HW223810   3.493   1.880   0.073
 7457SOL     OW23811   3.704   0.179  12.117
 7457SOL    HW123812   3.716   0.089  12.148
 7457SOL    HW223813   3.615   0.180  12.082
 7458SOL     OW23814   2.120   0.308  11.889
 7458SOL    HW123815   2.037   0.350  11.868
 7458SOL    HW223816   2.126   0.313  11.984
 7459SOL     OW23817   3.074   1.617  11.186
 7459SOL    HW123818   3.037   1.530  11.175
 7459SOL    HW223819   3.031   1.670  11.118
 7460SOL     OW23820   2.664   1.044  12.483
 7460SOL    HW123821   2.655   1.065  12.390
 7460SOL    HW223822   2.705   1.121  12.522
 7461SOL     OW23823   2.808   0.934  11.467
 7461SOL    HW123824   2.869   0.936  11.392
 7461SOL    HW223825   2.835   0.857  11.517
 7462SOL     OW23826   3.353   1.624  11.217
 7462SOL    HW123827   3.259   1.620  11.201
 7462SOL    HW223828   3.392   1.631  11.129
 7463SOL     OW23829   2.917   1.107  11.858
 7463SOL    HW123830   2.846   1.064  11.906
 7463SOL    HW223831   2.984   1.040  11.848
 7464SOL     OW23832   2.876   0.254  12.109
 7464SOL    HW123833   2.864   0.211  12.024
 7464SOL    HW223834   2.898   0.183  12.169
 7465SOL     OW23835   2.457   1.486  11.629
 7465SOL    HW123836   2.464   1.438  11.546
 7465SOL    HW223837   2.364   1.511  11.634
 7466SOL     OW23838   3.616   0.454   0.058
 7466SOL    HW123839   3.691   0.444   0.116
 7466SOL    HW223840   3.621   0.379  -0.002
 7467SOL     OW23841   2.122   1.360  11.446
 7467SOL    HW123842   2.027   1.349  11.434
 7467SOL    HW223843   2.132   1.385  11.538
 7468SOL     OW23844   1.939   0.336  11.209
 7468SOL    HW123845   1.845   0.324  11.195
 7468SOL    HW223846   1.962   0.410  11.154
 7469SOL     OW23847   1.939   0.208  11.477
 7469SOL    HW123848   1.942   0.269  11.403
 7469SOL    HW223849   2.003   0.140  11.455
 7470SOL     OW23850   3.351   1.784  12.153
 7470SOL    HW123851   3.373   1.857  12.095
 7470SOL    HW223852   3.432   1.767  12.201
 7471SOL     OW23853   3.526   0.874  12.413
 7471SOL    HW123854   3.521   0.785  12.377
 7471SOL    HW223855   3.512   0.931  12.337
 7472SOL     OW23856   3.087   0.322  11.624
 7472SOL    HW123857   3.151   0.251  11.618
 7472SOL    HW223858   3.115   0.372  11.701
 7473SOL     OW23859   2.443   0.736  11.852
 7473SOL    HW123860   2.486   0.820  11.835
 7473SOL    HW223861   2.382   0.725  11.780
 7474SOL     OW23862   3.594   0.955   0.159
 7474SOL    HW123863   3.680   0.997   0.151
 7474SOL    HW223864   3.576   0.920   0.072
 7475SOL     OW23865   2.796   1.381  11.242
 7475SOL    HW123866   2.722   1.401  11.299
 7475SOL    HW223867   2.792   1.447  11.173
 7476SOL     OW23868   2.523   1.823  12.151
 7476SOL    HW123869   2.517   1.898  12.092
 7476SOL    HW223870   2.608   1.784  12.133
 7477SOL     OW23871   2.737   0.975  12.022
 7477SOL    HW123872   2.784   0.902  12.062
 7477SOL    HW223873   2.697   1.021  12.096
 7478SOL     OW23874   2.986   1.066  11.265
 7478SOL    HW123875   2.937   1.077  11.183
 7478SOL    HW223876   3.037   0.986  11.252
 7479SOL     OW23877   3.720   1.546  12.014
 7479SOL    HW123878   3.632   1.535  11.979
 7479SOL    HW223879   3.735   1.468  12.067
 7480SOL     OW23880   3.696   0.250  12.399
 7480SOL    HW123881   3.723   0.169  12.444
 7480SOL    HW223882   3.699   0.228  12.306
 7481SOL     OW23883   2.300   0.422  11.706
 7481SOL    HW123884   2.311   0.359  11.635
 7481SOL    HW223885   2.237   0.381  11.765
 7482SOL     OW23886   3.563   1.497  12.289
 7482SOL    HW123887   3.492   1.457  12.238
 7482SOL    HW223888   3.598   1.425  12.342
 7483SOL     OW23889   2.679   1.566  11.854
 7483SOL    HW123890   2.631   1.601  11.779
 7483SOL    HW223891   2.622   1.498  11.889
 7484SOL     OW23892   3.317   0.241  12.280
 7484SOL    HW123893   3.377   0.180  12.324
 7484SOL    HW223894   3.261   0.273  12.350
 7485SOL     OW23895   2.925   0.049  12.274
 7485SOL    HW123896   2.858   0.033  12.341
 7485SOL    HW223897   3.001  -0.001  12.303
 7486SOL     OW23898   2.686   1.288  11.486
 7486SOL    HW123899   2.629   1.215  11.508
 7486SOL    HW223900   2.696   1.337  11.568
 7487SOL     OW23901   3.195   7.997  11.363
 7487SOL    HW123902   3.255   7.936  11.320
 7487SOL    HW223903   3.122   7.943  11.391
 7488SOL     OW23904   3.159   0.465  11.847
 7488SOL    HW123905   3.106   0.544  11.852
 7488SOL    HW223906   3.156   0.428  11.936
 7489SOL     OW23907   3.446   0.205  12.034
 7489SOL    HW123908   3.399   0.226  12.115
 7489SOL    HW223909   3.451   0.288  11.987
 7490SOL     OW23910   1.905   1.067  11.472
 7490SOL    HW123911   1.999   1.057  11.456
 7490SOL    HW223912   1.875   0.978  11.494
 7491SOL     OW23913   2.750   1.663  11.507
 7491SOL    HW123914   2.672   1.652  11.452
 7491SOL    HW223915   2.727   1.734  11.567
 7492SOL     OW23916   2.073   2.423   0.022
 7492SOL    HW123917   2.050   2.474   0.100
 7492SOL    HW223918   2.140   2.475  -0.022
 7493SOL     OW23919   2.087   2.142   0.989
 7493SOL    HW123920   2.114   2.116   1.077
 7493SOL    HW223921   1.996   2.113   0.983
 7494SOL     OW23922   1.855   2.243   0.638
 7494SOL    HW123923   1.777   2.276   0.682
 7494SOL    HW223924   1.827   2.162   0.596
 7495SOL     OW23925   2.414   3.151   1.168
 7495SOL    HW123926   2.333   3.185   1.131
 7495SOL    HW223927   2.451   3.224   1.218
 7496SOL     OW23928   3.427   3.380   0.711
 7496SOL    HW123929   3.393   3.374   0.800
 7496SOL    HW223930   3.348   3.382   0.656
 7497SOL     OW23931   3.000   2.551   0.699
 7497SOL    HW123932   3.046   2.632   0.676
 7497SOL    HW223933   2.956   2.572   0.782
 7498SOL     OW23934   3.621   2.472   0.271
 7498SOL    HW123935   3.605   2.509   0.184
 7498SOL    HW223936   3.588   2.383   0.266
 7499SOL     OW23937   2.594   2.991   1.036
 7499SOL    HW123938   2.528   3.029   1.094
 7499SOL    HW223939   2.645   3.066   1.005
 7500SOL     OW23940   2.732   2.631   1.838
 7500SOL    HW123941   2.723   2.680   1.920
 7500SOL    HW223942   2.746   2.699   1.772
 7501SOL     OW23943   2.544   2.851   0.647
 7501SOL    HW123944   2.615   2.848   0.711
 7501SOL    HW223945   2.479   2.910   0.685
 7502SOL     OW23946   2.579   3.007   1.811
 7502SOL    HW123947   2.614   3.089   1.847
 7502SOL    HW223948   2.492   3.030   1.778
 7503SOL     OW23949   2.189   3.285   1.064
 7503SOL    HW123950   2.118   3.245   1.014
 7503SOL    HW223951   2.239   3.336   0.999
 7504SOL     OW23952   3.326   3.382   1.340
 7504SOL    HW123953   3.380   3.456   1.369
 7504SOL    HW223954   3.265   3.366   1.412
 7505SOL     OW23955   2.298   2.200   1.447
 7505SOL    HW123956   2.387   2.169   1.467
 7505SOL    HW223957   2.269   2.244   1.526
 7506SOL     OW23958   3.501   2.316   0.736
 7506SOL    HW123959   3.446   2.349   0.665
 7506SOL    HW223960   3.490   2.380   0.806
 7507SOL     OW23961   2.087   3.576   0.476
 7507SOL    HW123962   2.105   3.650   0.533
 7507SOL    HW223963   2.166   3.569   0.421
 7508SOL     OW23964   3.014   3.202   1.706
 7508SOL    HW123965   3.044   3.193   1.796
 7508SOL    HW223966   2.959   3.126   1.691
 7509SOL     OW23967   2.061   3.309   0.533
 7509SOL    HW123968   2.068   3.405   0.532
 7509SOL    HW223969   2.022   3.289   0.617
 7510SOL     OW23970   2.119   2.954   0.883
 7510SOL    HW123971   2.126   2.869   0.926
 7510SOL    HW223972   2.071   3.009   0.945
 7511SOL     OW23973   2.432   3.684   1.393
 7511SOL    HW123974   2.369   3.656   1.460
 7511SOL    HW223975   2.483   3.752   1.436
 7512SOL     OW23976   2.442   2.832   0.144
 7512SOL    HW123977   2.513   2.847   0.081
 7512SOL    HW223978   2.473   2.874   0.225
 7513SOL     OW23979   3.449   1.998   1.461
 7513SOL    HW123980   3.501   2.074   1.434
 7513SOL    HW223981   3.428   2.014   1.553
 7514SOL     OW23982   1.974   2.514   0.564
 7514SOL    HW123983   1.949   2.426   0.591
 7514SOL    HW223984   1.967   2.567   0.643
 7515SOL     OW23985   3.719   3.600   0.312
 7515SOL    HW123986   3.784   3.576   0.378
 7515SOL    HW223987   3.730   3.695   0.301
 7516SOL     OW23988   1.885   3.422   0.116
 7516SOL    HW123989   1.879   3.358   0.187
 7516SOL    HW223990   1.889   3.507   0.160
 7517SOL     OW23991   3.525   2.774   0.631
 7517SOL    HW123992   3.616   2.754   0.610
 7517SOL    HW223993   3.500   2.843   0.569
 7518SOL     OW23994   3.505   2.983   0.454
 7518SOL    HW123995   3.580   2.997   0.396
 7518SOL    HW223996   3.520   3.044   0.527
 7519SOL     OW23997   1.942   2.614   1.567
 7519SOL    HW123998   2.007   2.638   1.633
 7519SOL    HW223999   1.882   2.689   1.564
 7520SOL     OW24000   2.476   3.254   0.726
 7520SOL    HW124001   2.435   3.169   0.739
 7520SOL    HW224002   2.458   3.276   0.635
 7521SOL     OW24003   3.235   3.113   1.410
 7521SOL    HW124004   3.201   3.033   1.369
 7521SOL    HW224005   3.258   3.086   1.499
 7522SOL     OW24006   2.684   1.870   0.524
 7522SOL    HW124007   2.723   1.953   0.496
 7522SOL    HW224008   2.590   1.888   0.527
 7523SOL     OW24009   2.050   2.823   1.264
 7523SOL    HW124010   2.138   2.785   1.258
 7523SOL    HW224011   1.992   2.754   1.231
 7524SOL     OW24012   3.022   3.663   1.611
 7524SOL    HW124013   3.048   3.730   1.548
 7524SOL    HW224014   3.053   3.581   1.575
 7525SOL     OW24015   2.197   2.114   1.780
 7525SOL    HW124016   2.258   2.171   1.827
 7525SOL    HW224017   2.114   2.122   1.829
 7526SOL     OW24018   3.334   3.277   0.952
 7526SOL    HW124019   3.267   3.298   1.017
 7526SOL    HW224020   3.319   3.185   0.930
 7527SOL     OW24021   3.520   3.616   0.583
 7527SOL    HW124022   3.494   3.576   0.501
 7527SOL    HW224023   3.498   3.551   0.650
 7528SOL     OW24024   2.439   2.572   0.268
 7528SOL    HW124025   2.463   2.658   0.234
 7528SOL    HW224026   2.379   2.589   0.340
 7529SOL     OW24027   3.155   2.225   0.959
 7529SOL    HW124028   3.065   2.192   0.956
 7529SOL    HW224029   3.200   2.168   1.021
 7530SOL     OW24030   3.453   3.536   0.324
 7530SOL    HW124031   3.548   3.549   0.321
 7530SOL    HW224032   3.423   3.561   0.236
 7531SOL     OW24033   2.686   2.450   1.454
 7531SOL    HW124034   2.648   2.440   1.542
 7531SOL    HW224035   2.626   2.403   1.396
 7532SOL     OW24036   3.259   2.329   1.671
 7532SOL    HW124037   3.263   2.379   1.752
 7532SOL    HW224038   3.310   2.250   1.689
 7533SOL     OW24039   2.805   2.761   1.578
 7533SOL    HW124040   2.874   2.698   1.556
 7533SOL    HW224041   2.781   2.800   1.494
 7534SOL     OW24042   2.881   2.294   1.250
 7534SOL    HW124043   2.801   2.312   1.299
 7534SOL    HW224044   2.853   2.239   1.177
 7535SOL     OW24045   2.876   2.575   0.446
 7535SOL    HW124046   2.909   2.556   0.534
 7535SOL    HW224047   2.801   2.517   0.435
 7536SOL     OW24048   1.952   2.681   0.779
 7536SOL    HW124049   2.034   2.679   0.828
 7536SOL    HW224050   1.904   2.756   0.813
 7537SOL     OW24051   1.964   3.672   1.642
 7537SOL    HW124052   1.917   3.590   1.629
 7537SOL    HW224053   1.939   3.726   1.567
 7538SOL     OW24054   2.743   2.221   0.214
 7538SOL    HW124055   2.783   2.289   0.160
 7538SOL    HW224056   2.740   2.144   0.158
 7539SOL     OW24057   3.534   2.420   1.840
 7539SOL    HW124058   3.519   2.492   1.778
 7539SOL    HW224059   3.615   2.380   1.810
 7540SOL     OW24060   3.236   2.988   0.519
 7540SOL    HW124061   3.323   2.989   0.480
 7540SOL    HW224062   3.190   3.061   0.477
 7541SOL     OW24063   2.406   2.035   0.905
 7541SOL    HW124064   2.414   2.060   0.997
 7541SOL    HW224065   2.414   2.117   0.857
 7542SOL     OW24066   2.853   3.290   0.470
 7542SOL    HW124067   2.812   3.369   0.434
 7542SOL    HW224068   2.845   3.301   0.565
 7543SOL     OW24069   2.217   3.678   0.879
 7543SOL    HW124070   2.265   3.595   0.882
 7543SOL    HW224071   2.284   3.745   0.895
 7544SOL     OW24072   3.658   2.888   0.869
 7544SOL    HW124073   3.600   2.916   0.798
 7544SOL    HW224074   3.611   2.911   0.949
 7545SOL     OW24075   3.076   3.391   1.506
 7545SOL    HW124076   3.079   3.325   1.575
 7545SOL    HW224077   3.026   3.349   1.436
 7546SOL     OW24078   2.178   2.844   0.256
 7546SOL    HW124079   2.258   2.871   0.212
 7546SOL    HW224080   2.153   2.762   0.212
 7547SOL     OW24081   3.338   2.601   0.719
 7547SOL    HW124082   3.338   2.571   0.810
 7547SOL    HW224083   3.410   2.664   0.715
 7548SOL     OW24084   2.336   3.124   1.747
 7548SOL    HW124085   2.308   3.142   1.657
 7548SOL    HW224086   2.254   3.112   1.795
 7549SOL     OW24087   2.929   3.636   0.230
 7549SOL    HW124088   2.937   3.621   0.325
 7549SOL    HW224089   3.006   3.593   0.193
 7550SOL     OW24090   2.018   2.094   1.542
 7550SOL    HW124091   1.995   2.187   1.545
 7550SOL    HW224092   2.085   2.085   1.610
 7551SOL     OW24093   3.519   3.270   0.051
 7551SOL    HW124094   3.450   3.336   0.037
 7551SOL    HW224095   3.471   3.190   0.071
 7552SOL     OW24096   2.321   3.587   0.331
 7552SOL    HW124097   2.365   3.649   0.388
 7552SOL    HW224098   2.388   3.557   0.270
 7553SOL     OW24099   3.259   1.959   0.443
 7553SOL    HW124100   3.244   1.926   0.354
 7553SOL    HW224101   3.355   1.964   0.450
 7554SOL     OW24102   2.114   3.650   1.232
 7554SOL    HW124103   2.177   3.598   1.282
 7554SOL    HW224104   2.131   3.626   1.141
 7555SOL     OW24105   2.795   3.571   0.892
 7555SOL    HW124106   2.857   3.523   0.947
 7555SOL    HW224107   2.770   3.508   0.825
 7556SOL     OW24108   2.236   2.557   0.466
 7556SOL    HW124109   2.261   2.465   0.475
 7556SOL    HW224110   2.154   2.565   0.515
 7557SOL     OW24111   3.386   2.084   1.720
 7557SOL    HW124112   3.419   2.116   1.804
 7557SOL    HW224113   3.323   2.015   1.744
 7558SOL     OW24114   2.506   1.984   0.113
 7558SOL    HW124115   2.597   1.954   0.116
 7558SOL    HW224116   2.499   2.030   0.029
 7559SOL     OW24117   2.617   2.109   1.752
 7559SOL    HW124118   2.695   2.058   1.733
 7559SOL    HW224119   2.633   2.147   1.838
 7560SOL     OW24120   2.704   3.417   1.142
 7560SOL    HW124121   2.690   3.359   1.068
 7560SOL    HW224122   2.768   3.372   1.197
 7561SOL     OW24123   3.229   2.441   1.418
 7561SOL    HW124124   3.249   2.401   1.503
 7561SOL    HW224125   3.270   2.527   1.422
 7562SOL     OW24126   2.676   3.238   0.933
 7562SOL    HW124127   2.766   3.232   0.899
 7562SOL    HW224128   2.622   3.248   0.855
 7563SOL     OW24129   2.795   2.368   0.902
 7563SOL    HW124130   2.767   2.360   0.810
 7563SOL    HW224131   2.825   2.280   0.925
 7564SOL     OW24132   2.414   1.919   0.504
 7564SOL    HW124133   2.333   1.920   0.556
 7564SOL    HW224134   2.406   1.996   0.447
 7565SOL     OW24135   3.322   3.079   0.055
 7565SOL    HW124136   3.329   2.986   0.079
 7565SOL    HW224137   3.232   3.102   0.076
 7566SOL     OW24138   2.177   1.954   0.198
 7566SOL    HW124139   2.249   2.007   0.232
 7566SOL    HW224140   2.205   1.864   0.209
 7567SOL     OW24141   2.803   2.109   0.459
 7567SOL    HW124142   2.778   2.149   0.376
 7567SOL    HW224143   2.898   2.124   0.465
 7568SOL     OW24144   2.938   2.527   1.496
 7568SOL    HW124145   2.847   2.498   1.496
 7568SOL    HW224146   2.973   2.499   1.580
 7569SOL     OW24147   3.094   3.422   0.786
 7569SOL    HW124148   3.103   3.498   0.730
 7569SOL    HW224149   3.133   3.449   0.870
 7570SOL     OW24150   2.335   3.014   0.725
 7570SOL    HW124151   2.270   2.996   0.793
 7570SOL    HW224152   2.287   3.003   0.643
 7571SOL     OW24153   3.119   3.654   0.605
 7571SOL    HW124154   3.173   3.722   0.564
 7571SOL    HW224155   3.054   3.702   0.656
 7572SOL     OW24156   2.882   2.405   0.057
 7572SOL    HW124157   2.872   2.491   0.015
 7572SOL    HW224158   2.945   2.421   0.128
 7573SOL     OW24159   1.923   2.423   1.383
 7573SOL    HW124160   2.017   2.411   1.367
 7573SOL    HW224161   1.919   2.492   1.449
 7574SOL     OW24162   2.420   2.082   1.177
 7574SOL    HW124163   2.468   2.039   1.248
 7574SOL    HW224164   2.331   2.090   1.209
 7575SOL     OW24165   2.722   2.313   0.642
 7575SOL    HW124166   2.678   2.371   0.579
 7575SOL    HW224167   2.750   2.238   0.590
 7576SOL     OW24168   2.889   1.910   0.740
 7576SOL    HW124169   2.825   1.912   0.669
 7576SOL    HW224170   2.856   1.841   0.799
 7577SOL     OW24171   3.310   3.016   0.863
 7577SOL    HW124172   3.226   2.972   0.851
 7577SOL    HW224173   3.341   3.034   0.775
 7578SOL     OW24174   3.316   2.467   0.961
 7578SOL    HW124175   3.266   2.387   0.973
 7578SOL    HW224176   3.379   2.467   1.033
 7579SOL     OW24177   3.712   2.708   0.420
 7579SOL    HW124178   3.749   2.629   0.460
 7579SOL    HW224179   3.660   2.676   0.346
 7580SOL     OW24180   2.354   3.249   0.158
 7580SOL    HW124181   2.294   3.212   0.222
 7580SOL    HW224182   2.297   3.298   0.098
 7581SOL     OW24183   3.540   3.129   0.675
 7581SOL    HW124184   3.635   3.134   0.683
 7581SOL    HW224185   3.510   3.219   0.691
 7582SOL     OW24186   3.248   2.413   0.081
 7582SOL    HW124187   3.193   2.406   0.159
 7582SOL    HW224188   3.329   2.455   0.113
 7583SOL     OW24189   2.381   2.111   0.315
 7583SOL    HW124190   2.440   2.070   0.253
 7583SOL    HW224191   2.360   2.197   0.277
 7584SOL     OW24192   3.613   3.101   1.555
 7584SOL    HW124193   3.702   3.066   1.555
 7584SOL    HW224194   3.624   3.191   1.585
 7585SOL     OW24195   3.469   3.486   1.661
 7585SOL    HW124196   3.467   3.524   1.573
 7585SOL    HW224197   3.550   3.434   1.663
 7586SOL     OW24198   2.963   3.030   1.084
 7586SOL    HW124199   2.940   3.088   1.157
 7586SOL    HW224200   2.958   3.086   1.007
 7587SOL     OW24201   3.492   2.964   1.074
 7587SOL    HW124202   3.490   3.029   1.144
 7587SOL    HW224203   3.419   2.987   1.018
 7588SOL     OW24204   2.784   1.942   1.392
 7588SOL    HW124205   2.818   1.934   1.303
 7588SOL    HW224206   2.856   1.982   1.441
 7589SOL     OW24207   2.842   2.985   1.721
 7589SOL    HW124208   2.753   3.000   1.753
 7589SOL    HW224209   2.835   2.909   1.664
 7590SOL     OW24210   2.568   2.917   0.374
 7590SOL    HW124211   2.558   2.900   0.468
 7590SOL    HW224212   2.647   2.869   0.349
 7591SOL     OW24213   2.277   2.669   1.256
 7591SOL    HW124214   2.355   2.684   1.309
 7591SOL    HW224215   2.240   2.587   1.291
 7592SOL     OW24216   1.949   3.435   1.365
 7592SOL    HW124217   1.928   3.507   1.306
 7592SOL    HW224218   2.043   3.423   1.356
 7593SOL     OW24219   2.187   2.985   0.497
 7593SOL    HW124220   2.192   3.065   0.445
 7593SOL    HW224221   2.199   2.914   0.433
 7594SOL     OW24222   2.406   2.382   0.848
 7594SOL    HW124223   2.420   2.443   0.775
 7594SOL    HW224224   2.468   2.411   0.915
 7595SOL     OW24225   3.105   3.209   0.394
 7595SOL    HW124226   3.160   3.282   0.424
 7595SOL    HW224227   3.018   3.228   0.429
 7596SOL     OW24228   3.151   3.327   1.144
 7596SOL    HW124229   3.214   3.337   1.215
 7596SOL    HW224230   3.071   3.295   1.186
 7597SOL     OW24231   3.429   2.468   0.498
 7597SOL    HW124232   3.383   2.521   0.563
 7597SOL    HW224233   3.463   2.532   0.435
 7598SOL     OW24234   2.210   3.383   1.313
 7598SOL    HW124235   2.197   3.344   1.227
 7598SOL    HW224236   2.304   3.399   1.319
 7599SOL     OW24237   2.300   2.540   1.557
 7599SOL    HW124238   2.328   2.625   1.523
 7599SOL    HW224239   2.276   2.557   1.648
 7600SOL     OW24240   3.473   2.629   1.676
 7600SOL    HW124241   3.385   2.668   1.682
 7600SOL    HW224242   3.519   2.685   1.613
 7601SOL     OW24243   2.848   1.975   1.723
 7601SOL    HW124244   2.903   2.041   1.765
 7601SOL    HW224245   2.908   1.905   1.698
 7602SOL     OW24246   2.366   1.890   1.731
 7602SOL    HW124247   2.307   1.850   1.668
 7602SOL    HW224248   2.320   1.968   1.763
 7603SOL     OW24249   2.445   2.741   1.035
 7603SOL    HW124250   2.489   2.826   1.035
 7603SOL    HW224251   2.396   2.739   1.117
 7604SOL     OW24252   3.194   2.711   1.023
 7604SOL    HW124253   3.116   2.710   0.967
 7604SOL    HW224254   3.242   2.632   0.998
 7605SOL     OW24255   3.058   2.381   0.274
 7605SOL    HW124256   3.059   2.329   0.355
 7605SOL    HW224257   3.066   2.471   0.304
 7606SOL     OW24258   2.146   2.070   1.251
 7606SOL    HW124259   2.171   2.126   1.325
 7606SOL    HW224260   2.126   1.985   1.290
 7607SOL     OW24261   1.893   3.179   1.276
 7607SOL    HW124262   1.930   3.117   1.339
 7607SOL    HW224263   1.913   3.265   1.311
 7608SOL     OW24264   2.566   2.489   1.042
 7608SOL    HW124265   2.649   2.488   0.993
 7608SOL    HW224266   2.537   2.580   1.036
 7609SOL     OW24267   3.596   2.820   1.853
 7609SOL    HW124268   3.549   2.750   1.809
 7609SOL    HW224269   3.542   2.841   1.930
 7610SOL     OW24270   2.166   1.917   0.629
 7610SOL    HW124271   2.145   2.009   0.646
 7610SOL    HW224272   2.178   1.879   0.717
 7611SOL     OW24273   3.472   2.235   0.360
 7611SOL    HW124274   3.499   2.177   0.431
 7611SOL    HW224275   3.445   2.316   0.404
 7612SOL     OW24276   2.897   2.614   0.957
 7612SOL    HW124277   2.896   2.628   1.051
 7612SOL    HW224278   2.863   2.526   0.945
 7613SOL     OW24279   2.842   3.415   1.735
 7613SOL    HW124280   2.823   3.467   1.657
 7613SOL    HW224281   2.896   3.343   1.702
 7614SOL     OW24282   3.711   3.356   1.608
 7614SOL    HW124283   3.731   3.389   1.520
 7614SOL    HW224284   3.790   3.374   1.659
 7615SOL     OW24285   3.412   2.064   0.123
 7615SOL    HW124286   3.330   2.035   0.162
 7615SOL    HW224287   3.436   2.142   0.174
 7616SOL     OW24288   3.127   2.635  12.456
 7616SOL    HW124289   3.168   2.559  12.498
 7616SOL    HW224290   3.185   2.709  12.478
 7617SOL     OW24291   2.928   3.202   0.841
 7617SOL    HW124292   2.943   3.132   0.777
 7617SOL    HW224293   2.992   3.270   0.818
 7618SOL     OW24294   2.178   2.675   0.940
 7618SOL    HW124295   2.269   2.702   0.950
 7618SOL    HW224296   2.175   2.587   0.978
 7619SOL     OW24297   2.184   2.394   1.002
 7619SOL    HW124298   2.152   2.304   0.994
 7619SOL    HW224299   2.262   2.397   0.946
 7620SOL     OW24300   2.997   2.248   1.679
 7620SOL    HW124301   2.953   2.295   1.750
 7620SOL    HW224302   3.088   2.277   1.685
 7621SOL     OW24303   3.014   2.069   1.474
 7621SOL    HW124304   3.004   2.118   1.555
 7621SOL    HW224305   3.032   2.135   1.407
 7622SOL     OW24306   1.949   3.643   0.935
 7622SOL    HW124307   1.924   3.564   0.889
 7622SOL    HW224308   2.041   3.657   0.912
 7623SOL     OW24309   2.353   3.434   0.900
 7623SOL    HW124310   2.420   3.496   0.927
 7623SOL    HW224311   2.398   3.371   0.845
 7624SOL     OW24312   2.864   2.625   1.235
 7624SOL    HW124313   2.885   2.645   1.326
 7624SOL    HW224314   2.778   2.664   1.221
 7625SOL     OW24315   1.904   2.394   1.113
 7625SOL    HW124316   1.987   2.407   1.067
 7625SOL    HW224317   1.925   2.409   1.205
 7626SOL     OW24318   2.053   2.359   1.646
 7626SOL    HW124319   2.126   2.379   1.705
 7626SOL    HW224320   2.009   2.443   1.633
 7627SOL     OW24321   3.243   2.782   1.651
 7627SOL    HW124322   3.273   2.872   1.659
 7627SOL    HW224323   3.245   2.764   1.557
 7628SOL     OW24324   2.654   2.422   0.385
 7628SOL    HW124325   2.673   2.352   0.322
 7628SOL    HW224326   2.587   2.475   0.343
 7629SOL     OW24327   3.506   2.469   1.149
 7629SOL    HW124328   3.496   2.415   1.228
 7629SOL    HW224329   3.597   2.456   1.123
 7630SOL     OW24330   2.112   3.406   1.759
 7630SOL    HW124331   2.186   3.426   1.816
 7630SOL    HW224332   2.100   3.312   1.767
 7631SOL     OW24333   2.578   2.308   1.245
 7631SOL    HW124334   2.519   2.238   1.217
 7631SOL    HW224335   2.568   2.376   1.178
 7632SOL     OW24336   2.744   3.552   1.508
 7632SOL    HW124337   2.771   3.491   1.441
 7632SOL    HW224338   2.775   3.638   1.477
 7633SOL     OW24339   2.314   2.338   0.190
 7633SOL    HW124340   2.369   2.414   0.211
 7633SOL    HW224341   2.232   2.376   0.160
 7634SOL     OW24342   2.003   3.004   1.459
 7634SOL    HW124343   2.009   2.960   1.544
 7634SOL    HW224344   2.025   2.935   1.396
 7635SOL     OW24345   3.169   2.894   1.227
 7635SOL    HW124346   3.191   2.840   1.150
 7635SOL    HW224347   3.104   2.956   1.194
 7636SOL     OW24348   3.135   2.646   0.292
 7636SOL    HW124349   3.113   2.704   0.364
 7636SOL    HW224350   3.210   2.687   0.249
 7637SOL     OW24351   3.659   3.582   1.172
 7637SOL    HW124352   3.696   3.627   1.096
 7637SOL    HW224353   3.616   3.505   1.135
 7638SOL     OW24354   3.085   3.598   1.079
 7638SOL    HW124355   3.157   3.660   1.092
 7638SOL    HW224356   3.119   3.515   1.114
 7639SOL     OW24357   1.948   3.126   1.012
 7639SOL    HW124358   1.932   3.144   1.105
 7639SOL    HW224359   1.877   3.069   0.986
 7640SOL     OW24360   2.559   3.550   1.739
 7640SOL    HW124361   2.513   3.633   1.729
 7640SOL    HW224362   2.630   3.553   1.675
 7641SOL     OW24363   2.780   1.945   0.091
 7641SOL    HW124364   2.811   1.977   0.006
 7641SOL    HW224365   2.855   1.953   0.149
 7642SOL     OW24366   3.615   2.021   0.545
 7642SOL    HW124367   3.673   2.010   0.470
 7642SOL    HW224368   3.582   1.933   0.563
 7643SOL     OW24369   3.242   3.432   0.480
 7643SOL    HW124370   3.311   3.469   0.425
 7643SOL    HW224371   3.200   3.509   0.519
 7644SOL     OW24372   3.138   2.781   0.657
 7644SOL    HW124373   3.215   2.727   0.673
 7644SOL    HW224374   3.171   2.856   0.607
 7645SOL     OW24375   2.623   3.080   1.454
 7645SOL    HW124376   2.640   3.121   1.539
 7645SOL    HW224377   2.627   3.152   1.391
 7646SOL     OW24378   2.519   3.470   0.183
 7646SOL    HW124379   2.588   3.477   0.118
 7646SOL    HW224380   2.481   3.384   0.170
 7647SOL     OW24381   3.495   3.589   1.402
 7647SOL    HW124382   3.544   3.591   1.321
 7647SOL    HW224383   3.474   3.680   1.421
 7648SOL     OW24384   3.710   2.031   0.922
 7648SOL    HW124385   3.739   1.939   0.927
 7648SOL    HW224386   3.617   2.028   0.940
 7649SOL     OW24387   2.116   2.170   0.712
 7649SOL    HW124388   2.031   2.208   0.692
 7649SOL    HW224389   2.120   2.168   0.808
 7650SOL     OW24390   3.064   3.462   0.064
 7650SOL    HW124391   3.060   3.370   0.090
 7650SOL    HW224392   2.991   3.473   0.003
 7651SOL     OW24393   2.729   2.869   1.334
 7651SOL    HW124394   2.784   2.911   1.268
 7651SOL    HW224395   2.687   2.941   1.381
 7652SOL     OW24396   2.780   2.777   0.284
 7652SOL    HW124397   2.851   2.803   0.225
 7652SOL    HW224398   2.819   2.710   0.340
 7653SOL     OW24399   3.324   3.446  -0.006
 7653SOL    HW124400   3.238   3.467   0.032
 7653SOL    HW224401   3.377   3.523   0.011
 7654SOL     OW24402   2.200   3.189   1.520
 7654SOL    HW124403   2.220   3.246   1.446
 7654SOL    HW224404   2.139   3.124   1.485
 7655SOL     OW24405   3.489   3.151   1.276
 7655SOL    HW124406   3.535   3.134   1.358
 7655SOL    HW224407   3.408   3.195   1.303
 7656SOL     OW24408   2.927   2.968   0.698
 7656SOL    HW124409   2.856   2.923   0.743
 7656SOL    HW224410   2.990   2.898   0.677
 7657SOL     OW24411   2.900   2.104   0.958
 7657SOL    HW124412   2.897   2.056   0.875
 7657SOL    HW224413   2.889   2.037   1.025
 7658SOL     OW24414   2.447   3.331   0.468
 7658SOL    HW124415   2.502   3.297   0.398
 7658SOL    HW224416   2.395   3.400   0.427
 7659SOL     OW24417   3.539   2.263   1.327
 7659SOL    HW124418   3.603   2.299   1.389
 7659SOL    HW224419   3.585   2.190   1.285
 7660SOL     OW24420   2.129   3.182   0.309
 7660SOL    HW124421   2.041   3.155   0.282
 7660SOL    HW224422   2.114   3.237   0.387
 7661SOL     OW24423   1.948   2.917   1.726
 7661SOL    HW124424   1.869   2.892   1.774
 7661SOL    HW224425   2.013   2.852   1.751
 7662SOL     OW24426   2.543   2.045   1.490
 7662SOL    HW124427   2.631   2.023   1.462
 7662SOL    HW224428   2.552   2.071   1.582
 7663SOL     OW24429   3.293   2.710   1.387
 7663SOL    HW124430   3.251   2.778   1.335
 7663SOL    HW224431   3.386   2.731   1.384
 7664SOL     OW24432   1.933   2.016   0.306
 7664SOL    HW124433   1.935   2.112   0.310
 7664SOL    HW224434   2.017   1.991   0.269
 7665SOL     OW24435   3.049   3.196   0.123
 7665SOL    HW124436   2.955   3.177   0.118
 7665SOL    HW224437   3.070   3.189   0.217
 7666SOL     OW24438   2.503   2.699   1.395
 7666SOL    HW124439   2.564   2.772   1.384
 7666SOL    HW224440   2.546   2.642   1.460
 7667SOL     OW24441   3.410   3.606   0.926
 7667SOL    HW124442   3.410   3.677   0.861
 7667SOL    HW224443   3.384   3.649   1.007
 7668SOL     OW24444   2.599   2.427   1.704
 7668SOL    HW124445   2.629   2.499   1.759
 7668SOL    HW224446   2.597   2.351   1.762
 7669SOL     OW24447   3.348   3.033   1.648
 7669SOL    HW124448   3.329   3.056   1.739
 7669SOL    HW224449   3.438   3.064   1.634
 7670SOL     OW24450   2.231   3.605   1.570
 7670SOL    HW124451   2.140   3.626   1.590
 7670SOL    HW224452   2.239   3.511   1.590
 7671SOL     OW24453   3.553   2.749   1.237
 7671SOL    HW124454   3.527   2.668   1.192
 7671SOL    HW224455   3.533   2.819   1.175
 7672SOL     OW24456   3.074   2.174   0.467
 7672SOL    HW124457   3.137   2.102   0.458
 7672SOL    HW224458   3.102   2.221   0.546
 7673SOL     OW24459   2.443   2.588   0.665
 7673SOL    HW124460   2.487   2.673   0.663
 7673SOL    HW224461   2.377   2.594   0.596
 7674SOL     OW24462   3.646   2.188   1.585
 7674SOL    HW124463   3.558   2.210   1.615
 7674SOL    HW224464   3.696   2.172   1.664
 7675SOL     OW24465   3.568   2.811   1.503
 7675SOL    HW124466   3.581   2.904   1.523
 7675SOL    HW224467   3.586   2.805   1.409
 7676SOL     OW24468   2.766   3.230   0.047
 7676SOL    HW124469   2.717   3.211   0.128
 7676SOL    HW224470   2.760   3.325   0.037
 7677SOL     OW24471   2.523   3.642   0.928
 7677SOL    HW124472   2.514   3.737   0.917
 7677SOL    HW224473   2.617   3.627   0.933
 7678SOL     OW24474   2.735   2.833   0.849
 7678SOL    HW124475   2.791   2.769   0.894
 7678SOL    HW224476   2.695   2.884   0.920
 7679SOL     OW24477   2.969   2.848   0.092
 7679SOL    HW124478   3.015   2.902   0.027
 7679SOL    HW224479   3.035   2.786   0.122
 7680SOL     OW24480   3.701   3.409   0.844
 7680SOL    HW124481   3.618   3.423   0.798
 7680SOL    HW224482   3.676   3.374   0.929
 7681SOL     OW24483   2.077   3.146   1.842
 7681SOL    HW124484   2.028   3.068   1.817
 7681SOL    HW224485   2.070   3.149   1.937
 7682SOL     OW24486   1.945   3.073   0.669
 7682SOL    HW124487   1.970   3.036   0.754
 7682SOL    HW224488   2.020   3.056   0.612
 7683SOL     OW24489   2.503   3.306   1.611
 7683SOL    HW124490   2.464   3.245   1.674
 7683SOL    HW224491   2.532   3.380   1.664
 7684SOL     OW24492   3.656   2.045   1.218
 7684SOL    HW124493   3.701   1.980   1.273
 7684SOL    HW224494   3.718   2.063   1.147
 7685SOL     OW24495   2.274   2.296   0.515
 7685SOL    HW124496   2.324   2.228   0.470
 7685SOL    HW224497   2.237   2.253   0.592
 7686SOL     OW24498   3.573   3.334   1.078
 7686SOL    HW124499   3.487   3.333   1.037
 7686SOL    HW224500   3.564   3.279   1.155
 7687SOL     OW24501   2.175   2.403   1.288
 7687SOL    HW124502   2.239   2.360   1.345
 7687SOL    HW224503   2.213   2.395   1.200
 7688SOL     OW24504   2.696   3.429   0.677
 7688SOL    HW124505   2.680   3.486   0.601
 7688SOL    HW224506   2.616   3.378   0.686
 7689SOL     OW24507   3.313   2.078   1.134
 7689SOL    HW124508   3.326   1.988   1.162
 7689SOL    HW224509   3.341   2.131   1.209
 7690SOL     OW24510   2.879   1.885   1.131
 7690SOL    HW124511   2.816   1.821   1.098
 7690SOL    HW224512   2.964   1.840   1.126
 7691SOL     OW24513   2.656   3.180   0.299
 7691SOL    HW124514   2.621   3.095   0.327
 7691SOL    HW224515   2.724   3.201   0.363
 7692SOL     OW24516   2.471   3.430   1.276
 7692SOL    HW124517   2.476   3.512   1.325
 7692SOL    HW224518   2.554   3.425   1.230
 7693SOL     OW24519   3.216   1.872   0.189
 7693SOL    HW124520   3.215   1.874   0.093
 7693SOL    HW224521   3.124   1.863   0.214
 7694SOL     OW24522   3.150   2.312   0.688
 7694SOL    HW124523   3.107   2.398   0.686
 7694SOL    HW224524   3.153   2.289   0.781
 7695SOL     OW24525   3.442   2.068   0.889
 7695SOL    HW124526   3.396   2.074   0.973
 7695SOL    HW224527   3.406   2.140   0.837
 7696SOL     OW24528   1.910   2.939   0.322
 7696SOL    HW124529   2.002   2.934   0.298
 7696SOL    HW224530   1.902   2.880   0.397
 7697SOL     OW24531   2.710   3.503   0.384
 7697SOL    HW124532   2.642   3.501   0.317
 7697SOL    HW224533   2.707   3.592   0.419
 7698SOL     OW24534   2.055   2.434   1.969
 7698SOL    HW124535   2.017   2.475   2.047
 7698SOL    HW224536   2.081   2.507   1.913
 7699SOL     OW24537   2.081   2.147   2.854
 7699SOL    HW124538   2.114   2.112   2.937
 7699SOL    HW224539   1.990   2.118   2.850
 7700SOL     OW24540   1.870   2.272   2.500
 7700SOL    HW124541   1.782   2.280   2.538
 7700SOL    HW224542   1.873   2.183   2.466
 7701SOL     OW24543   2.418   3.159   3.040
 7701SOL    HW124544   2.336   3.189   3.000
 7701SOL    HW224545   2.454   3.237   3.082
 7702SOL     OW24546   3.433   3.356   2.545
 7702SOL    HW124547   3.392   3.343   2.631
 7702SOL    HW224548   3.360   3.363   2.484
 7703SOL     OW24549   3.017   2.532   2.587
 7703SOL    HW124550   2.990   2.564   2.501
 7703SOL    HW224551   2.972   2.589   2.649
 7704SOL     OW24552   3.652   2.451   2.086
 7704SOL    HW124553   3.603   2.446   2.004
 7704SOL    HW224554   3.612   2.385   2.142
 7705SOL     OW24555   2.589   2.993   2.905
 7705SOL    HW124556   2.527   3.033   2.966
 7705SOL    HW224557   2.638   3.066   2.869
 7706SOL     OW24558   2.725   2.632   3.683
 7706SOL    HW124559   2.748   2.693   3.752
 7706SOL    HW224560   2.753   2.675   3.602
 7707SOL     OW24561   2.542   2.856   2.509
 7707SOL    HW124562   2.613   2.848   2.573
 7707SOL    HW224563   2.478   2.914   2.551
 7708SOL     OW24564   2.564   3.002   3.671
 7708SOL    HW124565   2.603   3.082   3.706
 7708SOL    HW224566   2.481   3.031   3.633
 7709SOL     OW24567   2.194   3.284   2.928
 7709SOL    HW124568   2.121   3.246   2.879
 7709SOL    HW224569   2.240   3.336   2.863
 7710SOL     OW24570   3.345   3.339   3.215
 7710SOL    HW124571   3.410   3.395   3.258
 7710SOL    HW224572   3.285   3.315   3.285
 7711SOL     OW24573   2.300   2.219   3.334
 7711SOL    HW124574   2.390   2.234   3.303
 7711SOL    HW224575   2.311   2.165   3.411
 7712SOL     OW24576   3.463   2.303   2.614
 7712SOL    HW124577   3.385   2.320   2.561
 7712SOL    HW224578   3.461   2.371   2.681
 7713SOL     OW24579   2.082   3.591   2.318
 7713SOL    HW124580   2.103   3.657   2.384
 7713SOL    HW224581   2.166   3.569   2.278
 7714SOL     OW24582   2.983   3.226   3.559
 7714SOL    HW124583   3.021   3.230   3.647
 7714SOL    HW224584   2.939   3.141   3.556
 7715SOL     OW24585   2.075   3.304   2.385
 7715SOL    HW124586   2.068   3.396   2.409
 7715SOL    HW224587   2.035   3.257   2.459
 7716SOL     OW24588   2.115   2.950   2.738
 7716SOL    HW124589   2.129   2.866   2.781
 7716SOL    HW224590   2.071   3.004   2.804
 7717SOL     OW24591   2.450   3.687   3.245
 7717SOL    HW124592   2.387   3.658   3.311
 7717SOL    HW224593   2.502   3.753   3.289
 7718SOL     OW24594   2.452   2.855   2.025
 7718SOL    HW124595   2.499   2.887   1.948
 7718SOL    HW224596   2.503   2.887   2.099
 7719SOL     OW24597   3.450   1.998   3.321
 7719SOL    HW124598   3.490   2.076   3.281
 7719SOL    HW224599   3.433   2.025   3.411
 7720SOL     OW24600   1.971   2.528   2.420
 7720SOL    HW124601   1.948   2.439   2.446
 7720SOL    HW224602   1.968   2.579   2.501
 7721SOL     OW24603   3.706   3.609   2.184
 7721SOL    HW124604   3.770   3.582   2.250
 7721SOL    HW224605   3.720   3.703   2.174
 7722SOL     OW24606   1.899   3.468   1.975
 7722SOL    HW124607   1.896   3.372   1.975
 7722SOL    HW224608   1.867   3.492   2.062
 7723SOL     OW24609   3.555   2.771   2.498
 7723SOL    HW124610   3.645   2.744   2.516
 7723SOL    HW224611   3.558   2.804   2.408
 7724SOL     OW24612   3.521   2.975   2.283
 7724SOL    HW124613   3.609   2.971   2.245
 7724SOL    HW224614   3.532   3.027   2.363
 7725SOL     OW24615   2.008   2.628   3.437
 7725SOL    HW124616   2.102   2.644   3.440
 7725SOL    HW224617   1.969   2.708   3.471
 7726SOL     OW24618   2.478   3.256   2.593
 7726SOL    HW124619   2.435   3.170   2.604
 7726SOL    HW224620   2.462   3.279   2.501
 7727SOL     OW24621   3.137   3.075   3.270
 7727SOL    HW124622   3.179   3.011   3.212
 7727SOL    HW224623   3.192   3.076   3.348
 7728SOL     OW24624   2.708   1.868   2.380
 7728SOL    HW124625   2.722   1.957   2.346
 7728SOL    HW224626   2.614   1.862   2.393
 7729SOL     OW24627   2.048   2.819   3.135
 7729SOL    HW124628   2.136   2.783   3.130
 7729SOL    HW224629   2.000   2.775   3.064
 7730SOL     OW24630   3.400   2.860   2.061
 7730SOL    HW124631   3.330   2.805   2.097
 7730SOL    HW224632   3.444   2.896   2.138
 7731SOL     OW24633   2.193   2.124   3.634
 7731SOL    HW124634   2.256   2.177   3.682
 7731SOL    HW224635   2.111   2.132   3.683
 7732SOL     OW24636   3.281   3.292   2.767
 7732SOL    HW124637   3.255   3.309   2.858
 7732SOL    HW224638   3.299   3.198   2.765
 7733SOL     OW24639   3.521   3.610   2.439
 7733SOL    HW124640   3.494   3.572   2.355
 7733SOL    HW224641   3.507   3.540   2.503
 7734SOL     OW24642   2.439   2.575   2.111
 7734SOL    HW124643   2.456   2.664   2.079
 7734SOL    HW224644   2.385   2.588   2.189
 7735SOL     OW24645   3.146   2.218   2.798
 7735SOL    HW124646   3.056   2.189   2.811
 7735SOL    HW224647   3.197   2.167   2.861
 7736SOL     OW24648   3.439   3.537   2.172
 7736SOL    HW124649   3.531   3.561   2.167
 7736SOL    HW224650   3.414   3.519   2.081
 7737SOL     OW24651   2.645   2.481   3.303
 7737SOL    HW124652   2.627   2.459   3.395
 7737SOL    HW224653   2.599   2.413   3.253
 7738SOL     OW24654   3.252   2.329   3.540
 7738SOL    HW124655   3.257   2.379   3.622
 7738SOL    HW224656   3.316   2.259   3.551
 7739SOL     OW24657   2.808   2.741   3.447
 7739SOL    HW124658   2.871   2.680   3.408
 7739SOL    HW224659   2.767   2.784   3.373
 7740SOL     OW24660   2.863   2.272   3.095
 7740SOL    HW124661   2.783   2.311   3.131
 7740SOL    HW224662   2.840   2.243   3.007
 7741SOL     OW24663   1.944   2.693   2.639
 7741SOL    HW124664   2.028   2.684   2.684
 7741SOL    HW224665   1.902   2.769   2.681
 7742SOL     OW24666   1.969   3.679   3.433
 7742SOL    HW124667   1.980   3.674   3.528
 7742SOL    HW224668   1.977   3.773   3.414
 7743SOL     OW24669   2.741   2.178   1.987
 7743SOL    HW124670   2.801   2.250   1.967
 7743SOL    HW224671   2.765   2.152   2.076
 7744SOL     OW24672   3.545   2.418   3.690
 7744SOL    HW124673   3.517   2.497   3.643
 7744SOL    HW224674   3.587   2.364   3.623
 7745SOL     OW24675   3.259   3.013   2.407
 7745SOL    HW124676   3.326   2.992   2.343
 7745SOL    HW224677   3.199   3.072   2.360
 7746SOL     OW24678   2.399   2.030   2.761
 7746SOL    HW124679   2.412   2.060   2.851
 7746SOL    HW224680   2.418   2.107   2.707
 7747SOL     OW24681   2.859   3.300   2.326
 7747SOL    HW124682   2.836   3.383   2.284
 7747SOL    HW224683   2.848   3.316   2.419
 7748SOL     OW24684   2.217   3.678   2.732
 7748SOL    HW124685   2.265   3.596   2.741
 7748SOL    HW224686   2.281   3.746   2.753
 7749SOL     OW24687   3.653   2.844   2.756
 7749SOL    HW124688   3.594   2.863   2.683
 7749SOL    HW224689   3.610   2.883   2.832
 7750SOL     OW24690   3.055   3.353   3.326
 7750SOL    HW124691   3.042   3.312   3.411
 7750SOL    HW224692   2.998   3.303   3.267
 7751SOL     OW24693   2.182   2.838   2.082
 7751SOL    HW124694   2.276   2.849   2.070
 7751SOL    HW224695   2.155   2.782   2.009
 7752SOL     OW24696   3.343   2.603   2.572
 7752SOL    HW124697   3.335   2.570   2.662
 7752SOL    HW224698   3.416   2.665   2.576
 7753SOL     OW24699   2.320   3.108   3.606
 7753SOL    HW124700   2.296   3.125   3.514
 7753SOL    HW224701   2.245   3.141   3.656
 7754SOL     OW24702   2.982   3.650   2.076
 7754SOL    HW124703   2.916   3.609   2.131
 7754SOL    HW224704   3.011   3.581   2.016
 7755SOL     OW24705   2.013   2.122   3.398
 7755SOL    HW124706   2.051   2.206   3.376
 7755SOL    HW224707   2.073   2.084   3.463
 7756SOL     OW24708   3.486   3.242   1.940
 7756SOL    HW124709   3.445   3.329   1.934
 7756SOL    HW224710   3.413   3.181   1.930
 7757SOL     OW24711   2.334   3.588   2.189
 7757SOL    HW124712   2.375   3.646   2.253
 7757SOL    HW224713   2.406   3.561   2.131
 7758SOL     OW24714   3.268   1.968   2.310
 7758SOL    HW124715   3.270   1.951   2.215
 7758SOL    HW224716   3.359   1.986   2.333
 7759SOL     OW24717   2.110   3.653   3.102
 7759SOL    HW124718   2.172   3.616   3.164
 7759SOL    HW224719   2.141   3.622   3.016
 7760SOL     OW24720   2.798   3.563   2.760
 7760SOL    HW124721   2.877   3.530   2.802
 7760SOL    HW224722   2.778   3.499   2.692
 7761SOL     OW24723   2.253   2.554   2.326
 7761SOL    HW124724   2.268   2.460   2.336
 7761SOL    HW224725   2.161   2.567   2.352
 7762SOL     OW24726   3.394   2.083   3.585
 7762SOL    HW124727   3.409   2.107   3.677
 7762SOL    HW224728   3.329   2.013   3.590
 7763SOL     OW24729   2.505   1.956   1.989
 7763SOL    HW124730   2.594   1.991   1.991
 7763SOL    HW224731   2.485   1.947   1.896
 7764SOL     OW24732   2.623   2.135   3.625
 7764SOL    HW124733   2.702   2.083   3.610
 7764SOL    HW224734   2.628   2.160   3.717
 7765SOL     OW24735   2.739   3.374   3.054
 7765SOL    HW124736   2.718   3.337   2.969
 7765SOL    HW224737   2.804   3.315   3.091
 7766SOL     OW24738   3.207   2.456   3.297
 7766SOL    HW124739   3.238   2.424   3.382
 7766SOL    HW224740   3.247   2.542   3.288
 7767SOL     OW24741   2.677   3.242   2.810
 7767SOL    HW124742   2.765   3.231   2.772
 7767SOL    HW224743   2.620   3.253   2.735
 7768SOL     OW24744   2.784   2.363   2.783
 7768SOL    HW124745   2.763   2.364   2.689
 7768SOL    HW224746   2.827   2.279   2.796
 7769SOL     OW24747   3.284   3.060   1.911
 7769SOL    HW124748   3.317   2.987   1.964
 7769SOL    HW224749   3.201   3.083   1.952
 7770SOL     OW24750   2.153   1.914   2.030
 7770SOL    HW124751   2.201   1.992   2.057
 7770SOL    HW224752   2.204   1.841   2.065
 7771SOL     OW24753   2.794   2.125   2.282
 7771SOL    HW124754   2.752   2.210   2.270
 7771SOL    HW224755   2.886   2.145   2.297
 7772SOL     OW24756   2.951   2.546   3.319
 7772SOL    HW124757   2.905   2.466   3.343
 7772SOL    HW224758   3.043   2.520   3.315
 7773SOL     OW24759   3.070   3.416   2.636
 7773SOL    HW124760   3.098   3.496   2.592
 7773SOL    HW224761   3.147   3.388   2.686
 7774SOL     OW24762   2.329   3.020   2.584
 7774SOL    HW124763   2.265   2.998   2.653
 7774SOL    HW224764   2.283   3.000   2.502
 7775SOL     OW24765   3.126   3.654   2.469
 7775SOL    HW124766   3.176   3.721   2.424
 7775SOL    HW224767   3.062   3.703   2.521
 7776SOL     OW24768   2.892   2.399   1.883
 7776SOL    HW124769   2.848   2.484   1.880
 7776SOL    HW224770   2.951   2.405   1.958
 7777SOL     OW24771   1.938   2.444   3.245
 7777SOL    HW124772   2.030   2.431   3.222
 7777SOL    HW224773   1.939   2.518   3.305
 7778SOL     OW24774   2.420   2.078   3.033
 7778SOL    HW124775   2.467   2.011   3.083
 7778SOL    HW224776   2.330   2.072   3.064
 7779SOL     OW24777   2.732   2.332   2.518
 7779SOL    HW124778   2.750   2.405   2.459
 7779SOL    HW224779   2.751   2.254   2.467
 7780SOL     OW24780   2.882   1.914   2.606
 7780SOL    HW124781   2.827   1.903   2.529
 7780SOL    HW224782   2.857   1.843   2.665
 7781SOL     OW24783   3.309   3.016   2.701
 7781SOL    HW124784   3.258   2.942   2.733
 7781SOL    HW224785   3.288   3.022   2.608
 7782SOL     OW24786   3.328   2.469   2.822
 7782SOL    HW124787   3.266   2.396   2.833
 7782SOL    HW224788   3.384   2.463   2.899
 7783SOL     OW24789   3.703   2.673   2.239
 7783SOL    HW124790   3.758   2.629   2.304
 7783SOL    HW224791   3.681   2.604   2.176
 7784SOL     OW24792   2.339   3.301   1.990
 7784SOL    HW124793   2.270   3.266   2.046
 7784SOL    HW224794   2.368   3.226   1.938
 7785SOL     OW24795   3.249   2.440   1.921
 7785SOL    HW124796   3.195   2.409   1.994
 7785SOL    HW224797   3.339   2.421   1.947
 7786SOL     OW24798   2.315   2.109   2.131
 7786SOL    HW124799   2.394   2.059   2.109
 7786SOL    HW224800   2.332   2.197   2.096
 7787SOL     OW24801   3.588   3.066   3.448
 7787SOL    HW124802   3.683   3.051   3.445
 7787SOL    HW224803   3.576   3.130   3.518
 7788SOL     OW24804   2.909   3.176   3.169
 7788SOL    HW124805   2.832   3.154   3.222
 7788SOL    HW224806   2.982   3.132   3.213
 7789SOL     OW24807   2.987   3.046   2.943
 7789SOL    HW124808   2.944   3.093   3.014
 7789SOL    HW224809   2.967   3.098   2.865
 7790SOL     OW24810   3.468   2.929   2.940
 7790SOL    HW124811   3.475   2.993   3.011
 7790SOL    HW224812   3.422   2.975   2.870
 7791SOL     OW24813   2.781   1.961   3.249
 7791SOL    HW124814   2.807   1.941   3.159
 7791SOL    HW224815   2.859   2.000   3.288
 7792SOL     OW24816   2.819   3.003   3.546
 7792SOL    HW124817   2.740   2.995   3.600
 7792SOL    HW224818   2.843   2.912   3.525
 7793SOL     OW24819   2.589   2.937   2.247
 7793SOL    HW124820   2.575   2.910   2.338
 7793SOL    HW224821   2.656   2.877   2.215
 7794SOL     OW24822   2.280   2.677   3.120
 7794SOL    HW124823   2.351   2.691   3.182
 7794SOL    HW224824   2.252   2.586   3.136
 7795SOL     OW24825   3.132   2.239   3.145
 7795SOL    HW124826   3.164   2.317   3.191
 7795SOL    HW224827   3.041   2.261   3.124
 7796SOL     OW24828   1.951   3.428   3.218
 7796SOL    HW124829   1.939   3.520   3.196
 7796SOL    HW224830   2.046   3.415   3.213
 7797SOL     OW24831   2.183   2.976   2.348
 7797SOL    HW124832   2.219   3.048   2.295
 7797SOL    HW224833   2.191   2.899   2.293
 7798SOL     OW24834   2.400   2.398   2.722
 7798SOL    HW124835   2.415   2.457   2.649
 7798SOL    HW224836   2.469   2.419   2.785
 7799SOL     OW24837   3.111   3.212   2.253
 7799SOL    HW124838   3.164   3.285   2.285
 7799SOL    HW224839   3.024   3.227   2.289
 7800SOL     OW24840   3.160   3.322   3.016
 7800SOL    HW124841   3.223   3.324   3.087
 7800SOL    HW224842   3.101   3.250   3.038
 7801SOL     OW24843   3.438   2.486   2.340
 7801SOL    HW124844   3.388   2.516   2.415
 7801SOL    HW224845   3.488   2.563   2.312
 7802SOL     OW24846   2.217   3.376   3.179
 7802SOL    HW124847   2.205   3.342   3.091
 7802SOL    HW224848   2.310   3.397   3.186
 7803SOL     OW24849   2.302   2.593   3.474
 7803SOL    HW124850   2.351   2.644   3.410
 7803SOL    HW224851   2.366   2.532   3.511
 7804SOL     OW24852   3.463   2.633   3.551
 7804SOL    HW124853   3.377   2.676   3.546
 7804SOL    HW224854   3.517   2.681   3.487
 7805SOL     OW24855   2.854   1.997   3.603
 7805SOL    HW124856   2.914   2.070   3.592
 7805SOL    HW224857   2.904   1.920   3.575
 7806SOL     OW24858   2.361   1.897   3.605
 7806SOL    HW124859   2.317   1.838   3.544
 7806SOL    HW224860   2.304   1.974   3.608
 7807SOL     OW24861   2.433   2.750   2.889
 7807SOL    HW124862   2.486   2.831   2.892
 7807SOL    HW224863   2.393   2.746   2.976
 7808SOL     OW24864   3.213   2.724   2.855
 7808SOL    HW124865   3.130   2.707   2.810
 7808SOL    HW224866   3.258   2.639   2.855
 7809SOL     OW24867   3.058   2.361   2.107
 7809SOL    HW124868   3.074   2.291   2.171
 7809SOL    HW224869   3.019   2.432   2.159
 7810SOL     OW24870   2.147   2.055   3.106
 7810SOL    HW124871   2.143   2.086   3.196
 7810SOL    HW224872   2.135   1.960   3.112
 7811SOL     OW24873   1.894   3.175   3.132
 7811SOL    HW124874   1.931   3.117   3.199
 7811SOL    HW224875   1.912   3.263   3.164
 7812SOL     OW24876   2.575   2.484   2.917
 7812SOL    HW124877   2.657   2.461   2.874
 7812SOL    HW224878   2.565   2.578   2.900
 7813SOL     OW24879   3.592   2.837   3.715
 7813SOL    HW124880   3.543   2.762   3.680
 7813SOL    HW224881   3.550   2.856   3.799
 7814SOL     OW24882   2.088   1.916   2.500
 7814SOL    HW124883   2.105   2.010   2.513
 7814SOL    HW224884   2.150   1.872   2.558
 7815SOL     OW24885   3.481   2.247   2.218
 7815SOL    HW124886   3.505   2.183   2.285
 7815SOL    HW224887   3.455   2.325   2.268
 7816SOL     OW24888   2.873   2.626   2.821
 7816SOL    HW124889   2.870   2.641   2.915
 7816SOL    HW224890   2.859   2.532   2.811
 7817SOL     OW24891   2.770   3.400   3.548
 7817SOL    HW124892   2.780   3.447   3.466
 7817SOL    HW224893   2.850   3.347   3.556
 7818SOL     OW24894   2.215   2.751   3.688
 7818SOL    HW124895   2.286   2.795   3.734
 7818SOL    HW224896   2.258   2.705   3.615
 7819SOL     OW24897   3.385   2.143   1.984
 7819SOL    HW124898   3.324   2.076   2.016
 7819SOL    HW224899   3.423   2.182   2.062
 7820SOL     OW24900   3.128   2.685   1.880
 7820SOL    HW124901   3.173   2.602   1.896
 7820SOL    HW224902   3.172   2.721   1.803
 7821SOL     OW24903   2.923   3.197   2.715
 7821SOL    HW124904   2.933   3.126   2.651
 7821SOL    HW224905   2.979   3.268   2.681
 7822SOL     OW24906   2.171   2.677   2.805
 7822SOL    HW124907   2.263   2.702   2.810
 7822SOL    HW224908   2.170   2.586   2.835
 7823SOL     OW24909   2.179   2.397   2.872
 7823SOL    HW124910   2.149   2.307   2.860
 7823SOL    HW224911   2.258   2.403   2.819
 7824SOL     OW24912   2.994   2.237   3.552
 7824SOL    HW124913   2.953   2.293   3.618
 7824SOL    HW224914   3.084   2.270   3.547
 7825SOL     OW24915   3.021   2.066   3.334
 7825SOL    HW124916   3.012   2.127   3.407
 7825SOL    HW224917   3.070   2.114   3.268
 7826SOL     OW24918   1.863   3.188   2.051
 7826SOL    HW124919   1.775   3.201   2.015
 7826SOL    HW224920   1.861   3.100   2.089
 7827SOL     OW24921   1.946   3.646   2.789
 7827SOL    HW124922   1.925   3.563   2.746
 7827SOL    HW224923   2.039   3.659   2.771
 7828SOL     OW24924   2.352   3.436   2.762
 7828SOL    HW124925   2.421   3.498   2.788
 7828SOL    HW224926   2.397   3.372   2.708
 7829SOL     OW24927   2.827   2.641   3.091
 7829SOL    HW124928   2.900   2.627   3.151
 7829SOL    HW224929   2.750   2.616   3.141
 7830SOL     OW24930   1.900   2.402   2.975
 7830SOL    HW124931   1.982   2.407   2.926
 7830SOL    HW224932   1.925   2.419   3.066
 7831SOL     OW24933   2.041   2.376   3.519
 7831SOL    HW124934   2.133   2.371   3.546
 7831SOL    HW224935   2.027   2.468   3.497
 7832SOL     OW24936   3.234   2.779   3.516
 7832SOL    HW124937   3.241   2.873   3.533
 7832SOL    HW224938   3.244   2.771   3.421
 7833SOL     OW24939   2.639   2.342   2.210
 7833SOL    HW124940   2.626   2.344   2.115
 7833SOL    HW224941   2.631   2.433   2.237
 7834SOL     OW24942   3.500   2.452   3.031
 7834SOL    HW124943   3.493   2.404   3.114
 7834SOL    HW224944   3.590   2.437   3.002
 7835SOL     OW24945   2.517   2.319   3.127
 7835SOL    HW124946   2.495   2.236   3.085
 7835SOL    HW224947   2.534   2.379   3.055
 7836SOL     OW24948   2.799   3.548   3.318
 7836SOL    HW124949   2.794   3.519   3.227
 7836SOL    HW224950   2.881   3.598   3.323
 7837SOL     OW24951   2.327   2.350   2.002
 7837SOL    HW124952   2.380   2.422   2.036
 7837SOL    HW224953   2.237   2.384   2.002
 7838SOL     OW24954   1.988   2.999   3.327
 7838SOL    HW124955   2.004   2.957   3.412
 7838SOL    HW224956   2.013   2.933   3.262
 7839SOL     OW24957   3.174   2.888   3.069
 7839SOL    HW124958   3.208   2.834   2.997
 7839SOL    HW224959   3.108   2.943   3.028
 7840SOL     OW24960   3.182   2.726   2.160
 7840SOL    HW124961   3.120   2.692   2.225
 7840SOL    HW224962   3.139   2.711   2.076
 7841SOL     OW24963   3.068   3.579   2.945
 7841SOL    HW124964   3.143   3.636   2.960
 7841SOL    HW224965   3.098   3.492   2.970
 7842SOL     OW24966   1.954   3.125   2.872
 7842SOL    HW124967   1.934   3.145   2.964
 7842SOL    HW224968   1.880   3.073   2.842
 7843SOL     OW24969   2.517   3.534   3.542
 7843SOL    HW124970   2.491   3.618   3.580
 7843SOL    HW224971   2.612   3.530   3.552
 7844SOL     OW24972   3.567   2.019   2.361
 7844SOL    HW124973   3.636   2.005   2.296
 7844SOL    HW224974   3.557   1.935   2.405
 7845SOL     OW24975   3.245   3.433   2.342
 7845SOL    HW124976   3.308   3.472   2.282
 7845SOL    HW224977   3.200   3.507   2.383
 7846SOL     OW24978   2.032   3.650   3.696
 7846SOL    HW124979   1.987   3.587   3.752
 7846SOL    HW224980   2.076   3.709   3.757
 7847SOL     OW24981   3.140   2.807   2.548
 7847SOL    HW124982   3.190   2.726   2.546
 7847SOL    HW224983   3.186   2.866   2.488
 7848SOL     OW24984   2.679   3.129   3.303
 7848SOL    HW124985   2.708   3.129   3.395
 7848SOL    HW224986   2.600   3.183   3.303
 7849SOL     OW24987   2.529   3.497   2.016
 7849SOL    HW124988   2.557   3.511   1.925
 7849SOL    HW224989   2.474   3.419   2.012
 7850SOL     OW24990   3.704   2.034   2.820
 7850SOL    HW124991   3.733   1.944   2.803
 7850SOL    HW224992   3.615   2.036   2.786
 7851SOL     OW24993   2.124   2.175   2.580
 7851SOL    HW124994   2.053   2.237   2.568
 7851SOL    HW224995   2.133   2.166   2.675
 7852SOL     OW24996   3.071   3.457   1.899
 7852SOL    HW124997   3.058   3.367   1.929
 7852SOL    HW224998   3.004   3.469   1.832
 7853SOL     OW24999   2.686   2.867   3.231
 7853SOL    HW125000   2.742   2.863   3.154
 7853SOL    HW225001   2.681   2.960   3.252
 7854SOL     OW25002   2.755   2.770   2.104
 7854SOL    HW125003   2.829   2.817   2.066
 7854SOL    HW225004   2.796   2.707   2.164
 7855SOL     OW25005   3.348   3.494   1.908
 7855SOL    HW125006   3.255   3.480   1.894
 7855SOL    HW225007   3.386   3.497   1.820
 7856SOL     OW25008   2.202   3.174   3.373
 7856SOL    HW125009   2.218   3.240   3.305
 7856SOL    HW225010   2.131   3.121   3.338
 7857SOL     OW25011   3.481   3.114   3.131
 7857SOL    HW125012   3.571   3.127   3.159
 7857SOL    HW225013   3.435   3.194   3.158
 7858SOL     OW25014   2.920   2.972   2.563
 7858SOL    HW125015   2.851   2.921   2.604
 7858SOL    HW225016   2.993   2.911   2.553
 7859SOL     OW25017   2.887   2.103   2.826
 7859SOL    HW125018   2.889   2.054   2.744
 7859SOL    HW225019   2.883   2.036   2.894
 7860SOL     OW25020   2.458   3.337   2.333
 7860SOL    HW125021   2.519   3.292   2.275
 7860SOL    HW225022   2.403   3.389   2.275
 7861SOL     OW25023   3.587   2.253   3.238
 7861SOL    HW125024   3.659   2.316   3.243
 7861SOL    HW225025   3.620   2.184   3.180
 7862SOL     OW25026   2.119   3.216   2.135
 7862SOL    HW125027   2.026   3.211   2.114
 7862SOL    HW225028   2.122   3.247   2.226
 7863SOL     OW25029   1.990   2.871   3.572
 7863SOL    HW125030   1.916   2.850   3.630
 7863SOL    HW225031   2.068   2.850   3.623
 7864SOL     OW25032   2.545   2.046   3.366
 7864SOL    HW125033   2.631   2.027   3.327
 7864SOL    HW225034   2.565   2.077   3.454
 7865SOL     OW25035   1.945   2.190   1.898
 7865SOL    HW125036   1.894   2.210   1.819
 7865SOL    HW225037   1.983   2.274   1.924
 7866SOL     OW25038   3.290   2.719   3.253
 7866SOL    HW125039   3.244   2.779   3.194
 7866SOL    HW225040   3.382   2.725   3.226
 7867SOL     OW25041   1.912   2.014   2.165
 7867SOL    HW125042   1.910   2.073   2.090
 7867SOL    HW225043   2.005   1.991   2.176
 7868SOL     OW25044   3.038   3.188   1.990
 7868SOL    HW125045   2.969   3.122   2.000
 7868SOL    HW225046   3.070   3.202   2.079
 7869SOL     OW25047   2.482   2.697   3.295
 7869SOL    HW125048   2.537   2.774   3.281
 7869SOL    HW225049   2.544   2.625   3.301
 7870SOL     OW25050   2.563   2.438   3.564
 7870SOL    HW125051   2.611   2.505   3.613
 7870SOL    HW225052   2.595   2.355   3.599
 7871SOL     OW25053   3.307   3.055   3.482
 7871SOL    HW125054   3.294   3.057   3.577
 7871SOL    HW225055   3.402   3.058   3.471
 7872SOL     OW25056   2.234   3.604   3.398
 7872SOL    HW125057   2.140   3.615   3.411
 7872SOL    HW225058   2.252   3.515   3.430
 7873SOL     OW25059   3.533   2.729   3.113
 7873SOL    HW125060   3.526   2.645   3.068
 7873SOL    HW225061   3.514   2.794   3.046
 7874SOL     OW25062   3.073   2.173   2.318
 7874SOL    HW125063   3.136   2.101   2.319
 7874SOL    HW225064   3.099   2.229   2.392
 7875SOL     OW25065   2.435   2.596   2.536
 7875SOL    HW125066   2.483   2.678   2.528
 7875SOL    HW225067   2.379   2.593   2.458
 7876SOL     OW25068   3.621   2.222   3.509
 7876SOL    HW125069   3.604   2.238   3.416
 7876SOL    HW225070   3.549   2.166   3.538
 7877SOL     OW25071   3.588   2.792   3.374
 7877SOL    HW125072   3.585   2.886   3.391
 7877SOL    HW225073   3.586   2.784   3.279
 7878SOL     OW25074   2.677   3.243   1.892
 7878SOL    HW125075   2.684   3.255   1.986
 7878SOL    HW225076   2.734   3.310   1.855
 7879SOL     OW25077   2.526   3.642   2.788
 7879SOL    HW125078   2.518   3.737   2.784
 7879SOL    HW225079   2.621   3.627   2.792
 7880SOL     OW25080   2.727   2.835   2.711
 7880SOL    HW125081   2.780   2.764   2.747
 7880SOL    HW225082   2.693   2.880   2.789
 7881SOL     OW25083   2.951   2.884   1.950
 7881SOL    HW125084   2.925   2.919   1.865
 7881SOL    HW225085   3.013   2.814   1.928
 7882SOL     OW25086   2.087   3.202   3.720
 7882SOL    HW125087   2.001   3.168   3.696
 7882SOL    HW225088   2.089   3.199   3.815
 7883SOL     OW25089   1.961   3.071   2.522
 7883SOL    HW125090   1.993   3.038   2.606
 7883SOL    HW225091   2.024   3.039   2.458
 7884SOL     OW25092   2.496   3.275   3.452
 7884SOL    HW125093   2.462   3.235   3.532
 7884SOL    HW225094   2.518   3.365   3.477
 7885SOL     OW25095   3.662   2.041   3.091
 7885SOL    HW125096   3.673   1.947   3.102
 7885SOL    HW225097   3.680   2.057   2.999
 7886SOL     OW25098   2.264   2.287   2.363
 7886SOL    HW125099   2.303   2.216   2.312
 7886SOL    HW225100   2.240   2.246   2.446
 7887SOL     OW25101   2.189   2.410   3.155
 7887SOL    HW125102   2.244   2.350   3.206
 7887SOL    HW225103   2.212   2.394   3.064
 7888SOL     OW25104   2.698   3.430   2.535
 7888SOL    HW125105   2.668   3.496   2.474
 7888SOL    HW225106   2.622   3.374   2.550
 7889SOL     OW25107   3.296   2.090   2.987
 7889SOL    HW125108   3.343   2.027   3.042
 7889SOL    HW225109   3.245   2.142   3.048
 7890SOL     OW25110   2.869   1.878   2.995
 7890SOL    HW125111   2.816   1.812   2.951
 7890SOL    HW225112   2.958   1.841   2.996
 7891SOL     OW25113   2.645   3.199   2.180
 7891SOL    HW125114   2.624   3.108   2.200
 7891SOL    HW225115   2.723   3.218   2.231
 7892SOL     OW25116   2.483   3.427   3.141
 7892SOL    HW125117   2.484   3.514   3.180
 7892SOL    HW225118   2.575   3.411   3.116
 7893SOL     OW25119   3.225   1.918   2.033
 7893SOL    HW125120   3.264   1.835   2.006
 7893SOL    HW225121   3.134   1.896   2.053
 7894SOL     OW25122   3.168   2.309   2.540
 7894SOL    HW125123   3.123   2.393   2.547
 7894SOL    HW225124   3.163   2.271   2.628
 7895SOL     OW25125   3.440   2.050   2.748
 7895SOL    HW125126   3.389   2.076   2.824
 7895SOL    HW225127   3.442   2.129   2.693
 7896SOL     OW25128   1.905   2.934   2.161
 7896SOL    HW125129   1.999   2.931   2.149
 7896SOL    HW225130   1.881   2.844   2.184
 7897SOL     OW25131   2.755   3.524   2.198
 7897SOL    HW125132   2.679   3.510   2.141
 7897SOL    HW225133   2.730   3.595   2.255
 7898SOL     OW25134   2.051   2.440   3.829
 7898SOL    HW125135   1.981   2.463   3.889
 7898SOL    HW225136   2.081   2.523   3.793
 7899SOL     OW25137   2.089   2.143   4.722
 7899SOL    HW125138   2.123   2.107   4.803
 7899SOL    HW225139   1.996   2.119   4.722
 7900SOL     OW25140   1.865   2.242   4.366
 7900SOL    HW125141   1.783   2.276   4.400
 7900SOL    HW225142   1.840   2.162   4.319
 7901SOL     OW25143   2.411   3.150   4.905
 7901SOL    HW125144   2.336   3.183   4.855
 7901SOL    HW225145   2.452   3.229   4.940
 7902SOL     OW25146   3.431   3.374   4.453
 7902SOL    HW125147   3.384   3.412   4.528
 7902SOL    HW225148   3.367   3.376   4.382
 7903SOL     OW25149   2.986   2.567   4.418
 7903SOL    HW125150   3.042   2.643   4.399
 7903SOL    HW225151   2.946   2.587   4.502
 7904SOL     OW25152   3.686   2.420   3.920
 7904SOL    HW125153   3.633   2.427   3.840
 7904SOL    HW225154   3.624   2.391   3.987
 7905SOL     OW25155   2.582   2.987   4.765
 7905SOL    HW125156   2.524   3.033   4.825
 7905SOL    HW225157   2.627   3.056   4.717
 7906SOL     OW25158   2.728   2.641   5.537
 7906SOL    HW125159   2.756   2.705   5.602
 7906SOL    HW225160   2.749   2.681   5.452
 7907SOL     OW25161   2.542   2.845   4.373
 7907SOL    HW125162   2.616   2.844   4.434
 7907SOL    HW225163   2.480   2.908   4.411
 7908SOL     OW25164   2.565   3.019   5.555
 7908SOL    HW125165   2.617   3.097   5.575
 7908SOL    HW225166   2.489   3.053   5.507
 7909SOL     OW25167   2.197   3.286   4.784
 7909SOL    HW125168   2.129   3.254   4.725
 7909SOL    HW225169   2.253   3.342   4.730
 7910SOL     OW25170   2.321   2.225   5.190
 7910SOL    HW125171   2.378   2.229   5.267
 7910SOL    HW225172   2.235   2.199   5.225
 7911SOL     OW25173   3.476   2.330   4.464
 7911SOL    HW125174   3.431   2.375   4.393
 7911SOL    HW225175   3.487   2.396   4.532
 7912SOL     OW25176   2.085   3.575   4.189
 7912SOL    HW125177   2.094   3.646   4.253
 7912SOL    HW225178   2.170   3.572   4.145
 7913SOL     OW25179   2.986   3.211   5.436
 7913SOL    HW125180   3.076   3.190   5.460
 7913SOL    HW225181   2.945   3.126   5.420
 7914SOL     OW25182   2.066   3.309   4.260
 7914SOL    HW125183   2.073   3.404   4.254
 7914SOL    HW225184   2.036   3.292   4.350
 7915SOL     OW25185   2.105   2.952   4.600
 7915SOL    HW125186   2.126   2.868   4.642
 7915SOL    HW225187   2.057   3.001   4.667
 7916SOL     OW25188   2.444   3.664   5.131
 7916SOL    HW125189   2.371   3.648   5.190
 7916SOL    HW225190   2.483   3.746   5.162
 7917SOL     OW25191   2.432   2.858   3.865
 7917SOL    HW125192   2.487   2.894   3.796
 7917SOL    HW225193   2.478   2.880   3.946
 7918SOL     OW25194   3.445   1.987   5.177
 7918SOL    HW125195   3.504   2.041   5.124
 7918SOL    HW225196   3.442   2.032   5.262
 7919SOL     OW25197   1.973   2.521   4.286
 7919SOL    HW125198   1.962   2.431   4.316
 7919SOL    HW225199   1.967   2.574   4.367
 7920SOL     OW25200   3.706   3.695   4.138
 7920SOL    HW125201   3.676   3.648   4.215
 7920SOL    HW225202   3.798   3.715   4.156
 7921SOL     OW25203   1.949   3.448   3.859
 7921SOL    HW125204   1.909   3.362   3.867
 7921SOL    HW225205   1.906   3.502   3.925
 7922SOL     OW25206   3.526   2.785   4.326
 7922SOL    HW125207   3.595   2.796   4.392
 7922SOL    HW225208   3.539   2.857   4.265
 7923SOL     OW25209   1.996   2.613   5.304
 7923SOL    HW125210   2.089   2.638   5.298
 7923SOL    HW225211   1.951   2.696   5.323
 7924SOL     OW25212   2.437   3.267   4.437
 7924SOL    HW125213   2.425   3.174   4.456
 7924SOL    HW225214   2.432   3.273   4.342
 7925SOL     OW25215   3.083   3.028   5.178
 7925SOL    HW125216   3.109   2.964   5.113
 7925SOL    HW225217   3.150   3.096   5.173
 7926SOL     OW25218   2.678   1.866   4.227
 7926SOL    HW125219   2.724   1.949   4.212
 7926SOL    HW225220   2.586   1.891   4.238
 7927SOL     OW25221   2.037   2.812   5.007
 7927SOL    HW125222   2.125   2.775   5.002
 7927SOL    HW225223   2.009   2.819   4.916
 7928SOL     OW25224   3.411   2.877   3.938
 7928SOL    HW125225   3.399   2.811   4.006
 7928SOL    HW225226   3.464   2.945   3.979
 7929SOL     OW25227   2.206   2.120   5.532
 7929SOL    HW125228   2.255   2.186   5.579
 7929SOL    HW225229   2.116   2.129   5.564
 7930SOL     OW25230   3.336   3.257   4.710
 7930SOL    HW125231   3.256   3.268   4.762
 7930SOL    HW225232   3.317   3.184   4.651
 7931SOL     OW25233   3.538   3.599   4.329
 7931SOL    HW125234   3.497   3.569   4.248
 7931SOL    HW225235   3.513   3.534   4.394
 7932SOL     OW25236   2.454   2.567   3.983
 7932SOL    HW125237   2.492   2.649   3.953
 7932SOL    HW225238   2.398   2.592   4.056
 7933SOL     OW25239   3.140   2.233   4.673
 7933SOL    HW125240   3.054   2.190   4.671
 7933SOL    HW225241   3.195   2.172   4.722
 7934SOL     OW25242   3.446   3.561   4.075
 7934SOL    HW125243   3.530   3.599   4.047
 7934SOL    HW225244   3.395   3.554   3.995
 7935SOL     OW25245   2.607   2.470   5.167
 7935SOL    HW125246   2.608   2.453   5.261
 7935SOL    HW225247   2.619   2.384   5.127
 7936SOL     OW25248   3.248   2.332   5.406
 7936SOL    HW125249   3.254   2.382   5.488
 7936SOL    HW225250   3.325   2.276   5.406
 7937SOL     OW25251   2.800   2.747   5.295
 7937SOL    HW125252   2.864   2.682   5.267
 7937SOL    HW225253   2.775   2.793   5.215
 7938SOL     OW25254   2.787   2.282   4.953
 7938SOL    HW125255   2.815   2.374   4.954
 7938SOL    HW225256   2.835   2.243   4.879
 7939SOL     OW25257   2.878   2.572   4.162
 7939SOL    HW125258   2.920   2.568   4.248
 7939SOL    HW225259   2.818   2.497   4.161
 7940SOL     OW25260   1.944   2.671   4.512
 7940SOL    HW125261   2.028   2.681   4.556
 7940SOL    HW225262   1.892   2.745   4.542
 7941SOL     OW25263   1.963   3.682   5.291
 7941SOL    HW125264   1.967   3.674   5.386
 7941SOL    HW225265   1.937   3.773   5.276
 7942SOL     OW25266   2.746   2.205   3.881
 7942SOL    HW125267   2.794   2.275   3.837
 7942SOL    HW225268   2.811   2.135   3.890
 7943SOL     OW25269   3.549   2.426   5.556
 7943SOL    HW125270   3.522   2.507   5.512
 7943SOL    HW225271   3.611   2.385   5.496
 7944SOL     OW25272   3.267   2.982   4.254
 7944SOL    HW125273   3.357   3.014   4.254
 7944SOL    HW225274   3.215   3.055   4.222
 7945SOL     OW25275   2.409   2.049   4.605
 7945SOL    HW125276   2.404   2.124   4.665
 7945SOL    HW225277   2.443   2.086   4.524
 7946SOL     OW25278   2.843   3.295   4.187
 7946SOL    HW125279   2.836   3.386   4.159
 7946SOL    HW225280   2.889   3.299   4.271
 7947SOL     OW25281   2.222   3.685   4.606
 7947SOL    HW125282   2.277   3.606   4.612
 7947SOL    HW225283   2.283   3.758   4.614
 7948SOL     OW25284   3.638   2.868   4.582
 7948SOL    HW125285   3.666   2.946   4.535
 7948SOL    HW225286   3.605   2.900   4.665
 7949SOL     OW25287   2.184   2.846   3.987
 7949SOL    HW125288   2.268   2.861   3.943
 7949SOL    HW225289   2.167   2.753   3.975
 7950SOL     OW25290   3.346   2.613   4.440
 7950SOL    HW125291   3.361   2.590   4.531
 7950SOL    HW225292   3.415   2.677   4.420
 7951SOL     OW25293   2.321   3.123   5.469
 7951SOL    HW125294   2.298   3.128   5.376
 7951SOL    HW225295   2.236   3.131   5.514
 7952SOL     OW25296   2.892   3.614   3.953
 7952SOL    HW125297   2.964   3.564   3.992
 7952SOL    HW225298   2.936   3.684   3.905
 7953SOL     OW25299   2.063   2.143   5.224
 7953SOL    HW125300   2.001   2.216   5.231
 7953SOL    HW225301   2.046   2.090   5.302
 7954SOL     OW25302   2.320   3.591   4.039
 7954SOL    HW125303   2.354   3.651   4.106
 7954SOL    HW225304   2.396   3.573   3.983
 7955SOL     OW25305   3.265   1.972   4.163
 7955SOL    HW125306   3.265   1.948   4.071
 7955SOL    HW225307   3.356   1.990   4.184
 7956SOL     OW25308   2.113   3.646   4.951
 7956SOL    HW125309   2.178   3.595   5.000
 7956SOL    HW225310   2.137   3.633   4.859
 7957SOL     OW25311   2.781   3.514   4.687
 7957SOL    HW125312   2.868   3.547   4.709
 7957SOL    HW225313   2.784   3.496   4.593
 7958SOL     OW25314   2.244   2.562   4.177
 7958SOL    HW125315   2.258   2.468   4.194
 7958SOL    HW225316   2.157   2.579   4.213
 7959SOL     OW25317   3.399   2.091   5.436
 7959SOL    HW125318   3.403   2.108   5.530
 7959SOL    HW225319   3.319   2.040   5.424
 7960SOL     OW25320   2.471   1.963   3.848
 7960SOL    HW125321   2.565   1.944   3.852
 7960SOL    HW225322   2.445   1.937   3.760
 7961SOL     OW25323   2.627   2.124   5.492
 7961SOL    HW125324   2.708   2.073   5.481
 7961SOL    HW225325   2.634   2.160   5.581
 7962SOL     OW25326   2.730   3.379   4.929
 7962SOL    HW125327   2.746   3.419   4.843
 7962SOL    HW225328   2.809   3.327   4.946
 7963SOL     OW25329   3.204   2.452   5.159
 7963SOL    HW125330   3.241   2.430   5.244
 7963SOL    HW225331   3.245   2.536   5.137
 7964SOL     OW25332   2.675   3.207   4.635
 7964SOL    HW125333   2.771   3.206   4.625
 7964SOL    HW225334   2.648   3.284   4.585
 7965SOL     OW25335   2.779   2.357   4.637
 7965SOL    HW125336   2.753   2.353   4.544
 7965SOL    HW225337   2.820   2.272   4.654
 7966SOL     OW25338   2.408   1.926   4.223
 7966SOL    HW125339   2.326   1.926   4.273
 7966SOL    HW225340   2.403   2.004   4.169
 7967SOL     OW25341   3.228   2.982   3.745
 7967SOL    HW125342   3.285   2.945   3.812
 7967SOL    HW225343   3.167   3.038   3.792
 7968SOL     OW25344   2.164   1.910   3.912
 7968SOL    HW125345   2.235   1.970   3.892
 7968SOL    HW225346   2.206   1.836   3.955
 7969SOL     OW25347   2.803   2.110   4.181
 7969SOL    HW125348   2.773   2.173   4.116
 7969SOL    HW225349   2.897   2.122   4.186
 7970SOL     OW25350   2.950   2.539   5.204
 7970SOL    HW125351   2.912   2.451   5.210
 7970SOL    HW225352   3.044   2.523   5.194
 7971SOL     OW25353   3.064   3.411   4.492
 7971SOL    HW125354   3.099   3.474   4.430
 7971SOL    HW225355   3.074   3.452   4.578
 7972SOL     OW25356   2.330   3.005   4.450
 7972SOL    HW125357   2.265   2.994   4.519
 7972SOL    HW225358   2.281   2.993   4.369
 7973SOL     OW25359   3.117   3.633   4.309
 7973SOL    HW125360   3.157   3.710   4.269
 7973SOL    HW225361   3.044   3.667   4.361
 7974SOL     OW25362   2.888   2.399   3.755
 7974SOL    HW125363   2.858   2.488   3.738
 7974SOL    HW225364   2.953   2.408   3.825
 7975SOL     OW25365   1.947   2.414   5.124
 7975SOL    HW125366   2.037   2.413   5.093
 7975SOL    HW225367   1.942   2.491   5.182
 7976SOL     OW25368   2.705   2.303   4.374
 7976SOL    HW125369   2.676   2.362   4.305
 7976SOL    HW225370   2.749   2.232   4.327
 7977SOL     OW25371   2.837   1.934   4.496
 7977SOL    HW125372   2.838   1.919   4.402
 7977SOL    HW225373   2.838   1.846   4.534
 7978SOL     OW25374   3.314   3.003   4.585
 7978SOL    HW125375   3.249   2.994   4.516
 7978SOL    HW225376   3.393   3.032   4.540
 7979SOL     OW25377   3.331   2.475   4.689
 7979SOL    HW125378   3.277   2.395   4.688
 7979SOL    HW225379   3.388   2.465   4.765
 7980SOL     OW25380   3.666   2.631   4.100
 7980SOL    HW125381   3.736   2.678   4.144
 7980SOL    HW225382   3.710   2.581   4.031
 7981SOL     OW25383   2.345   3.237   3.865
 7981SOL    HW125384   2.314   3.192   3.943
 7981SOL    HW225385   2.393   3.171   3.815
 7982SOL     OW25386   3.514   3.111   4.445
 7982SOL    HW125387   3.585   3.095   4.384
 7982SOL    HW225388   3.494   3.204   4.436
 7983SOL     OW25389   3.255   2.438   3.789
 7983SOL    HW125390   3.203   2.417   3.866
 7983SOL    HW225391   3.346   2.429   3.818
 7984SOL     OW25392   2.380   2.127   4.042
 7984SOL    HW125393   2.427   2.073   3.979
 7984SOL    HW225394   2.364   2.209   3.996
 7985SOL     OW25395   2.915   3.200   5.045
 7985SOL    HW125396   2.840   3.176   5.100
 7985SOL    HW225397   2.991   3.163   5.091
 7986SOL     OW25398   2.912   3.031   4.815
 7986SOL    HW125399   2.923   3.094   4.887
 7986SOL    HW225400   2.934   3.081   4.736
 7987SOL     OW25401   3.490   2.965   4.812
 7987SOL    HW125402   3.518   3.048   4.851
 7987SOL    HW225403   3.423   2.989   4.748
 7988SOL     OW25404   2.787   1.950   5.113
 7988SOL    HW125405   2.806   1.931   5.021
 7988SOL    HW225406   2.867   1.993   5.146
 7989SOL     OW25407   2.837   2.976   5.449
 7989SOL    HW125408   2.742   2.986   5.452
 7989SOL    HW225409   2.853   2.910   5.383
 7990SOL     OW25410   2.563   2.907   4.101
 7990SOL    HW125411   2.558   2.893   4.196
 7990SOL    HW225412   2.640   2.856   4.073
 7991SOL     OW25413   2.273   2.681   4.989
 7991SOL    HW125414   2.350   2.697   5.043
 7991SOL    HW225415   2.252   2.589   5.006
 7992SOL     OW25416   3.130   2.239   5.011
 7992SOL    HW125417   3.165   2.309   5.066
 7992SOL    HW225418   3.111   2.281   4.928
 7993SOL     OW25419   1.944   3.432   5.070
 7993SOL    HW125420   1.930   3.522   5.044
 7993SOL    HW225421   2.040   3.422   5.071
 7994SOL     OW25422   2.185   2.994   4.218
 7994SOL    HW125423   2.232   3.071   4.184
 7994SOL    HW225424   2.189   2.931   4.146
 7995SOL     OW25425   2.403   2.389   4.580
 7995SOL    HW125426   2.414   2.448   4.505
 7995SOL    HW225427   2.470   2.417   4.643
 7996SOL     OW25428   3.118   3.187   4.166
 7996SOL    HW125429   3.178   3.260   4.181
 7996SOL    HW225430   3.038   3.228   4.133
 7997SOL     OW25431   3.129   3.266   4.879
 7997SOL    HW125432   3.189   3.253   4.953
 7997SOL    HW225433   3.043   3.273   4.920
 7998SOL     OW25434   3.458   2.492   4.204
 7998SOL    HW125435   3.405   2.549   4.259
 7998SOL    HW225436   3.529   2.548   4.173
 7999SOL     OW25437   2.212   3.373   5.040
 7999SOL    HW125438   2.202   3.341   4.950
 7999SOL    HW225439   2.305   3.393   5.047
 8000SOL     OW25440   2.300   2.601   5.333
 8000SOL    HW125441   2.346   2.654   5.268
 8000SOL    HW225442   2.368   2.545   5.371
 8001SOL     OW25443   3.467   2.641   5.406
 8001SOL    HW125444   3.380   2.679   5.391
 8001SOL    HW225445   3.524   2.689   5.346
 8002SOL     OW25446   2.861   1.993   5.471
 8002SOL    HW125447   2.917   2.069   5.457
 8002SOL    HW225448   2.911   1.919   5.437
 8003SOL     OW25449   2.362   1.896   5.466
 8003SOL    HW125450   2.312   1.844   5.403
 8003SOL    HW225451   2.309   1.975   5.478
 8004SOL     OW25452   2.439   2.749   4.753
 8004SOL    HW125453   2.493   2.827   4.739
 8004SOL    HW225454   2.398   2.762   4.838
 8005SOL     OW25455   3.182   2.701   4.755
 8005SOL    HW125456   3.191   2.755   4.677
 8005SOL    HW225457   3.239   2.626   4.739
 8006SOL     OW25458   3.052   2.387   3.980
 8006SOL    HW125459   3.064   2.324   4.050
 8006SOL    HW225460   3.065   2.472   4.021
 8007SOL     OW25461   2.186   2.049   4.980
 8007SOL    HW125462   2.139   2.086   5.054
 8007SOL    HW225463   2.157   1.957   4.977
 8008SOL     OW25464   1.875   3.178   5.013
 8008SOL    HW125465   1.923   3.125   5.077
 8008SOL    HW225466   1.901   3.268   5.033
 8009SOL     OW25467   2.559   2.491   4.778
 8009SOL    HW125468   2.649   2.480   4.746
 8009SOL    HW225469   2.541   2.584   4.767
 8010SOL     OW25470   3.582   2.818   5.602
 8010SOL    HW125471   3.536   2.770   5.533
 8010SOL    HW225472   3.516   2.833   5.670
 8011SOL     OW25473   2.162   1.917   4.352
 8011SOL    HW125474   2.145   2.009   4.373
 8011SOL    HW225475   2.181   1.877   4.437
 8012SOL     OW25476   3.469   2.248   4.084
 8012SOL    HW125477   3.502   2.188   4.151
 8012SOL    HW225478   3.457   2.331   4.129
 8013SOL     OW25479   2.871   2.613   4.668
 8013SOL    HW125480   2.900   2.629   4.758
 8013SOL    HW225481   2.851   2.519   4.666
 8014SOL     OW25482   2.826   3.432   5.415
 8014SOL    HW125483   2.816   3.466   5.327
 8014SOL    HW225484   2.884   3.356   5.405
 8015SOL     OW25485   3.802   3.476   5.296
 8015SOL    HW125486   3.750   3.446   5.221
 8015SOL    HW225487   3.857   3.401   5.318
 8016SOL     OW25488   2.211   2.761   5.547
 8016SOL    HW125489   2.287   2.807   5.583
 8016SOL    HW225490   2.246   2.710   5.474
 8017SOL     OW25491   3.396   2.127   3.849
 8017SOL    HW125492   3.332   2.063   3.880
 8017SOL    HW225493   3.423   2.173   3.928
 8018SOL     OW25494   3.130   2.679   3.747
 8018SOL    HW125495   3.179   2.598   3.757
 8018SOL    HW225496   3.169   2.721   3.671
 8019SOL     OW25497   2.941   3.183   4.580
 8019SOL    HW125498   2.945   3.125   4.504
 8019SOL    HW225499   2.989   3.261   4.554
 8020SOL     OW25500   2.177   2.683   4.670
 8020SOL    HW125501   2.268   2.711   4.673
 8020SOL    HW225502   2.178   2.594   4.705
 8021SOL     OW25503   2.187   2.396   4.740
 8021SOL    HW125504   2.155   2.307   4.725
 8021SOL    HW225505   2.264   2.404   4.683
 8022SOL     OW25506   2.995   2.233   5.420
 8022SOL    HW125507   2.953   2.293   5.482
 8022SOL    HW225508   3.084   2.267   5.411
 8023SOL     OW25509   3.018   2.066   5.198
 8023SOL    HW125510   3.012   2.128   5.271
 8023SOL    HW225511   3.063   2.114   5.129
 8024SOL     OW25512   1.858   3.179   3.909
 8024SOL    HW125513   1.771   3.193   3.873
 8024SOL    HW225514   1.854   3.090   3.946
 8025SOL     OW25515   1.954   3.641   4.656
 8025SOL    HW125516   1.936   3.561   4.607
 8025SOL    HW225517   2.045   3.661   4.637
 8026SOL     OW25518   2.359   3.440   4.633
 8026SOL    HW125519   2.429   3.501   4.656
 8026SOL    HW225520   2.396   3.383   4.566
 8027SOL     OW25521   2.839   2.594   4.950
 8027SOL    HW125522   2.911   2.605   5.012
 8027SOL    HW225523   2.772   2.656   4.978
 8028SOL     OW25524   1.906   2.398   4.842
 8028SOL    HW125525   1.983   2.416   4.789
 8028SOL    HW225526   1.936   2.409   4.932
 8029SOL     OW25527   2.052   2.395   5.451
 8029SOL    HW125528   2.139   2.384   5.414
 8029SOL    HW225529   2.014   2.469   5.404
 8030SOL     OW25530   3.214   2.751   5.365
 8030SOL    HW125531   3.244   2.841   5.372
 8030SOL    HW225532   3.221   2.730   5.272
 8031SOL     OW25533   2.664   2.394   4.094
 8031SOL    HW125534   2.682   2.346   4.013
 8031SOL    HW225535   2.607   2.466   4.067
 8032SOL     OW25536   3.494   2.436   4.897
 8032SOL    HW125537   3.496   2.405   4.987
 8032SOL    HW225538   3.584   2.425   4.866
 8033SOL     OW25539   2.096   3.410   5.445
 8033SOL    HW125540   2.079   3.488   5.498
 8033SOL    HW225541   2.110   3.340   5.508
 8034SOL     OW25542   2.521   2.266   4.937
 8034SOL    HW125543   2.616   2.259   4.946
 8034SOL    HW225544   2.507   2.348   4.890
 8035SOL     OW25545   2.784   3.547   5.160
 8035SOL    HW125546   2.761   3.503   5.079
 8035SOL    HW225547   2.839   3.621   5.133
 8036SOL     OW25548   2.318   2.344   3.889
 8036SOL    HW125549   2.376   2.415   3.914
 8036SOL    HW225550   2.230   2.382   3.889
 8037SOL     OW25551   1.987   2.999   5.197
 8037SOL    HW125552   1.999   2.955   5.281
 8037SOL    HW225553   2.007   2.933   5.131
 8038SOL     OW25554   3.153   2.887   4.951
 8038SOL    HW125555   3.167   2.823   4.882
 8038SOL    HW225556   3.135   2.969   4.905
 8039SOL     OW25557   3.150   2.649   4.029
 8039SOL    HW125558   3.144   2.721   4.091
 8039SOL    HW225559   3.153   2.692   3.943
 8040SOL     OW25560   3.607   3.595   4.829
 8040SOL    HW125561   3.674   3.622   4.766
 8040SOL    HW225562   3.605   3.500   4.825
 8041SOL     OW25563   3.070   3.509   4.744
 8041SOL    HW125564   3.107   3.594   4.771
 8041SOL    HW225565   3.120   3.444   4.794
 8042SOL     OW25566   1.944   3.098   4.759
 8042SOL    HW125567   1.934   3.131   4.849
 8042SOL    HW225568   1.861   3.119   4.717
 8043SOL     OW25569   2.539   3.530   5.457
 8043SOL    HW125570   2.488   3.611   5.450
 8043SOL    HW225571   2.622   3.551   5.414
 8044SOL     OW25572   3.574   2.019   4.223
 8044SOL    HW125573   3.646   2.006   4.162
 8044SOL    HW225574   3.564   1.934   4.266
 8045SOL     OW25575   3.261   3.412   4.231
 8045SOL    HW125576   3.332   3.438   4.172
 8045SOL    HW225577   3.212   3.492   4.245
 8046SOL     OW25578   2.006   3.647   5.562
 8046SOL    HW125579   1.953   3.589   5.616
 8046SOL    HW225580   2.056   3.700   5.625
 8047SOL     OW25581   3.142   2.784   4.381
 8047SOL    HW125582   3.216   2.726   4.401
 8047SOL    HW225583   3.181   2.857   4.333
 8048SOL     OW25584   2.668   3.136   5.156
 8048SOL    HW125585   2.634   3.175   5.237
 8048SOL    HW225586   2.641   3.197   5.087
 8049SOL     OW25587   2.463   3.484   3.840
 8049SOL    HW125588   2.544   3.523   3.805
 8049SOL    HW225589   2.487   3.393   3.859
 8050SOL     OW25590   3.576   3.632   5.096
 8050SOL    HW125591   3.562   3.611   5.004
 8050SOL    HW225592   3.593   3.726   5.097
 8051SOL     OW25593   3.692   2.025   4.697
 8051SOL    HW125594   3.721   1.938   4.670
 8051SOL    HW225595   3.612   2.040   4.648
 8052SOL     OW25596   2.122   2.167   4.443
 8052SOL    HW125597   2.039   2.210   4.423
 8052SOL    HW225598   2.127   2.167   4.539
 8053SOL     OW25599   2.704   2.876   5.067
 8053SOL    HW125600   2.745   2.895   4.983
 8053SOL    HW225601   2.688   2.963   5.106
 8054SOL     OW25602   2.757   2.750   3.997
 8054SOL    HW125603   2.820   2.788   3.937
 8054SOL    HW225604   2.809   2.696   4.057
 8055SOL     OW25605   2.222   3.160   5.223
 8055SOL    HW125606   2.228   3.234   5.163
 8055SOL    HW225607   2.142   3.113   5.197
 8056SOL     OW25608   2.911   2.960   4.408
 8056SOL    HW125609   2.850   2.912   4.464
 8056SOL    HW225610   2.985   2.901   4.397
 8057SOL     OW25611   2.885   2.106   4.703
 8057SOL    HW125612   2.871   2.061   4.620
 8057SOL    HW225613   2.882   2.037   4.769
 8058SOL     OW25614   2.445   3.321   4.166
 8058SOL    HW125615   2.518   3.280   4.121
 8058SOL    HW225616   2.464   3.415   4.162
 8059SOL     OW25617   3.588   2.256   5.112
 8059SOL    HW125618   3.658   2.321   5.110
 8059SOL    HW225619   3.616   2.190   5.048
 8060SOL     OW25620   2.104   3.241   4.005
 8060SOL    HW125621   2.013   3.217   3.988
 8060SOL    HW225622   2.106   3.262   4.099
 8061SOL     OW25623   1.976   2.865   5.439
 8061SOL    HW125624   1.903   2.856   5.500
 8061SOL    HW225625   2.053   2.842   5.490
 8062SOL     OW25626   2.571   2.070   5.226
 8062SOL    HW125627   2.656   2.039   5.195
 8062SOL    HW225628   2.584   2.090   5.318
 8063SOL     OW25629   1.914   2.211   3.741
 8063SOL    HW125630   1.848   2.199   3.810
 8063SOL    HW225631   1.963   2.288   3.767
 8064SOL     OW25632   3.284   2.706   5.107
 8064SOL    HW125633   3.235   2.774   5.060
 8064SOL    HW225634   3.375   2.718   5.080
 8065SOL     OW25635   1.935   2.013   4.039
 8065SOL    HW125636   1.949   2.107   4.041
 8065SOL    HW225637   2.015   1.977   4.002
 8066SOL     OW25638   3.016   3.154   3.837
 8066SOL    HW125639   2.941   3.136   3.893
 8066SOL    HW225640   3.056   3.233   3.875
 8067SOL     OW25641   2.485   2.708   5.151
 8067SOL    HW125642   2.547   2.779   5.132
 8067SOL    HW225643   2.540   2.630   5.153
 8068SOL     OW25644   3.386   3.615   4.635
 8068SOL    HW125645   3.393   3.704   4.601
 8068SOL    HW225646   3.432   3.618   4.719
 8069SOL     OW25647   2.573   2.436   5.436
 8069SOL    HW125648   2.616   2.511   5.476
 8069SOL    HW225649   2.618   2.360   5.472
 8070SOL     OW25650   3.322   2.990   5.366
 8070SOL    HW125651   3.293   3.017   5.453
 8070SOL    HW225652   3.346   3.072   5.322
 8071SOL     OW25653   2.223   3.602   5.282
 8071SOL    HW125654   2.135   3.637   5.267
 8071SOL    HW225655   2.209   3.517   5.322
 8072SOL     OW25656   3.522   2.752   4.983
 8072SOL    HW125657   3.549   2.683   4.922
 8072SOL    HW225658   3.514   2.830   4.927
 8073SOL     OW25659   3.069   2.175   4.180
 8073SOL    HW125660   3.139   2.110   4.173
 8073SOL    HW225661   3.092   2.227   4.257
 8074SOL     OW25662   2.433   2.587   4.391
 8074SOL    HW125663   2.483   2.669   4.395
 8074SOL    HW225664   2.375   2.598   4.316
 8075SOL     OW25665   3.643   2.199   5.374
 8075SOL    HW125666   3.622   2.232   5.286
 8075SOL    HW225667   3.561   2.159   5.404
 8076SOL     OW25668   3.613   2.803   5.245
 8076SOL    HW125669   3.676   2.874   5.252
 8076SOL    HW225670   3.593   2.798   5.151
 8077SOL     OW25671   2.655   3.235   3.763
 8077SOL    HW125672   2.679   3.238   3.856
 8077SOL    HW225673   2.715   3.298   3.722
 8078SOL     OW25674   2.532   3.642   4.675
 8078SOL    HW125675   2.541   3.734   4.652
 8078SOL    HW225676   2.622   3.611   4.687
 8079SOL     OW25677   2.729   2.827   4.574
 8079SOL    HW125678   2.783   2.757   4.611
 8079SOL    HW225679   2.709   2.884   4.649
 8080SOL     OW25680   2.915   2.836   3.793
 8080SOL    HW125681   2.945   2.924   3.772
 8080SOL    HW225682   2.991   2.780   3.778
 8081SOL     OW25683   3.696   3.401   4.583
 8081SOL    HW125684   3.632   3.389   4.513
 8081SOL    HW225685   3.651   3.371   4.662
 8082SOL     OW25686   2.085   3.165   5.591
 8082SOL    HW125687   1.999   3.137   5.560
 8082SOL    HW225688   2.075   3.175   5.685
 8083SOL     OW25689   1.954   3.060   4.393
 8083SOL    HW125690   2.004   3.023   4.466
 8083SOL    HW225691   2.014   3.058   4.319
 8084SOL     OW25692   2.550   3.260   5.369
 8084SOL    HW125693   2.458   3.240   5.390
 8084SOL    HW225694   2.558   3.354   5.390
 8085SOL     OW25695   3.676   2.042   4.971
 8085SOL    HW125696   3.769   2.025   4.988
 8085SOL    HW225697   3.670   2.046   4.875
 8086SOL     OW25698   2.258   2.297   4.232
 8086SOL    HW125699   2.317   2.236   4.188
 8086SOL    HW225700   2.236   2.254   4.315
 8087SOL     OW25701   3.570   3.320   4.824
 8087SOL    HW125702   3.483   3.306   4.787
 8087SOL    HW225703   3.555   3.322   4.919
 8088SOL     OW25704   2.193   2.410   5.017
 8088SOL    HW125705   2.261   2.356   5.059
 8088SOL    HW225706   2.211   2.402   4.923
 8089SOL     OW25707   2.685   3.436   4.427
 8089SOL    HW125708   2.707   3.508   4.367
 8089SOL    HW225709   2.612   3.391   4.385
 8090SOL     OW25710   3.291   2.079   4.835
 8090SOL    HW125711   3.351   2.010   4.864
 8090SOL    HW225712   3.258   2.118   4.916
 8091SOL     OW25713   2.855   1.871   4.857
 8091SOL    HW125714   2.816   1.812   4.793
 8091SOL    HW225715   2.944   1.838   4.869
 8092SOL     OW25716   2.649   3.182   4.039
 8092SOL    HW125717   2.638   3.092   4.071
 8092SOL    HW225718   2.721   3.217   4.092
 8093SOL     OW25719   2.480   3.414   5.020
 8093SOL    HW125720   2.479   3.502   5.057
 8093SOL    HW225721   2.566   3.405   4.979
 8094SOL     OW25722   3.224   1.908   3.896
 8094SOL    HW125723   3.261   1.831   3.853
 8094SOL    HW225724   3.133   1.884   3.914
 8095SOL     OW25725   3.122   2.318   4.402
 8095SOL    HW125726   3.091   2.409   4.405
 8095SOL    HW225727   3.145   2.297   4.493
 8096SOL     OW25728   3.454   2.081   4.585
 8096SOL    HW125729   3.387   2.091   4.652
 8096SOL    HW225730   3.454   2.164   4.538
 8097SOL     OW25731   1.898   2.932   4.028
 8097SOL    HW125732   1.993   2.931   4.022
 8097SOL    HW225733   1.874   2.840   4.043
 8098SOL     OW25734   2.674   3.518   4.081
 8098SOL    HW125735   2.746   3.540   4.022
 8098SOL    HW225736   2.671   3.591   4.143
 8099SOL     OW25737   2.076   2.462   5.718
 8099SOL    HW125738   2.006   2.521   5.746
 8099SOL    HW225739   2.072   2.464   5.622
 8100SOL     OW25740   2.082   2.152   6.583
 8100SOL    HW125741   2.115   2.114   6.664
 8100SOL    HW225742   1.994   2.116   6.574
 8101SOL     OW25743   1.871   2.243   6.227
 8101SOL    HW125744   1.786   2.262   6.266
 8101SOL    HW225745   1.855   2.169   6.169
 8102SOL     OW25746   2.397   3.161   6.742
 8102SOL    HW125747   2.430   3.213   6.668
 8102SOL    HW225748   2.437   3.202   6.819
 8103SOL     OW25749   2.980   2.572   6.281
 8103SOL    HW125750   3.034   2.649   6.263
 8103SOL    HW225751   2.938   2.591   6.365
 8104SOL     OW25752   3.591   2.441   5.837
 8104SOL    HW125753   3.585   2.435   5.741
 8104SOL    HW225754   3.581   2.351   5.867
 8105SOL     OW25755   2.590   2.985   6.626
 8105SOL    HW125756   2.540   3.028   6.696
 8105SOL    HW225757   2.631   3.057   6.579
 8106SOL     OW25758   2.725   2.634   7.402
 8106SOL    HW125759   2.762   2.695   7.466
 8106SOL    HW225760   2.744   2.674   7.317
 8107SOL     OW25761   2.544   2.855   6.230
 8107SOL    HW125762   2.615   2.850   6.294
 8107SOL    HW225763   2.480   2.914   6.269
 8108SOL     OW25764   2.563   3.009   7.407
 8108SOL    HW125765   2.613   3.086   7.434
 8108SOL    HW225766   2.486   3.044   7.362
 8109SOL     OW25767   2.134   3.305   6.575
 8109SOL    HW125768   2.120   3.353   6.494
 8109SOL    HW225769   2.226   3.321   6.597
 8110SOL     OW25770   2.327   2.237   7.091
 8110SOL    HW125771   2.418   2.214   7.074
 8110SOL    HW225772   2.279   2.155   7.078
 8111SOL     OW25773   3.470   2.307   6.309
 8111SOL    HW125774   3.447   2.325   6.218
 8111SOL    HW225775   3.474   2.394   6.350
 8112SOL     OW25776   2.095   3.568   6.050
 8112SOL    HW125777   2.108   3.642   6.109
 8112SOL    HW225778   2.170   3.571   5.991
 8113SOL     OW25779   2.993   3.198   7.283
 8113SOL    HW125780   3.054   3.204   7.356
 8113SOL    HW225781   2.957   3.110   7.289
 8114SOL     OW25782   2.071   3.308   6.127
 8114SOL    HW125783   2.084   3.399   6.104
 8114SOL    HW225784   2.017   3.310   6.206
 8115SOL     OW25785   2.118   2.963   6.506
 8115SOL    HW125786   2.129   2.868   6.508
 8115SOL    HW225787   2.181   2.996   6.570
 8116SOL     OW25788   2.433   3.670   6.966
 8116SOL    HW125789   2.377   3.660   7.042
 8116SOL    HW225790   2.511   3.715   6.999
 8117SOL     OW25791   2.442   2.857   5.741
 8117SOL    HW125792   2.487   2.900   5.669
 8117SOL    HW225793   2.487   2.888   5.820
 8118SOL     OW25794   3.448   1.985   7.051
 8118SOL    HW125795   3.505   2.041   6.998
 8118SOL    HW225796   3.433   2.035   7.131
 8119SOL     OW25797   1.967   2.521   6.149
 8119SOL    HW125798   1.958   2.430   6.175
 8119SOL    HW225799   1.965   2.570   6.231
 8120SOL     OW25800   1.890   3.457   5.716
 8120SOL    HW125801   1.878   3.366   5.743
 8120SOL    HW225802   1.869   3.508   5.794
 8121SOL     OW25803   3.530   2.749   6.194
 8121SOL    HW125804   3.626   2.743   6.203
 8121SOL    HW225805   3.516   2.829   6.144
 8122SOL     OW25806   3.496   2.986   6.043
 8122SOL    HW125807   3.585   2.973   6.009
 8122SOL    HW225808   3.504   3.057   6.105
 8123SOL     OW25809   2.025   2.580   7.185
 8123SOL    HW125810   2.106   2.632   7.184
 8123SOL    HW225811   1.956   2.644   7.205
 8124SOL     OW25812   2.438   3.264   6.309
 8124SOL    HW125813   2.416   3.171   6.310
 8124SOL    HW225814   2.434   3.289   6.217
 8125SOL     OW25815   3.130   3.013   7.054
 8125SOL    HW125816   3.152   3.040   6.965
 8125SOL    HW225817   3.194   3.059   7.109
 8126SOL     OW25818   2.682   1.859   6.103
 8126SOL    HW125819   2.727   1.940   6.077
 8126SOL    HW225820   2.589   1.883   6.106
 8127SOL     OW25821   2.038   2.818   6.854
 8127SOL    HW125822   2.126   2.781   6.859
 8127SOL    HW225823   2.009   2.798   6.765
 8128SOL     OW25824   3.385   2.868   5.800
 8128SOL    HW125825   3.328   2.802   5.842
 8128SOL    HW225826   3.432   2.909   5.873
 8129SOL     OW25827   2.984   3.671   7.181
 8129SOL    HW125828   3.039   3.737   7.139
 8129SOL    HW225829   3.026   3.587   7.161
 8130SOL     OW25830   2.191   2.204   7.379
 8130SOL    HW125831   2.255   2.226   7.447
 8130SOL    HW225832   2.115   2.173   7.427
 8131SOL     OW25833   2.457   2.572   5.851
 8131SOL    HW125834   2.475   2.656   5.810
 8131SOL    HW225835   2.394   2.591   5.920
 8132SOL     OW25836   3.158   2.221   6.534
 8132SOL    HW125837   3.066   2.195   6.530
 8132SOL    HW225838   3.196   2.165   6.601
 8133SOL     OW25839   2.638   2.476   7.026
 8133SOL    HW125840   2.626   2.449   7.117
 8133SOL    HW225841   2.591   2.411   6.974
 8134SOL     OW25842   2.798   2.737   7.159
 8134SOL    HW125843   2.867   2.674   7.138
 8134SOL    HW225844   2.784   2.784   7.077
 8135SOL     OW25845   2.861   2.270   6.816
 8135SOL    HW125846   2.813   2.351   6.832
 8135SOL    HW225847   2.843   2.250   6.724
 8136SOL     OW25848   2.907   2.564   6.013
 8136SOL    HW125849   2.932   2.565   6.105
 8136SOL    HW225850   2.830   2.508   6.009
 8137SOL     OW25851   1.938   2.683   6.372
 8137SOL    HW125852   2.023   2.683   6.416
 8137SOL    HW225853   1.893   2.760   6.407
 8138SOL     OW25854   1.963   3.683   7.151
 8138SOL    HW125855   1.964   3.676   7.247
 8138SOL    HW225856   1.965   3.777   7.134
 8139SOL     OW25857   2.751   2.202   5.745
 8139SOL    HW125858   2.793   2.277   5.702
 8139SOL    HW225859   2.819   2.135   5.748
 8140SOL     OW25860   3.600   2.471   7.399
 8140SOL    HW125861   3.600   2.567   7.403
 8140SOL    HW225862   3.688   2.449   7.369
 8141SOL     OW25863   3.226   2.986   6.090
 8141SOL    HW125864   3.319   2.988   6.067
 8141SOL    HW225865   3.193   3.072   6.061
 8142SOL     OW25866   2.408   2.034   6.481
 8142SOL    HW125867   2.417   2.064   6.571
 8142SOL    HW225868   2.422   2.114   6.428
 8143SOL     OW25869   2.839   3.281   6.047
 8143SOL    HW125870   2.808   3.366   6.015
 8143SOL    HW225871   2.830   3.286   6.142
 8144SOL     OW25872   2.227   3.685   6.478
 8144SOL    HW125873   2.292   3.616   6.483
 8144SOL    HW225874   2.277   3.767   6.483
 8145SOL     OW25875   3.622   2.891   6.478
 8145SOL    HW125876   3.649   2.922   6.391
 8145SOL    HW225877   3.618   2.970   6.531
 8146SOL     OW25878   3.064   3.422   7.105
 8146SOL    HW125879   3.085   3.341   7.150
 8146SOL    HW225880   3.133   3.433   7.041
 8147SOL     OW25881   2.183   2.828   5.840
 8147SOL    HW125882   2.272   2.851   5.813
 8147SOL    HW225883   2.157   2.759   5.779
 8148SOL     OW25884   3.322   2.662   6.360
 8148SOL    HW125885   3.344   2.590   6.418
 8148SOL    HW225886   3.404   2.683   6.316
 8149SOL     OW25887   2.320   3.115   7.336
 8149SOL    HW125888   2.302   3.125   7.242
 8149SOL    HW225889   2.234   3.123   7.378
 8150SOL     OW25890   2.947   3.662   5.832
 8150SOL    HW125891   2.895   3.591   5.870
 8150SOL    HW225892   3.003   3.618   5.768
 8151SOL     OW25893   2.051   2.135   7.089
 8151SOL    HW125894   1.964   2.170   7.072
 8151SOL    HW225895   2.035   2.049   7.129
 8152SOL     OW25896   2.345   3.592   5.915
 8152SOL    HW125897   2.374   3.661   5.974
 8152SOL    HW225898   2.410   3.591   5.845
 8153SOL     OW25899   3.268   1.957   6.028
 8153SOL    HW125900   3.255   1.936   5.935
 8153SOL    HW225901   3.346   2.012   6.029
 8154SOL     OW25902   2.121   3.648   6.817
 8154SOL    HW125903   2.196   3.614   6.866
 8154SOL    HW225904   2.145   3.637   6.725
 8155SOL     OW25905   2.781   3.512   6.547
 8155SOL    HW125906   2.876   3.521   6.545
 8155SOL    HW225907   2.756   3.504   6.454
 8156SOL     OW25908   2.256   2.560   6.052
 8156SOL    HW125909   2.266   2.466   6.066
 8156SOL    HW225910   2.163   2.576   6.066
 8157SOL     OW25911   3.373   2.119   7.302
 8157SOL    HW125912   3.388   2.116   7.397
 8157SOL    HW225913   3.291   2.070   7.290
 8158SOL     OW25914   2.473   1.960   5.712
 8158SOL    HW125915   2.569   1.964   5.705
 8158SOL    HW225916   2.444   1.938   5.623
 8159SOL     OW25917   2.621   2.138   7.344
 8159SOL    HW125918   2.704   2.091   7.339
 8159SOL    HW225919   2.609   2.156   7.437
 8160SOL     OW25920   2.716   3.325   6.792
 8160SOL    HW125921   2.733   3.362   6.705
 8160SOL    HW225922   2.803   3.303   6.826
 8161SOL     OW25923   3.225   2.459   7.010
 8161SOL    HW125924   3.317   2.433   7.009
 8161SOL    HW225925   3.227   2.554   6.997
 8162SOL     OW25926   2.674   3.206   6.492
 8162SOL    HW125927   2.769   3.215   6.480
 8162SOL    HW225928   2.637   3.265   6.426
 8163SOL     OW25929   2.781   2.353   6.496
 8163SOL    HW125930   2.756   2.353   6.403
 8163SOL    HW225931   2.825   2.269   6.509
 8164SOL     OW25932   2.413   1.923   6.083
 8164SOL    HW125933   2.334   1.924   6.137
 8164SOL    HW225934   2.407   2.002   6.031
 8165SOL     OW25935   3.227   3.017   5.622
 8165SOL    HW125936   3.286   2.969   5.680
 8165SOL    HW225937   3.169   3.065   5.680
 8166SOL     OW25938   2.161   1.905   5.774
 8166SOL    HW125939   2.225   1.970   5.745
 8166SOL    HW225940   2.213   1.838   5.817
 8167SOL     OW25941   2.804   2.101   6.043
 8167SOL    HW125942   2.774   2.158   5.973
 8167SOL    HW225943   2.899   2.116   6.047
 8168SOL     OW25944   2.952   2.483   7.094
 8168SOL    HW125945   2.895   2.500   7.019
 8168SOL    HW225946   3.041   2.494   7.060
 8169SOL     OW25947   2.324   3.007   6.307
 8169SOL    HW125948   2.254   2.995   6.371
 8169SOL    HW225949   2.281   2.995   6.222
 8170SOL     OW25950   2.883   2.401   5.617
 8170SOL    HW125951   2.860   2.491   5.593
 8170SOL    HW225952   2.953   2.411   5.682
 8171SOL     OW25953   1.957   2.417   6.973
 8171SOL    HW125954   2.047   2.413   6.940
 8171SOL    HW225955   1.958   2.490   7.035
 8172SOL     OW25956   2.423   2.076   6.753
 8172SOL    HW125957   2.469   2.008   6.802
 8172SOL    HW225958   2.333   2.071   6.784
 8173SOL     OW25959   2.711   2.307   6.231
 8173SOL    HW125960   2.681   2.366   6.162
 8173SOL    HW225961   2.755   2.236   6.185
 8174SOL     OW25962   2.880   1.921   6.340
 8174SOL    HW125963   2.828   1.922   6.261
 8174SOL    HW225964   2.850   1.844   6.388
 8175SOL     OW25965   3.255   3.048   6.415
 8175SOL    HW125966   3.256   2.967   6.365
 8175SOL    HW225967   3.337   3.091   6.392
 8176SOL     OW25968   3.326   2.464   6.559
 8176SOL    HW125969   3.278   2.381   6.555
 8176SOL    HW225970   3.388   2.452   6.631
 8177SOL     OW25971   3.739   2.651   5.946
 8177SOL    HW125972   3.780   2.603   6.018
 8177SOL    HW225973   3.681   2.587   5.905
 8178SOL     OW25974   2.361   3.263   5.747
 8178SOL    HW125975   2.279   3.244   5.793
 8178SOL    HW225976   2.355   3.213   5.665
 8179SOL     OW25977   3.533   3.157   6.260
 8179SOL    HW125978   3.617   3.113   6.274
 8179SOL    HW225979   3.553   3.250   6.270
 8180SOL     OW25980   3.260   2.439   5.655
 8180SOL    HW125981   3.216   2.409   5.735
 8180SOL    HW225982   3.353   2.429   5.674
 8181SOL     OW25983   2.380   2.126   5.906
 8181SOL    HW125984   2.423   2.071   5.840
 8181SOL    HW225985   2.362   2.208   5.860
 8182SOL     OW25986   2.944   3.213   6.902
 8182SOL    HW125987   2.941   3.191   6.995
 8182SOL    HW225988   3.033   3.242   6.887
 8183SOL     OW25989   3.460   3.461   7.224
 8183SOL    HW125990   3.438   3.506   7.142
 8183SOL    HW225991   3.542   3.415   7.205
 8184SOL     OW25992   2.926   3.038   6.691
 8184SOL    HW125993   2.935   3.099   6.764
 8184SOL    HW225994   2.944   3.091   6.613
 8185SOL     OW25995   2.774   1.958   6.972
 8185SOL    HW125996   2.798   1.939   6.882
 8185SOL    HW225997   2.852   1.999   7.010
 8186SOL     OW25998   2.840   2.965   7.319
 8186SOL    HW125999   2.750   2.995   7.324
 8186SOL    HW226000   2.840   2.898   7.251
 8187SOL     OW26001   2.587   2.938   5.961
 8187SOL    HW126002   2.572   2.922   6.054
 8187SOL    HW226003   2.656   2.876   5.937
 8188SOL     OW26004   2.271   2.683   6.862
 8188SOL    HW126005   2.350   2.698   6.914
 8188SOL    HW226006   2.262   2.588   6.859
 8189SOL     OW26007   3.125   2.233   6.883
 8189SOL    HW126008   3.158   2.315   6.917
 8189SOL    HW226009   3.036   2.253   6.854
 8190SOL     OW26010   1.943   3.428   6.927
 8190SOL    HW126011   1.928   3.521   6.910
 8190SOL    HW226012   2.038   3.418   6.929
 8191SOL     OW26013   2.185   2.982   6.073
 8191SOL    HW126014   2.197   3.060   6.019
 8191SOL    HW226015   2.190   2.909   6.013
 8192SOL     OW26016   2.401   2.399   6.449
 8192SOL    HW126017   2.413   2.458   6.374
 8192SOL    HW226018   2.472   2.421   6.509
 8193SOL     OW26019   3.120   3.228   6.003
 8193SOL    HW126020   3.177   3.304   6.018
 8193SOL    HW226021   3.036   3.253   6.043
 8194SOL     OW26022   3.452   2.501   6.099
 8194SOL    HW126023   3.468   2.592   6.121
 8194SOL    HW226024   3.486   2.491   6.010
 8195SOL     OW26025   2.208   3.359   6.897
 8195SOL    HW126026   2.203   3.318   6.810
 8195SOL    HW226027   2.299   3.388   6.904
 8196SOL     OW26028   2.323   2.560   7.200
 8196SOL    HW126029   2.359   2.620   7.134
 8196SOL    HW226030   2.400   2.520   7.240
 8197SOL     OW26031   3.411   2.610   7.199
 8197SOL    HW126032   3.347   2.681   7.208
 8197SOL    HW226033   3.491   2.654   7.170
 8198SOL     OW26034   2.856   2.004   7.360
 8198SOL    HW126035   2.925   2.057   7.321
 8198SOL    HW226036   2.884   1.914   7.347
 8199SOL     OW26037   2.335   1.920   7.349
 8199SOL    HW126038   2.307   1.858   7.282
 8199SOL    HW226039   2.308   2.005   7.317
 8200SOL     OW26040   2.429   2.759   6.613
 8200SOL    HW126041   2.490   2.830   6.597
 8200SOL    HW226042   2.406   2.767   6.705
 8201SOL     OW26043   3.168   2.693   6.606
 8201SOL    HW126044   3.188   2.736   6.523
 8201SOL    HW226045   3.227   2.618   6.609
 8202SOL     OW26046   3.048   2.378   5.845
 8202SOL    HW126047   3.069   2.308   5.906
 8202SOL    HW226048   3.034   2.455   5.900
 8203SOL     OW26049   2.159   2.057   6.835
 8203SOL    HW126050   2.123   2.090   6.917
 8203SOL    HW226051   2.139   1.963   6.836
 8204SOL     OW26052   1.927   3.172   6.828
 8204SOL    HW126053   1.941   3.111   6.900
 8204SOL    HW226054   1.930   3.259   6.869
 8205SOL     OW26055   2.580   2.487   6.639
 8205SOL    HW126056   2.660   2.461   6.593
 8205SOL    HW226057   2.572   2.581   6.622
 8206SOL     OW26058   3.552   2.732   7.456
 8206SOL    HW126059   3.624   2.778   7.413
 8206SOL    HW226060   3.513   2.796   7.514
 8207SOL     OW26061   2.167   1.916   6.213
 8207SOL    HW126062   2.149   2.008   6.233
 8207SOL    HW226063   2.179   1.875   6.298
 8208SOL     OW26064   2.862   2.613   6.538
 8208SOL    HW126065   2.921   2.628   6.612
 8208SOL    HW226066   2.853   2.518   6.533
 8209SOL     OW26067   2.795   3.389   7.268
 8209SOL    HW126068   2.807   3.444   7.190
 8209SOL    HW226069   2.875   3.337   7.272
 8210SOL     OW26070   2.223   2.729   7.423
 8210SOL    HW126071   2.287   2.784   7.468
 8210SOL    HW226072   2.269   2.694   7.348
 8211SOL     OW26073   3.370   2.122   5.699
 8211SOL    HW126074   3.306   2.060   5.733
 8211SOL    HW226075   3.425   2.142   5.775
 8212SOL     OW26076   3.132   2.677   5.614
 8212SOL    HW126077   3.185   2.597   5.624
 8212SOL    HW226078   3.160   2.714   5.530
 8213SOL     OW26079   2.947   3.188   6.436
 8213SOL    HW126080   2.935   3.117   6.372
 8213SOL    HW226081   3.041   3.205   6.435
 8214SOL     OW26082   2.174   2.684   6.528
 8214SOL    HW126083   2.266   2.709   6.536
 8214SOL    HW226084   2.172   2.592   6.551
 8215SOL     OW26085   2.181   2.401   6.601
 8215SOL    HW126086   2.150   2.311   6.588
 8215SOL    HW226087   2.260   2.407   6.547
 8216SOL     OW26088   2.994   2.257   7.264
 8216SOL    HW126089   2.958   2.293   7.345
 8216SOL    HW226090   2.994   2.331   7.203
 8217SOL     OW26091   3.014   2.061   7.068
 8217SOL    HW126092   3.009   2.128   7.136
 8217SOL    HW226093   3.059   2.104   6.996
 8218SOL     OW26094   1.866   3.182   5.789
 8218SOL    HW126095   1.779   3.199   5.753
 8218SOL    HW226096   1.862   3.092   5.822
 8219SOL     OW26097   1.961   3.634   6.521
 8219SOL    HW126098   1.943   3.582   6.442
 8219SOL    HW226099   2.052   3.661   6.512
 8220SOL     OW26100   2.374   3.416   6.524
 8220SOL    HW126101   2.437   3.488   6.536
 8220SOL    HW226102   2.407   3.368   6.448
 8221SOL     OW26103   2.867   2.617   6.848
 8221SOL    HW126104   2.941   2.678   6.841
 8221SOL    HW226105   2.791   2.673   6.861
 8222SOL     OW26106   1.897   2.403   6.697
 8222SOL    HW126107   1.972   2.404   6.638
 8222SOL    HW226108   1.935   2.415   6.784
 8223SOL     OW26109   3.236   2.815   7.235
 8223SOL    HW126110   3.279   2.898   7.254
 8223SOL    HW226111   3.204   2.824   7.145
 8224SOL     OW26112   2.672   2.411   5.956
 8224SOL    HW126113   2.684   2.356   5.879
 8224SOL    HW226114   2.606   2.476   5.930
 8225SOL     OW26115   3.505   2.430   6.761
 8225SOL    HW126116   3.514   2.391   6.849
 8225SOL    HW226117   3.592   2.422   6.723
 8226SOL     OW26118   2.086   3.403   7.311
 8226SOL    HW126119   2.096   3.480   7.368
 8226SOL    HW226120   2.118   3.330   7.364
 8227SOL     OW26121   2.488   2.332   6.844
 8227SOL    HW126122   2.485   2.245   6.805
 8227SOL    HW226123   2.522   2.389   6.775
 8228SOL     OW26124   2.760   3.570   7.056
 8228SOL    HW126125   2.780   3.572   6.963
 8228SOL    HW226126   2.832   3.618   7.097
 8229SOL     OW26127   2.321   2.346   5.756
 8229SOL    HW126128   2.381   2.417   5.780
 8229SOL    HW226129   2.235   2.387   5.755
 8230SOL     OW26130   1.968   2.991   7.050
 8230SOL    HW126131   1.999   2.953   7.132
 8230SOL    HW226132   1.997   2.928   6.983
 8231SOL     OW26133   3.167   2.902   6.786
 8231SOL    HW126134   3.176   2.838   6.715
 8231SOL    HW226135   3.118   2.974   6.747
 8232SOL     OW26136   3.181   2.696   5.887
 8232SOL    HW126137   3.099   2.706   5.936
 8232SOL    HW226138   3.154   2.698   5.795
 8233SOL     OW26139   2.552   3.530   7.326
 8233SOL    HW126140   2.526   3.620   7.305
 8233SOL    HW226141   2.640   3.521   7.291
 8234SOL     OW26142   3.656   1.962   6.185
 8234SOL    HW126143   3.616   2.014   6.116
 8234SOL    HW226144   3.614   1.876   6.178
 8235SOL     OW26145   3.257   3.457   6.048
 8235SOL    HW126146   3.330   3.480   5.989
 8235SOL    HW226147   3.243   3.536   6.100
 8236SOL     OW26148   1.990   3.663   7.426
 8236SOL    HW126149   1.946   3.594   7.474
 8236SOL    HW226150   2.048   3.705   7.490
 8237SOL     OW26151   3.122   2.798   6.246
 8237SOL    HW126152   3.199   2.750   6.278
 8237SOL    HW226153   3.159   2.861   6.184
 8238SOL     OW26154   2.643   3.119   7.004
 8238SOL    HW126155   2.603   3.169   7.075
 8238SOL    HW226156   2.689   3.184   6.952
 8239SOL     OW26157   2.544   3.464   5.723
 8239SOL    HW126158   2.541   3.497   5.634
 8239SOL    HW226159   2.473   3.400   5.728
 8240SOL     OW26160   3.688   2.023   6.557
 8240SOL    HW126161   3.729   1.978   6.483
 8240SOL    HW226162   3.603   2.052   6.524
 8241SOL     OW26163   2.124   2.166   6.306
 8241SOL    HW126164   2.040   2.207   6.283
 8241SOL    HW226165   2.126   2.167   6.401
 8242SOL     OW26166   3.020   3.441   5.647
 8242SOL    HW126167   3.110   3.442   5.613
 8242SOL    HW226168   2.966   3.466   5.573
 8243SOL     OW26169   2.715   2.871   6.923
 8243SOL    HW126170   2.763   2.899   6.845
 8243SOL    HW226171   2.688   2.953   6.965
 8244SOL     OW26172   2.773   2.766   5.883
 8244SOL    HW126173   2.828   2.790   5.808
 8244SOL    HW226174   2.825   2.702   5.931
 8245SOL     OW26175   2.212   3.151   7.091
 8245SOL    HW126176   2.237   3.227   7.038
 8245SOL    HW226177   2.131   3.119   7.050
 8246SOL     OW26178   2.905   2.970   6.276
 8246SOL    HW126179   2.844   2.916   6.326
 8246SOL    HW226180   2.982   2.915   6.264
 8247SOL     OW26181   2.892   2.105   6.552
 8247SOL    HW126182   2.894   2.055   6.470
 8247SOL    HW226183   2.885   2.039   6.621
 8248SOL     OW26184   2.428   3.351   6.050
 8248SOL    HW126185   2.454   3.309   5.968
 8248SOL    HW226186   2.396   3.437   6.022
 8249SOL     OW26187   3.586   2.262   6.984
 8249SOL    HW126188   3.661   2.321   6.985
 8249SOL    HW226189   3.609   2.196   6.919
 8250SOL     OW26190   2.122   3.202   5.883
 8250SOL    HW126191   2.029   3.205   5.859
 8250SOL    HW226192   2.126   3.245   5.968
 8251SOL     OW26193   1.979   2.848   7.298
 8251SOL    HW126194   1.904   2.850   7.358
 8251SOL    HW226195   2.056   2.843   7.354
 8252SOL     OW26196   2.543   2.054   7.089
 8252SOL    HW126197   2.626   2.033   7.046
 8252SOL    HW226198   2.568   2.083   7.177
 8253SOL     OW26199   1.939   2.186   5.612
 8253SOL    HW126200   1.869   2.178   5.548
 8253SOL    HW226201   1.978   2.272   5.595
 8254SOL     OW26202   3.261   2.720   6.959
 8254SOL    HW126203   3.220   2.794   6.915
 8254SOL    HW226204   3.354   2.729   6.940
 8255SOL     OW26205   1.923   2.013   5.879
 8255SOL    HW126206   1.911   2.085   5.817
 8255SOL    HW226207   2.012   1.982   5.863
 8256SOL     OW26208   3.021   3.184   5.756
 8256SOL    HW126209   3.026   3.265   5.705
 8256SOL    HW226210   3.078   3.200   5.832
 8257SOL     OW26211   2.490   2.701   7.017
 8257SOL    HW126212   2.543   2.779   7.004
 8257SOL    HW226213   2.553   2.629   7.019
 8258SOL     OW26214   2.553   2.443   7.296
 8258SOL    HW126215   2.608   2.510   7.338
 8258SOL    HW226216   2.594   2.360   7.320
 8259SOL     OW26217   3.360   3.067   7.215
 8259SOL    HW126218   3.348   3.082   7.309
 8259SOL    HW226219   3.436   3.119   7.191
 8260SOL     OW26220   2.230   3.604   7.148
 8260SOL    HW126221   2.138   3.628   7.138
 8260SOL    HW226222   2.228   3.513   7.177
 8261SOL     OW26223   3.515   2.735   6.841
 8261SOL    HW126224   3.528   2.656   6.788
 8261SOL    HW226225   3.552   2.806   6.788
 8262SOL     OW26226   3.070   2.169   6.041
 8262SOL    HW126227   3.146   2.111   6.034
 8262SOL    HW226228   3.087   2.221   6.119
 8263SOL     OW26229   2.435   2.597   6.262
 8263SOL    HW126230   2.484   2.679   6.253
 8263SOL    HW226231   2.378   2.594   6.185
 8264SOL     OW26232   3.630   2.190   7.251
 8264SOL    HW126233   3.622   2.225   7.163
 8264SOL    HW226234   3.541   2.159   7.272
 8265SOL     OW26235   3.605   2.766   7.105
 8265SOL    HW126236   3.658   2.842   7.127
 8265SOL    HW226237   3.581   2.779   7.013
 8266SOL     OW26238   2.720   3.249   5.657
 8266SOL    HW126239   2.670   3.329   5.670
 8266SOL    HW226240   2.778   3.268   5.583
 8267SOL     OW26241   2.520   3.642   6.523
 8267SOL    HW126242   2.514   3.736   6.505
 8267SOL    HW226243   2.613   3.628   6.541
 8268SOL     OW26244   2.728   2.828   6.434
 8268SOL    HW126245   2.778   2.756   6.472
 8268SOL    HW226246   2.705   2.883   6.509
 8269SOL     OW26247   2.915   2.831   5.667
 8269SOL    HW126248   2.907   2.897   5.598
 8269SOL    HW226249   2.998   2.787   5.648
 8270SOL     OW26250   2.084   3.153   7.459
 8270SOL    HW126251   1.988   3.151   7.454
 8270SOL    HW226252   2.103   3.169   7.551
 8271SOL     OW26253   1.950   3.076   6.270
 8271SOL    HW126254   1.999   3.020   6.330
 8271SOL    HW226255   2.008   3.087   6.195
 8272SOL     OW26256   2.515   3.268   7.195
 8272SOL    HW126257   2.462   3.244   7.271
 8272SOL    HW226258   2.558   3.349   7.220
 8273SOL     OW26259   3.637   2.043   6.829
 8273SOL    HW126260   3.694   1.971   6.855
 8273SOL    HW226261   3.652   2.052   6.735
 8274SOL     OW26262   2.268   2.297   6.103
 8274SOL    HW126263   2.316   2.232   6.051
 8274SOL    HW226264   2.238   2.248   6.179
 8275SOL     OW26265   2.208   2.405   6.876
 8275SOL    HW126266   2.290   2.365   6.902
 8275SOL    HW226267   2.208   2.402   6.781
 8276SOL     OW26268   2.696   3.442   6.269
 8276SOL    HW126269   2.722   3.532   6.249
 8276SOL    HW226270   2.612   3.430   6.226
 8277SOL     OW26271   3.282   2.074   6.725
 8277SOL    HW126272   3.362   2.049   6.772
 8277SOL    HW226273   3.231   2.124   6.788
 8278SOL     OW26274   2.866   1.873   6.717
 8278SOL    HW126275   2.820   1.812   6.660
 8278SOL    HW226276   2.956   1.839   6.721
 8279SOL     OW26277   2.470   3.415   6.869
 8279SOL    HW126278   2.476   3.506   6.897
 8279SOL    HW226279   2.560   3.391   6.847
 8280SOL     OW26280   3.201   1.912   5.762
 8280SOL    HW126281   3.228   1.859   5.687
 8280SOL    HW226282   3.115   1.878   5.785
 8281SOL     OW26283   3.102   2.312   6.267
 8281SOL    HW126284   3.081   2.405   6.270
 8281SOL    HW226285   3.149   2.296   6.349
 8282SOL     OW26286   3.438   2.072   6.462
 8282SOL    HW126287   3.368   2.105   6.517
 8282SOL    HW226288   3.450   2.139   6.395
 8283SOL     OW26289   1.897   2.931   5.901
 8283SOL    HW126290   1.992   2.933   5.886
 8283SOL    HW226291   1.877   2.838   5.916
 8284SOL     OW26292   2.727   3.497   5.931
 8284SOL    HW126293   2.669   3.501   5.855
 8284SOL    HW226294   2.710   3.578   5.979
 8285SOL     OW26295   2.059   2.466   7.532
 8285SOL    HW126296   1.996   2.500   7.597
 8285SOL    HW226297   2.098   2.545   7.493
 8286SOL     OW26298   2.085   2.147   8.445
 8286SOL    HW126299   2.113   2.113   8.529
 8286SOL    HW226300   1.994   2.116   8.435
 8287SOL     OW26301   1.866   2.246   8.090
 8287SOL    HW126302   1.783   2.268   8.131
 8287SOL    HW226303   1.846   2.172   8.033
 8288SOL     OW26304   2.417   3.156   8.630
 8288SOL    HW126305   2.341   3.181   8.578
 8288SOL    HW226306   2.453   3.238   8.662
 8289SOL     OW26307   2.988   2.561   8.150
 8289SOL    HW126308   3.042   2.636   8.126
 8289SOL    HW226309   2.947   2.586   8.233
 8290SOL     OW26310   3.596   2.442   7.678
 8290SOL    HW126311   3.589   2.484   7.592
 8290SOL    HW226312   3.653   2.366   7.663
 8291SOL     OW26313   2.596   2.993   8.498
 8291SOL    HW126314   2.531   3.037   8.553
 8291SOL    HW226315   2.640   3.064   8.452
 8292SOL     OW26316   2.737   2.628   9.266
 8292SOL    HW126317   2.756   2.697   9.329
 8292SOL    HW226318   2.757   2.668   9.181
 8293SOL     OW26319   2.538   2.845   8.099
 8293SOL    HW126320   2.609   2.842   8.164
 8293SOL    HW226321   2.478   2.911   8.132
 8294SOL     OW26322   2.565   3.016   9.271
 8294SOL    HW126323   2.614   3.094   9.298
 8294SOL    HW226324   2.487   3.050   9.228
 8295SOL     OW26325   2.197   3.282   8.508
 8295SOL    HW126326   2.122   3.260   8.451
 8295SOL    HW226327   2.251   3.340   8.454
 8296SOL     OW26328   3.331   3.381   8.789
 8296SOL    HW126329   3.369   3.453   8.739
 8296SOL    HW226330   3.350   3.402   8.880
 8297SOL     OW26331   2.312   2.262   8.942
 8297SOL    HW126332   2.387   2.203   8.941
 8297SOL    HW226333   2.236   2.203   8.948
 8298SOL     OW26334   3.475   2.317   8.183
 8298SOL    HW126335   3.438   2.355   8.103
 8298SOL    HW226336   3.482   2.391   8.243
 8299SOL     OW26337   2.093   3.574   7.913
 8299SOL    HW126338   2.110   3.649   7.971
 8299SOL    HW226339   2.171   3.569   7.857
 8300SOL     OW26340   3.002   3.195   9.172
 8300SOL    HW126341   3.090   3.160   9.185
 8300SOL    HW226342   2.947   3.118   9.160
 8301SOL     OW26343   2.063   3.309   7.978
 8301SOL    HW126344   2.079   3.401   7.956
 8301SOL    HW226345   2.053   3.309   8.073
 8302SOL     OW26346   2.107   2.953   8.323
 8302SOL    HW126347   2.126   2.868   8.362
 8302SOL    HW226348   2.074   3.006   8.395
 8303SOL     OW26349   2.449   3.663   8.866
 8303SOL    HW126350   2.367   3.653   8.915
 8303SOL    HW226351   2.478   3.752   8.886
 8304SOL     OW26352   2.427   2.854   7.582
 8304SOL    HW126353   2.479   2.899   7.516
 8304SOL    HW226354   2.472   2.871   7.665
 8305SOL     OW26355   3.452   1.988   8.918
 8305SOL    HW126356   3.496   2.060   8.874
 8305SOL    HW226357   3.438   2.020   9.008
 8306SOL     OW26358   1.971   2.521   8.012
 8306SOL    HW126359   1.954   2.430   8.037
 8306SOL    HW226360   1.967   2.570   8.094
 8307SOL     OW26361   3.706   3.620   7.799
 8307SOL    HW126362   3.783   3.589   7.846
 8307SOL    HW226363   3.729   3.708   7.769
 8308SOL     OW26364   1.885   3.460   7.575
 8308SOL    HW126365   1.880   3.367   7.598
 8308SOL    HW226366   1.875   3.506   7.659
 8309SOL     OW26367   3.515   2.750   8.033
 8309SOL    HW126368   3.611   2.741   8.031
 8309SOL    HW226369   3.499   2.835   7.991
 8310SOL     OW26370   3.513   2.990   7.897
 8310SOL    HW126371   3.599   2.994   7.855
 8310SOL    HW226372   3.505   3.073   7.944
 8311SOL     OW26373   1.995   2.607   9.034
 8311SOL    HW126374   2.087   2.633   9.030
 8311SOL    HW226375   1.946   2.689   9.032
 8312SOL     OW26376   2.462   3.253   8.191
 8312SOL    HW126377   2.426   3.164   8.188
 8312SOL    HW226378   2.454   3.284   8.101
 8313SOL     OW26379   3.139   3.096   8.888
 8313SOL    HW126380   3.161   3.035   8.817
 8313SOL    HW226381   3.214   3.092   8.947
 8314SOL     OW26382   2.683   1.873   7.980
 8314SOL    HW126383   2.725   1.952   7.945
 8314SOL    HW226384   2.590   1.891   7.976
 8315SOL     OW26385   2.039   2.822   8.724
 8315SOL    HW126386   2.127   2.785   8.722
 8315SOL    HW226387   1.997   2.787   8.646
 8316SOL     OW26388   3.384   2.862   7.672
 8316SOL    HW126389   3.349   2.805   7.741
 8316SOL    HW226390   3.439   2.925   7.719
 8317SOL     OW26391   3.018   3.650   9.067
 8317SOL    HW126392   3.038   3.709   8.995
 8317SOL    HW226393   3.036   3.562   9.031
 8318SOL     OW26394   2.204   2.103   9.287
 8318SOL    HW126395   2.248   2.187   9.294
 8318SOL    HW226396   2.112   2.122   9.304
 8319SOL     OW26397   2.451   2.568   7.704
 8319SOL    HW126398   2.485   2.648   7.664
 8319SOL    HW226399   2.399   2.598   7.778
 8320SOL     OW26400   3.158   2.222   8.395
 8320SOL    HW126401   3.065   2.198   8.389
 8320SOL    HW226402   3.193   2.163   8.462
 8321SOL     OW26403   3.480   3.458   7.725
 8321SOL    HW126404   3.551   3.510   7.763
 8321SOL    HW226405   3.439   3.517   7.662
 8322SOL     OW26406   2.647   2.480   8.891
 8322SOL    HW126407   2.620   2.454   8.979
 8322SOL    HW226408   2.610   2.413   8.833
 8323SOL     OW26409   3.249   2.332   9.127
 8323SOL    HW126410   3.250   2.382   9.209
 8323SOL    HW226411   3.339   2.302   9.116
 8324SOL     OW26412   2.807   2.747   9.029
 8324SOL    HW126413   2.864   2.677   8.998
 8324SOL    HW226414   2.770   2.786   8.950
 8325SOL     OW26415   2.850   2.260   8.681
 8325SOL    HW126416   2.763   2.294   8.703
 8325SOL    HW226417   2.850   2.254   8.585
 8326SOL     OW26418   2.889   2.561   7.890
 8326SOL    HW126419   2.921   2.553   7.980
 8326SOL    HW226420   2.816   2.499   7.885
 8327SOL     OW26421   1.944   2.682   8.234
 8327SOL    HW126422   2.030   2.680   8.276
 8327SOL    HW226423   1.901   2.760   8.270
 8328SOL     OW26424   1.965   3.743   9.034
 8328SOL    HW126425   1.971   3.718   9.127
 8328SOL    HW226426   1.906   3.678   8.996
 8329SOL     OW26427   2.759   2.202   7.625
 8329SOL    HW126428   2.796   2.277   7.578
 8329SOL    HW226429   2.806   2.126   7.591
 8330SOL     OW26430   3.549   2.434   9.282
 8330SOL    HW126431   3.520   2.508   9.228
 8330SOL    HW226432   3.596   2.377   9.221
 8331SOL     OW26433   3.226   2.994   7.985
 8331SOL    HW126434   3.310   3.038   8.000
 8331SOL    HW226435   3.176   3.055   7.931
 8332SOL     OW26436   2.407   2.030   8.344
 8332SOL    HW126437   2.411   2.067   8.433
 8332SOL    HW226438   2.419   2.105   8.286
 8333SOL     OW26439   2.854   3.309   7.921
 8333SOL    HW126440   2.804   3.378   7.876
 8333SOL    HW226441   2.912   3.357   7.980
 8334SOL     OW26442   2.213   3.682   8.330
 8334SOL    HW126443   2.268   3.604   8.334
 8334SOL    HW226444   2.274   3.755   8.341
 8335SOL     OW26445   3.624   2.846   8.303
 8335SOL    HW126446   3.663   2.902   8.236
 8335SOL    HW226447   3.562   2.902   8.349
 8336SOL     OW26448   3.059   3.403   8.957
 8336SOL    HW126449   3.086   3.319   8.993
 8336SOL    HW226450   3.090   3.401   8.866
 8337SOL     OW26451   2.177   2.839   7.703
 8337SOL    HW126452   2.264   2.868   7.676
 8337SOL    HW226453   2.159   2.763   7.647
 8338SOL     OW26454   3.336   2.615   8.183
 8338SOL    HW126455   3.362   2.588   8.271
 8338SOL    HW226456   3.410   2.667   8.151
 8339SOL     OW26457   2.313   3.114   9.197
 8339SOL    HW126458   2.294   3.121   9.104
 8339SOL    HW226459   2.227   3.120   9.239
 8340SOL     OW26460   2.066   2.137   8.950
 8340SOL    HW126461   1.994   2.200   8.947
 8340SOL    HW226462   2.039   2.073   9.015
 8341SOL     OW26463   3.473   3.216   7.549
 8341SOL    HW126464   3.461   3.310   7.563
 8341SOL    HW226465   3.397   3.190   7.497
 8342SOL     OW26466   2.327   3.589   7.768
 8342SOL    HW126467   2.374   3.652   7.824
 8342SOL    HW226468   2.392   3.561   7.704
 8343SOL     OW26469   3.271   1.952   7.894
 8343SOL    HW126470   3.251   1.942   7.801
 8343SOL    HW226471   3.344   2.015   7.896
 8344SOL     OW26472   2.084   3.632   8.657
 8344SOL    HW126473   2.171   3.639   8.696
 8344SOL    HW226474   2.092   3.672   8.571
 8345SOL     OW26475   2.792   3.548   8.372
 8345SOL    HW126476   2.879   3.508   8.374
 8345SOL    HW226477   2.754   3.519   8.290
 8346SOL     OW26478   2.247   2.558   7.914
 8346SOL    HW126479   2.262   2.464   7.925
 8346SOL    HW226480   2.156   2.571   7.940
 8347SOL     OW26481   3.398   2.081   9.172
 8347SOL    HW126482   3.409   2.097   9.266
 8347SOL    HW226483   3.303   2.075   9.160
 8348SOL     OW26484   2.484   1.962   7.573
 8348SOL    HW126485   2.570   1.922   7.563
 8348SOL    HW226486   2.440   1.943   7.490
 8349SOL     OW26487   2.623   2.124   9.202
 8349SOL    HW126488   2.707   2.077   9.202
 8349SOL    HW226489   2.611   2.151   9.293
 8350SOL     OW26490   2.723   3.354   8.653
 8350SOL    HW126491   2.720   3.342   8.559
 8350SOL    HW226492   2.805   3.313   8.680
 8351SOL     OW26493   3.197   2.455   8.875
 8351SOL    HW126494   3.233   2.433   8.961
 8351SOL    HW226495   3.232   2.542   8.855
 8352SOL     OW26496   2.682   3.234   8.386
 8352SOL    HW126497   2.769   3.233   8.346
 8352SOL    HW226498   2.623   3.257   8.314
 8353SOL     OW26499   2.785   2.356   8.355
 8353SOL    HW126500   2.759   2.357   8.262
 8353SOL    HW226501   2.826   2.270   8.367
 8354SOL     OW26502   2.414   1.924   7.947
 8354SOL    HW126503   2.331   1.926   7.996
 8354SOL    HW226504   2.410   2.002   7.891
 8355SOL     OW26505   3.265   3.034   7.476
 8355SOL    HW126506   3.309   2.986   7.547
 8355SOL    HW226507   3.189   3.074   7.518
 8356SOL     OW26508   2.162   1.903   7.635
 8356SOL    HW126509   2.230   1.958   7.595
 8356SOL    HW226510   2.211   1.835   7.681
 8357SOL     OW26511   2.802   2.107   7.898
 8357SOL    HW126512   2.775   2.148   7.816
 8357SOL    HW226513   2.896   2.125   7.905
 8358SOL     OW26514   2.943   2.536   8.933
 8358SOL    HW126515   2.885   2.470   8.894
 8358SOL    HW226516   3.031   2.508   8.910
 8359SOL     OW26517   2.329   3.010   8.173
 8359SOL    HW126518   2.257   2.992   8.234
 8359SOL    HW226519   2.291   3.001   8.086
 8360SOL     OW26520   2.879   2.399   7.481
 8360SOL    HW126521   2.849   2.485   7.454
 8360SOL    HW226522   2.948   2.417   7.546
 8361SOL     OW26523   1.949   2.410   8.847
 8361SOL    HW126524   2.040   2.411   8.816
 8361SOL    HW226525   1.945   2.482   8.910
 8362SOL     OW26526   2.414   2.089   8.616
 8362SOL    HW126527   2.461   2.024   8.669
 8362SOL    HW226528   2.323   2.083   8.646
 8363SOL     OW26529   2.713   2.305   8.091
 8363SOL    HW126530   2.676   2.366   8.026
 8363SOL    HW226531   2.751   2.235   8.038
 8364SOL     OW26532   2.873   1.921   8.202
 8364SOL    HW126533   2.820   1.926   8.123
 8364SOL    HW226534   2.848   1.838   8.243
 8365SOL     OW26535   3.315   3.026   8.304
 8365SOL    HW126536   3.259   2.989   8.236
 8365SOL    HW226537   3.374   3.085   8.258
 8366SOL     OW26538   3.329   2.471   8.426
 8366SOL    HW126539   3.277   2.391   8.420
 8366SOL    HW226540   3.390   2.455   8.499
 8367SOL     OW26541   3.716   2.663   7.823
 8367SOL    HW126542   3.776   2.615   7.881
 8367SOL    HW226543   3.689   2.598   7.758
 8368SOL     OW26544   2.348   3.280   7.589
 8368SOL    HW126545   2.281   3.241   7.646
 8368SOL    HW226546   2.367   3.213   7.524
 8369SOL     OW26547   3.293   2.415   7.541
 8369SOL    HW126548   3.206   2.411   7.582
 8369SOL    HW226549   3.352   2.439   7.612
 8370SOL     OW26550   2.387   2.126   7.767
 8370SOL    HW126551   2.433   2.073   7.702
 8370SOL    HW226552   2.366   2.207   7.720
 8371SOL     OW26553   3.599   3.133   9.065
 8371SOL    HW126554   3.662   3.074   9.024
 8371SOL    HW226555   3.644   3.218   9.070
 8372SOL     OW26556   2.907   3.191   8.780
 8372SOL    HW126557   2.845   3.157   8.844
 8372SOL    HW226558   2.993   3.170   8.816
 8373SOL     OW26559   3.399   3.464   9.038
 8373SOL    HW126560   3.427   3.554   9.023
 8373SOL    HW226561   3.414   3.450   9.132
 8374SOL     OW26562   2.970   3.055   8.548
 8374SOL    HW126563   2.944   3.120   8.614
 8374SOL    HW226564   2.960   3.101   8.465
 8375SOL     OW26565   3.428   2.930   8.542
 8375SOL    HW126566   3.426   3.001   8.607
 8375SOL    HW226567   3.384   2.966   8.465
 8376SOL     OW26568   2.786   1.944   8.840
 8376SOL    HW126569   2.801   1.934   8.747
 8376SOL    HW226570   2.861   1.993   8.872
 8377SOL     OW26571   2.834   2.975   9.176
 8377SOL    HW126572   2.740   2.986   9.190
 8377SOL    HW226573   2.841   2.901   9.116
 8378SOL     OW26574   2.548   2.883   7.820
 8378SOL    HW126575   2.548   2.882   7.916
 8378SOL    HW226576   2.632   2.843   7.796
 8379SOL     OW26577   2.274   2.688   8.717
 8379SOL    HW126578   2.351   2.696   8.773
 8379SOL    HW226579   2.249   2.596   8.723
 8380SOL     OW26580   3.122   2.228   8.741
 8380SOL    HW126581   3.158   2.310   8.774
 8380SOL    HW226582   3.034   2.251   8.711
 8381SOL     OW26583   1.948   3.430   8.799
 8381SOL    HW126584   1.933   3.505   8.741
 8381SOL    HW226585   2.043   3.417   8.796
 8382SOL     OW26586   2.194   2.988   7.938
 8382SOL    HW126587   2.223   3.064   7.888
 8382SOL    HW226588   2.193   2.916   7.875
 8383SOL     OW26589   2.403   2.393   8.308
 8383SOL    HW126590   2.413   2.452   8.233
 8383SOL    HW226591   2.474   2.418   8.368
 8384SOL     OW26592   3.090   3.185   7.851
 8384SOL    HW126593   3.152   3.258   7.850
 8384SOL    HW226594   3.005   3.225   7.868
 8385SOL     OW26595   3.129   3.325   8.607
 8385SOL    HW126596   3.208   3.334   8.661
 8385SOL    HW226597   3.145   3.248   8.554
 8386SOL     OW26598   3.458   2.466   7.932
 8386SOL    HW126599   3.435   2.550   7.973
 8386SOL    HW226600   3.514   2.490   7.858
 8387SOL     OW26601   2.215   3.367   8.765
 8387SOL    HW126602   2.201   3.342   8.674
 8387SOL    HW226603   2.306   3.394   8.769
 8388SOL     OW26604   2.286   2.606   9.052
 8388SOL    HW126605   2.345   2.654   8.994
 8388SOL    HW226606   2.331   2.524   9.069
 8389SOL     OW26607   3.453   2.626   9.119
 8389SOL    HW126608   3.375   2.681   9.117
 8389SOL    HW226609   3.515   2.670   9.060
 8390SOL     OW26610   2.865   1.998   9.220
 8390SOL    HW126611   2.917   2.074   9.196
 8390SOL    HW226612   2.912   1.924   9.183
 8391SOL     OW26613   2.353   1.886   9.204
 8391SOL    HW126614   2.307   1.842   9.132
 8391SOL    HW226615   2.303   1.966   9.219
 8392SOL     OW26616   2.442   2.745   8.479
 8392SOL    HW126617   2.496   2.823   8.465
 8392SOL    HW226618   2.398   2.760   8.563
 8393SOL     OW26619   3.190   2.705   8.490
 8393SOL    HW126620   3.181   2.749   8.405
 8393SOL    HW226621   3.242   2.626   8.470
 8394SOL     OW26622   3.060   2.393   7.695
 8394SOL    HW126623   3.063   2.333   7.769
 8394SOL    HW226624   3.072   2.480   7.734
 8395SOL     OW26625   2.154   2.054   8.698
 8395SOL    HW126626   2.120   2.087   8.782
 8395SOL    HW226627   2.134   1.960   8.700
 8396SOL     OW26628   1.867   3.176   8.727
 8396SOL    HW126629   1.917   3.120   8.787
 8396SOL    HW226630   1.896   3.265   8.747
 8397SOL     OW26631   2.575   2.493   8.498
 8397SOL    HW126632   2.658   2.482   8.452
 8397SOL    HW226633   2.551   2.584   8.484
 8398SOL     OW26634   3.600   2.799   9.334
 8398SOL    HW126635   3.569   2.794   9.244
 8398SOL    HW226636   3.522   2.820   9.385
 8399SOL     OW26637   2.165   1.915   8.074
 8399SOL    HW126638   2.146   2.007   8.092
 8399SOL    HW226639   2.178   1.877   8.161
 8400SOL     OW26640   3.414   2.208   7.833
 8400SOL    HW126641   3.483   2.166   7.885
 8400SOL    HW226642   3.421   2.301   7.856
 8401SOL     OW26643   2.869   2.614   8.398
 8401SOL    HW126644   2.883   2.629   8.491
 8401SOL    HW226645   2.857   2.519   8.391
 8402SOL     OW26646   2.811   3.395   9.141
 8402SOL    HW126647   2.804   3.454   9.066
 8402SOL    HW226648   2.889   3.343   9.124
 8403SOL     OW26649   2.211   2.773   9.260
 8403SOL    HW126650   2.291   2.801   9.304
 8403SOL    HW226651   2.242   2.713   9.191
 8404SOL     OW26652   3.390   2.105   7.571
 8404SOL    HW126653   3.318   2.052   7.605
 8404SOL    HW226654   3.413   2.163   7.644
 8405SOL     OW26655   3.170   2.701   7.470
 8405SOL    HW126656   3.261   2.692   7.500
 8405SOL    HW226657   3.178   2.748   7.386
 8406SOL     OW26658   2.944   3.196   8.304
 8406SOL    HW126659   2.929   3.117   8.252
 8406SOL    HW226660   3.018   3.239   8.262
 8407SOL     OW26661   2.174   2.681   8.396
 8407SOL    HW126662   2.267   2.703   8.393
 8407SOL    HW226663   2.172   2.589   8.423
 8408SOL     OW26664   2.184   2.397   8.462
 8408SOL    HW126665   2.152   2.308   8.448
 8408SOL    HW226666   2.262   2.402   8.406
 8409SOL     OW26667   2.997   2.228   9.146
 8409SOL    HW126668   2.949   2.293   9.198
 8409SOL    HW226669   3.083   2.267   9.133
 8410SOL     OW26670   3.023   2.058   8.930
 8410SOL    HW126671   3.011   2.124   8.998
 8410SOL    HW226672   3.066   2.104   8.858
 8411SOL     OW26673   1.857   3.186   7.648
 8411SOL    HW126674   1.769   3.202   7.614
 8411SOL    HW226675   1.854   3.096   7.681
 8412SOL     OW26676   1.942   3.654   8.385
 8412SOL    HW126677   1.920   3.570   8.344
 8412SOL    HW226678   2.034   3.670   8.361
 8413SOL     OW26679   2.363   3.441   8.363
 8413SOL    HW126680   2.430   3.507   8.381
 8413SOL    HW226681   2.403   3.382   8.300
 8414SOL     OW26682   2.840   2.626   8.673
 8414SOL    HW126683   2.917   2.645   8.726
 8414SOL    HW226684   2.769   2.617   8.736
 8415SOL     OW26685   1.904   2.411   8.564
 8415SOL    HW126686   1.983   2.414   8.510
 8415SOL    HW226687   1.937   2.413   8.654
 8416SOL     OW26688   2.054   2.383   9.178
 8416SOL    HW126689   2.125   2.352   9.122
 8416SOL    HW226690   2.023   2.462   9.134
 8417SOL     OW26691   3.240   2.801   9.102
 8417SOL    HW126692   3.269   2.892   9.098
 8417SOL    HW226693   3.238   2.773   9.010
 8418SOL     OW26694   2.662   2.407   7.824
 8418SOL    HW126695   2.686   2.351   7.750
 8418SOL    HW226696   2.603   2.472   7.787
 8419SOL     OW26697   3.504   2.421   8.625
 8419SOL    HW126698   3.510   2.393   8.716
 8419SOL    HW226699   3.594   2.417   8.593
 8420SOL     OW26700   2.090   3.408   9.172
 8420SOL    HW126701   2.086   3.470   9.245
 8420SOL    HW226702   2.097   3.323   9.214
 8421SOL     OW26703   2.557   2.313   8.698
 8421SOL    HW126704   2.507   2.240   8.662
 8421SOL    HW226705   2.558   2.379   8.629
 8422SOL     OW26706   2.743   3.553   8.923
 8422SOL    HW126707   2.765   3.507   8.842
 8422SOL    HW226708   2.756   3.645   8.903
 8423SOL     OW26709   2.313   2.343   7.612
 8423SOL    HW126710   2.374   2.412   7.638
 8423SOL    HW226711   2.228   2.387   7.608
 8424SOL     OW26712   1.989   3.004   8.917
 8424SOL    HW126713   2.004   2.961   9.001
 8424SOL    HW226714   2.010   2.938   8.851
 8425SOL     OW26715   3.151   2.901   8.682
 8425SOL    HW126716   3.189   2.844   8.615
 8425SOL    HW226717   3.087   2.954   8.634
 8426SOL     OW26718   3.151   2.655   7.747
 8426SOL    HW126719   3.116   2.724   7.803
 8426SOL    HW226720   3.146   2.692   7.658
 8427SOL     OW26721   3.104   3.593   8.554
 8427SOL    HW126722   3.178   3.609   8.495
 8427SOL    HW226723   3.109   3.499   8.574
 8428SOL     OW26724   1.923   3.141   8.452
 8428SOL    HW126725   1.909   3.139   8.547
 8428SOL    HW226726   1.879   3.062   8.420
 8429SOL     OW26727   2.555   3.564   9.144
 8429SOL    HW126728   2.505   3.646   9.141
 8429SOL    HW226729   2.618   3.572   9.072
 8430SOL     OW26730   3.580   2.018   7.947
 8430SOL    HW126731   3.650   2.021   7.881
 8430SOL    HW226732   3.579   1.926   7.975
 8431SOL     OW26733   3.242   3.403   7.848
 8431SOL    HW126734   3.333   3.394   7.822
 8431SOL    HW226735   3.221   3.495   7.835
 8432SOL     OW26736   1.977   3.667   9.295
 8432SOL    HW126737   1.938   3.592   9.339
 8432SOL    HW226738   2.036   3.705   9.360
 8433SOL     OW26739   3.136   2.782   8.111
 8433SOL    HW126740   3.212   2.727   8.128
 8433SOL    HW226741   3.170   2.855   8.059
 8434SOL     OW26742   2.660   3.126   8.893
 8434SOL    HW126743   2.631   3.173   8.971
 8434SOL    HW226744   2.638   3.184   8.820
 8435SOL     OW26745   2.523   3.489   7.601
 8435SOL    HW126746   2.544   3.507   7.510
 8435SOL    HW226747   2.477   3.406   7.600
 8436SOL     OW26748   3.691   2.032   8.423
 8436SOL    HW126749   3.726   1.951   8.385
 8436SOL    HW226750   3.612   2.049   8.372
 8437SOL     OW26751   2.121   2.165   8.167
 8437SOL    HW126752   2.038   2.207   8.143
 8437SOL    HW226753   2.123   2.167   8.262
 8438SOL     OW26754   3.044   3.418   7.499
 8438SOL    HW126755   3.138   3.434   7.501
 8438SOL    HW226756   3.008   3.492   7.450
 8439SOL     OW26757   2.692   2.868   8.809
 8439SOL    HW126758   2.730   2.874   8.721
 8439SOL    HW226759   2.681   2.958   8.837
 8440SOL     OW26760   2.768   2.755   7.743
 8440SOL    HW126761   2.825   2.784   7.672
 8440SOL    HW226762   2.821   2.694   7.794
 8441SOL     OW26763   3.314   3.473   7.459
 8441SOL    HW126764   3.294   3.566   7.472
 8441SOL    HW226765   3.367   3.471   7.380
 8442SOL     OW26766   2.225   3.167   8.950
 8442SOL    HW126767   2.228   3.236   8.885
 8442SOL    HW226768   2.152   3.111   8.923
 8443SOL     OW26769   3.451   3.126   8.737
 8443SOL    HW126770   3.542   3.152   8.726
 8443SOL    HW226771   3.404   3.208   8.751
 8444SOL     OW26772   2.916   2.967   8.170
 8444SOL    HW126773   2.848   2.903   8.191
 8444SOL    HW226774   2.985   2.916   8.128
 8445SOL     OW26775   2.893   2.105   8.413
 8445SOL    HW126776   2.890   2.057   8.330
 8445SOL    HW226777   2.883   2.037   8.480
 8446SOL     OW26778   2.438   3.335   7.933
 8446SOL    HW126779   2.501   3.282   7.885
 8446SOL    HW226780   2.426   3.413   7.880
 8447SOL     OW26781   3.596   2.245   8.849
 8447SOL    HW126782   3.666   2.310   8.844
 8447SOL    HW226783   3.619   2.181   8.782
 8448SOL     OW26784   2.116   3.198   7.733
 8448SOL    HW126785   2.022   3.203   7.712
 8448SOL    HW226786   2.124   3.241   7.818
 8449SOL     OW26787   1.982   2.898   9.173
 8449SOL    HW126788   1.906   2.870   9.222
 8449SOL    HW226789   2.056   2.852   9.213
 8450SOL     OW26790   2.536   2.046   8.946
 8450SOL    HW126791   2.621   2.035   8.905
 8450SOL    HW226792   2.556   2.078   9.034
 8451SOL     OW26793   1.936   2.203   7.506
 8451SOL    HW126794   1.880   2.207   7.428
 8451SOL    HW226795   1.966   2.293   7.518
 8452SOL     OW26796   3.275   2.717   8.844
 8452SOL    HW126797   3.226   2.781   8.793
 8452SOL    HW226798   3.363   2.719   8.807
 8453SOL     OW26799   1.923   2.012   7.738
 8453SOL    HW126800   1.909   2.083   7.676
 8453SOL    HW226801   2.013   1.983   7.722
 8454SOL     OW26802   3.046   3.161   7.582
 8454SOL    HW126803   3.038   3.253   7.556
 8454SOL    HW226804   3.067   3.165   7.676
 8455SOL     OW26805   2.487   2.698   8.883
 8455SOL    HW126806   2.543   2.773   8.861
 8455SOL    HW226807   2.546   2.623   8.887
 8456SOL     OW26808   2.572   2.433   9.150
 8456SOL    HW126809   2.618   2.502   9.198
 8456SOL    HW226810   2.611   2.351   9.181
 8457SOL     OW26811   3.335   3.059   9.079
 8457SOL    HW126812   3.334   3.069   9.174
 8457SOL    HW226813   3.424   3.082   9.053
 8458SOL     OW26814   2.222   3.611   9.016
 8458SOL    HW126815   2.143   3.659   8.990
 8458SOL    HW226816   2.190   3.525   9.042
 8459SOL     OW26817   3.511   2.729   8.708
 8459SOL    HW126818   3.539   2.658   8.650
 8459SOL    HW226819   3.492   2.802   8.649
 8460SOL     OW26820   3.066   2.172   7.909
 8460SOL    HW126821   3.144   2.117   7.897
 8460SOL    HW226822   3.088   2.227   7.984
 8461SOL     OW26823   2.431   2.591   8.122
 8461SOL    HW126824   2.479   2.674   8.116
 8461SOL    HW226825   2.375   2.591   8.045
 8462SOL     OW26826   3.634   2.212   9.122
 8462SOL    HW126827   3.629   2.232   9.028
 8462SOL    HW226828   3.555   2.160   9.138
 8463SOL     OW26829   3.612   2.779   8.965
 8463SOL    HW126830   3.669   2.856   8.965
 8463SOL    HW226831   3.590   2.766   8.872
 8464SOL     OW26832   2.683   3.241   7.471
 8464SOL    HW126833   2.732   3.271   7.547
 8464SOL    HW226834   2.720   3.290   7.398
 8465SOL     OW26835   2.525   3.659   8.397
 8465SOL    HW126836   2.511   3.745   8.357
 8465SOL    HW226837   2.618   3.640   8.382
 8466SOL     OW26838   2.717   2.820   8.303
 8466SOL    HW126839   2.775   2.751   8.336
 8466SOL    HW226840   2.701   2.876   8.379
 8467SOL     OW26841   2.920   2.806   7.528
 8467SOL    HW126842   2.906   2.884   7.474
 8467SOL    HW226843   3.009   2.778   7.506
 8468SOL     OW26844   2.070   3.158   9.298
 8468SOL    HW126845   2.016   3.085   9.268
 8468SOL    HW226846   2.054   3.161   9.393
 8469SOL     OW26847   1.943   3.069   8.118
 8469SOL    HW126848   1.998   3.025   8.183
 8469SOL    HW226849   2.000   3.083   8.043
 8470SOL     OW26850   2.521   3.282   9.089
 8470SOL    HW126851   2.437   3.247   9.060
 8470SOL    HW226852   2.534   3.360   9.036
 8471SOL     OW26853   3.649   2.036   8.689
 8471SOL    HW126854   3.691   1.951   8.702
 8471SOL    HW226855   3.663   2.055   8.596
 8472SOL     OW26856   2.265   2.294   7.960
 8472SOL    HW126857   2.319   2.231   7.911
 8472SOL    HW226858   2.237   2.246   8.038
 8473SOL     OW26859   2.196   2.421   8.741
 8473SOL    HW126860   2.258   2.369   8.792
 8473SOL    HW226861   2.216   2.400   8.650
 8474SOL     OW26862   2.685   3.470   8.135
 8474SOL    HW126863   2.692   3.541   8.071
 8474SOL    HW226864   2.643   3.399   8.087
 8475SOL     OW26865   3.280   2.067   8.584
 8475SOL    HW126866   3.368   2.062   8.620
 8475SOL    HW226867   3.231   2.121   8.647
 8476SOL     OW26868   2.876   1.865   8.579
 8476SOL    HW126869   2.846   1.803   8.513
 8476SOL    HW226870   2.967   1.841   8.595
 8477SOL     OW26871   2.624   3.181   7.813
 8477SOL    HW126872   2.634   3.095   7.774
 8477SOL    HW226873   2.712   3.207   7.838
 8478SOL     OW26874   2.484   3.413   8.761
 8478SOL    HW126875   2.483   3.504   8.789
 8478SOL    HW226876   2.568   3.403   8.715
 8479SOL     OW26877   3.214   1.896   7.632
 8479SOL    HW126878   3.222   1.869   7.541
 8479SOL    HW226879   3.130   1.860   7.660
 8480SOL     OW26880   3.125   2.315   8.128
 8480SOL    HW126881   3.096   2.406   8.129
 8480SOL    HW226882   3.158   2.299   8.217
 8481SOL     OW26883   3.438   2.070   8.317
 8481SOL    HW126884   3.368   2.101   8.373
 8481SOL    HW226885   3.452   2.141   8.255
 8482SOL     OW26886   1.896   2.933   7.761
 8482SOL    HW126887   1.991   2.938   7.749
 8482SOL    HW226888   1.879   2.840   7.778
 8483SOL     OW26889   2.705   3.508   7.820
 8483SOL    HW126890   2.659   3.512   7.737
 8483SOL    HW226891   2.762   3.585   7.820
 8484SOL     OW26892   2.074   2.475   9.449
 8484SOL    HW126893   1.984   2.472   9.481
 8484SOL    HW226894   2.066   2.458   9.355
 8485SOL     OW26895   2.085   2.146  10.302
 8485SOL    HW126896   2.112   2.111  10.388
 8485SOL    HW226897   1.995   2.115  10.291
 8486SOL     OW26898   1.865   2.244   9.956
 8486SOL    HW126899   1.784   2.276   9.997
 8486SOL    HW226900   1.838   2.165   9.909
 8487SOL     OW26901   2.428   3.161  10.497
 8487SOL    HW126902   2.346   3.170  10.449
 8487SOL    HW226903   2.449   3.250  10.527
 8488SOL     OW26904   2.990   2.560  10.006
 8488SOL    HW126905   3.042   2.639   9.992
 8488SOL    HW226906   2.943   2.577  10.087
 8489SOL     OW26907   3.609   2.475   9.545
 8489SOL    HW126908   3.595   2.484   9.451
 8489SOL    HW226909   3.614   2.381   9.561
 8490SOL     OW26910   2.605   2.997  10.364
 8490SOL    HW126911   2.539   3.038  10.420
 8490SOL    HW226912   2.644   3.069  10.315
 8491SOL     OW26913   2.738   2.621  11.130
 8491SOL    HW126914   2.721   2.694  11.190
 8491SOL    HW226915   2.760   2.663  11.047
 8492SOL     OW26916   2.545   2.852   9.956
 8492SOL    HW126917   2.613   2.850  10.023
 8492SOL    HW226918   2.479   2.911   9.991
 8493SOL     OW26919   2.577   3.014  11.136
 8493SOL    HW126920   2.628   3.090  11.164
 8493SOL    HW226921   2.501   3.050  11.092
 8494SOL     OW26922   2.196   3.277  10.375
 8494SOL    HW126923   2.123   3.237  10.328
 8494SOL    HW226924   2.241   3.330  10.309
 8495SOL     OW26925   3.338   3.364  10.697
 8495SOL    HW126926   3.334   3.432  10.630
 8495SOL    HW226927   3.253   3.368  10.742
 8496SOL     OW26928   2.310   2.255  10.800
 8496SOL    HW126929   2.385   2.196  10.800
 8496SOL    HW226930   2.234   2.197  10.807
 8497SOL     OW26931   3.468   2.305  10.052
 8497SOL    HW126932   3.415   2.329   9.976
 8497SOL    HW226933   3.481   2.388  10.099
 8498SOL     OW26934   2.087   3.580   9.772
 8498SOL    HW126935   2.108   3.653   9.831
 8498SOL    HW226936   2.164   3.571   9.716
 8499SOL     OW26937   3.000   3.204  11.004
 8499SOL    HW126938   3.042   3.195  11.089
 8499SOL    HW226939   2.949   3.123  10.994
 8500SOL     OW26940   2.087   3.306   9.842
 8500SOL    HW126941   2.076   3.401   9.844
 8500SOL    HW226942   2.032   3.274   9.914
 8501SOL     OW26943   2.126   2.953  10.198
 8501SOL    HW126944   2.123   2.866  10.236
 8501SOL    HW226945   2.068   3.006  10.253
 8502SOL     OW26946   2.463   3.653  10.745
 8502SOL    HW126947   2.379   3.639  10.789
 8502SOL    HW226948   2.486   3.743  10.766
 8503SOL     OW26949   2.435   2.850   9.454
 8503SOL    HW126950   2.483   2.894   9.384
 8503SOL    HW226951   2.478   2.879   9.535
 8504SOL     OW26952   3.455   1.989  10.775
 8504SOL    HW126953   3.493   2.063  10.727
 8504SOL    HW226954   3.435   2.024  10.861
 8505SOL     OW26955   1.991   2.521   9.876
 8505SOL    HW126956   1.955   2.434   9.891
 8505SOL    HW226957   1.976   2.568   9.958
 8506SOL     OW26958   1.890   3.452   9.434
 8506SOL    HW126959   1.888   3.359   9.457
 8506SOL    HW226960   1.874   3.497   9.517
 8507SOL     OW26961   3.555   2.778   9.968
 8507SOL    HW126962   3.621   2.731   9.917
 8507SOL    HW226963   3.508   2.831   9.904
 8508SOL     OW26964   3.473   2.923   9.749
 8508SOL    HW126965   3.556   2.889   9.714
 8508SOL    HW226966   3.488   3.017   9.760
 8509SOL     OW26967   1.980   2.606  10.898
 8509SOL    HW126968   2.067   2.646  10.894
 8509SOL    HW226969   1.920   2.680  10.888
 8510SOL     OW26970   2.468   3.255  10.045
 8510SOL    HW126971   2.428   3.167  10.051
 8510SOL    HW226972   2.452   3.281   9.954
 8511SOL     OW26973   3.150   3.099  10.732
 8511SOL    HW126974   3.173   3.030  10.669
 8511SOL    HW226975   3.216   3.090  10.801
 8512SOL     OW26976   2.683   1.863   9.833
 8512SOL    HW126977   2.725   1.943   9.802
 8512SOL    HW226978   2.590   1.883   9.833
 8513SOL     OW26979   2.045   2.818  10.600
 8513SOL    HW126980   2.131   2.782  10.582
 8513SOL    HW226981   1.991   2.792  10.525
 8514SOL     OW26982   3.377   2.846   9.505
 8514SOL    HW126983   3.307   2.785   9.527
 8514SOL    HW226984   3.409   2.878   9.590
 8515SOL     OW26985   3.056   3.675  10.938
 8515SOL    HW126986   3.054   3.741  10.869
 8515SOL    HW226987   3.065   3.592  10.892
 8516SOL     OW26988   2.210   2.110  11.146
 8516SOL    HW126989   2.257   2.193  11.152
 8516SOL    HW226990   2.120   2.134  11.124
 8517SOL     OW26991   3.356   3.258  10.302
 8517SOL    HW126992   3.268   3.291  10.319
 8517SOL    HW226993   3.344   3.196  10.230
 8518SOL     OW26994   2.458   2.575   9.582
 8518SOL    HW126995   2.465   2.658   9.534
 8518SOL    HW226996   2.393   2.592   9.650
 8519SOL     OW26997   3.145   2.237  10.251
 8519SOL    HW126998   3.055   2.202  10.254
 8519SOL    HW226999   3.195   2.178  10.307
 8520SOL     OW27000   2.653   2.478  10.755
 8520SOL    HW127001   2.625   2.451  10.842
 8520SOL    HW227002   2.619   2.409  10.697
 8521SOL     OW27003   3.250   2.339  10.988
 8521SOL    HW127004   3.257   2.386  11.072
 8521SOL    HW227005   3.312   2.267  10.996
 8522SOL     OW27006   2.809   2.746  10.895
 8522SOL    HW127007   2.864   2.679  10.856
 8522SOL    HW227008   2.763   2.786  10.821
 8523SOL     OW27009   2.854   2.264  10.542
 8523SOL    HW127010   2.763   2.283  10.565
 8523SOL    HW227011   2.851   2.243  10.449
 8524SOL     OW27012   2.915   2.556   9.734
 8524SOL    HW127013   2.933   2.552   9.828
 8524SOL    HW227014   2.832   2.510   9.724
 8525SOL     OW27015   1.944   2.677  10.097
 8525SOL    HW127016   2.027   2.677  10.146
 8525SOL    HW227017   1.898   2.755  10.127
 8526SOL     OW27018   1.983   3.737  10.894
 8526SOL    HW127019   1.987   3.715  10.987
 8526SOL    HW227020   1.900   3.699  10.864
 8527SOL     OW27021   2.765   2.200   9.490
 8527SOL    HW127022   2.798   2.276   9.443
 8527SOL    HW227023   2.818   2.127   9.457
 8528SOL     OW27024   3.559   2.433  11.144
 8528SOL    HW127025   3.529   2.508  11.092
 8528SOL    HW227026   3.592   2.371  11.079
 8529SOL     OW27027   3.217   2.989   9.846
 8529SOL    HW127028   3.297   2.968   9.797
 8529SOL    HW227029   3.185   3.069   9.806
 8530SOL     OW27030   2.408   2.032  10.208
 8530SOL    HW127031   2.412   2.071  10.295
 8530SOL    HW227032   2.409   2.107  10.148
 8531SOL     OW27033   2.870   3.307   9.785
 8531SOL    HW127034   2.820   3.377   9.745
 8531SOL    HW227035   2.867   3.326   9.879
 8532SOL     OW27036   2.217   3.679  10.187
 8532SOL    HW127037   2.265   3.596  10.190
 8532SOL    HW227038   2.284   3.746  10.198
 8533SOL     OW27039   3.664   2.902  10.199
 8533SOL    HW127040   3.624   2.883  10.114
 8533SOL    HW227041   3.591   2.911  10.259
 8534SOL     OW27042   3.089   3.398  10.817
 8534SOL    HW127043   3.072   3.325  10.877
 8534SOL    HW227044   3.027   3.386  10.746
 8535SOL     OW27045   2.174   2.827   9.565
 8535SOL    HW127046   2.259   2.845   9.524
 8535SOL    HW227047   2.146   2.744   9.526
 8536SOL     OW27048   3.345   2.616  10.038
 8536SOL    HW127049   3.348   2.575  10.124
 8536SOL    HW227050   3.426   2.667  10.033
 8537SOL     OW27051   2.329   3.130  11.051
 8537SOL    HW127052   2.304   3.136  10.959
 8537SOL    HW227053   2.246   3.127  11.099
 8538SOL     OW27054   2.901   3.626   9.544
 8538SOL    HW127055   2.965   3.689   9.577
 8538SOL    HW227056   2.947   3.577   9.477
 8539SOL     OW27057   2.063   2.130  10.808
 8539SOL    HW127058   1.991   2.193  10.802
 8539SOL    HW227059   2.022   2.050  10.842
 8540SOL     OW27060   2.344   3.620   9.630
 8540SOL    HW127061   2.377   3.666   9.707
 8540SOL    HW227062   2.403   3.648   9.559
 8541SOL     OW27063   3.263   1.963   9.757
 8541SOL    HW127064   3.251   1.944   9.664
 8541SOL    HW227065   3.352   1.996   9.764
 8542SOL     OW27066   2.121   3.650  10.534
 8542SOL    HW127067   2.169   3.576  10.572
 8542SOL    HW227068   2.114   3.629  10.441
 8543SOL     OW27069   2.819   3.553  10.206
 8543SOL    HW127070   2.908   3.518  10.199
 8543SOL    HW227071   2.770   3.508  10.137
 8544SOL     OW27072   2.263   2.555   9.784
 8544SOL    HW127073   2.280   2.462   9.797
 8544SOL    HW227074   2.169   2.565   9.801
 8545SOL     OW27075   3.387   2.090  11.033
 8545SOL    HW127076   3.398   2.109  11.126
 8545SOL    HW227077   3.314   2.028  11.029
 8546SOL     OW27078   2.484   1.954   9.438
 8546SOL    HW127079   2.577   1.942   9.421
 8546SOL    HW227080   2.442   1.933   9.354
 8547SOL     OW27081   2.623   2.139  11.066
 8547SOL    HW127082   2.705   2.090  11.063
 8547SOL    HW227083   2.580   2.108  11.146
 8548SOL     OW27084   2.732   3.380  10.513
 8548SOL    HW127085   2.725   3.354  10.421
 8548SOL    HW227086   2.808   3.330  10.545
 8549SOL     OW27087   3.197   2.452  10.740
 8549SOL    HW127088   3.230   2.425  10.825
 8549SOL    HW227089   3.234   2.539  10.726
 8550SOL     OW27090   2.681   3.241  10.255
 8550SOL    HW127091   2.768   3.240  10.215
 8550SOL    HW227092   2.622   3.259  10.183
 8551SOL     OW27093   2.789   2.366  10.210
 8551SOL    HW127094   2.763   2.361  10.118
 8551SOL    HW227095   2.823   2.278  10.230
 8552SOL     OW27096   2.416   1.924   9.808
 8552SOL    HW127097   2.334   1.924   9.858
 8552SOL    HW227098   2.410   2.002   9.753
 8553SOL     OW27099   3.304   3.058   9.344
 8553SOL    HW127100   3.332   2.984   9.398
 8553SOL    HW227101   3.226   3.091   9.389
 8554SOL     OW27102   2.151   1.910   9.493
 8554SOL    HW127103   2.197   1.976   9.441
 8554SOL    HW227104   2.222   1.857   9.530
 8555SOL     OW27105   2.803   2.105   9.762
 8555SOL    HW127106   2.775   2.144   9.679
 8555SOL    HW227107   2.896   2.124   9.768
 8556SOL     OW27108   2.942   2.546  10.772
 8556SOL    HW127109   2.878   2.475  10.764
 8556SOL    HW227110   3.026   2.504  10.759
 8557SOL     OW27111   3.077   3.448  10.092
 8557SOL    HW127112   3.072   3.517  10.026
 8557SOL    HW227113   3.171   3.432  10.102
 8558SOL     OW27114   2.334   3.012  10.035
 8558SOL    HW127115   2.267   2.993  10.099
 8558SOL    HW227116   2.290   3.002   9.950
 8559SOL     OW27117   3.086   3.661   9.915
 8559SOL    HW127118   3.109   3.674   9.823
 8559SOL    HW227119   3.085   3.749   9.952
 8560SOL     OW27120   2.877   2.399   9.339
 8560SOL    HW127121   2.839   2.482   9.312
 8560SOL    HW227122   2.952   2.423   9.393
 8561SOL     OW27123   1.954   2.408  10.712
 8561SOL    HW127124   2.044   2.415  10.680
 8561SOL    HW227125   1.944   2.480  10.773
 8562SOL     OW27126   2.418   2.091  10.481
 8562SOL    HW127127   2.460   2.019  10.528
 8562SOL    HW227128   2.326   2.086  10.506
 8563SOL     OW27129   2.723   2.313   9.949
 8563SOL    HW127130   2.683   2.373   9.886
 8563SOL    HW227131   2.751   2.238   9.896
 8564SOL     OW27132   2.878   1.925  10.062
 8564SOL    HW127133   2.822   1.928   9.984
 8564SOL    HW227134   2.851   1.846  10.108
 8565SOL     OW27135   3.314   3.043  10.134
 8565SOL    HW127136   3.245   2.983  10.105
 8565SOL    HW227137   3.337   3.093  10.056
 8566SOL     OW27138   3.327   2.476  10.279
 8566SOL    HW127139   3.272   2.397  10.275
 8566SOL    HW227140   3.384   2.462  10.354
 8567SOL     OW27141   3.675   2.683   9.726
 8567SOL    HW127142   3.754   2.640   9.758
 8567SOL    HW227143   3.658   2.642   9.642
 8568SOL     OW27144   2.360   3.297   9.412
 8568SOL    HW127145   2.300   3.284   9.485
 8568SOL    HW227146   2.344   3.222   9.354
 8569SOL     OW27147   3.254   2.441   9.376
 8569SOL    HW127148   3.205   2.414   9.454
 8569SOL    HW227149   3.346   2.430   9.400
 8570SOL     OW27150   2.382   2.124   9.628
 8570SOL    HW127151   2.422   2.071   9.560
 8570SOL    HW227152   2.358   2.206   9.584
 8571SOL     OW27153   3.619   3.112  10.898
 8571SOL    HW127154   3.694   3.065  10.859
 8571SOL    HW227155   3.657   3.193  10.932
 8572SOL     OW27156   2.912   3.218  10.654
 8572SOL    HW127157   2.838   3.180  10.701
 8572SOL    HW227158   2.989   3.172  10.687
 8573SOL     OW27159   2.997   3.083  10.412
 8573SOL    HW127160   2.924   3.113  10.466
 8573SOL    HW227161   2.974   3.112  10.323
 8574SOL     OW27162   3.465   2.951  10.381
 8574SOL    HW127163   3.450   3.008  10.457
 8574SOL    HW227164   3.404   2.983  10.315
 8575SOL     OW27165   2.784   1.945  10.701
 8575SOL    HW127166   2.803   1.933  10.608
 8575SOL    HW227167   2.862   1.990  10.736
 8576SOL     OW27168   2.848   2.973  11.038
 8576SOL    HW127169   2.757   2.993  11.058
 8576SOL    HW227170   2.844   2.897  10.980
 8577SOL     OW27171   2.570   2.919   9.685
 8577SOL    HW127172   2.557   2.898   9.777
 8577SOL    HW227173   2.647   2.868   9.659
 8578SOL     OW27174   2.282   2.686  10.566
 8578SOL    HW127175   2.353   2.694  10.630
 8578SOL    HW227176   2.250   2.597  10.577
 8579SOL     OW27177   3.121   2.228  10.601
 8579SOL    HW127178   3.155   2.309  10.638
 8579SOL    HW227179   3.032   2.249  10.574
 8580SOL     OW27180   1.939   3.437  10.668
 8580SOL    HW127181   1.908   3.505  10.609
 8580SOL    HW227182   2.034   3.435  10.657
 8581SOL     OW27183   2.191   2.985   9.800
 8581SOL    HW127184   2.210   3.060   9.743
 8581SOL    HW227185   2.190   2.910   9.741
 8582SOL     OW27186   2.407   2.391  10.174
 8582SOL    HW127187   2.417   2.448  10.098
 8582SOL    HW227188   2.477   2.419  10.234
 8583SOL     OW27189   3.133   3.220   9.720
 8583SOL    HW127190   3.202   3.283   9.739
 8583SOL    HW227191   3.052   3.263   9.749
 8584SOL     OW27192   3.140   3.319  10.470
 8584SOL    HW127193   3.200   3.281  10.534
 8584SOL    HW227194   3.081   3.247  10.446
 8585SOL     OW27195   3.453   2.467   9.801
 8585SOL    HW127196   3.397   2.534   9.839
 8585SOL    HW227197   3.507   2.513   9.738
 8586SOL     OW27198   2.209   3.392  10.617
 8586SOL    HW127199   2.198   3.346  10.533
 8586SOL    HW227200   2.303   3.404  10.625
 8587SOL     OW27201   2.284   2.608  10.917
 8587SOL    HW127202   2.344   2.654  10.858
 8587SOL    HW227203   2.325   2.522  10.928
 8588SOL     OW27204   3.472   2.646  10.999
 8588SOL    HW127205   3.386   2.688  10.990
 8588SOL    HW227206   3.524   2.683  10.928
 8589SOL     OW27207   2.858   1.999  11.069
 8589SOL    HW127208   2.914   2.074  11.049
 8589SOL    HW227209   2.908   1.923  11.040
 8590SOL     OW27210   2.356   1.889  11.067
 8590SOL    HW127211   2.308   1.842  10.999
 8590SOL    HW227212   2.305   1.969  11.081
 8591SOL     OW27213   2.454   2.736  10.347
 8591SOL    HW127214   2.487   2.825  10.342
 8591SOL    HW227215   2.390   2.738  10.419
 8592SOL     OW27216   3.203   2.715  10.344
 8592SOL    HW127217   3.142   2.725  10.271
 8592SOL    HW227218   3.250   2.634  10.325
 8593SOL     OW27219   3.063   2.380   9.573
 8593SOL    HW127220   3.070   2.305   9.632
 8593SOL    HW227221   3.027   2.450   9.627
 8594SOL     OW27222   2.159   2.054  10.556
 8594SOL    HW127223   2.120   2.089  10.637
 8594SOL    HW227224   2.136   1.961  10.557
 8595SOL     OW27225   1.916   3.174  10.583
 8595SOL    HW127226   1.944   3.119  10.656
 8595SOL    HW227227   1.917   3.263  10.618
 8596SOL     OW27228   2.582   2.492  10.365
 8596SOL    HW127229   2.658   2.482  10.308
 8596SOL    HW227230   2.551   2.581  10.349
 8597SOL     OW27231   3.610   2.818  11.171
 8597SOL    HW127232   3.563   2.754  11.117
 8597SOL    HW227233   3.546   2.843  11.238
 8598SOL     OW27234   2.171   1.917   9.936
 8598SOL    HW127235   2.146   2.008   9.951
 8598SOL    HW227236   2.179   1.880  10.024
 8599SOL     OW27237   3.460   2.221   9.682
 8599SOL    HW127238   3.513   2.170   9.742
 8599SOL    HW227239   3.452   2.307   9.723
 8600SOL     OW27240   2.879   2.619  10.262
 8600SOL    HW127241   2.879   2.635  10.357
 8600SOL    HW227242   2.859   2.526  10.254
 8601SOL     OW27243   2.845   3.429  11.032
 8601SOL    HW127244   2.826   3.473  10.949
 8601SOL    HW227245   2.889   3.348  11.006
 8602SOL     OW27246   3.740   3.361  10.903
 8602SOL    HW127247   3.782   3.390  10.822
 8602SOL    HW227248   3.805   3.379  10.971
 8603SOL     OW27249   2.209   2.759  11.134
 8603SOL    HW127250   2.291   2.794  11.169
 8603SOL    HW227251   2.235   2.705  11.060
 8604SOL     OW27252   3.387   2.123   9.438
 8604SOL    HW127253   3.319   2.063   9.468
 8604SOL    HW227254   3.418   2.166   9.517
 8605SOL     OW27255   3.148   2.691   9.334
 8605SOL    HW127256   3.193   2.606   9.334
 8605SOL    HW227257   3.179   2.735   9.256
 8606SOL     OW27258   2.939   3.210  10.172
 8606SOL    HW127259   2.942   3.138  10.109
 8606SOL    HW227260   2.992   3.279  10.131
 8607SOL     OW27261   2.171   2.674  10.257
 8607SOL    HW127262   2.263   2.692  10.239
 8607SOL    HW227263   2.170   2.583  10.288
 8608SOL     OW27264   2.188   2.393  10.328
 8608SOL    HW127265   2.150   2.307  10.311
 8608SOL    HW227266   2.265   2.397  10.271
 8609SOL     OW27267   2.997   2.230  11.003
 8609SOL    HW127268   2.948   2.288  11.061
 8609SOL    HW227269   3.082   2.273  10.992
 8610SOL     OW27270   3.024   2.052  10.792
 8610SOL    HW127271   3.011   2.119  10.860
 8610SOL    HW227272   3.065   2.100  10.720
 8611SOL     OW27273   1.868   3.184   9.517
 8611SOL    HW127274   1.778   3.197   9.486
 8611SOL    HW227275   1.870   3.094   9.549
 8612SOL     OW27276   1.953   3.642  10.253
 8612SOL    HW127277   1.922   3.565  10.205
 8612SOL    HW227278   2.043   3.656  10.221
 8613SOL     OW27279   2.356   3.440  10.217
 8613SOL    HW127280   2.427   3.500  10.240
 8613SOL    HW227281   2.395   3.378  10.155
 8614SOL     OW27282   2.834   2.643  10.532
 8614SOL    HW127283   2.896   2.632  10.604
 8614SOL    HW227284   2.752   2.608  10.565
 8615SOL     OW27285   1.897   2.402  10.433
 8615SOL    HW127286   1.973   2.409  10.376
 8615SOL    HW227287   1.933   2.407  10.522
 8616SOL     OW27288   2.062   2.381  11.034
 8616SOL    HW127289   2.124   2.354  10.966
 8616SOL    HW227290   2.019   2.458  10.997
 8617SOL     OW27291   3.243   2.796  10.970
 8617SOL    HW127292   3.265   2.889  10.963
 8617SOL    HW227293   3.235   2.766  10.880
 8618SOL     OW27294   2.676   2.425   9.681
 8618SOL    HW127295   2.681   2.357   9.613
 8618SOL    HW227296   2.605   2.483   9.652
 8619SOL     OW27297   3.500   2.454  10.490
 8619SOL    HW127298   3.492   2.398  10.567
 8619SOL    HW227299   3.588   2.437  10.457
 8620SOL     OW27300   2.100   3.410  11.034
 8620SOL    HW127301   2.076   3.473  11.102
 8620SOL    HW227302   2.106   3.327  11.080
 8621SOL     OW27303   2.575   2.306  10.560
 8621SOL    HW127304   2.517   2.236  10.530
 8621SOL    HW227305   2.569   2.372  10.491
 8622SOL     OW27306   2.779   3.542  10.785
 8622SOL    HW127307   2.764   3.497  10.702
 8622SOL    HW227308   2.774   3.635  10.763
 8623SOL     OW27309   2.317   2.351   9.495
 8623SOL    HW127310   2.376   2.424   9.515
 8623SOL    HW227311   2.231   2.392   9.486
 8624SOL     OW27312   1.999   3.006  10.790
 8624SOL    HW127313   2.003   2.961  10.874
 8624SOL    HW227314   2.015   2.937  10.726
 8625SOL     OW27315   3.167   2.903  10.535
 8625SOL    HW127316   3.191   2.839  10.468
 8625SOL    HW227317   3.109   2.964  10.490
 8626SOL     OW27318   3.167   2.695   9.610
 8626SOL    HW127319   3.084   2.683   9.656
 8626SOL    HW227320   3.144   2.693   9.517
 8627SOL     OW27321   3.654   3.605  10.473
 8627SOL    HW127322   3.711   3.627  10.399
 8627SOL    HW227323   3.615   3.521  10.450
 8628SOL     OW27324   3.111   3.596  10.440
 8628SOL    HW127325   3.188   3.621  10.388
 8628SOL    HW227326   3.115   3.501  10.443
 8629SOL     OW27327   1.951   3.124  10.320
 8629SOL    HW127328   1.934   3.142  10.412
 8629SOL    HW227329   1.875   3.074  10.290
 8630SOL     OW27330   2.542   3.536  11.048
 8630SOL    HW127331   2.480   3.608  11.039
 8630SOL    HW227332   2.608   3.552  10.980
 8631SOL     OW27333   3.601   2.023   9.821
 8631SOL    HW127334   3.662   2.009   9.749
 8631SOL    HW227335   3.581   1.935   9.853
 8632SOL     OW27336   2.002   3.662  11.152
 8632SOL    HW127337   1.954   3.592  11.197
 8632SOL    HW227338   2.050   3.707  11.222
 8633SOL     OW27339   3.137   2.785   9.993
 8633SOL    HW127340   3.214   2.728  10.000
 8633SOL    HW227341   3.163   2.854   9.933
 8634SOL     OW27342   2.661   3.136  10.739
 8634SOL    HW127343   2.632   3.179  10.820
 8634SOL    HW227344   2.600   3.166  10.672
 8635SOL     OW27345   3.495   3.618  10.691
 8635SOL    HW127346   3.542   3.631  10.608
 8635SOL    HW227347   3.471   3.706  10.719
 8636SOL     OW27348   3.702   2.032  10.279
 8636SOL    HW127349   3.731   1.946  10.249
 8636SOL    HW227350   3.618   2.045  10.236
 8637SOL     OW27351   2.119   2.168  10.022
 8637SOL    HW127352   2.034   2.205   9.997
 8637SOL    HW227353   2.118   2.171  10.118
 8638SOL     OW27354   3.006   3.446   9.354
 8638SOL    HW127355   3.072   3.382   9.327
 8638SOL    HW227356   2.981   3.490   9.273
 8639SOL     OW27357   2.686   2.869  10.684
 8639SOL    HW127358   2.721   2.866  10.595
 8639SOL    HW227359   2.678   2.963  10.702
 8640SOL     OW27360   2.779   2.770   9.613
 8640SOL    HW127361   2.830   2.798   9.538
 8640SOL    HW227362   2.832   2.701   9.654
 8641SOL     OW27363   2.227   3.170  10.806
 8641SOL    HW127364   2.220   3.243  10.745
 8641SOL    HW227365   2.150   3.116  10.788
 8642SOL     OW27366   3.459   3.109  10.609
 8642SOL    HW127367   3.553   3.130  10.608
 8642SOL    HW227368   3.416   3.191  10.629
 8643SOL     OW27369   2.922   2.980  10.032
 8643SOL    HW127370   2.850   2.925  10.061
 8643SOL    HW227371   2.985   2.919   9.993
 8644SOL     OW27372   2.890   2.108  10.278
 8644SOL    HW127373   2.888   2.062  10.194
 8644SOL    HW227374   2.884   2.038  10.343
 8645SOL     OW27375   2.452   3.342   9.789
 8645SOL    HW127376   2.515   3.293   9.736
 8645SOL    HW227377   2.425   3.415   9.733
 8646SOL     OW27378   3.596   2.246  10.697
 8646SOL    HW127379   3.666   2.312  10.693
 8646SOL    HW227380   3.623   2.179  10.635
 8647SOL     OW27381   2.133   3.216   9.593
 8647SOL    HW127382   2.039   3.211   9.575
 8647SOL    HW227383   2.139   3.251   9.682
 8648SOL     OW27384   1.982   2.901  11.046
 8648SOL    HW127385   1.902   2.872  11.090
 8648SOL    HW227386   2.051   2.848  11.086
 8649SOL     OW27387   2.539   2.048  10.810
 8649SOL    HW127388   2.623   2.031  10.769
 8649SOL    HW227389   2.561   2.087  10.895
 8650SOL     OW27390   1.946   2.191   9.347
 8650SOL    HW127391   1.853   2.207   9.362
 8650SOL    HW227392   1.973   2.258   9.284
 8651SOL     OW27393   3.283   2.719  10.708
 8651SOL    HW127394   3.230   2.778  10.655
 8651SOL    HW227395   3.370   2.722  10.669
 8652SOL     OW27396   1.925   2.014   9.610
 8652SOL    HW127397   1.911   2.099   9.567
 8652SOL    HW227398   2.009   1.983   9.576
 8653SOL     OW27399   3.084   3.155   9.461
 8653SOL    HW127400   3.002   3.201   9.440
 8653SOL    HW227401   3.099   3.175   9.553
 8654SOL     OW27402   2.485   2.693  10.746
 8654SOL    HW127403   2.541   2.769  10.729
 8654SOL    HW227404   2.545   2.619  10.751
 8655SOL     OW27405   3.345   3.649  10.300
 8655SOL    HW127406   3.342   3.696  10.216
 8655SOL    HW227407   3.435   3.615  10.305
 8656SOL     OW27408   2.576   2.419  11.009
 8656SOL    HW127409   2.623   2.480  11.065
 8656SOL    HW227410   2.597   2.333  11.043
 8657SOL     OW27411   3.343   3.055  10.939
 8657SOL    HW127412   3.332   3.072  11.032
 8657SOL    HW227413   3.436   3.073  10.922
 8658SOL     OW27414   2.228   3.607  10.880
 8658SOL    HW127415   2.146   3.653  10.861
 8658SOL    HW227416   2.201   3.524  10.918
 8659SOL     OW27417   3.519   2.739  10.563
 8659SOL    HW127418   3.517   2.655  10.515
 8659SOL    HW227419   3.505   2.805  10.495
 8660SOL     OW27420   3.070   2.172   9.771
 8660SOL    HW127421   3.138   2.105   9.763
 8660SOL    HW227422   3.098   2.226   9.845
 8661SOL     OW27423   2.442   2.595   9.991
 8661SOL    HW127424   2.486   2.679   9.976
 8661SOL    HW227425   2.382   2.586   9.917
 8662SOL     OW27426   3.619   2.223  10.971
 8662SOL    HW127427   3.612   2.240  10.877
 8662SOL    HW227428   3.542   2.170  10.992
 8663SOL     OW27429   3.616   2.787  10.816
 8663SOL    HW127430   3.602   2.881  10.828
 8663SOL    HW227431   3.595   2.771  10.724
 8664SOL     OW27432   2.713   3.241   9.345
 8664SOL    HW127433   2.767   3.238   9.424
 8664SOL    HW227434   2.770   3.279   9.278
 8665SOL     OW27435   2.534   3.644  10.254
 8665SOL    HW127436   2.514   3.733  10.224
 8665SOL    HW227437   2.627   3.633  10.237
 8666SOL     OW27438   2.727   2.832  10.164
 8666SOL    HW127439   2.779   2.759  10.198
 8666SOL    HW227440   2.693   2.876  10.242
 8667SOL     OW27441   2.919   2.826   9.392
 8667SOL    HW127442   2.905   2.894   9.327
 8667SOL    HW227443   3.003   2.787   9.369
 8668SOL     OW27444   3.679   3.437  10.128
 8668SOL    HW127445   3.628   3.470  10.054
 8668SOL    HW227446   3.674   3.342  10.121
 8669SOL     OW27447   2.079   3.156  11.159
 8669SOL    HW127448   2.032   3.086  11.114
 8669SOL    HW227449   2.028   3.174  11.238
 8670SOL     OW27450   1.953   3.085   9.975
 8670SOL    HW127451   1.977   3.040  10.056
 8670SOL    HW227452   2.018   3.057   9.911
 8671SOL     OW27453   2.551   3.268  10.953
 8671SOL    HW127454   2.466   3.231  10.980
 8671SOL    HW227455   2.547   3.359  10.981
 8672SOL     OW27456   3.667   2.033  10.548
 8672SOL    HW127457   3.676   1.938  10.553
 8672SOL    HW227458   3.680   2.054  10.456
 8673SOL     OW27459   2.296   2.294   9.841
 8673SOL    HW127460   2.323   2.228   9.777
 8673SOL    HW227461   2.240   2.246   9.903
 8674SOL     OW27462   3.547   3.358  10.459
 8674SOL    HW127463   3.479   3.333  10.395
 8674SOL    HW227464   3.612   3.288  10.452
 8675SOL     OW27465   2.200   2.425  10.604
 8675SOL    HW127466   2.258   2.367  10.654
 8675SOL    HW227467   2.214   2.400  10.513
 8676SOL     OW27468   2.688   3.441   9.995
 8676SOL    HW127469   2.691   3.493   9.915
 8676SOL    HW227470   2.613   3.383   9.984
 8677SOL     OW27471   3.287   2.090  10.431
 8677SOL    HW127472   3.326   2.017  10.480
 8677SOL    HW227473   3.235   2.137  10.496
 8678SOL     OW27474   2.871   1.871  10.441
 8678SOL    HW127475   2.823   1.811  10.384
 8678SOL    HW227476   2.959   1.835  10.446
 8679SOL     OW27477   2.635   3.189   9.654
 8679SOL    HW127478   2.615   3.095   9.656
 8679SOL    HW227479   2.722   3.196   9.694
 8680SOL     OW27480   2.481   3.418  10.604
 8680SOL    HW127481   2.483   3.501  10.652
 8680SOL    HW227482   2.568   3.411  10.565
 8681SOL     OW27483   3.211   1.916   9.493
 8681SOL    HW127484   3.240   1.867   9.416
 8681SOL    HW227485   3.125   1.879   9.513
 8682SOL     OW27486   3.142   2.322   9.986
 8682SOL    HW127487   3.098   2.406   9.989
 8682SOL    HW227488   3.151   2.296  10.077
 8683SOL     OW27489   3.444   2.060  10.194
 8683SOL    HW127490   3.386   2.089  10.265
 8683SOL    HW227491   3.446   2.135  10.134
 8684SOL     OW27492   1.910   2.929   9.617
 8684SOL    HW127493   2.003   2.923   9.595
 8684SOL    HW227494   1.886   2.841   9.645
 8685SOL     OW27495   2.713   3.516   9.701
 8685SOL    HW127496   2.774   3.542   9.632
 8685SOL    HW227497   2.695   3.597   9.749
 8686SOL     OW27498   2.070   2.440  11.312
 8686SOL    HW127499   1.983   2.465  11.343
 8686SOL    HW227500   2.068   2.456  11.218
 8687SOL     OW27501   2.089   2.148  12.155
 8687SOL    HW127502   2.127   2.099  12.228
 8687SOL    HW227503   2.009   2.101  12.132
 8688SOL     OW27504   1.861   2.236  11.805
 8688SOL    HW127505   1.781   2.273  11.842
 8688SOL    HW227506   1.833   2.157  11.759
 8689SOL     OW27507   2.407   3.111  12.339
 8689SOL    HW127508   2.332   3.157  12.299
 8689SOL    HW227509   2.425   3.159  12.419
 8690SOL     OW27510   3.435   3.371  11.880
 8690SOL    HW127511   3.394   3.359  11.966
 8690SOL    HW227512   3.362   3.383  11.820
 8691SOL     OW27513   3.020   2.590  11.876
 8691SOL    HW127514   3.105   2.593  11.920
 8691SOL    HW227515   2.956   2.603  11.946
 8692SOL     OW27516   3.621   2.458  11.404
 8692SOL    HW127517   3.602   2.456  11.310
 8692SOL    HW227518   3.594   2.372  11.435
 8693SOL     OW27519   2.613   2.990  12.217
 8693SOL    HW127520   2.537   3.022  12.265
 8693SOL    HW227521   2.648   3.068  12.173
 8694SOL     OW27522   2.555   2.856  11.821
 8694SOL    HW127523   2.619   2.854  11.891
 8694SOL    HW227524   2.484   2.911  11.854
 8695SOL     OW27525   2.200   3.273  12.233
 8695SOL    HW127526   2.122   3.237  12.191
 8695SOL    HW227527   2.241   3.328  12.166
 8696SOL     OW27528   3.463   2.305  11.920
 8696SOL    HW127529   3.393   2.323  11.857
 8696SOL    HW227530   3.449   2.369  11.990
 8697SOL     OW27531   2.082   3.579  11.639
 8697SOL    HW127532   2.103   3.653  11.695
 8697SOL    HW227533   2.156   3.572  11.579
 8698SOL     OW27534   2.095   3.311  11.714
 8698SOL    HW127535   2.076   3.404  11.711
 8698SOL    HW227536   2.034   3.277  11.780
 8699SOL     OW27537   2.133   2.956  12.061
 8699SOL    HW127538   2.129   2.870  12.101
 8699SOL    HW227539   2.077   3.011  12.116
 8700SOL     OW27540   2.443   2.848  11.316
 8700SOL    HW127541   2.489   2.895  11.247
 8700SOL    HW227542   2.481   2.881  11.397
 8701SOL     OW27543   1.984   2.518  11.737
 8701SOL    HW127544   1.947   2.432  11.759
 8701SOL    HW227545   1.975   2.569  11.817
 8702SOL     OW27546   3.709   3.615  11.503
 8702SOL    HW127547   3.780   3.590  11.562
 8702SOL    HW227548   3.725   3.707  11.482
 8703SOL     OW27549   1.911   3.449  11.289
 8703SOL    HW127550   1.884   3.359  11.308
 8703SOL    HW227551   1.881   3.499  11.365
 8704SOL     OW27552   3.524   2.736  11.789
 8704SOL    HW127553   3.612   2.728  11.828
 8704SOL    HW227554   3.534   2.804  11.722
 8705SOL     OW27555   3.515   2.963  11.608
 8705SOL    HW127556   3.600   2.964  11.564
 8705SOL    HW227557   3.525   3.023  11.682
 8706SOL     OW27558   2.048   2.593   0.225
 8706SOL    HW127559   2.075   2.600   0.316
 8706SOL    HW227560   1.973   2.651   0.218
 8707SOL     OW27561   2.476   3.256  11.900
 8707SOL    HW127562   2.431   3.171  11.908
 8707SOL    HW227563   2.458   3.284  11.810
 8708SOL     OW27564   2.689   1.873  11.676
 8708SOL    HW127565   2.728   1.958  11.657
 8708SOL    HW227566   2.595   1.890  11.685
 8709SOL     OW27567   2.059   2.846  12.441
 8709SOL    HW127568   2.135   2.789  12.426
 8709SOL    HW227569   1.985   2.797  12.405
 8710SOL     OW27570   3.398   2.870  11.370
 8710SOL    HW127571   3.348   2.792  11.395
 8710SOL    HW227572   3.438   2.900  11.451
 8711SOL     OW27573   3.337   3.284  12.124
 8711SOL    HW127574   3.269   3.303  12.189
 8711SOL    HW227575   3.323   3.193  12.100
 8712SOL     OW27576   3.516   3.619  11.752
 8712SOL    HW127577   3.497   3.582  11.665
 8712SOL    HW227578   3.502   3.546  11.812
 8713SOL     OW27579   2.455   2.580  11.443
 8713SOL    HW127580   2.455   2.664  11.397
 8713SOL    HW227581   2.390   2.591  11.512
 8714SOL     OW27582   3.144   2.226  12.105
 8714SOL    HW127583   3.056   2.190  12.112
 8714SOL    HW227584   3.197   2.173  12.166
 8715SOL     OW27585   3.445   3.529  11.493
 8715SOL    HW127586   3.536   3.557  11.483
 8715SOL    HW227587   3.415   3.515  11.403
 8716SOL     OW27588   2.831   2.194  12.398
 8716SOL    HW127589   2.835   2.270  12.457
 8716SOL    HW227590   2.756   2.213  12.341
 8717SOL     OW27591   2.918   2.555  11.601
 8717SOL    HW127592   2.929   2.552  11.696
 8717SOL    HW227593   2.834   2.513  11.585
 8718SOL     OW27594   1.954   2.676  11.957
 8718SOL    HW127595   2.035   2.680  12.008
 8718SOL    HW227596   1.905   2.753  11.984
 8719SOL     OW27597   2.765   2.213  11.366
 8719SOL    HW127598   2.802   2.278  11.307
 8719SOL    HW227599   2.778   2.129  11.321
 8720SOL     OW27600   3.238   2.982  11.696
 8720SOL    HW127601   3.327   2.990  11.663
 8720SOL    HW227602   3.191   3.056  11.658
 8721SOL     OW27603   2.410   2.064  12.051
 8721SOL    HW127604   2.422   2.093  12.141
 8721SOL    HW227605   2.411   2.144  11.999
 8722SOL     OW27606   2.854   3.304  11.645
 8722SOL    HW127607   2.829   3.377  11.588
 8722SOL    HW227608   2.829   3.332  11.732
 8723SOL     OW27609   2.216   3.678  12.039
 8723SOL    HW127610   2.261   3.594  12.048
 8723SOL    HW227611   2.282   3.743  12.061
 8724SOL     OW27612   3.643   2.897  12.042
 8724SOL    HW127613   3.597   2.955  11.981
 8724SOL    HW227614   3.596   2.908  12.125
 8725SOL     OW27615   2.179   2.828  11.427
 8725SOL    HW127616   2.264   2.849  11.388
 8725SOL    HW227617   2.144   2.759  11.370
 8726SOL     OW27618   3.293   2.650  11.897
 8726SOL    HW127619   3.309   2.594  11.973
 8726SOL    HW227620   3.380   2.682  11.871
 8727SOL     OW27621   2.983   3.637  11.401
 8727SOL    HW127622   2.906   3.599  11.443
 8727SOL    HW227623   3.008   3.574  11.334
 8728SOL     OW27624   3.491   3.243  11.262
 8728SOL    HW127625   3.448   3.328  11.254
 8728SOL    HW227626   3.424   3.180  11.239
 8729SOL     OW27627   2.324   3.599  11.488
 8729SOL    HW127628   2.370   3.654  11.552
 8729SOL    HW227629   2.394   3.563  11.434
 8730SOL     OW27630   3.264   1.968  11.617
 8730SOL    HW127631   3.259   1.943  11.525
 8730SOL    HW227632   3.358   1.972  11.636
 8731SOL     OW27633   2.106   3.650  12.398
 8731SOL    HW127634   2.103   3.574  12.456
 8731SOL    HW227635   2.068   3.618  12.316
 8732SOL     OW27636   2.803   3.560  12.075
 8732SOL    HW127637   2.883   3.513  12.096
 8732SOL    HW227638   2.762   3.507  12.006
 8733SOL     OW27639   2.261   2.557  11.644
 8733SOL    HW127640   2.272   2.463  11.656
 8733SOL    HW227641   2.168   2.573  11.662
 8734SOL     OW27642   2.510   1.978  11.276
 8734SOL    HW127643   2.569   1.907  11.297
 8734SOL    HW227644   2.455   1.944  11.205
 8735SOL     OW27645   2.679   3.221  12.094
 8735SOL    HW127646   2.765   3.231  12.052
 8735SOL    HW227647   2.616   3.245  12.026
 8736SOL     OW27648   2.799   2.367  12.070
 8736SOL    HW127649   2.772   2.358  11.979
 8736SOL    HW227650   2.831   2.279  12.093
 8737SOL     OW27651   2.420   1.925  11.668
 8737SOL    HW127652   2.341   1.925  11.723
 8737SOL    HW227653   2.409   2.002  11.612
 8738SOL     OW27654   3.288   3.067  11.209
 8738SOL    HW127655   3.318   2.993  11.262
 8738SOL    HW227656   3.202   3.089  11.245
 8739SOL     OW27657   2.129   1.954  11.365
 8739SOL    HW127658   2.185   1.993  11.298
 8739SOL    HW227659   2.183   1.888  11.407
 8740SOL     OW27660   2.806   2.119  11.625
 8740SOL    HW127661   2.784   2.155  11.539
 8740SOL    HW227662   2.901   2.130  11.632
 8741SOL     OW27663   3.083   3.434  11.967
 8741SOL    HW127664   3.095   3.499  11.898
 8741SOL    HW227665   3.143   3.462  12.037
 8742SOL     OW27666   2.339   3.013  11.892
 8742SOL    HW127667   2.273   2.995  11.959
 8742SOL    HW227668   2.291   3.004  11.809
 8743SOL     OW27669   3.122   3.650  11.784
 8743SOL    HW127670   3.173   3.715  11.735
 8743SOL    HW227671   3.054   3.701  11.828
 8744SOL     OW27672   2.883   2.396  11.198
 8744SOL    HW127673   2.840   2.478  11.175
 8744SOL    HW227674   2.952   2.421  11.260
 8745SOL     OW27675   2.421   2.062  12.334
 8745SOL    HW127676   2.449   1.973  12.312
 8745SOL    HW227677   2.330   2.052  12.364
 8746SOL     OW27678   2.737   2.328  11.805
 8746SOL    HW127679   2.686   2.381  11.743
 8746SOL    HW227680   2.757   2.248  11.757
 8747SOL     OW27681   2.882   1.896  11.918
 8747SOL    HW127682   2.823   1.891  11.843
 8747SOL    HW227683   2.855   1.824  11.975
 8748SOL     OW27684   3.304   3.022  12.048
 8748SOL    HW127685   3.248   2.944  12.054
 8748SOL    HW227686   3.331   3.025  11.957
 8749SOL     OW27687   3.320   2.467  12.117
 8749SOL    HW127688   3.259   2.395  12.129
 8749SOL    HW227689   3.380   2.460  12.192
 8750SOL     OW27690   3.710   2.672  11.545
 8750SOL    HW127691   3.763   2.626  11.610
 8750SOL    HW227692   3.682   2.604  11.483
 8751SOL     OW27693   2.350   3.284  11.323
 8751SOL    HW127694   2.275   3.255  11.376
 8751SOL    HW227695   2.342   3.234  11.242
 8752SOL     OW27696   3.536   3.112  11.835
 8752SOL    HW127697   3.632   3.114  11.839
 8752SOL    HW227698   3.510   3.203  11.847
 8753SOL     OW27699   3.256   2.439  11.245
 8753SOL    HW127700   3.197   2.411  11.315
 8753SOL    HW227701   3.342   2.406  11.270
 8754SOL     OW27702   2.385   2.121  11.482
 8754SOL    HW127703   2.435   2.075  11.414
 8754SOL    HW227704   2.363   2.205  11.443
 8755SOL     OW27705   2.949   3.106  12.276
 8755SOL    HW127706   2.875   3.138  12.328
 8755SOL    HW227707   2.933   3.142  12.189
 8756SOL     OW27708   3.487   2.968  12.264
 8756SOL    HW127709   3.462   3.001  12.350
 8756SOL    HW227710   3.415   2.992  12.206
 8757SOL     OW27711   2.573   2.928  11.547
 8757SOL    HW127712   2.555   2.905  11.638
 8757SOL    HW227713   2.651   2.878  11.525
 8758SOL     OW27714   2.297   2.674  12.460
 8758SOL    HW127715   2.337   2.734  12.524
 8758SOL    HW227716   2.353   2.597  12.461
 8759SOL     OW27717   3.122   2.222  12.436
 8759SOL    HW127718   3.164   2.297  12.478
 8759SOL    HW227719   3.033   2.252  12.417
 8760SOL     OW27720   2.197   2.986  11.658
 8760SOL    HW127721   2.192   3.062  11.600
 8760SOL    HW227722   2.196   2.911  11.598
 8761SOL     OW27723   2.406   2.384  12.025
 8761SOL    HW127724   2.419   2.445  11.952
 8761SOL    HW227725   2.469   2.412  12.091
 8762SOL     OW27726   3.104   3.206  11.577
 8762SOL    HW127727   3.161   3.279  11.601
 8762SOL    HW227728   3.017   3.235  11.604
 8763SOL     OW27729   3.152   3.307  12.317
 8763SOL    HW127730   3.207   3.321  12.395
 8763SOL    HW227731   3.098   3.231  12.339
 8764SOL     OW27732   3.450   2.492  11.646
 8764SOL    HW127733   3.455   2.564  11.709
 8764SOL    HW227734   3.508   2.518  11.575
 8765SOL     OW27735   2.222   3.395  12.472
 8765SOL    HW127736   2.207   3.348  12.390
 8765SOL    HW227737   2.285   3.464  12.449
 8766SOL     OW27738   2.445   2.740  12.214
 8766SOL    HW127739   2.489   2.824  12.207
 8766SOL    HW227740   2.392   2.747  12.293
 8767SOL     OW27741   3.180   2.737  12.165
 8767SOL    HW127742   3.101   2.698  12.202
 8767SOL    HW227743   3.248   2.671  12.181
 8768SOL     OW27744   3.063   2.383  11.435
 8768SOL    HW127745   3.074   2.303  11.487
 8768SOL    HW227746   3.016   2.443  11.494
 8769SOL     OW27747   2.119   2.055  12.420
 8769SOL    HW127748   2.150   2.076  12.508
 8769SOL    HW227749   2.115   1.959  12.418
 8770SOL     OW27750   1.919   3.186  12.445
 8770SOL    HW127751   1.987   3.132  12.485
 8770SOL    HW227752   1.931   3.273  12.485
 8771SOL     OW27753   2.570   2.486  12.215
 8771SOL    HW127754   2.656   2.481  12.175
 8771SOL    HW227755   2.546   2.579  12.211
 8772SOL     OW27756   2.175   1.921  11.795
 8772SOL    HW127757   2.151   2.011  11.818
 8772SOL    HW227758   2.185   1.877  11.879
 8773SOL     OW27759   3.482   2.240  11.532
 8773SOL    HW127760   3.512   2.174  11.594
 8773SOL    HW227761   3.457   2.315  11.586
 8774SOL     OW27762   2.884   2.616  12.138
 8774SOL    HW127763   2.873   2.625  12.233
 8774SOL    HW227764   2.863   2.524  12.121
 8775SOL     OW27765   3.384   2.135  11.297
 8775SOL    HW127766   3.322   2.069  11.327
 8775SOL    HW227767   3.421   2.171  11.378
 8776SOL     OW27768   3.169   2.701  11.223
 8776SOL    HW127769   3.202   2.611  11.221
 8776SOL    HW227770   3.193   2.737  11.137
 8777SOL     OW27771   2.939   3.205  12.008
 8777SOL    HW127772   2.978   3.140  11.950
 8777SOL    HW227773   2.992   3.284  11.995
 8778SOL     OW27774   2.175   2.679  12.124
 8778SOL    HW127775   2.268   2.698  12.122
 8778SOL    HW227776   2.170   2.586  12.146
 8779SOL     OW27777   2.175   2.405  12.167
 8779SOL    HW127778   2.147   2.314  12.166
 8779SOL    HW227779   2.257   2.405  12.118
 8780SOL     OW27780   3.018   2.087   0.155
 8780SOL    HW127781   3.025   2.159   0.219
 8780SOL    HW227782   3.054   2.124   0.074
 8781SOL     OW27783   1.877   3.174  11.358
 8781SOL    HW127784   1.789   3.193  11.326
 8781SOL    HW227785   1.870   3.088  11.398
 8782SOL     OW27786   1.956   3.641  12.118
 8782SOL    HW127787   1.925   3.565  12.068
 8782SOL    HW227788   2.044   3.657  12.084
 8783SOL     OW27789   2.357   3.439  12.074
 8783SOL    HW127790   2.425   3.503  12.096
 8783SOL    HW227791   2.399   3.377  12.016
 8784SOL     OW27792   2.841   2.649  12.409
 8784SOL    HW127793   2.925   2.682  12.441
 8784SOL    HW227794   2.776   2.708  12.447
 8785SOL     OW27795   1.922   2.367  12.306
 8785SOL    HW127796   1.979   2.401  12.237
 8785SOL    HW227797   1.964   2.394  12.387
 8786SOL     OW27798   2.681   2.437  11.535
 8786SOL    HW127799   2.685   2.362  11.476
 8786SOL    HW227800   2.605   2.487  11.505
 8787SOL     OW27801   3.495   2.424  12.321
 8787SOL    HW127802   3.493   2.382  12.407
 8787SOL    HW227803   3.587   2.426  12.297
 8788SOL     OW27804   2.552   2.305  12.421
 8788SOL    HW127805   2.499   2.235  12.384
 8788SOL    HW227806   2.553   2.373  12.354
 8789SOL     OW27807   2.761   3.516   0.042
 8789SOL    HW127808   2.765   3.586  -0.023
 8789SOL    HW227809   2.805   3.551   0.118
 8790SOL     OW27810   2.322   2.351  11.356
 8790SOL    HW127811   2.378   2.425  11.378
 8790SOL    HW227812   2.234   2.388  11.347
 8791SOL     OW27813   3.125   2.924  12.368
 8791SOL    HW127814   3.161   2.870  12.297
 8791SOL    HW227815   3.069   2.988  12.324
 8792SOL     OW27816   3.132   2.714  11.521
 8792SOL    HW127817   3.060   2.651  11.530
 8792SOL    HW227818   3.141   2.727  11.427
 8793SOL     OW27819   3.620   3.614  12.308
 8793SOL    HW127820   3.687   3.634  12.242
 8793SOL    HW227821   3.607   3.520  12.301
 8794SOL     OW27822   3.104   3.577  12.251
 8794SOL    HW127823   3.188   3.613  12.222
 8794SOL    HW227824   3.125   3.490  12.283
 8795SOL     OW27825   1.953   3.129  12.179
 8795SOL    HW127826   1.929   3.151  12.269
 8795SOL    HW227827   1.882   3.073  12.148
 8796SOL     OW27828   3.583   2.021  11.675
 8796SOL    HW127829   3.653   2.005  11.612
 8796SOL    HW227830   3.567   1.936  11.716
 8797SOL     OW27831   3.250   3.428  11.664
 8797SOL    HW127832   3.313   3.463  11.601
 8797SOL    HW227833   3.202   3.505  11.694
 8798SOL     OW27834   2.529   3.490  11.325
 8798SOL    HW127835   2.543   3.504  11.232
 8798SOL    HW227836   2.473   3.412  11.330
 8799SOL     OW27837   3.488   3.652   0.049
 8799SOL    HW127838   3.542   3.642  -0.029
 8799SOL    HW227839   3.508   3.739   0.082
 8800SOL     OW27840   3.707   2.033  12.139
 8800SOL    HW127841   3.736   1.945  12.118
 8800SOL    HW227842   3.619   2.039  12.102
 8801SOL     OW27843   2.118   2.173  11.876
 8801SOL    HW127844   2.030   2.205  11.855
 8801SOL    HW227845   2.124   2.180  11.971
 8802SOL     OW27846   3.070   3.460  11.208
 8802SOL    HW127847   3.056   3.368  11.231
 8802SOL    HW227848   3.007   3.477  11.137
 8803SOL     OW27849   2.669   2.870  12.490
 8803SOL    HW127850   2.680   2.928  12.414
 8803SOL    HW227851   2.733   2.902  12.554
 8804SOL     OW27852   2.792   2.787  11.484
 8804SOL    HW127853   2.842   2.813  11.407
 8804SOL    HW227854   2.832   2.706  11.514
 8805SOL     OW27855   3.344   3.484  11.232
 8805SOL    HW127856   3.250   3.474  11.225
 8805SOL    HW227857   3.369   3.531  11.152
 8806SOL     OW27858   2.952   2.894  11.838
 8806SOL    HW127859   2.894   2.876  11.912
 8806SOL    HW227860   2.896   2.938  11.774
 8807SOL     OW27861   2.893   2.104  12.116
 8807SOL    HW127862   2.890   2.037  12.047
 8807SOL    HW227863   2.883   2.054  12.197
 8808SOL     OW27864   2.463   3.353  11.647
 8808SOL    HW127865   2.512   3.304  11.581
 8808SOL    HW227866   2.386   3.385  11.601
 8809SOL     OW27867   3.608   2.282   0.043
 8809SOL    HW127868   3.699   2.309   0.037
 8809SOL    HW227869   3.606   2.194   0.007
 8810SOL     OW27870   2.131   3.199  11.476
 8810SOL    HW127871   2.042   3.198  11.441
 8810SOL    HW227872   2.123   3.245  11.559
 8811SOL     OW27873   1.933   2.192  11.190
 8811SOL    HW127874   1.856   2.175  11.135
 8811SOL    HW227875   1.971   2.272  11.154
 8812SOL     OW27876   3.037   3.193  11.292
 8812SOL    HW127877   2.942   3.177  11.286
 8812SOL    HW227878   3.055   3.191  11.385
 8813SOL     OW27879   3.354   3.645  12.150
 8813SOL    HW127880   3.372   3.723  12.098
 8813SOL    HW227881   3.433   3.633  12.203
 8814SOL     OW27882   3.592   2.716  12.373
 8814SOL    HW127883   3.511   2.672  12.402
 8814SOL    HW227884   3.563   2.801  12.342
 8815SOL     OW27885   3.080   2.177  11.628
 8815SOL    HW127886   3.140   2.103  11.622
 8815SOL    HW227887   3.110   2.226  11.704
 8816SOL     OW27888   2.451   2.592  11.844
 8816SOL    HW127889   2.491   2.678  11.834
 8816SOL    HW227890   2.385   2.587  11.774
 8817SOL     OW27891   3.691   2.750   0.132
 8817SOL    HW127892   3.649   2.822   0.180
 8817SOL    HW227893   3.636   2.737   0.055
 8818SOL     OW27894   2.743   3.227  11.224
 8818SOL    HW127895   2.693   3.254  11.301
 8818SOL    HW227896   2.748   3.305  11.169
 8819SOL     OW27897   2.524   3.652  12.110
 8819SOL    HW127898   2.506   3.743  12.086
 8819SOL    HW227899   2.619   3.646  12.112
 8820SOL     OW27900   2.754   2.840  12.027
 8820SOL    HW127901   2.792   2.764  12.070
 8820SOL    HW227902   2.710   2.888  12.097
 8821SOL     OW27903   2.936   2.842  11.265
 8821SOL    HW127904   2.915   2.896  11.189
 8821SOL    HW227905   3.017   2.797  11.240
 8822SOL     OW27906   3.707   3.409  12.018
 8822SOL    HW127907   3.624   3.402  11.970
 8822SOL    HW227908   3.691   3.361  12.099
 8823SOL     OW27909   1.950   3.089  11.838
 8823SOL    HW127910   1.966   3.047  11.922
 8823SOL    HW227911   2.018   3.053  11.780
 8824SOL     OW27912   3.685   2.043  12.416
 8824SOL    HW127913   3.699   1.948  12.422
 8824SOL    HW227914   3.689   2.061  12.322
 8825SOL     OW27915   2.281   2.294  11.687
 8825SOL    HW127916   2.325   2.223  11.640
 8825SOL    HW227917   2.236   2.250  11.759
 8826SOL     OW27918   3.574   3.348  12.270
 8826SOL    HW127919   3.488   3.324  12.235
 8826SOL    HW227920   3.580   3.303  12.354
 8827SOL     OW27921   2.696   3.443  11.846
 8827SOL    HW127922   2.677   3.517  11.789
 8827SOL    HW227923   2.617   3.389  11.843
 8828SOL     OW27924   3.308   2.095  12.292
 8828SOL    HW127925   3.373   2.061  12.354
 8828SOL    HW227926   3.241   2.136  12.347
 8829SOL     OW27927   2.872   1.860  12.296
 8829SOL    HW127928   2.829   1.805  12.231
 8829SOL    HW227929   2.961   1.826  12.301
 8830SOL     OW27930   2.633   3.198  11.491
 8830SOL    HW127931   2.606   3.107  11.501
 8830SOL    HW227932   2.713   3.206  11.544
 8831SOL     OW27933   3.218   1.916  11.348
 8831SOL    HW127934   3.252   1.847  11.292
 8831SOL    HW227935   3.130   1.888  11.370
 8832SOL     OW27936   3.158   2.318  11.849
 8832SOL    HW127937   3.098   2.393  11.856
 8832SOL    HW227938   3.157   2.279  11.936
 8833SOL     OW27939   3.447   2.052  12.055
 8833SOL    HW127940   3.393   2.075  12.131
 8833SOL    HW227941   3.446   2.130  12.000
 8834SOL     OW27942   1.903   2.928  11.485
 8834SOL    HW127943   1.997   2.922  11.468
 8834SOL    HW227944   1.876   2.838  11.504
 8835SOL     OW27945   2.751   3.520  11.506
 8835SOL    HW127946   2.675   3.506  11.449
 8835SOL    HW227947   2.724   3.590  11.565
 8836SOL     OW27948   2.061   4.291   0.022
 8836SOL    HW127949   2.045   4.344   0.100
 8836SOL    HW227950   2.128   4.339  -0.026
 8837SOL     OW27951   2.085   4.011   0.995
 8837SOL    HW127952   2.116   3.976   1.079
 8837SOL    HW227953   1.997   3.975   0.985
 8838SOL     OW27954   1.860   4.110   0.640
 8838SOL    HW127955   1.779   4.135   0.683
 8838SOL    HW227956   1.839   4.030   0.593
 8839SOL     OW27957   2.431   5.010   1.181
 8839SOL    HW127958   2.338   4.998   1.164
 8839SOL    HW227959   2.457   5.083   1.125
 8840SOL     OW27960   3.440   5.247   0.713
 8840SOL    HW127961   3.393   5.219   0.792
 8840SOL    HW227962   3.373   5.246   0.644
 8841SOL     OW27963   2.991   4.423   0.696
 8841SOL    HW127964   3.041   4.504   0.685
 8841SOL    HW227965   2.946   4.434   0.780
 8842SOL     OW27966   3.612   4.327   0.272
 8842SOL    HW127967   3.598   4.336   0.178
 8842SOL    HW227968   3.571   4.243   0.295
 8843SOL     OW27969   2.606   4.848   1.042
 8843SOL    HW127970   2.547   4.885   1.108
 8843SOL    HW227971   2.644   4.924   0.998
 8844SOL     OW27972   2.736   4.483   1.828
 8844SOL    HW127973   2.742   4.548   1.898
 8844SOL    HW227974   2.761   4.531   1.749
 8845SOL     OW27975   2.545   4.714   0.643
 8845SOL    HW127976   2.614   4.707   0.709
 8845SOL    HW227977   2.480   4.772   0.682
 8846SOL     OW27978   2.571   4.872   1.807
 8846SOL    HW127979   2.611   4.950   1.846
 8846SOL    HW227980   2.487   4.903   1.773
 8847SOL     OW27981   2.194   5.140   1.072
 8847SOL    HW127982   2.119   5.106   1.022
 8847SOL    HW227983   2.243   5.192   1.008
 8848SOL     OW27984   3.322   5.228   1.367
 8848SOL    HW127985   3.376   5.307   1.364
 8848SOL    HW227986   3.315   5.207   1.460
 8849SOL     OW27987   2.314   4.116   1.477
 8849SOL    HW127988   2.399   4.073   1.484
 8849SOL    HW227989   2.251   4.048   1.501
 8850SOL     OW27990   3.473   4.181   0.751
 8850SOL    HW127991   3.410   4.210   0.685
 8850SOL    HW227992   3.452   4.232   0.829
 8851SOL     OW27993   2.077   5.435   0.478
 8851SOL    HW127994   2.086   5.507   0.540
 8851SOL    HW227995   2.157   5.437   0.427
 8852SOL     OW27996   2.992   5.072   1.701
 8852SOL    HW127997   3.045   5.059   1.779
 8852SOL    HW227998   2.944   4.990   1.691
 8853SOL     OW27999   2.087   5.168   0.533
 8853SOL    HW128000   2.080   5.263   0.526
 8853SOL    HW228001   2.035   5.146   0.610
 8854SOL     OW28002   2.122   4.815   0.885
 8854SOL    HW128003   2.129   4.725   0.919
 8854SOL    HW228004   2.069   4.861   0.950
 8855SOL     OW28005   2.462   5.508   1.426
 8855SOL    HW128006   2.378   5.493   1.469
 8855SOL    HW228007   2.485   5.598   1.447
 8856SOL     OW28008   2.423   4.691   0.149
 8856SOL    HW128009   2.422   4.752   0.075
 8856SOL    HW228010   2.480   4.732   0.214
 8857SOL     OW28011   3.454   3.849   1.451
 8857SOL    HW128012   3.408   3.892   1.379
 8857SOL    HW228013   3.433   3.902   1.528
 8858SOL     OW28014   1.977   4.371   0.567
 8858SOL    HW128015   1.949   4.283   0.590
 8858SOL    HW228016   1.969   4.421   0.648
 8859SOL     OW28017   3.706   5.463   0.316
 8859SOL    HW128018   3.776   5.444   0.378
 8859SOL    HW228019   3.718   5.556   0.294
 8860SOL     OW28020   1.895   5.239   0.145
 8860SOL    HW128021   1.805   5.207   0.134
 8860SOL    HW228022   1.885   5.324   0.187
 8861SOL     OW28023   3.542   4.655   0.657
 8861SOL    HW128024   3.617   4.607   0.623
 8861SOL    HW228025   3.514   4.711   0.585
 8862SOL     OW28026   3.505   4.832   0.435
 8862SOL    HW128027   3.589   4.834   0.389
 8862SOL    HW228028   3.514   4.898   0.504
 8863SOL     OW28029   2.005   4.473   1.584
 8863SOL    HW128030   2.100   4.483   1.584
 8863SOL    HW228031   1.972   4.558   1.615
 8864SOL     OW28032   2.474   5.115   0.736
 8864SOL    HW128033   2.431   5.029   0.741
 8864SOL    HW228034   2.462   5.143   0.645
 8865SOL     OW28035   3.147   4.969   1.417
 8865SOL    HW128036   3.177   4.900   1.358
 8865SOL    HW228037   3.203   4.959   1.495
 8866SOL     OW28038   2.684   3.738   0.514
 8866SOL    HW128039   2.724   3.823   0.494
 8866SOL    HW228040   2.591   3.757   0.523
 8867SOL     OW28041   2.049   4.686   1.270
 8867SOL    HW128042   2.137   4.647   1.265
 8867SOL    HW228043   1.996   4.633   1.211
 8868SOL     OW28044   3.371   4.724   0.214
 8868SOL    HW128045   3.303   4.662   0.240
 8868SOL    HW228046   3.413   4.749   0.296
 8869SOL     OW28047   3.010   5.535   1.603
 8869SOL    HW128048   3.057   5.599   1.549
 8869SOL    HW228049   3.052   5.451   1.582
 8870SOL     OW28050   2.197   3.979   1.793
 8870SOL    HW128051   2.257   4.039   1.837
 8870SOL    HW228052   2.113   3.993   1.837
 8871SOL     OW28053   3.296   5.154   0.924
 8871SOL    HW128054   3.250   5.165   1.007
 8871SOL    HW228055   3.295   5.060   0.908
 8872SOL     OW28056   3.503   5.490   0.576
 8872SOL    HW128057   3.489   5.450   0.490
 8872SOL    HW228058   3.498   5.417   0.638
 8873SOL     OW28059   2.445   4.436   0.270
 8873SOL    HW128060   2.457   4.520   0.226
 8873SOL    HW228061   2.382   4.453   0.339
 8874SOL     OW28062   3.157   4.085   0.952
 8874SOL    HW128063   3.066   4.057   0.967
 8874SOL    HW228064   3.209   4.021   1.001
 8875SOL     OW28065   3.440   5.395   0.319
 8875SOL    HW128066   3.534   5.409   0.308
 8875SOL    HW228067   3.408   5.372   0.232
 8876SOL     OW28068   2.635   4.347   1.445
 8876SOL    HW128069   2.620   4.317   1.534
 8876SOL    HW228070   2.607   4.273   1.390
 8877SOL     OW28071   3.252   4.198   1.680
 8877SOL    HW128072   3.260   4.241   1.765
 8877SOL    HW228073   3.309   4.121   1.687
 8878SOL     OW28074   2.811   4.606   1.589
 8878SOL    HW128075   2.868   4.538   1.553
 8878SOL    HW228076   2.757   4.634   1.515
 8879SOL     OW28077   2.837   4.166   1.217
 8879SOL    HW128078   2.748   4.158   1.250
 8879SOL    HW228079   2.847   4.094   1.156
 8880SOL     OW28080   2.915   4.425   0.428
 8880SOL    HW128081   2.935   4.420   0.521
 8880SOL    HW228082   2.829   4.383   0.420
 8881SOL     OW28083   1.951   4.537   0.783
 8881SOL    HW128084   2.033   4.534   0.833
 8881SOL    HW228085   1.908   4.617   0.812
 8882SOL     OW28086   1.984   5.586   1.586
 8882SOL    HW128087   1.994   5.567   1.680
 8882SOL    HW228088   1.896   5.553   1.565
 8883SOL     OW28089   2.748   4.085   0.216
 8883SOL    HW128090   2.785   4.148   0.154
 8883SOL    HW228091   2.746   4.002   0.168
 8884SOL     OW28092   3.560   4.289   1.828
 8884SOL    HW128093   3.528   4.365   1.780
 8884SOL    HW228094   3.590   4.229   1.760
 8885SOL     OW28095   3.242   4.859   0.535
 8885SOL    HW128096   3.325   4.855   0.486
 8885SOL    HW228097   3.190   4.924   0.487
 8886SOL     OW28098   2.404   3.902   0.900
 8886SOL    HW128099   2.412   3.924   0.993
 8886SOL    HW228100   2.416   3.985   0.854
 8887SOL     OW28101   2.866   5.168   0.476
 8887SOL    HW128102   2.826   5.240   0.428
 8887SOL    HW228103   2.839   5.180   0.567
 8888SOL     OW28104   2.200   5.524   0.935
 8888SOL    HW128105   2.263   5.454   0.918
 8888SOL    HW228106   2.197   5.574   0.853
 8889SOL     OW28107   3.668   4.789   0.867
 8889SOL    HW128108   3.615   4.754   0.796
 8889SOL    HW228109   3.611   4.789   0.943
 8890SOL     OW28110   3.045   5.269   1.510
 8890SOL    HW128111   3.046   5.201   1.577
 8890SOL    HW228112   3.078   5.225   1.431
 8891SOL     OW28113   2.171   4.703   0.261
 8891SOL    HW128114   2.255   4.719   0.218
 8891SOL    HW228115   2.142   4.618   0.225
 8892SOL     OW28116   3.341   4.475   0.724
 8892SOL    HW128117   3.339   4.431   0.809
 8892SOL    HW228118   3.418   4.532   0.728
 8893SOL     OW28119   2.338   4.997   1.724
 8893SOL    HW128120   2.303   4.997   1.635
 8893SOL    HW228121   2.261   4.993   1.780
 8894SOL     OW28122   2.963   5.507   0.255
 8894SOL    HW128123   2.902   5.454   0.306
 8894SOL    HW228124   3.012   5.443   0.203
 8895SOL     OW28125   2.056   3.984   1.511
 8895SOL    HW128126   2.002   4.062   1.520
 8895SOL    HW228127   2.076   3.958   1.601
 8896SOL     OW28128   3.511   5.142   0.111
 8896SOL    HW128129   3.455   5.213   0.080
 8896SOL    HW228130   3.456   5.064   0.106
 8897SOL     OW28131   2.314   5.452   0.337
 8897SOL    HW128132   2.361   5.512   0.395
 8897SOL    HW228133   2.382   5.421   0.276
 8898SOL     OW28134   3.270   3.829   0.444
 8898SOL    HW128135   3.270   3.784   0.360
 8898SOL    HW228136   3.363   3.839   0.465
 8899SOL     OW28137   2.112   5.513   1.212
 8899SOL    HW128138   2.157   5.438   1.250
 8899SOL    HW228139   2.138   5.512   1.120
 8900SOL     OW28140   2.815   5.420   0.891
 8900SOL    HW128141   2.900   5.377   0.895
 8900SOL    HW228142   2.766   5.371   0.825
 8901SOL     OW28143   2.241   4.417   0.470
 8901SOL    HW128144   2.264   4.325   0.479
 8901SOL    HW228145   2.155   4.424   0.512
 8902SOL     OW28146   3.390   3.954   1.721
 8902SOL    HW128147   3.398   3.976   1.814
 8902SOL    HW228148   3.340   3.873   1.720
 8903SOL     OW28149   2.492   3.848   0.111
 8903SOL    HW128150   2.584   3.822   0.119
 8903SOL    HW228151   2.491   3.916   0.044
 8904SOL     OW28152   2.623   4.005   1.758
 8904SOL    HW128153   2.705   3.956   1.749
 8904SOL    HW228154   2.595   3.989   1.848
 8905SOL     OW28155   2.707   5.224   1.199
 8905SOL    HW128156   2.697   5.197   1.108
 8905SOL    HW228157   2.788   5.181   1.228
 8906SOL     OW28158   3.202   4.330   1.442
 8906SOL    HW128159   3.236   4.291   1.522
 8906SOL    HW228160   3.248   4.413   1.435
 8907SOL     OW28161   2.668   5.106   0.945
 8907SOL    HW128162   2.756   5.098   0.909
 8907SOL    HW228163   2.611   5.116   0.869
 8908SOL     OW28164   2.787   4.234   0.899
 8908SOL    HW128165   2.764   4.221   0.807
 8908SOL    HW228166   2.821   4.149   0.928
 8909SOL     OW28167   2.411   3.780   0.501
 8909SOL    HW128168   2.335   3.783   0.559
 8909SOL    HW228169   2.404   3.860   0.448
 8910SOL     OW28170   3.322   4.953   0.076
 8910SOL    HW128171   3.338   4.867   0.115
 8910SOL    HW228172   3.227   4.965   0.084
 8911SOL     OW28173   2.169   3.799   0.209
 8911SOL    HW128174   2.246   3.857   0.210
 8911SOL    HW228175   2.203   3.714   0.235
 8912SOL     OW28176   2.808   3.976   0.461
 8912SOL    HW128177   2.785   4.017   0.378
 8912SOL    HW228178   2.902   3.989   0.469
 8913SOL     OW28179   2.944   4.409   1.456
 8913SOL    HW128180   2.895   4.327   1.465
 8913SOL    HW228181   3.036   4.382   1.455
 8914SOL     OW28182   3.068   5.305   0.808
 8914SOL    HW128183   3.095   5.365   0.738
 8914SOL    HW228184   3.150   5.276   0.848
 8915SOL     OW28185   2.335   4.878   0.725
 8915SOL    HW128186   2.267   4.855   0.789
 8915SOL    HW228187   2.292   4.870   0.640
 8916SOL     OW28188   3.123   5.514   0.611
 8916SOL    HW128189   3.169   5.574   0.553
 8916SOL    HW228190   3.046   5.562   0.640
 8917SOL     OW28191   2.893   4.267   0.057
 8917SOL    HW128192   2.877   4.353   0.018
 8917SOL    HW228193   2.955   4.285   0.128
 8918SOL     OW28194   1.948   4.278   1.398
 8918SOL    HW128195   2.038   4.274   1.368
 8918SOL    HW228196   1.946   4.350   1.461
 8919SOL     OW28197   2.418   3.941   1.174
 8919SOL    HW128198   2.464   3.874   1.224
 8919SOL    HW228199   2.328   3.938   1.206
 8920SOL     OW28200   2.721   4.179   0.639
 8920SOL    HW128201   2.687   4.237   0.570
 8920SOL    HW228202   2.749   4.101   0.592
 8921SOL     OW28203   2.889   3.775   0.739
 8921SOL    HW128204   2.821   3.769   0.671
 8921SOL    HW228205   2.864   3.708   0.802
 8922SOL     OW28206   3.294   4.888   0.857
 8922SOL    HW128207   3.235   4.812   0.863
 8922SOL    HW228208   3.322   4.889   0.765
 8923SOL     OW28209   3.328   4.323   0.963
 8923SOL    HW128210   3.271   4.247   0.974
 8923SOL    HW228211   3.386   4.320   1.039
 8924SOL     OW28212   3.689   4.554   0.434
 8924SOL    HW128213   3.738   4.483   0.475
 8924SOL    HW228214   3.657   4.518   0.352
 8925SOL     OW28215   2.357   5.112   0.131
 8925SOL    HW128216   2.289   5.079   0.190
 8925SOL    HW228217   2.369   5.041   0.068
 8926SOL     OW28218   3.539   4.996   0.641
 8926SOL    HW128219   3.633   4.990   0.657
 8926SOL    HW228220   3.516   5.085   0.666
 8927SOL     OW28221   3.262   4.274   0.088
 8927SOL    HW128222   3.206   4.280   0.166
 8927SOL    HW228223   3.339   4.226   0.118
 8928SOL     OW28224   2.383   3.981   0.321
 8928SOL    HW128225   2.438   3.935   0.258
 8928SOL    HW228226   2.363   4.065   0.280
 8929SOL     OW28227   3.586   4.994   1.556
 8929SOL    HW128228   3.660   4.936   1.538
 8929SOL    HW228229   3.626   5.071   1.596
 8930SOL     OW28230   2.910   5.067   1.322
 8930SOL    HW128231   2.836   5.038   1.375
 8930SOL    HW228232   2.987   5.031   1.366
 8931SOL     OW28233   3.454   5.350   1.646
 8931SOL    HW128234   3.460   5.391   1.560
 8931SOL    HW228235   3.538   5.305   1.658
 8932SOL     OW28236   3.003   4.942   1.096
 8932SOL    HW128237   2.944   4.979   1.162
 8932SOL    HW228238   2.970   4.976   1.013
 8933SOL     OW28239   3.491   4.821   1.071
 8933SOL    HW128240   3.484   4.874   1.150
 8933SOL    HW228241   3.409   4.837   1.024
 8934SOL     OW28242   2.774   3.835   1.386
 8934SOL    HW128243   2.800   3.808   1.298
 8934SOL    HW228244   2.855   3.865   1.427
 8935SOL     OW28245   2.837   4.846   1.711
 8935SOL    HW128246   2.747   4.851   1.743
 8935SOL    HW228247   2.840   4.763   1.663
 8936SOL     OW28248   2.570   4.780   0.368
 8936SOL    HW128249   2.557   4.758   0.460
 8936SOL    HW228250   2.648   4.731   0.343
 8937SOL     OW28251   2.281   4.543   1.256
 8937SOL    HW128252   2.350   4.554   1.322
 8937SOL    HW228253   2.250   4.454   1.268
 8938SOL     OW28254   3.095   4.117   1.306
 8938SOL    HW128255   3.144   4.193   1.340
 8938SOL    HW228256   3.015   4.155   1.270
 8939SOL     OW28257   1.935   5.299   1.356
 8939SOL    HW128258   1.909   5.372   1.300
 8939SOL    HW228259   2.031   5.295   1.347
 8940SOL     OW28260   2.196   4.855   0.490
 8940SOL    HW128261   2.196   4.932   0.434
 8940SOL    HW228262   2.198   4.781   0.429
 8941SOL     OW28263   2.402   4.252   0.855
 8941SOL    HW128264   2.417   4.312   0.782
 8941SOL    HW228265   2.471   4.275   0.918
 8942SOL     OW28266   3.111   5.069   0.401
 8942SOL    HW128267   3.166   5.141   0.433
 8942SOL    HW228268   3.023   5.093   0.430
 8943SOL     OW28269   3.155   5.188   1.154
 8943SOL    HW128270   3.213   5.193   1.230
 8943SOL    HW228271   3.110   5.105   1.164
 8944SOL     OW28272   3.414   4.333   0.493
 8944SOL    HW128273   3.377   4.389   0.561
 8944SOL    HW228274   3.468   4.392   0.440
 8945SOL     OW28275   2.201   5.264   1.309
 8945SOL    HW128276   2.199   5.216   1.226
 8945SOL    HW228277   2.276   5.227   1.356
 8946SOL     OW28278   2.288   4.454   1.608
 8946SOL    HW128279   2.345   4.504   1.549
 8946SOL    HW228280   2.342   4.380   1.637
 8947SOL     OW28281   3.468   4.505   1.688
 8947SOL    HW128282   3.384   4.551   1.682
 8947SOL    HW228283   3.523   4.548   1.623
 8948SOL     OW28284   2.853   3.859   1.744
 8948SOL    HW128285   2.915   3.930   1.728
 8948SOL    HW228286   2.900   3.780   1.718
 8949SOL     OW28287   2.368   3.764   1.744
 8949SOL    HW128288   2.324   3.709   1.679
 8949SOL    HW228289   2.313   3.842   1.751
 8950SOL     OW28290   2.440   4.601   1.029
 8950SOL    HW128291   2.490   4.683   1.036
 8950SOL    HW228292   2.393   4.594   1.112
 8951SOL     OW28293   3.206   4.584   1.013
 8951SOL    HW128294   3.121   4.555   0.982
 8951SOL    HW228295   3.259   4.504   1.016
 8952SOL     OW28296   3.065   4.246   0.280
 8952SOL    HW128297   3.079   4.178   0.345
 8952SOL    HW228298   3.027   4.319   0.329
 8953SOL     OW28299   2.150   3.920   1.249
 8953SOL    HW128300   2.117   3.948   1.334
 8953SOL    HW228301   2.137   3.825   1.249
 8954SOL     OW28302   1.892   5.035   1.273
 8954SOL    HW128303   1.929   4.978   1.341
 8954SOL    HW228304   1.904   5.124   1.307
 8955SOL     OW28305   2.577   4.344   1.045
 8955SOL    HW128306   2.658   4.324   0.998
 8955SOL    HW228307   2.560   4.436   1.026
 8956SOL     OW28308   3.597   4.667   1.875
 8956SOL    HW128309   3.555   4.604   1.817
 8956SOL    HW228310   3.532   4.685   1.943
 8957SOL     OW28311   2.167   3.783   0.632
 8957SOL    HW128312   2.147   3.875   0.652
 8957SOL    HW228313   2.180   3.743   0.718
 8958SOL     OW28314   3.470   4.100   0.358
 8958SOL    HW128315   3.500   4.033   0.419
 8958SOL    HW228316   3.439   4.171   0.414
 8959SOL     OW28317   2.890   4.481   0.962
 8959SOL    HW128318   2.881   4.498   1.056
 8959SOL    HW228319   2.864   4.390   0.952
 8960SOL     OW28320   2.831   5.290   1.728
 8960SOL    HW128321   2.842   5.337   1.645
 8960SOL    HW228322   2.876   5.206   1.714
 8961SOL     OW28323   3.707   5.245   1.612
 8961SOL    HW128324   3.737   5.263   1.523
 8961SOL    HW228325   3.786   5.247   1.665
 8962SOL     OW28326   2.219   4.653   1.794
 8962SOL    HW128327   2.286   4.667   1.861
 8962SOL    HW228328   2.253   4.581   1.741
 8963SOL     OW28329   3.394   3.958   0.130
 8963SOL    HW128330   3.323   3.907   0.168
 8963SOL    HW228331   3.427   4.012   0.202
 8964SOL     OW28332   3.202   4.501  12.429
 8964SOL    HW128333   3.233   4.433  12.489
 8964SOL    HW228334   3.171   4.571  12.486
 8965SOL     OW28335   2.920   5.064   0.858
 8965SOL    HW128336   2.930   4.990   0.798
 8965SOL    HW228337   2.979   5.132   0.823
 8966SOL     OW28338   2.173   4.539   0.947
 8966SOL    HW128339   2.266   4.560   0.949
 8966SOL    HW228340   2.169   4.447   0.975
 8967SOL     OW28341   2.181   4.261   1.007
 8967SOL    HW128342   2.148   4.171   0.999
 8967SOL    HW228343   2.259   4.263   0.952
 8968SOL     OW28344   2.995   4.097   1.687
 8968SOL    HW128345   2.952   4.150   1.754
 8968SOL    HW228346   3.084   4.134   1.680
 8969SOL     OW28347   3.020   3.918   1.474
 8969SOL    HW128348   3.013   3.981   1.546
 8969SOL    HW228349   3.061   3.967   1.404
 8970SOL     OW28350   1.931   5.509   0.948
 8970SOL    HW128351   1.910   5.431   0.897
 8970SOL    HW228352   2.024   5.524   0.933
 8971SOL     OW28353   2.369   5.291   0.922
 8971SOL    HW128354   2.434   5.360   0.937
 8971SOL    HW228355   2.406   5.237   0.853
 8972SOL     OW28356   2.826   4.514   1.230
 8972SOL    HW128357   2.893   4.496   1.296
 8972SOL    HW228358   2.755   4.453   1.249
 8973SOL     OW28359   1.904   4.289   1.115
 8973SOL    HW128360   1.984   4.282   1.062
 8973SOL    HW228361   1.935   4.284   1.205
 8974SOL     OW28362   2.046   4.243   1.726
 8974SOL    HW128363   2.135   4.230   1.694
 8974SOL    HW228364   2.015   4.322   1.682
 8975SOL     OW28365   3.241   4.663   1.658
 8975SOL    HW128366   3.267   4.755   1.657
 8975SOL    HW228367   3.244   4.635   1.567
 8976SOL     OW28368   2.672   4.299   0.381
 8976SOL    HW128369   2.683   4.225   0.321
 8976SOL    HW228370   2.599   4.349   0.344
 8977SOL     OW28371   3.505   4.322   1.170
 8977SOL    HW128372   3.494   4.265   1.246
 8977SOL    HW228373   3.594   4.304   1.139
 8978SOL     OW28374   2.095   5.267   1.722
 8978SOL    HW128375   2.076   5.333   1.789
 8978SOL    HW228376   2.107   5.186   1.771
 8979SOL     OW28377   2.556   4.170   1.254
 8979SOL    HW128378   2.508   4.093   1.224
 8979SOL    HW228379   2.554   4.230   1.179
 8980SOL     OW28380   2.799   5.404   1.456
 8980SOL    HW128381   2.887   5.368   1.450
 8980SOL    HW228382   2.812   5.499   1.464
 8981SOL     OW28383   2.320   4.204   0.185
 8981SOL    HW128384   2.375   4.279   0.209
 8981SOL    HW228385   2.237   4.243   0.157
 8982SOL     OW28386   1.998   4.861   1.470
 8982SOL    HW128387   2.000   4.811   1.551
 8982SOL    HW228388   2.017   4.796   1.401
 8983SOL     OW28389   3.176   4.769   1.215
 8983SOL    HW128390   3.201   4.704   1.149
 8983SOL    HW228391   3.114   4.827   1.170
 8984SOL     OW28392   3.150   4.572   0.281
 8984SOL    HW128393   3.085   4.548   0.348
 8984SOL    HW228394   3.102   4.625   0.219
 8985SOL     OW28395   3.628   5.469   1.147
 8985SOL    HW128396   3.697   5.488   1.082
 8985SOL    HW228397   3.608   5.376   1.133
 8986SOL     OW28398   3.105   5.462   1.113
 8986SOL    HW128399   3.189   5.487   1.076
 8986SOL    HW228400   3.113   5.368   1.128
 8987SOL     OW28401   1.939   5.002   1.004
 8987SOL    HW128402   1.920   5.009   1.097
 8987SOL    HW228403   1.882   4.933   0.972
 8988SOL     OW28404   2.550   5.400   1.741
 8988SOL    HW128405   2.502   5.483   1.735
 8988SOL    HW228406   2.642   5.425   1.733
 8989SOL     OW28407   2.764   3.824   0.103
 8989SOL    HW128408   2.814   3.848   0.025
 8989SOL    HW228409   2.826   3.778   0.159
 8990SOL     OW28410   3.567   3.875   0.494
 8990SOL    HW128411   3.643   3.853   0.440
 8990SOL    HW228412   3.555   3.798   0.550
 8991SOL     OW28413   3.257   5.289   0.501
 8991SOL    HW128414   3.314   5.321   0.432
 8991SOL    HW228415   3.204   5.365   0.527
 8992SOL     OW28416   2.010   5.520   1.845
 8992SOL    HW128417   1.959   5.455   1.894
 8992SOL    HW228418   2.058   5.568   1.912
 8993SOL     OW28419   3.137   4.651   0.669
 8993SOL    HW128420   3.211   4.593   0.685
 8993SOL    HW228421   3.174   4.722   0.615
 8994SOL     OW28422   2.666   4.999   1.423
 8994SOL    HW128423   2.638   5.040   1.505
 8994SOL    HW228424   2.584   4.982   1.376
 8995SOL     OW28425   2.519   5.332   0.189
 8995SOL    HW128426   2.577   5.345   0.114
 8995SOL    HW228427   2.470   5.252   0.168
 8996SOL     OW28428   3.473   5.459   1.385
 8996SOL    HW128429   3.532   5.462   1.309
 8996SOL    HW228430   3.459   5.551   1.408
 8997SOL     OW28431   3.706   3.891   0.961
 8997SOL    HW128432   3.733   3.800   0.946
 8997SOL    HW228433   3.622   3.899   0.918
 8998SOL     OW28434   2.118   4.035   0.717
 8998SOL    HW128435   2.033   4.074   0.698
 8998SOL    HW228436   2.123   4.032   0.813
 8999SOL     OW28437   3.074   5.333   0.080
 8999SOL    HW128438   3.060   5.239   0.095
 8999SOL    HW228439   3.031   5.351  -0.003
 9000SOL     OW28440   2.684   4.723   1.370
 9000SOL    HW128441   2.741   4.690   1.301
 9000SOL    HW228442   2.707   4.815   1.379
 9001SOL     OW28443   2.789   4.642   0.294
 9001SOL    HW128444   2.847   4.673   0.224
 9001SOL    HW228445   2.837   4.571   0.336
 9002SOL     OW28446   3.348   5.358   0.051
 9002SOL    HW128447   3.254   5.346   0.063
 9002SOL    HW228448   3.360   5.356  -0.044
 9003SOL     OW28449   2.215   5.031   1.485
 9003SOL    HW128450   2.165   5.112   1.472
 9003SOL    HW228451   2.151   4.961   1.476
 9004SOL     OW28452   3.454   4.992   1.285
 9004SOL    HW128453   3.516   4.973   1.356
 9004SOL    HW228454   3.407   5.070   1.315
 9005SOL     OW28455   2.926   4.834   0.716
 9005SOL    HW128456   2.854   4.780   0.749
 9005SOL    HW228457   2.992   4.771   0.689
 9006SOL     OW28458   2.883   3.969   0.967
 9006SOL    HW128459   2.893   3.923   0.884
 9006SOL    HW228460   2.880   3.900   1.033
 9007SOL     OW28461   2.471   5.208   0.483
 9007SOL    HW128462   2.520   5.158   0.419
 9007SOL    HW228463   2.404   5.253   0.431
 9008SOL     OW28464   3.589   4.134   1.375
 9008SOL    HW128465   3.666   4.191   1.377
 9008SOL    HW228466   3.616   4.057   1.325
 9009SOL     OW28467   2.130   5.057   0.293
 9009SOL    HW128468   2.061   5.094   0.238
 9009SOL    HW228469   2.118   5.100   0.378
 9010SOL     OW28470   1.972   4.731   1.706
 9010SOL    HW128471   1.902   4.720   1.771
 9010SOL    HW228472   2.052   4.710   1.754
 9011SOL     OW28473   2.539   3.928   1.501
 9011SOL    HW128474   2.622   3.906   1.460
 9011SOL    HW228475   2.562   3.953   1.591
 9012SOL     OW28476   3.285   4.594   1.400
 9012SOL    HW128477   3.238   4.655   1.343
 9012SOL    HW228478   3.373   4.591   1.363
 9013SOL     OW28479   1.927   3.875   0.313
 9013SOL    HW128480   1.922   3.970   0.299
 9013SOL    HW228481   2.013   3.850   0.281
 9014SOL     OW28482   3.062   5.065   0.122
 9014SOL    HW128483   2.994   5.001   0.099
 9014SOL    HW228484   3.077   5.052   0.216
 9015SOL     OW28485   2.476   4.562   1.438
 9015SOL    HW128486   2.537   4.634   1.421
 9015SOL    HW228487   2.532   4.484   1.443
 9016SOL     OW28488   3.353   5.538   1.010
 9016SOL    HW128489   3.383   5.561   0.922
 9016SOL    HW228490   3.427   5.492   1.049
 9017SOL     OW28491   2.572   4.286   1.702
 9017SOL    HW128492   2.622   4.345   1.759
 9017SOL    HW228493   2.595   4.198   1.733
 9018SOL     OW28494   3.326   4.931   1.628
 9018SOL    HW128495   3.322   4.937   1.724
 9018SOL    HW228496   3.418   4.944   1.607
 9019SOL     OW28497   2.230   5.458   1.567
 9019SOL    HW128498   2.148   5.505   1.552
 9019SOL    HW228499   2.205   5.380   1.615
 9020SOL     OW28500   3.516   4.595   1.256
 9020SOL    HW128501   3.526   4.509   1.214
 9020SOL    HW228502   3.533   4.657   1.185
 9021SOL     OW28503   3.083   4.036   0.458
 9021SOL    HW128504   3.147   3.965   0.455
 9021SOL    HW228505   3.103   4.084   0.538
 9022SOL     OW28506   2.437   4.456   0.670
 9022SOL    HW128507   2.483   4.539   0.659
 9022SOL    HW228508   2.375   4.453   0.597
 9023SOL     OW28509   3.618   4.090   1.644
 9023SOL    HW128510   3.599   4.108   1.551
 9023SOL    HW228511   3.546   4.033   1.672
 9024SOL     OW28512   3.615   4.644   1.508
 9024SOL    HW128513   3.681   4.712   1.500
 9024SOL    HW228514   3.585   4.629   1.418
 9025SOL     OW28515   2.756   5.100   0.046
 9025SOL    HW128516   2.692   5.090   0.116
 9025SOL    HW228517   2.757   5.194   0.027
 9026SOL     OW28518   2.532   5.507   0.954
 9026SOL    HW128519   2.505   5.596   0.932
 9026SOL    HW228520   2.625   5.502   0.929
 9027SOL     OW28521   2.733   4.687   0.850
 9027SOL    HW128522   2.785   4.617   0.887
 9027SOL    HW228523   2.695   4.732   0.926
 9028SOL     OW28524   3.716   5.272   0.837
 9028SOL    HW128525   3.628   5.258   0.801
 9028SOL    HW228526   3.731   5.195   0.892
 9029SOL     OW28527   2.101   5.025   1.861
 9029SOL    HW128528   2.024   4.969   1.851
 9029SOL    HW228529   2.106   5.042   1.955
 9030SOL     OW28530   1.945   4.953   0.672
 9030SOL    HW128531   1.983   4.905   0.746
 9030SOL    HW228532   2.003   4.933   0.599
 9031SOL     OW28533   2.517   5.181   1.580
 9031SOL    HW128534   2.464   5.115   1.625
 9031SOL    HW228535   2.532   5.248   1.646
 9032SOL     OW28536   3.689   3.920   1.239
 9032SOL    HW128537   3.637   3.842   1.260
 9032SOL    HW228538   3.690   3.922   1.143
 9033SOL     OW28539   2.276   4.157   0.518
 9033SOL    HW128540   2.322   4.087   0.471
 9033SOL    HW228541   2.238   4.113   0.594
 9034SOL     OW28542   3.558   5.214   1.100
 9034SOL    HW128543   3.483   5.162   1.071
 9034SOL    HW228544   3.610   5.154   1.153
 9035SOL     OW28545   2.196   4.281   1.293
 9035SOL    HW128546   2.251   4.228   1.351
 9035SOL    HW228547   2.219   4.253   1.205
 9036SOL     OW28548   2.691   5.308   0.676
 9036SOL    HW128549   2.682   5.371   0.604
 9036SOL    HW228550   2.616   5.249   0.666
 9037SOL     OW28551   2.859   3.744   1.138
 9037SOL    HW128552   2.803   3.670   1.116
 9037SOL    HW228553   2.948   3.710   1.130
 9038SOL     OW28554   2.634   5.049   0.324
 9038SOL    HW128555   2.606   4.958   0.332
 9038SOL    HW228556   2.723   5.050   0.359
 9039SOL     OW28557   3.218   3.741   0.183
 9039SOL    HW128558   3.237   3.722   0.092
 9039SOL    HW228559   3.139   3.796   0.181
 9040SOL     OW28560   3.141   4.176   0.684
 9040SOL    HW128561   3.096   4.260   0.694
 9040SOL    HW228562   3.151   4.144   0.774
 9041SOL     OW28563   3.465   3.910   0.838
 9041SOL    HW128564   3.410   3.899   0.916
 9041SOL    HW228565   3.452   4.001   0.812
 9042SOL     OW28566   1.897   4.809   0.339
 9042SOL    HW128567   1.988   4.823   0.314
 9042SOL    HW228568   1.895   4.722   0.379
 9043SOL     OW28569   2.736   5.383   0.366
 9043SOL    HW128570   2.661   5.360   0.312
 9043SOL    HW228571   2.711   5.465   0.409
 9044SOL     OW28572   2.075   4.347   1.993
 9044SOL    HW128573   1.991   4.342   2.039
 9044SOL    HW228574   2.054   4.323   1.903
 9045SOL     OW28575   2.087   4.004   2.851
 9045SOL    HW128576   2.117   3.975   2.937
 9045SOL    HW228577   1.995   3.977   2.847
 9046SOL     OW28578   1.855   4.124   2.500
 9046SOL    HW128579   1.778   4.158   2.545
 9046SOL    HW228580   1.832   4.033   2.478
 9047SOL     OW28581   2.443   5.042   2.998
 9047SOL    HW128582   2.352   5.017   3.010
 9047SOL    HW228583   2.459   5.109   3.065
 9048SOL     OW28584   3.431   5.242   2.578
 9048SOL    HW128585   3.390   5.217   2.662
 9048SOL    HW228586   3.361   5.235   2.514
 9049SOL     OW28587   2.986   4.426   2.552
 9049SOL    HW128588   3.038   4.506   2.545
 9049SOL    HW228589   2.943   4.432   2.637
 9050SOL     OW28590   3.660   4.311   2.080
 9050SOL    HW128591   3.623   4.309   1.992
 9050SOL    HW228592   3.608   4.247   2.129
 9051SOL     OW28593   2.622   4.865   2.886
 9051SOL    HW128594   2.557   4.920   2.930
 9051SOL    HW228595   2.702   4.877   2.937
 9052SOL     OW28596   2.673   4.543   3.673
 9052SOL    HW128597   2.715   4.569   3.755
 9052SOL    HW228598   2.736   4.566   3.605
 9053SOL     OW28599   2.545   4.718   2.501
 9053SOL    HW128600   2.615   4.707   2.566
 9053SOL    HW228601   2.476   4.765   2.547
 9054SOL     OW28602   2.570   4.874   3.665
 9054SOL    HW128603   2.611   4.951   3.705
 9054SOL    HW228604   2.484   4.905   3.636
 9055SOL     OW28605   2.173   5.154   2.919
 9055SOL    HW128606   2.097   5.097   2.904
 9055SOL    HW228607   2.187   5.197   2.835
 9056SOL     OW28608   3.326   5.234   3.218
 9056SOL    HW128609   3.386   5.308   3.233
 9056SOL    HW228610   3.266   5.236   3.292
 9057SOL     OW28611   2.308   4.083   3.329
 9057SOL    HW128612   2.402   4.068   3.319
 9057SOL    HW228613   2.288   4.053   3.417
 9058SOL     OW28614   3.480   4.183   2.611
 9058SOL    HW128615   3.394   4.193   2.570
 9058SOL    HW228616   3.475   4.234   2.691
 9059SOL     OW28617   2.079   5.445   2.328
 9059SOL    HW128618   2.100   5.517   2.387
 9059SOL    HW228619   2.160   5.432   2.278
 9060SOL     OW28620   2.994   5.070   3.557
 9060SOL    HW128621   3.042   5.052   3.638
 9060SOL    HW228622   2.940   4.992   3.545
 9061SOL     OW28623   2.097   5.163   2.393
 9061SOL    HW128624   2.070   5.253   2.411
 9061SOL    HW228625   2.047   5.110   2.457
 9062SOL     OW28626   2.120   4.812   2.757
 9062SOL    HW128627   2.123   4.726   2.799
 9062SOL    HW228628   2.066   4.865   2.816
 9063SOL     OW28629   2.448   5.528   3.269
 9063SOL    HW128630   2.378   5.500   3.328
 9063SOL    HW228631   2.483   5.608   3.309
 9064SOL     OW28632   2.434   4.715   2.005
 9064SOL    HW128633   2.490   4.750   1.936
 9064SOL    HW228634   2.476   4.743   2.086
 9065SOL     OW28635   1.974   4.390   2.422
 9065SOL    HW128636   1.948   4.302   2.449
 9065SOL    HW228637   1.967   4.443   2.502
 9066SOL     OW28638   3.705   5.482   2.193
 9066SOL    HW128639   3.775   5.454   2.253
 9066SOL    HW228640   3.729   5.571   2.169
 9067SOL     OW28641   1.898   5.311   1.975
 9067SOL    HW128642   1.885   5.219   1.998
 9067SOL    HW228643   1.875   5.359   2.054
 9068SOL     OW28644   3.550   4.631   2.508
 9068SOL    HW128645   3.641   4.602   2.517
 9068SOL    HW228646   3.549   4.681   2.426
 9069SOL     OW28647   3.517   4.828   2.287
 9069SOL    HW128648   3.604   4.825   2.247
 9069SOL    HW228649   3.525   4.892   2.357
 9070SOL     OW28650   1.983   4.475   3.440
 9070SOL    HW128651   2.062   4.521   3.468
 9070SOL    HW228652   1.921   4.544   3.418
 9071SOL     OW28653   2.463   5.090   2.580
 9071SOL    HW128654   2.424   5.005   2.603
 9071SOL    HW228655   2.439   5.103   2.489
 9072SOL     OW28656   3.152   4.961   3.272
 9072SOL    HW128657   3.201   4.903   3.214
 9072SOL    HW228658   3.199   4.958   3.355
 9073SOL     OW28659   2.680   3.729   2.361
 9073SOL    HW128660   2.724   3.813   2.348
 9073SOL    HW228661   2.588   3.752   2.376
 9074SOL     OW28662   2.044   4.701   3.109
 9074SOL    HW128663   2.120   4.643   3.106
 9074SOL    HW228664   1.970   4.641   3.120
 9075SOL     OW28665   3.389   4.727   2.063
 9075SOL    HW128666   3.318   4.675   2.099
 9075SOL    HW228667   3.438   4.758   2.140
 9076SOL     OW28668   3.005   5.527   3.445
 9076SOL    HW128669   3.069   5.593   3.416
 9076SOL    HW228670   3.053   5.445   3.445
 9077SOL     OW28671   2.191   3.992   3.636
 9077SOL    HW128672   2.252   4.043   3.690
 9077SOL    HW228673   2.108   3.995   3.684
 9078SOL     OW28674   3.294   5.150   2.798
 9078SOL    HW128675   3.247   5.157   2.881
 9078SOL    HW228676   3.292   5.056   2.776
 9079SOL     OW28677   3.502   5.490   2.441
 9079SOL    HW128678   3.498   5.444   2.357
 9079SOL    HW228679   3.496   5.420   2.507
 9080SOL     OW28680   2.453   4.428   2.131
 9080SOL    HW128681   2.471   4.516   2.098
 9080SOL    HW228682   2.391   4.441   2.202
 9081SOL     OW28683   3.158   4.093   2.800
 9081SOL    HW128684   3.074   4.051   2.820
 9081SOL    HW228685   3.221   4.022   2.795
 9082SOL     OW28686   3.441   5.403   2.171
 9082SOL    HW128687   3.533   5.426   2.169
 9082SOL    HW228688   3.420   5.379   2.080
 9083SOL     OW28689   2.566   4.353   3.326
 9083SOL    HW128690   2.589   4.319   3.413
 9083SOL    HW228691   2.561   4.276   3.271
 9084SOL     OW28692   3.240   4.223   3.512
 9084SOL    HW128693   3.205   4.240   3.600
 9084SOL    HW228694   3.312   4.162   3.527
 9085SOL     OW28695   2.833   4.600   3.450
 9085SOL    HW128696   2.902   4.537   3.430
 9085SOL    HW228697   2.790   4.615   3.366
 9086SOL     OW28698   2.913   4.426   2.285
 9086SOL    HW128699   2.935   4.423   2.378
 9086SOL    HW228700   2.831   4.375   2.278
 9087SOL     OW28701   1.946   4.566   2.630
 9087SOL    HW128702   2.026   4.551   2.680
 9087SOL    HW228703   1.900   4.636   2.677
 9088SOL     OW28704   1.974   5.564   3.442
 9088SOL    HW128705   1.990   5.551   3.535
 9088SOL    HW228706   1.878   5.562   3.433
 9089SOL     OW28707   2.758   4.068   2.047
 9089SOL    HW128708   2.799   4.133   1.990
 9089SOL    HW228709   2.801   3.986   2.026
 9090SOL     OW28710   3.575   4.281   3.679
 9090SOL    HW128711   3.530   4.357   3.642
 9090SOL    HW228712   3.603   4.230   3.602
 9091SOL     OW28713   3.252   4.860   2.398
 9091SOL    HW128714   3.337   4.850   2.355
 9091SOL    HW228715   3.205   4.924   2.343
 9092SOL     OW28716   2.403   3.905   2.760
 9092SOL    HW128717   2.411   3.919   2.854
 9092SOL    HW228718   2.416   3.991   2.721
 9093SOL     OW28719   2.857   5.178   2.346
 9093SOL    HW128720   2.835   5.258   2.298
 9093SOL    HW228721   2.900   5.209   2.425
 9094SOL     OW28722   2.214   5.534   2.723
 9094SOL    HW128723   2.265   5.453   2.733
 9094SOL    HW228724   2.270   5.601   2.760
 9095SOL     OW28725   3.651   4.781   2.734
 9095SOL    HW128726   3.592   4.755   2.662
 9095SOL    HW228727   3.593   4.795   2.809
 9096SOL     OW28728   3.092   5.264   3.377
 9096SOL    HW128729   3.092   5.199   3.448
 9096SOL    HW228730   3.011   5.247   3.329
 9097SOL     OW28731   2.174   4.688   2.115
 9097SOL    HW128732   2.261   4.700   2.077
 9097SOL    HW228733   2.158   4.594   2.107
 9098SOL     OW28734   3.339   4.470   2.585
 9098SOL    HW128735   3.341   4.431   2.672
 9098SOL    HW228736   3.419   4.523   2.581
 9099SOL     OW28737   2.334   4.987   3.588
 9099SOL    HW128738   2.306   4.987   3.497
 9099SOL    HW228739   2.252   4.993   3.638
 9100SOL     OW28740   2.984   5.514   2.070
 9100SOL    HW128741   2.915   5.476   2.125
 9100SOL    HW228742   3.013   5.441   2.015
 9101SOL     OW28743   2.037   3.958   3.388
 9101SOL    HW128744   2.016   4.049   3.367
 9101SOL    HW228745   2.083   3.963   3.471
 9102SOL     OW28746   3.492   5.107   1.952
 9102SOL    HW128747   3.447   5.191   1.940
 9102SOL    HW228748   3.425   5.041   1.932
 9103SOL     OW28749   2.323   5.457   2.184
 9103SOL    HW128750   2.367   5.515   2.247
 9103SOL    HW228751   2.394   5.425   2.128
 9104SOL     OW28752   3.267   3.839   2.305
 9104SOL    HW128753   3.268   3.807   2.214
 9104SOL    HW228754   3.359   3.845   2.329
 9105SOL     OW28755   2.121   5.523   3.094
 9105SOL    HW128756   2.172   5.477   3.161
 9105SOL    HW228757   2.100   5.456   3.030
 9106SOL     OW28758   2.829   5.411   2.760
 9106SOL    HW128759   2.917   5.407   2.799
 9106SOL    HW228760   2.788   5.328   2.785
 9107SOL     OW28761   2.246   4.425   2.323
 9107SOL    HW128762   2.264   4.333   2.338
 9107SOL    HW228763   2.157   4.438   2.353
 9108SOL     OW28764   3.418   4.023   3.628
 9108SOL    HW128765   3.398   4.024   3.721
 9108SOL    HW228766   3.432   3.930   3.608
 9109SOL     OW28767   2.498   3.839   1.973
 9109SOL    HW128768   2.569   3.778   1.995
 9109SOL    HW228769   2.461   3.804   1.892
 9110SOL     OW28770   2.558   3.986   3.620
 9110SOL    HW128771   2.648   3.960   3.642
 9110SOL    HW228772   2.544   4.067   3.669
 9111SOL     OW28773   2.754   5.265   3.045
 9111SOL    HW128774   2.733   5.190   2.989
 9111SOL    HW228775   2.814   5.229   3.111
 9112SOL     OW28776   2.685   5.166   2.748
 9112SOL    HW128777   2.772   5.127   2.740
 9112SOL    HW228778   2.626   5.091   2.755
 9113SOL     OW28779   2.795   4.233   2.767
 9113SOL    HW128780   2.769   4.216   2.677
 9113SOL    HW228781   2.831   4.150   2.798
 9114SOL     OW28782   2.409   3.786   2.358
 9114SOL    HW128783   2.338   3.790   2.422
 9114SOL    HW228784   2.397   3.865   2.305
 9115SOL     OW28785   3.289   4.924   1.901
 9115SOL    HW128786   3.327   4.850   1.949
 9115SOL    HW228787   3.209   4.945   1.949
 9116SOL     OW28788   2.187   3.754   2.029
 9116SOL    HW128789   2.244   3.831   2.025
 9116SOL    HW228790   2.233   3.693   2.087
 9117SOL     OW28791   2.804   3.975   2.317
 9117SOL    HW128792   2.785   4.020   2.235
 9117SOL    HW228793   2.898   3.987   2.329
 9118SOL     OW28794   3.089   5.277   2.636
 9118SOL    HW128795   3.112   5.360   2.594
 9118SOL    HW228796   3.158   5.263   2.701
 9119SOL     OW28797   2.326   4.859   2.591
 9119SOL    HW128798   2.263   4.841   2.661
 9119SOL    HW228799   2.276   4.846   2.510
 9120SOL     OW28800   3.124   5.517   2.471
 9120SOL    HW128801   3.175   5.583   2.423
 9120SOL    HW228802   3.059   5.568   2.520
 9121SOL     OW28803   2.889   4.253   1.892
 9121SOL    HW128804   2.850   4.339   1.877
 9121SOL    HW228805   2.953   4.268   1.962
 9122SOL     OW28806   1.930   4.273   3.249
 9122SOL    HW128807   2.024   4.270   3.230
 9122SOL    HW228808   1.921   4.343   3.313
 9123SOL     OW28809   2.419   3.929   3.033
 9123SOL    HW128810   2.463   3.869   3.093
 9123SOL    HW228811   2.330   3.937   3.066
 9124SOL     OW28812   2.723   4.176   2.505
 9124SOL    HW128813   2.686   4.233   2.439
 9124SOL    HW228814   2.751   4.098   2.457
 9125SOL     OW28815   2.887   3.770   2.604
 9125SOL    HW128816   2.824   3.758   2.533
 9125SOL    HW228817   2.864   3.704   2.669
 9126SOL     OW28818   3.274   4.892   2.706
 9126SOL    HW128819   3.244   4.805   2.736
 9126SOL    HW228820   3.290   4.881   2.613
 9127SOL     OW28821   3.336   4.314   2.835
 9127SOL    HW128822   3.271   4.244   2.835
 9127SOL    HW228823   3.388   4.298   2.914
 9128SOL     OW28824   3.704   4.530   2.241
 9128SOL    HW128825   3.759   4.485   2.306
 9128SOL    HW228826   3.686   4.463   2.175
 9129SOL     OW28827   2.353   5.152   2.019
 9129SOL    HW128828   2.276   5.124   2.069
 9129SOL    HW228829   2.364   5.084   1.952
 9130SOL     OW28830   3.545   4.997   2.489
 9130SOL    HW128831   3.636   4.987   2.515
 9130SOL    HW228832   3.517   5.079   2.530
 9131SOL     OW28833   3.255   4.298   1.936
 9131SOL    HW128834   3.196   4.273   2.007
 9131SOL    HW228835   3.342   4.272   1.966
 9132SOL     OW28836   2.369   3.982   2.168
 9132SOL    HW128837   2.431   3.942   2.108
 9132SOL    HW228838   2.349   4.067   2.130
 9133SOL     OW28839   3.602   4.987   3.436
 9133SOL    HW128840   3.679   4.933   3.455
 9133SOL    HW228841   3.596   5.047   3.510
 9134SOL     OW28842   2.925   5.073   3.183
 9134SOL    HW128843   2.848   5.048   3.235
 9134SOL    HW228844   2.999   5.035   3.231
 9135SOL     OW28845   3.446   5.366   3.513
 9135SOL    HW128846   3.469   5.388   3.423
 9135SOL    HW228847   3.520   5.314   3.545
 9136SOL     OW28848   2.926   4.907   2.964
 9136SOL    HW128849   2.932   4.966   3.039
 9136SOL    HW228850   2.949   4.961   2.889
 9137SOL     OW28851   3.488   4.836   2.946
 9137SOL    HW128852   3.506   4.890   3.023
 9137SOL    HW228853   3.392   4.832   2.942
 9138SOL     OW28854   2.811   4.865   3.524
 9138SOL    HW128855   2.738   4.861   3.586
 9138SOL    HW228856   2.839   4.773   3.515
 9139SOL     OW28857   2.574   4.788   2.233
 9139SOL    HW128858   2.560   4.768   2.326
 9139SOL    HW228859   2.648   4.733   2.208
 9140SOL     OW28860   2.266   4.534   3.107
 9140SOL    HW128861   2.329   4.561   3.175
 9140SOL    HW228862   2.238   4.446   3.135
 9141SOL     OW28863   1.941   5.302   3.227
 9141SOL    HW128864   1.927   5.397   3.226
 9141SOL    HW228865   2.036   5.292   3.219
 9142SOL     OW28866   2.187   4.840   2.355
 9142SOL    HW128867   2.191   4.913   2.293
 9142SOL    HW228868   2.190   4.762   2.301
 9143SOL     OW28869   2.405   4.246   2.710
 9143SOL    HW128870   2.424   4.307   2.639
 9143SOL    HW228871   2.467   4.268   2.779
 9144SOL     OW28872   3.108   5.073   2.249
 9144SOL    HW128873   3.161   5.145   2.282
 9144SOL    HW228874   3.026   5.079   2.298
 9145SOL     OW28875   3.144   5.185   3.027
 9145SOL    HW128876   3.215   5.199   3.090
 9145SOL    HW228877   3.077   5.138   3.076
 9146SOL     OW28878   3.433   4.357   2.335
 9146SOL    HW128879   3.387   4.385   2.414
 9146SOL    HW228880   3.494   4.428   2.316
 9147SOL     OW28881   2.205   5.260   3.170
 9147SOL    HW128882   2.195   5.211   3.088
 9147SOL    HW228883   2.300   5.264   3.183
 9148SOL     OW28884   2.302   4.457   3.478
 9148SOL    HW128885   2.345   4.514   3.414
 9148SOL    HW228886   2.372   4.397   3.507
 9149SOL     OW28887   3.462   4.494   3.557
 9149SOL    HW128888   3.369   4.513   3.562
 9149SOL    HW228889   3.495   4.549   3.486
 9150SOL     OW28890   2.351   3.754   3.606
 9150SOL    HW128891   2.308   3.710   3.533
 9150SOL    HW228892   2.305   3.838   3.614
 9151SOL     OW28893   2.433   4.600   2.893
 9151SOL    HW128894   2.477   4.684   2.910
 9151SOL    HW228895   2.383   4.584   2.973
 9152SOL     OW28896   3.203   4.582   2.864
 9152SOL    HW128897   3.113   4.550   2.852
 9152SOL    HW228898   3.254   4.503   2.882
 9153SOL     OW28899   3.053   4.249   2.123
 9153SOL    HW128900   3.070   4.174   2.180
 9153SOL    HW228901   3.015   4.315   2.182
 9154SOL     OW28902   2.150   3.924   3.108
 9154SOL    HW128903   2.146   3.957   3.198
 9154SOL    HW228904   2.133   3.830   3.117
 9155SOL     OW28905   1.934   5.044   3.132
 9155SOL    HW128906   1.955   4.983   3.203
 9155SOL    HW228907   1.923   5.128   3.175
 9156SOL     OW28908   2.572   4.335   2.906
 9156SOL    HW128909   2.658   4.319   2.866
 9156SOL    HW228910   2.560   4.430   2.899
 9157SOL     OW28911   3.586   4.707   3.699
 9157SOL    HW128912   3.546   4.621   3.685
 9157SOL    HW228913   3.562   4.730   3.789
 9158SOL     OW28914   2.161   3.787   2.490
 9158SOL    HW128915   2.143   3.878   2.513
 9158SOL    HW228916   2.175   3.743   2.574
 9159SOL     OW28917   3.488   4.113   2.216
 9159SOL    HW128918   3.508   4.046   2.281
 9159SOL    HW228919   3.460   4.189   2.268
 9160SOL     OW28920   2.891   4.483   2.822
 9160SOL    HW128921   2.891   4.499   2.917
 9160SOL    HW228922   2.865   4.391   2.814
 9161SOL     OW28923   2.836   5.290   3.584
 9161SOL    HW128924   2.820   5.317   3.494
 9161SOL    HW228925   2.880   5.206   3.576
 9162SOL     OW28926   3.716   5.290   3.472
 9162SOL    HW128927   3.743   5.258   3.386
 9162SOL    HW228928   3.782   5.256   3.532
 9163SOL     OW28929   2.200   4.630   3.666
 9163SOL    HW128930   2.267   4.664   3.725
 9163SOL    HW228931   2.248   4.572   3.607
 9164SOL     OW28932   3.388   3.999   1.986
 9164SOL    HW128933   3.328   3.930   2.016
 9164SOL    HW228934   3.423   4.037   2.066
 9165SOL     OW28935   3.136   4.542   1.883
 9165SOL    HW128936   3.183   4.459   1.894
 9165SOL    HW228937   3.176   4.583   1.807
 9166SOL     OW28938   2.929   5.060   2.718
 9166SOL    HW128939   2.937   4.983   2.662
 9166SOL    HW228940   2.997   5.120   2.686
 9167SOL     OW28941   2.174   4.531   2.789
 9167SOL    HW128942   2.264   4.556   2.806
 9167SOL    HW228943   2.165   4.445   2.831
 9168SOL     OW28944   2.182   4.257   2.867
 9168SOL    HW128945   2.149   4.167   2.860
 9168SOL    HW228946   2.260   4.258   2.813
 9169SOL     OW28947   1.865   5.039   2.047
 9169SOL    HW128948   1.778   5.051   2.010
 9169SOL    HW228949   1.863   4.951   2.086
 9170SOL     OW28950   1.945   5.504   2.792
 9170SOL    HW128951   1.918   5.421   2.752
 9170SOL    HW228952   2.037   5.513   2.769
 9171SOL     OW28953   2.373   5.302   2.759
 9171SOL    HW128954   2.423   5.354   2.821
 9171SOL    HW228955   2.382   5.212   2.789
 9172SOL     OW28956   2.875   4.510   3.093
 9172SOL    HW128957   2.942   4.474   3.152
 9172SOL    HW228958   2.793   4.498   3.140
 9173SOL     OW28959   1.902   4.267   2.976
 9173SOL    HW128960   1.989   4.277   2.939
 9173SOL    HW228961   1.916   4.271   3.071
 9174SOL     OW28962   2.023   4.225   3.525
 9174SOL    HW128963   2.112   4.227   3.560
 9174SOL    HW228964   2.005   4.316   3.501
 9175SOL     OW28965   3.228   4.650   3.512
 9175SOL    HW128966   3.262   4.739   3.520
 9175SOL    HW228967   3.238   4.629   3.419
 9176SOL     OW28968   2.681   4.285   2.226
 9176SOL    HW128969   2.688   4.213   2.162
 9176SOL    HW228970   2.605   4.335   2.197
 9177SOL     OW28971   2.098   5.268   3.585
 9177SOL    HW128972   2.081   5.332   3.654
 9177SOL    HW228973   2.108   5.185   3.630
 9178SOL     OW28974   2.538   4.169   3.125
 9178SOL    HW128975   2.509   4.087   3.085
 9178SOL    HW228976   2.552   4.228   3.051
 9179SOL     OW28977   2.799   5.384   3.325
 9179SOL    HW128978   2.736   5.426   3.266
 9179SOL    HW228979   2.852   5.457   3.358
 9180SOL     OW28980   2.313   4.211   2.025
 9180SOL    HW128981   2.377   4.276   2.055
 9180SOL    HW228982   2.229   4.258   2.027
 9181SOL     OW28983   2.021   4.874   3.332
 9181SOL    HW128984   2.005   4.831   3.416
 9181SOL    HW228985   2.020   4.803   3.268
 9182SOL     OW28986   3.202   4.792   3.037
 9182SOL    HW128987   3.207   4.712   2.986
 9182SOL    HW228988   3.110   4.819   3.031
 9183SOL     OW28989   3.170   4.595   2.160
 9183SOL    HW128990   3.114   4.552   2.224
 9183SOL    HW228991   3.141   4.561   2.075
 9184SOL     OW28992   3.614   5.470   2.987
 9184SOL    HW128993   3.690   5.487   2.931
 9184SOL    HW228994   3.602   5.375   2.984
 9185SOL     OW28995   3.089   5.442   2.927
 9185SOL    HW128996   3.177   5.472   2.904
 9185SOL    HW228997   3.103   5.359   2.972
 9186SOL     OW28998   1.948   4.991   2.874
 9186SOL    HW128999   1.942   5.006   2.968
 9186SOL    HW229000   1.866   4.947   2.852
 9187SOL     OW29001   2.544   5.394   3.595
 9187SOL    HW129002   2.504   5.481   3.595
 9187SOL    HW229003   2.638   5.411   3.583
 9188SOL     OW29004   3.565   3.875   2.358
 9188SOL    HW129005   3.643   3.861   2.304
 9188SOL    HW229006   3.556   3.793   2.406
 9189SOL     OW29007   3.242   5.295   2.339
 9189SOL    HW129008   3.310   5.332   2.283
 9189SOL    HW229009   3.203   5.372   2.381
 9190SOL     OW29010   2.012   5.525   3.704
 9190SOL    HW129011   1.961   5.459   3.751
 9190SOL    HW229012   2.062   5.570   3.772
 9191SOL     OW29013   3.138   4.649   2.524
 9191SOL    HW129014   3.210   4.591   2.546
 9191SOL    HW229015   3.178   4.720   2.473
 9192SOL     OW29016   2.692   4.992   3.309
 9192SOL    HW129017   2.728   4.959   3.391
 9192SOL    HW229018   2.620   5.049   3.336
 9193SOL     OW29019   2.527   5.357   2.021
 9193SOL    HW129020   2.543   5.365   1.927
 9193SOL    HW229021   2.475   5.277   2.030
 9194SOL     OW29022   3.486   5.458   3.238
 9194SOL    HW129023   3.533   5.464   3.155
 9194SOL    HW229024   3.478   5.549   3.267
 9195SOL     OW29025   2.116   4.039   2.576
 9195SOL    HW129026   2.033   4.086   2.562
 9195SOL    HW229027   2.124   4.032   2.671
 9196SOL     OW29028   3.067   5.317   1.893
 9196SOL    HW129029   3.060   5.228   1.928
 9196SOL    HW229030   2.992   5.326   1.834
 9197SOL     OW29031   2.700   4.725   3.220
 9197SOL    HW129032   2.779   4.728   3.165
 9197SOL    HW229033   2.691   4.814   3.254
 9198SOL     OW29034   2.773   4.628   2.141
 9198SOL    HW129035   2.838   4.665   2.081
 9198SOL    HW229036   2.822   4.567   2.196
 9199SOL     OW29037   3.346   5.359   1.905
 9199SOL    HW129038   3.253   5.343   1.891
 9199SOL    HW229039   3.384   5.360   1.817
 9200SOL     OW29040   2.245   5.021   3.333
 9200SOL    HW129041   2.213   5.109   3.311
 9200SOL    HW229042   2.166   4.966   3.331
 9201SOL     OW29043   3.477   5.005   3.163
 9201SOL    HW129044   3.530   4.984   3.240
 9201SOL    HW229045   3.420   5.076   3.192
 9202SOL     OW29046   2.926   4.832   2.567
 9202SOL    HW129047   2.856   4.781   2.607
 9202SOL    HW229048   2.996   4.769   2.551
 9203SOL     OW29049   2.900   3.970   2.810
 9203SOL    HW129050   2.901   3.915   2.732
 9203SOL    HW229051   2.882   3.910   2.882
 9204SOL     OW29052   2.493   5.249   2.350
 9204SOL    HW129053   2.542   5.191   2.291
 9204SOL    HW229054   2.413   5.269   2.302
 9205SOL     OW29055   2.119   5.073   2.143
 9205SOL    HW129056   2.026   5.064   2.124
 9205SOL    HW229057   2.122   5.108   2.231
 9206SOL     OW29058   1.972   4.772   3.588
 9206SOL    HW129059   1.895   4.735   3.631
 9206SOL    HW229060   2.046   4.726   3.628
 9207SOL     OW29061   2.561   3.918   3.358
 9207SOL    HW129062   2.654   3.937   3.342
 9207SOL    HW229063   2.550   3.933   3.452
 9208SOL     OW29064   1.941   4.039   1.880
 9208SOL    HW129065   1.847   4.052   1.895
 9208SOL    HW229066   1.967   4.116   1.829
 9209SOL     OW29067   3.293   4.609   3.246
 9209SOL    HW129068   3.285   4.682   3.184
 9209SOL    HW229069   3.383   4.615   3.278
 9210SOL     OW29070   1.933   3.875   2.158
 9210SOL    HW129071   1.923   3.964   2.123
 9210SOL    HW229072   2.023   3.872   2.190
 9211SOL     OW29073   3.037   5.055   1.987
 9211SOL    HW129074   2.966   4.992   1.995
 9211SOL    HW229075   3.071   5.066   2.076
 9212SOL     OW29076   2.459   4.591   3.284
 9212SOL    HW129077   2.530   4.655   3.278
 9212SOL    HW229078   2.504   4.508   3.300
 9213SOL     OW29079   3.349   5.516   2.855
 9213SOL    HW129080   3.382   5.580   2.791
 9213SOL    HW229081   3.427   5.483   2.899
 9214SOL     OW29082   2.613   4.291   3.589
 9214SOL    HW129083   2.618   4.380   3.623
 9214SOL    HW229084   2.687   4.245   3.628
 9215SOL     OW29085   3.320   4.925   3.487
 9215SOL    HW129086   3.304   4.927   3.582
 9215SOL    HW229087   3.415   4.935   3.478
 9216SOL     OW29088   2.228   5.461   3.423
 9216SOL    HW129089   2.141   5.500   3.419
 9216SOL    HW229090   2.216   5.379   3.471
 9217SOL     OW29091   3.587   4.613   3.096
 9217SOL    HW129092   3.601   4.533   3.044
 9217SOL    HW229093   3.560   4.678   3.031
 9218SOL     OW29094   3.078   4.045   2.318
 9218SOL    HW129095   3.141   3.973   2.314
 9218SOL    HW229096   3.102   4.094   2.396
 9219SOL     OW29097   2.452   4.447   2.519
 9219SOL    HW129098   2.493   4.534   2.520
 9219SOL    HW229099   2.379   4.456   2.458
 9220SOL     OW29100   3.627   4.090   3.452
 9220SOL    HW129101   3.589   4.033   3.386
 9220SOL    HW229102   3.580   4.069   3.532
 9221SOL     OW29103   3.542   4.668   3.361
 9221SOL    HW129104   3.612   4.707   3.415
 9221SOL    HW229105   3.584   4.653   3.276
 9222SOL     OW29106   2.678   5.100   1.901
 9222SOL    HW129107   2.675   5.106   1.997
 9222SOL    HW229108   2.729   5.176   1.874
 9223SOL     OW29109   2.556   5.512   2.738
 9223SOL    HW129110   2.511   5.596   2.749
 9223SOL    HW229111   2.634   5.519   2.792
 9224SOL     OW29112   2.733   4.687   2.701
 9224SOL    HW129113   2.783   4.619   2.747
 9224SOL    HW229114   2.694   4.739   2.772
 9225SOL     OW29115   2.933   4.715   1.940
 9225SOL    HW129116   2.921   4.763   1.858
 9225SOL    HW229117   3.007   4.657   1.923
 9226SOL     OW29118   3.711   5.272   2.704
 9226SOL    HW129119   3.622   5.256   2.672
 9226SOL    HW229120   3.723   5.210   2.775
 9227SOL     OW29121   2.097   5.026   3.716
 9227SOL    HW129122   2.027   4.961   3.705
 9227SOL    HW229123   2.100   5.042   3.811
 9228SOL     OW29124   1.963   4.950   2.529
 9228SOL    HW129125   1.961   4.918   2.619
 9228SOL    HW229126   2.029   4.896   2.485
 9229SOL     OW29127   2.516   5.153   3.451
 9229SOL    HW129128   2.461   5.097   3.506
 9229SOL    HW229129   2.529   5.233   3.504
 9230SOL     OW29130   2.270   4.163   2.374
 9230SOL    HW129131   2.322   4.092   2.336
 9230SOL    HW229132   2.236   4.127   2.455
 9231SOL     OW29133   3.569   5.205   2.961
 9231SOL    HW129134   3.483   5.167   2.942
 9231SOL    HW229135   3.605   5.149   3.029
 9232SOL     OW29136   2.188   4.269   3.160
 9232SOL    HW129137   2.241   4.213   3.217
 9232SOL    HW229138   2.218   4.248   3.072
 9233SOL     OW29139   2.866   3.759   2.983
 9233SOL    HW129140   2.796   3.693   2.983
 9233SOL    HW229141   2.947   3.708   2.979
 9234SOL     OW29142   2.646   5.063   2.189
 9234SOL    HW129143   2.621   4.972   2.202
 9234SOL    HW229144   2.722   5.075   2.247
 9235SOL     OW29145   2.484   5.295   3.127
 9235SOL    HW129146   2.474   5.373   3.182
 9235SOL    HW229147   2.579   5.282   3.122
 9236SOL     OW29148   3.227   3.773   2.033
 9236SOL    HW129149   3.263   3.695   1.992
 9236SOL    HW229150   3.135   3.751   2.051
 9237SOL     OW29151   3.148   4.186   2.542
 9237SOL    HW129152   3.098   4.268   2.550
 9237SOL    HW229153   3.151   4.151   2.630
 9238SOL     OW29154   3.390   3.950   2.748
 9238SOL    HW129155   3.437   3.933   2.830
 9238SOL    HW229156   3.448   4.006   2.698
 9239SOL     OW29157   1.908   4.786   2.154
 9239SOL    HW129158   2.003   4.779   2.142
 9239SOL    HW229159   1.880   4.698   2.179
 9240SOL     OW29160   2.759   5.395   2.198
 9240SOL    HW129161   2.680   5.375   2.147
 9240SOL    HW229162   2.730   5.458   2.263
 9241SOL     OW29163   2.058   4.310   3.823
 9241SOL    HW129164   1.996   4.321   3.895
 9241SOL    HW229165   2.071   4.398   3.788
 9242SOL     OW29166   2.086   4.009   4.719
 9242SOL    HW129167   2.117   3.976   4.803
 9242SOL    HW229168   1.996   3.977   4.713
 9243SOL     OW29169   1.859   4.121   4.363
 9243SOL    HW129170   1.778   4.150   4.404
 9243SOL    HW229171   1.840   4.033   4.332
 9244SOL     OW29172   3.404   5.276   4.449
 9244SOL    HW129173   3.369   5.211   4.510
 9244SOL    HW229174   3.352   5.265   4.369
 9245SOL     OW29175   3.663   4.319   3.932
 9245SOL    HW129176   3.621   4.305   3.848
 9245SOL    HW229177   3.612   4.267   3.994
 9246SOL     OW29178   2.614   4.852   4.774
 9246SOL    HW129179   2.548   4.875   4.839
 9246SOL    HW229180   2.642   4.936   4.738
 9247SOL     OW29181   2.726   4.502   5.536
 9247SOL    HW129182   2.734   4.575   5.597
 9247SOL    HW229183   2.757   4.537   5.452
 9248SOL     OW29184   2.550   4.713   4.362
 9248SOL    HW129185   2.621   4.708   4.425
 9248SOL    HW229186   2.487   4.773   4.402
 9249SOL     OW29187   2.570   4.869   5.544
 9249SOL    HW129188   2.621   4.945   5.572
 9249SOL    HW229189   2.495   4.906   5.497
 9250SOL     OW29190   2.134   5.210   4.769
 9250SOL    HW129191   2.112   5.120   4.745
 9250SOL    HW229192   2.214   5.229   4.721
 9251SOL     OW29193   3.319   5.229   5.086
 9251SOL    HW129194   3.371   5.309   5.097
 9251SOL    HW229195   3.245   5.240   5.144
 9252SOL     OW29196   2.292   4.126   5.267
 9252SOL    HW129197   2.383   4.101   5.251
 9252SOL    HW229198   2.240   4.056   5.226
 9253SOL     OW29199   3.481   4.187   4.482
 9253SOL    HW129200   3.412   4.245   4.451
 9253SOL    HW229201   3.538   4.243   4.534
 9254SOL     OW29202   2.074   5.445   4.180
 9254SOL    HW129203   2.098   5.512   4.244
 9254SOL    HW229204   2.155   5.427   4.132
 9255SOL     OW29205   3.001   5.068   5.416
 9255SOL    HW129206   3.027   5.063   5.508
 9255SOL    HW229207   2.958   4.985   5.398
 9256SOL     OW29208   2.117   5.159   4.245
 9256SOL    HW129209   2.087   5.247   4.267
 9256SOL    HW229210   2.055   5.101   4.290
 9257SOL     OW29211   2.149   4.822   4.623
 9257SOL    HW129212   2.132   4.736   4.660
 9257SOL    HW229213   2.079   4.878   4.656
 9258SOL     OW29214   2.488   5.530   5.207
 9258SOL    HW129215   2.395   5.509   5.218
 9258SOL    HW229216   2.491   5.626   5.208
 9259SOL     OW29217   2.429   4.719   3.863
 9259SOL    HW129218   2.489   4.745   3.793
 9259SOL    HW229219   2.474   4.747   3.943
 9260SOL     OW29220   1.972   4.389   4.284
 9260SOL    HW129221   1.949   4.299   4.310
 9260SOL    HW229222   1.966   4.439   4.365
 9261SOL     OW29223   3.701   5.482   4.054
 9261SOL    HW129224   3.767   5.435   4.106
 9261SOL    HW229225   3.732   5.572   4.052
 9262SOL     OW29226   1.898   5.318   3.835
 9262SOL    HW129227   1.887   5.225   3.856
 9262SOL    HW229228   1.874   5.363   3.916
 9263SOL     OW29229   3.544   4.594   4.246
 9263SOL    HW129230   3.621   4.599   4.190
 9263SOL    HW229231   3.515   4.685   4.255
 9264SOL     OW29232   1.989   4.467   5.308
 9264SOL    HW129233   2.079   4.500   5.303
 9264SOL    HW229234   1.935   4.545   5.298
 9265SOL     OW29235   2.482   5.120   4.464
 9265SOL    HW129236   2.441   5.034   4.473
 9265SOL    HW229237   2.471   5.142   4.372
 9266SOL     OW29238   3.140   4.958   5.139
 9266SOL    HW129239   3.185   4.916   5.065
 9266SOL    HW229240   3.200   4.947   5.212
 9267SOL     OW29241   2.672   3.734   4.242
 9267SOL    HW129242   2.725   3.809   4.214
 9267SOL    HW229243   2.583   3.769   4.249
 9268SOL     OW29244   2.037   4.673   5.007
 9268SOL    HW129245   2.129   4.647   5.002
 9268SOL    HW229246   2.001   4.652   4.921
 9269SOL     OW29247   3.412   4.746   3.923
 9269SOL    HW129248   3.348   4.699   3.977
 9269SOL    HW229249   3.482   4.769   3.984
 9270SOL     OW29250   3.047   5.536   5.347
 9270SOL    HW129251   3.044   5.590   5.268
 9270SOL    HW229252   3.060   5.447   5.314
 9271SOL     OW29253   2.200   3.965   5.553
 9271SOL    HW129254   2.252   4.045   5.554
 9271SOL    HW229255   2.112   3.992   5.578
 9272SOL     OW29256   3.512   5.489   4.305
 9272SOL    HW129257   3.503   5.448   4.219
 9272SOL    HW229258   3.482   5.422   4.366
 9273SOL     OW29259   2.447   4.426   3.978
 9273SOL    HW129260   2.480   4.511   3.950
 9273SOL    HW229261   2.393   4.445   4.054
 9274SOL     OW29262   3.435   5.412   4.034
 9274SOL    HW129263   3.530   5.422   4.028
 9274SOL    HW229264   3.406   5.400   3.944
 9275SOL     OW29265   2.627   4.347   5.183
 9275SOL    HW129266   2.613   4.309   5.270
 9275SOL    HW229267   2.599   4.279   5.122
 9276SOL     OW29268   2.823   4.599   5.294
 9276SOL    HW129269   2.888   4.544   5.251
 9276SOL    HW229270   2.772   4.638   5.223
 9277SOL     OW29271   2.907   4.421   4.159
 9277SOL    HW129272   2.927   4.424   4.252
 9277SOL    HW229273   2.824   4.374   4.153
 9278SOL     OW29274   1.945   4.538   4.509
 9278SOL    HW129275   2.029   4.534   4.555
 9278SOL    HW229276   1.902   4.616   4.544
 9279SOL     OW29277   1.983   5.599   5.309
 9279SOL    HW129278   1.977   5.583   5.404
 9279SOL    HW229279   1.906   5.556   5.273
 9280SOL     OW29280   2.746   4.087   3.914
 9280SOL    HW129281   2.788   4.165   3.879
 9280SOL    HW229282   2.770   4.017   3.853
 9281SOL     OW29283   2.397   3.905   4.609
 9281SOL    HW129284   2.409   3.929   4.701
 9281SOL    HW229285   2.437   3.976   4.560
 9282SOL     OW29286   2.805   5.169   4.208
 9282SOL    HW129287   2.836   5.243   4.156
 9282SOL    HW229288   2.885   5.129   4.243
 9283SOL     OW29289   2.220   5.537   4.599
 9283SOL    HW129290   2.263   5.452   4.608
 9283SOL    HW229291   2.290   5.600   4.616
 9284SOL     OW29292   3.085   5.265   5.237
 9284SOL    HW129293   3.076   5.193   5.299
 9284SOL    HW229294   3.027   5.241   5.164
 9285SOL     OW29295   2.177   4.690   3.982
 9285SOL    HW129296   2.261   4.711   3.940
 9285SOL    HW229297   2.188   4.600   4.012
 9286SOL     OW29298   3.300   4.400   4.420
 9286SOL    HW129299   3.232   4.393   4.487
 9286SOL    HW229300   3.289   4.488   4.384
 9287SOL     OW29301   2.328   5.003   5.470
 9287SOL    HW129302   2.302   5.006   5.378
 9287SOL    HW229303   2.246   4.992   5.518
 9288SOL     OW29304   2.980   5.508   3.934
 9288SOL    HW129305   2.904   5.475   3.983
 9288SOL    HW229306   3.008   5.435   3.879
 9289SOL     OW29307   2.037   3.992   5.222
 9289SOL    HW129308   2.002   4.079   5.200
 9289SOL    HW229309   2.051   3.996   5.317
 9290SOL     OW29310   3.504   5.109   3.734
 9290SOL    HW129311   3.560   5.136   3.807
 9290SOL    HW229312   3.463   5.028   3.763
 9291SOL     OW29313   2.321   5.455   4.046
 9291SOL    HW129314   2.365   5.508   4.113
 9291SOL    HW229315   2.392   5.415   3.997
 9292SOL     OW29316   3.246   3.818   4.114
 9292SOL    HW129317   3.235   3.743   4.055
 9292SOL    HW229318   3.337   3.812   4.143
 9293SOL     OW29319   2.133   5.516   4.934
 9293SOL    HW129320   2.173   5.443   4.981
 9293SOL    HW229321   2.119   5.484   4.846
 9294SOL     OW29322   2.797   5.430   4.625
 9294SOL    HW129323   2.865   5.368   4.651
 9294SOL    HW229324   2.751   5.387   4.553
 9295SOL     OW29325   2.236   4.426   4.169
 9295SOL    HW129326   2.256   4.334   4.188
 9295SOL    HW229327   2.152   4.442   4.212
 9296SOL     OW29328   2.499   3.818   3.854
 9296SOL    HW129329   2.593   3.834   3.858
 9296SOL    HW229330   2.479   3.815   3.760
 9297SOL     OW29331   2.600   3.963   5.483
 9297SOL    HW129332   2.689   3.930   5.496
 9297SOL    HW229333   2.593   4.038   5.542
 9298SOL     OW29334   2.738   5.260   4.929
 9298SOL    HW129335   2.713   5.216   4.848
 9298SOL    HW229336   2.802   5.202   4.969
 9299SOL     OW29337   2.679   5.115   4.680
 9299SOL    HW129338   2.762   5.102   4.635
 9299SOL    HW229339   2.614   5.114   4.610
 9300SOL     OW29340   2.691   4.199   4.638
 9300SOL    HW129341   2.759   4.258   4.605
 9300SOL    HW229342   2.731   4.112   4.632
 9301SOL     OW29343   2.391   3.779   4.216
 9301SOL    HW129344   2.328   3.795   4.287
 9301SOL    HW229345   2.390   3.861   4.165
 9302SOL     OW29346   3.265   4.899   3.753
 9302SOL    HW129347   3.317   4.834   3.801
 9302SOL    HW229348   3.209   4.939   3.819
 9303SOL     OW29349   2.171   3.778   3.905
 9303SOL    HW129350   2.227   3.855   3.895
 9303SOL    HW229351   2.223   3.718   3.958
 9304SOL     OW29352   2.814   3.960   4.164
 9304SOL    HW129353   2.793   4.004   4.082
 9304SOL    HW229354   2.906   3.978   4.178
 9305SOL     OW29355   3.079   5.297   4.518
 9305SOL    HW129356   3.106   5.362   4.454
 9305SOL    HW229357   3.132   5.315   4.596
 9306SOL     OW29358   2.351   4.880   4.453
 9306SOL    HW129359   2.284   4.861   4.519
 9306SOL    HW229360   2.308   4.865   4.369
 9307SOL     OW29361   3.129   5.522   4.333
 9307SOL    HW129362   3.168   5.587   4.275
 9307SOL    HW229363   3.053   5.567   4.371
 9308SOL     OW29364   2.854   4.284   3.751
 9308SOL    HW129365   2.911   4.355   3.783
 9308SOL    HW229366   2.915   4.216   3.723
 9309SOL     OW29367   1.963   4.260   5.130
 9309SOL    HW129368   2.051   4.266   5.094
 9309SOL    HW229369   1.954   4.336   5.187
 9310SOL     OW29370   2.416   3.937   4.884
 9310SOL    HW129371   2.465   3.865   4.924
 9310SOL    HW229372   2.329   3.931   4.924
 9311SOL     OW29373   2.639   4.128   4.325
 9311SOL    HW129374   2.650   4.210   4.277
 9311SOL    HW229375   2.720   4.079   4.308
 9312SOL     OW29376   2.892   3.713   4.450
 9312SOL    HW129377   2.822   3.754   4.399
 9312SOL    HW229378   2.892   3.760   4.533
 9313SOL     OW29379   3.745   4.542   4.071
 9313SOL    HW129380   3.788   4.493   4.142
 9313SOL    HW229381   3.709   4.474   4.014
 9314SOL     OW29382   2.354   5.149   3.874
 9314SOL    HW129383   2.274   5.124   3.922
 9314SOL    HW229384   2.367   5.077   3.812
 9315SOL     OW29385   3.246   4.299   3.794
 9315SOL    HW129386   3.185   4.270   3.862
 9315SOL    HW229387   3.330   4.259   3.817
 9316SOL     OW29388   2.365   3.977   4.029
 9316SOL    HW129389   2.430   3.932   3.975
 9316SOL    HW229390   2.356   4.063   3.989
 9317SOL     OW29391   3.601   4.961   5.270
 9317SOL    HW129392   3.658   4.884   5.269
 9317SOL    HW229393   3.644   5.022   5.331
 9318SOL     OW29394   2.909   5.098   5.078
 9318SOL    HW129395   2.833   5.053   5.114
 9318SOL    HW229396   2.983   5.041   5.099
 9319SOL     OW29397   3.473   5.364   5.393
 9319SOL    HW129398   3.461   5.390   5.302
 9319SOL    HW229399   3.551   5.308   5.391
 9320SOL     OW29400   2.993   4.977   4.821
 9320SOL    HW129401   2.918   4.986   4.880
 9320SOL    HW229402   2.958   4.997   4.734
 9321SOL     OW29403   2.850   4.832   5.441
 9321SOL    HW129404   2.756   4.848   5.454
 9321SOL    HW229405   2.853   4.758   5.380
 9322SOL     OW29406   2.575   4.780   4.089
 9322SOL    HW129407   2.561   4.764   4.183
 9322SOL    HW229408   2.651   4.725   4.068
 9323SOL     OW29409   2.275   4.544   4.983
 9323SOL    HW129410   2.348   4.563   5.042
 9323SOL    HW229411   2.257   4.451   4.997
 9324SOL     OW29412   1.943   5.300   5.077
 9324SOL    HW129413   1.919   5.369   5.015
 9324SOL    HW229414   2.038   5.292   5.068
 9325SOL     OW29415   2.225   4.838   4.216
 9325SOL    HW129416   2.144   4.885   4.232
 9325SOL    HW229417   2.208   4.788   4.136
 9326SOL     OW29418   2.420   4.255   4.577
 9326SOL    HW129419   2.423   4.324   4.511
 9326SOL    HW229420   2.512   4.232   4.592
 9327SOL     OW29421   3.112   5.079   4.110
 9327SOL    HW129422   3.167   5.148   4.146
 9327SOL    HW229423   3.130   5.002   4.165
 9328SOL     OW29424   3.150   5.201   4.857
 9328SOL    HW129425   3.210   5.185   4.930
 9328SOL    HW229426   3.104   5.118   4.846
 9329SOL     OW29427   3.434   4.350   4.188
 9329SOL    HW129428   3.379   4.359   4.266
 9329SOL    HW229429   3.493   4.426   4.192
 9330SOL     OW29430   2.208   5.273   5.026
 9330SOL    HW129431   2.193   5.226   4.944
 9330SOL    HW229432   2.303   5.274   5.037
 9331SOL     OW29433   2.282   4.467   5.327
 9331SOL    HW129434   2.339   4.518   5.270
 9331SOL    HW229435   2.328   4.384   5.340
 9332SOL     OW29436   2.849   3.874   5.527
 9332SOL    HW129437   2.898   3.951   5.500
 9332SOL    HW229438   2.882   3.804   5.470
 9333SOL     OW29439   2.353   3.745   5.478
 9333SOL    HW129440   2.306   3.702   5.407
 9333SOL    HW229441   2.306   3.828   5.490
 9334SOL     OW29442   2.429   4.612   4.753
 9334SOL    HW129443   2.470   4.698   4.748
 9334SOL    HW229444   2.381   4.613   4.836
 9335SOL     OW29445   3.065   4.256   3.999
 9335SOL    HW129446   3.076   4.178   4.052
 9335SOL    HW229447   3.019   4.318   4.055
 9336SOL     OW29448   2.150   3.914   4.977
 9336SOL    HW129449   2.110   3.944   5.058
 9336SOL    HW229450   2.134   3.820   4.975
 9337SOL     OW29451   1.872   5.042   5.008
 9337SOL    HW129452   1.920   4.983   5.065
 9337SOL    HW229453   1.903   5.129   5.032
 9338SOL     OW29454   2.576   4.367   4.827
 9338SOL    HW129455   2.630   4.323   4.761
 9338SOL    HW229456   2.542   4.444   4.782
 9339SOL     OW29457   2.144   3.776   4.361
 9339SOL    HW129458   2.132   3.869   4.376
 9339SOL    HW229459   2.170   3.740   4.446
 9340SOL     OW29460   3.493   4.108   4.090
 9340SOL    HW129461   3.515   4.048   4.161
 9340SOL    HW229462   3.473   4.190   4.135
 9341SOL     OW29463   2.839   5.288   5.439
 9341SOL    HW129464   2.827   5.330   5.354
 9341SOL    HW229465   2.887   5.207   5.419
 9342SOL     OW29466   3.714   5.235   5.345
 9342SOL    HW129467   3.736   5.268   5.258
 9342SOL    HW229468   3.793   5.251   5.397
 9343SOL     OW29469   2.211   4.630   5.538
 9343SOL    HW129470   2.292   4.657   5.582
 9343SOL    HW229471   2.240   4.573   5.467
 9344SOL     OW29472   3.366   3.988   3.889
 9344SOL    HW129473   3.302   3.936   3.937
 9344SOL    HW229474   3.418   4.032   3.956
 9345SOL     OW29475   3.103   4.515   3.717
 9345SOL    HW129476   3.160   4.444   3.747
 9345SOL    HW229477   3.156   4.563   3.653
 9346SOL     OW29478   2.920   5.070   4.572
 9346SOL    HW129479   2.922   4.996   4.511
 9346SOL    HW229480   2.984   5.132   4.537
 9347SOL     OW29481   2.168   4.530   4.671
 9347SOL    HW129482   2.257   4.565   4.673
 9347SOL    HW229483   2.177   4.440   4.700
 9348SOL     OW29484   2.200   4.256   4.736
 9348SOL    HW129485   2.167   4.167   4.721
 9348SOL    HW229486   2.280   4.261   4.685
 9349SOL     OW29487   2.979   4.096   5.463
 9349SOL    HW129488   2.971   4.182   5.506
 9349SOL    HW229489   3.070   4.092   5.435
 9350SOL     OW29490   1.858   5.046   3.908
 9350SOL    HW129491   1.770   5.060   3.872
 9350SOL    HW229492   1.855   4.957   3.944
 9351SOL     OW29493   1.951   5.509   4.653
 9351SOL    HW129494   1.922   5.426   4.616
 9351SOL    HW229495   2.043   5.515   4.629
 9352SOL     OW29496   2.357   5.303   4.634
 9352SOL    HW129497   2.430   5.351   4.673
 9352SOL    HW229498   2.399   5.236   4.580
 9353SOL     OW29499   1.907   4.263   4.846
 9353SOL    HW129500   1.981   4.272   4.787
 9353SOL    HW229501   1.945   4.268   4.933
 9354SOL     OW29502   2.074   4.243   5.443
 9354SOL    HW129503   2.153   4.224   5.392
 9354SOL    HW229504   2.035   4.320   5.400
 9355SOL     OW29505   3.217   4.665   5.360
 9355SOL    HW129506   3.253   4.752   5.349
 9355SOL    HW229507   3.273   4.609   5.306
 9356SOL     OW29508   2.672   4.292   4.095
 9356SOL    HW129509   2.689   4.217   4.037
 9356SOL    HW229510   2.604   4.342   4.051
 9357SOL     OW29511   2.100   5.274   5.463
 9357SOL    HW129512   2.069   5.303   5.549
 9357SOL    HW229513   2.123   5.182   5.477
 9358SOL     OW29514   2.511   4.174   5.002
 9358SOL    HW129515   2.495   4.098   4.946
 9358SOL    HW229516   2.538   4.243   4.942
 9359SOL     OW29517   2.779   5.405   5.197
 9359SOL    HW129518   2.768   5.354   5.116
 9359SOL    HW229519   2.750   5.493   5.173
 9360SOL     OW29520   2.317   4.201   3.872
 9360SOL    HW129521   2.377   4.269   3.902
 9360SOL    HW229522   2.230   4.242   3.874
 9361SOL     OW29523   1.984   4.862   5.194
 9361SOL    HW129524   2.004   4.823   5.278
 9361SOL    HW229525   2.009   4.795   5.130
 9362SOL     OW29526   3.168   4.623   4.025
 9362SOL    HW129527   3.179   4.621   4.121
 9362SOL    HW229528   3.158   4.531   4.000
 9363SOL     OW29529   3.637   5.446   4.883
 9363SOL    HW129530   3.696   5.471   4.812
 9363SOL    HW229531   3.608   5.357   4.860
 9364SOL     OW29532   3.102   5.468   4.836
 9364SOL    HW129533   3.187   5.488   4.797
 9364SOL    HW229534   3.105   5.373   4.853
 9365SOL     OW29535   1.943   4.985   4.743
 9365SOL    HW129536   1.923   5.001   4.835
 9365SOL    HW229537   1.887   4.911   4.719
 9366SOL     OW29538   2.559   5.400   5.471
 9366SOL    HW129539   2.507   5.456   5.414
 9366SOL    HW229540   2.642   5.389   5.424
 9367SOL     OW29541   3.542   3.883   4.252
 9367SOL    HW129542   3.598   3.827   4.198
 9367SOL    HW229543   3.524   3.831   4.330
 9368SOL     OW29544   3.259   5.298   4.214
 9368SOL    HW129545   3.316   5.331   4.145
 9368SOL    HW229546   3.208   5.374   4.240
 9369SOL     OW29547   1.974   5.555   5.578
 9369SOL    HW129548   1.945   5.468   5.606
 9369SOL    HW229549   2.039   5.581   5.644
 9370SOL     OW29550   2.662   5.001   5.148
 9370SOL    HW129551   2.629   5.051   5.223
 9370SOL    HW229552   2.585   4.991   5.091
 9371SOL     OW29553   2.525   5.355   3.879
 9371SOL    HW129554   2.541   5.361   3.785
 9371SOL    HW229555   2.473   5.276   3.889
 9372SOL     OW29556   3.479   5.456   5.121
 9372SOL    HW129557   3.533   5.450   5.042
 9372SOL    HW229558   3.466   5.549   5.134
 9373SOL     OW29559   3.690   3.894   4.704
 9373SOL    HW129560   3.732   3.815   4.670
 9373SOL    HW229561   3.609   3.902   4.654
 9374SOL     OW29562   2.117   4.032   4.440
 9374SOL    HW129563   2.038   4.083   4.425
 9374SOL    HW229564   2.127   4.031   4.535
 9375SOL     OW29565   3.061   5.317   3.754
 9375SOL    HW129566   3.055   5.229   3.790
 9375SOL    HW229567   2.986   5.324   3.695
 9376SOL     OW29568   2.692   4.733   5.095
 9376SOL    HW129569   2.693   4.732   5.000
 9376SOL    HW229570   2.681   4.825   5.118
 9377SOL     OW29571   2.776   4.619   4.003
 9377SOL    HW129572   2.836   4.654   3.937
 9377SOL    HW229573   2.830   4.562   4.058
 9378SOL     OW29574   3.326   5.410   3.770
 9378SOL    HW129575   3.242   5.364   3.762
 9378SOL    HW229576   3.376   5.382   3.693
 9379SOL     OW29577   2.224   5.024   5.225
 9379SOL    HW129578   2.286   5.019   5.152
 9379SOL    HW229579   2.146   4.978   5.194
 9380SOL     OW29580   3.449   4.991   5.042
 9380SOL    HW129581   3.506   4.980   5.118
 9380SOL    HW229582   3.404   5.074   5.058
 9381SOL     OW29583   2.909   4.853   4.417
 9381SOL    HW129584   2.865   4.776   4.451
 9381SOL    HW229585   2.989   4.819   4.377
 9382SOL     OW29586   2.834   3.930   4.634
 9382SOL    HW129587   2.916   3.978   4.621
 9382SOL    HW229588   2.851   3.875   4.711
 9383SOL     OW29589   2.464   5.202   4.200
 9383SOL    HW129590   2.509   5.153   4.132
 9383SOL    HW229591   2.374   5.210   4.169
 9384SOL     OW29592   2.115   5.079   3.989
 9384SOL    HW129593   2.020   5.072   3.981
 9384SOL    HW229594   2.130   5.102   4.081
 9385SOL     OW29595   1.985   4.767   5.460
 9385SOL    HW129596   1.908   4.733   5.505
 9385SOL    HW229597   2.058   4.715   5.494
 9386SOL     OW29598   2.522   3.917   5.224
 9386SOL    HW129599   2.590   3.964   5.176
 9386SOL    HW229600   2.546   3.928   5.316
 9387SOL     OW29601   1.930   4.058   3.749
 9387SOL    HW129602   1.865   4.073   3.818
 9387SOL    HW229603   1.973   4.143   3.739
 9388SOL     OW29604   1.930   3.876   4.044
 9388SOL    HW129605   1.932   3.972   4.038
 9388SOL    HW229606   2.018   3.848   4.018
 9389SOL     OW29607   3.022   5.062   3.854
 9389SOL    HW129608   2.943   5.010   3.868
 9389SOL    HW229609   3.061   5.071   3.940
 9390SOL     OW29610   2.476   4.568   5.163
 9390SOL    HW129611   2.528   4.645   5.142
 9390SOL    HW229612   2.539   4.496   5.164
 9391SOL     OW29613   3.348   5.513   4.721
 9391SOL    HW129614   3.370   5.533   4.630
 9391SOL    HW229615   3.417   5.453   4.749
 9392SOL     OW29616   2.594   4.275   5.447
 9392SOL    HW129617   2.615   4.361   5.482
 9392SOL    HW229618   2.676   4.225   5.456
 9393SOL     OW29619   3.336   4.917   5.346
 9393SOL    HW129620   3.331   4.968   5.427
 9393SOL    HW229621   3.426   4.929   5.316
 9394SOL     OW29622   2.233   5.476   5.297
 9394SOL    HW129623   2.147   5.514   5.278
 9394SOL    HW229624   2.214   5.385   5.321
 9395SOL     OW29625   3.080   4.035   4.185
 9395SOL    HW129626   3.140   3.965   4.159
 9395SOL    HW229627   3.120   4.072   4.263
 9396SOL     OW29628   2.428   4.459   4.390
 9396SOL    HW129629   2.482   4.539   4.388
 9396SOL    HW229630   2.368   4.469   4.316
 9397SOL     OW29631   2.687   5.095   3.761
 9397SOL    HW129632   2.672   5.091   3.855
 9397SOL    HW229633   2.732   5.178   3.748
 9398SOL     OW29634   2.533   5.522   4.688
 9398SOL    HW129635   2.518   5.602   4.637
 9398SOL    HW229636   2.623   5.496   4.666
 9399SOL     OW29637   2.735   4.681   4.566
 9399SOL    HW129638   2.761   4.593   4.594
 9399SOL    HW229639   2.702   4.722   4.646
 9400SOL     OW29640   2.919   4.699   3.781
 9400SOL    HW129641   2.967   4.777   3.755
 9400SOL    HW229642   2.982   4.627   3.774
 9401SOL     OW29643   3.693   5.304   4.580
 9401SOL    HW129644   3.633   5.288   4.508
 9401SOL    HW229645   3.694   5.222   4.630
 9402SOL     OW29646   2.077   5.008   5.577
 9402SOL    HW129647   2.037   4.939   5.524
 9402SOL    HW229648   2.020   5.015   5.654
 9403SOL     OW29649   2.545   5.136   5.355
 9403SOL    HW129650   2.466   5.092   5.385
 9403SOL    HW229651   2.542   5.222   5.396
 9404SOL     OW29652   3.704   3.855   4.993
 9404SOL    HW129653   3.705   3.786   4.927
 9404SOL    HW229654   3.689   3.936   4.944
 9405SOL     OW29655   2.261   4.163   4.231
 9405SOL    HW129656   2.335   4.109   4.202
 9405SOL    HW229657   2.237   4.127   4.316
 9406SOL     OW29658   3.566   5.189   4.832
 9406SOL    HW129659   3.490   5.130   4.832
 9406SOL    HW229660   3.635   5.139   4.876
 9407SOL     OW29661   2.204   4.271   5.011
 9407SOL    HW129662   2.285   4.235   5.048
 9407SOL    HW229663   2.216   4.264   4.916
 9408SOL     OW29664   2.667   5.321   4.419
 9408SOL    HW129665   2.697   5.296   4.332
 9408SOL    HW229666   2.599   5.256   4.440
 9409SOL     OW29667   3.301   3.950   4.788
 9409SOL    HW129668   3.263   3.867   4.816
 9409SOL    HW229669   3.226   4.010   4.780
 9410SOL     OW29670   2.639   5.048   4.027
 9410SOL    HW129671   2.619   4.958   4.051
 9410SOL    HW229672   2.699   5.078   4.096
 9411SOL     OW29673   2.473   5.326   5.016
 9411SOL    HW129674   2.505   5.391   5.079
 9411SOL    HW229675   2.553   5.285   4.982
 9412SOL     OW29676   3.449   3.916   4.567
 9412SOL    HW129677   3.400   3.929   4.648
 9412SOL    HW229678   3.454   4.003   4.528
 9413SOL     OW29679   1.896   4.784   4.000
 9413SOL    HW129680   1.992   4.782   3.997
 9413SOL    HW229681   1.872   4.696   4.029
 9414SOL     OW29682   2.755   5.404   4.050
 9414SOL    HW129683   2.673   5.375   4.010
 9414SOL    HW229684   2.728   5.464   4.120
 9415SOL     OW29685   2.086   4.345   5.713
 9415SOL    HW129686   1.993   4.350   5.737
 9415SOL    HW229687   2.085   4.332   5.618
 9416SOL     OW29688   2.084   4.014   6.584
 9416SOL    HW129689   2.115   3.979   6.668
 9416SOL    HW229690   1.994   3.980   6.577
 9417SOL     OW29691   2.444   5.019   6.792
 9417SOL    HW129692   2.379   5.008   6.723
 9417SOL    HW229693   2.454   5.114   6.801
 9418SOL     OW29694   3.409   5.259   6.295
 9418SOL    HW129695   3.399   5.205   6.374
 9418SOL    HW229696   3.389   5.200   6.223
 9419SOL     OW29697   2.625   4.865   6.636
 9419SOL    HW129698   2.568   4.887   6.710
 9419SOL    HW229699   2.647   4.949   6.596
 9420SOL     OW29700   2.689   4.526   7.409
 9420SOL    HW129701   2.768   4.517   7.463
 9420SOL    HW229702   2.722   4.552   7.323
 9421SOL     OW29703   2.541   4.723   6.230
 9421SOL    HW129704   2.612   4.707   6.292
 9421SOL    HW229705   2.478   4.776   6.278
 9422SOL     OW29706   2.563   4.892   7.403
 9422SOL    HW129707   2.612   4.971   7.428
 9422SOL    HW229708   2.489   4.925   7.351
 9423SOL     OW29709   2.163   5.183   6.645
 9423SOL    HW129710   2.107   5.120   6.601
 9423SOL    HW229711   2.230   5.205   6.581
 9424SOL     OW29712   3.294   5.227   6.939
 9424SOL    HW129713   3.360   5.295   6.953
 9424SOL    HW229714   3.294   5.176   7.020
 9425SOL     OW29715   2.284   4.123   7.142
 9425SOL    HW129716   2.379   4.124   7.142
 9425SOL    HW229717   2.261   4.057   7.076
 9426SOL     OW29718   2.082   5.451   6.057
 9426SOL    HW129719   2.108   5.538   6.089
 9426SOL    HW229720   2.147   5.428   5.992
 9427SOL     OW29721   3.019   5.045   7.286
 9427SOL    HW129722   3.103   5.000   7.275
 9427SOL    HW229723   2.954   4.975   7.282
 9428SOL     OW29724   2.057   5.192   6.184
 9428SOL    HW129725   2.051   5.204   6.090
 9428SOL    HW229726   2.027   5.102   6.199
 9429SOL     OW29727   2.115   4.808   6.471
 9429SOL    HW129728   2.139   4.719   6.494
 9429SOL    HW229729   2.066   4.840   6.547
 9430SOL     OW29730   2.436   5.542   6.982
 9430SOL    HW129731   2.373   5.512   7.047
 9430SOL    HW229732   2.481   5.616   7.023
 9431SOL     OW29733   2.431   4.715   5.729
 9431SOL    HW129734   2.483   4.754   5.659
 9431SOL    HW229735   2.476   4.743   5.809
 9432SOL     OW29736   3.432   3.832   7.065
 9432SOL    HW129737   3.474   3.819   6.980
 9432SOL    HW229738   3.466   3.916   7.096
 9433SOL     OW29739   1.966   4.378   6.150
 9433SOL    HW129740   1.940   4.289   6.173
 9433SOL    HW229741   1.967   4.425   6.233
 9434SOL     OW29742   3.678   5.500   5.948
 9434SOL    HW129743   3.761   5.466   5.982
 9434SOL    HW229744   3.703   5.574   5.893
 9435SOL     OW29745   1.925   5.316   5.704
 9435SOL    HW129746   1.902   5.223   5.711
 9435SOL    HW229747   1.879   5.358   5.776
 9436SOL     OW29748   1.991   4.465   7.170
 9436SOL    HW129749   2.082   4.491   7.161
 9436SOL    HW229750   1.941   4.542   7.146
 9437SOL     OW29751   2.474   5.116   6.314
 9437SOL    HW129752   2.434   5.030   6.321
 9437SOL    HW229753   2.463   5.141   6.223
 9438SOL     OW29754   3.171   4.945   7.040
 9438SOL    HW129755   3.189   4.882   6.969
 9438SOL    HW229756   3.214   4.907   7.116
 9439SOL     OW29757   2.666   3.723   6.071
 9439SOL    HW129758   2.712   3.804   6.047
 9439SOL    HW229759   2.576   3.751   6.088
 9440SOL     OW29760   2.040   4.685   6.860
 9440SOL    HW129761   2.127   4.644   6.858
 9440SOL    HW229762   1.993   4.643   6.788
 9441SOL     OW29763   3.017   5.537   7.209
 9441SOL    HW129764   3.045   5.593   7.137
 9441SOL    HW229765   3.040   5.448   7.182
 9442SOL     OW29766   2.185   3.969   7.387
 9442SOL    HW129767   2.251   4.038   7.381
 9442SOL    HW229768   2.115   4.008   7.441
 9443SOL     OW29769   3.316   5.146   6.527
 9443SOL    HW129770   3.256   5.143   6.601
 9443SOL    HW229771   3.314   5.057   6.491
 9444SOL     OW29772   3.520   5.487   6.195
 9444SOL    HW129773   3.555   5.466   6.109
 9444SOL    HW229774   3.470   5.409   6.220
 9445SOL     OW29775   2.457   4.434   5.853
 9445SOL    HW129776   2.473   4.517   5.808
 9445SOL    HW229777   2.393   4.455   5.920
 9446SOL     OW29778   3.411   5.437   5.900
 9446SOL    HW129779   3.507   5.437   5.902
 9446SOL    HW229780   3.389   5.410   5.811
 9447SOL     OW29781   2.592   4.348   7.046
 9447SOL    HW129782   2.611   4.304   7.129
 9447SOL    HW229783   2.610   4.282   6.979
 9448SOL     OW29784   3.259   4.187   7.280
 9448SOL    HW129785   3.274   4.222   7.368
 9448SOL    HW229786   3.310   4.107   7.277
 9449SOL     OW29787   2.811   4.595   7.171
 9449SOL    HW129788   2.874   4.525   7.154
 9449SOL    HW229789   2.766   4.607   7.087
 9450SOL     OW29790   2.797   4.139   6.841
 9450SOL    HW129791   2.786   4.050   6.875
 9450SOL    HW229792   2.887   4.142   6.809
 9451SOL     OW29793   2.845   4.481   6.033
 9451SOL    HW129794   2.917   4.483   6.096
 9451SOL    HW229795   2.811   4.392   6.039
 9452SOL     OW29796   1.953   4.550   6.364
 9452SOL    HW129797   2.033   4.536   6.415
 9452SOL    HW229798   1.916   4.631   6.399
 9453SOL     OW29799   1.986   5.593   7.171
 9453SOL    HW129800   1.982   5.580   7.266
 9453SOL    HW229801   1.920   5.534   7.135
 9454SOL     OW29802   2.772   4.067   5.752
 9454SOL    HW129803   2.813   4.144   5.715
 9454SOL    HW229804   2.813   3.993   5.707
 9455SOL     OW29805   3.514   4.336   7.406
 9455SOL    HW129806   3.483   4.395   7.338
 9455SOL    HW229807   3.560   4.266   7.359
 9456SOL     OW29808   2.394   3.904   6.479
 9456SOL    HW129809   2.410   3.923   6.571
 9456SOL    HW229810   2.423   3.983   6.432
 9457SOL     OW29811   2.851   5.159   6.066
 9457SOL    HW129812   2.835   5.238   6.015
 9457SOL    HW229813   2.892   5.190   6.146
 9458SOL     OW29814   2.226   5.524   6.453
 9458SOL    HW129815   2.282   5.449   6.473
 9458SOL    HW229816   2.277   5.600   6.478
 9459SOL     OW29817   3.671   4.843   6.428
 9459SOL    HW129818   3.634   4.826   6.341
 9459SOL    HW229819   3.606   4.809   6.489
 9460SOL     OW29820   3.065   5.279   7.128
 9460SOL    HW129821   3.073   5.198   7.179
 9460SOL    HW229822   3.050   5.249   7.038
 9461SOL     OW29823   2.171   4.688   5.836
 9461SOL    HW129824   2.257   4.709   5.798
 9461SOL    HW229825   2.146   4.605   5.795
 9462SOL     OW29826   2.318   5.013   7.335
 9462SOL    HW129827   2.294   5.015   7.243
 9462SOL    HW229828   2.235   5.000   7.381
 9463SOL     OW29829   2.983   5.505   5.818
 9463SOL    HW129830   2.912   5.462   5.865
 9463SOL    HW229831   3.009   5.442   5.751
 9464SOL     OW29832   2.026   3.972   7.096
 9464SOL    HW129833   2.003   4.063   7.075
 9464SOL    HW229834   2.076   3.979   7.177
 9465SOL     OW29835   2.324   5.458   5.907
 9465SOL    HW129836   2.381   5.508   5.966
 9465SOL    HW229837   2.384   5.420   5.843
 9466SOL     OW29838   2.135   5.511   6.810
 9466SOL    HW129839   2.184   5.454   6.869
 9466SOL    HW229840   2.151   5.474   6.723
 9467SOL     OW29841   2.811   5.423   6.486
 9467SOL    HW129842   2.894   5.377   6.494
 9467SOL    HW229843   2.764   5.376   6.417
 9468SOL     OW29844   2.249   4.424   6.056
 9468SOL    HW129845   2.272   4.332   6.068
 9468SOL    HW229846   2.155   4.428   6.070
 9469SOL     OW29847   3.395   3.953   7.316
 9469SOL    HW129848   3.390   3.938   7.410
 9469SOL    HW229849   3.380   3.867   7.276
 9470SOL     OW29850   2.479   3.804   5.719
 9470SOL    HW129851   2.572   3.825   5.706
 9470SOL    HW229852   2.445   3.788   5.631
 9471SOL     OW29853   2.623   3.985   7.351
 9471SOL    HW129854   2.706   3.940   7.336
 9471SOL    HW229855   2.630   4.020   7.440
 9472SOL     OW29856   2.741   5.241   6.790
 9472SOL    HW129857   2.733   5.206   6.702
 9472SOL    HW229858   2.815   5.192   6.828
 9473SOL     OW29859   3.200   4.322   7.038
 9473SOL    HW129860   3.243   4.291   7.118
 9473SOL    HW229861   3.239   4.408   7.021
 9474SOL     OW29862   2.675   5.116   6.528
 9474SOL    HW129863   2.761   5.100   6.489
 9474SOL    HW229864   2.615   5.115   6.453
 9475SOL     OW29865   2.716   4.180   6.492
 9475SOL    HW129866   2.716   4.177   6.396
 9475SOL    HW229867   2.804   4.151   6.516
 9476SOL     OW29868   2.400   3.791   6.088
 9476SOL    HW129869   2.322   3.795   6.144
 9476SOL    HW229870   2.395   3.869   6.034
 9477SOL     OW29871   2.158   3.769   5.763
 9477SOL    HW129872   2.201   3.838   5.712
 9477SOL    HW229873   2.230   3.721   5.804
 9478SOL     OW29874   2.796   3.965   6.024
 9478SOL    HW129875   2.774   4.004   5.939
 9478SOL    HW229876   2.891   3.977   6.031
 9479SOL     OW29877   2.938   4.378   7.048
 9479SOL    HW129878   2.909   4.293   7.016
 9479SOL    HW229879   3.034   4.371   7.051
 9480SOL     OW29880   3.106   5.326   6.408
 9480SOL    HW129881   3.129   5.354   6.319
 9480SOL    HW229882   3.168   5.256   6.428
 9481SOL     OW29883   2.326   4.888   6.314
 9481SOL    HW129884   2.263   4.856   6.379
 9481SOL    HW229885   2.285   4.868   6.229
 9482SOL     OW29886   3.136   5.542   6.196
 9482SOL    HW129887   3.165   5.603   6.127
 9482SOL    HW229888   3.056   5.582   6.230
 9483SOL     OW29889   2.882   4.298   5.635
 9483SOL    HW129890   2.824   4.368   5.603
 9483SOL    HW229891   2.963   4.343   5.658
 9484SOL     OW29892   1.977   4.241   7.012
 9484SOL    HW129893   2.059   4.250   6.965
 9484SOL    HW229894   1.968   4.323   7.061
 9485SOL     OW29895   2.419   3.921   6.749
 9485SOL    HW129896   2.477   3.869   6.805
 9485SOL    HW229897   2.337   3.927   6.799
 9486SOL     OW29898   2.697   4.155   6.213
 9486SOL    HW129899   2.665   4.223   6.154
 9486SOL    HW229900   2.723   4.084   6.156
 9487SOL     OW29901   2.808   3.717   6.331
 9487SOL    HW129902   2.783   3.759   6.249
 9487SOL    HW229903   2.863   3.781   6.376
 9488SOL     OW29904   3.288   4.909   6.391
 9488SOL    HW129905   3.290   4.814   6.394
 9488SOL    HW229906   3.317   4.931   6.302
 9489SOL     OW29907   3.261   4.310   6.664
 9489SOL    HW129908   3.246   4.219   6.638
 9489SOL    HW229909   3.353   4.312   6.692
 9490SOL     OW29910   3.782   4.550   5.925
 9490SOL    HW129911   3.811   4.514   6.009
 9490SOL    HW229912   3.722   4.484   5.890
 9491SOL     OW29913   2.353   5.154   5.741
 9491SOL    HW129914   2.271   5.126   5.781
 9491SOL    HW229915   2.362   5.100   5.662
 9492SOL     OW29916   2.379   3.986   5.904
 9492SOL    HW129917   2.421   3.930   5.839
 9492SOL    HW229918   2.359   4.067   5.858
 9493SOL     OW29919   2.935   5.096   6.953
 9493SOL    HW129920   2.855   5.052   6.983
 9493SOL    HW229921   3.006   5.036   6.975
 9494SOL     OW29922   3.466   5.369   7.254
 9494SOL    HW129923   3.447   5.388   7.162
 9494SOL    HW229924   3.557   5.341   7.255
 9495SOL     OW29925   2.991   4.951   6.684
 9495SOL    HW129926   2.915   4.906   6.719
 9495SOL    HW229927   2.978   4.950   6.590
 9496SOL     OW29928   3.497   4.817   6.653
 9496SOL    HW129929   3.504   4.880   6.724
 9496SOL    HW229930   3.404   4.793   6.652
 9497SOL     OW29931   2.749   3.878   6.971
 9497SOL    HW129932   2.769   3.813   6.903
 9497SOL    HW229933   2.833   3.895   7.013
 9498SOL     OW29934   2.832   4.838   7.299
 9498SOL    HW129935   2.738   4.842   7.315
 9498SOL    HW229936   2.843   4.761   7.243
 9499SOL     OW29937   2.558   4.793   5.963
 9499SOL    HW129938   2.556   4.767   6.055
 9499SOL    HW229939   2.632   4.745   5.926
 9500SOL     OW29940   2.265   4.538   6.858
 9500SOL    HW129941   2.340   4.554   6.916
 9500SOL    HW229942   2.256   4.443   6.856
 9501SOL     OW29943   3.085   4.121   6.872
 9501SOL    HW129944   3.146   4.187   6.904
 9501SOL    HW229945   3.126   4.088   6.792
 9502SOL     OW29946   1.947   5.299   6.946
 9502SOL    HW129947   1.922   5.364   6.881
 9502SOL    HW229948   2.042   5.290   6.936
 9503SOL     OW29949   2.189   4.852   6.070
 9503SOL    HW129950   2.252   4.890   6.008
 9503SOL    HW229951   2.178   4.762   6.040
 9504SOL     OW29952   2.409   4.266   6.451
 9504SOL    HW129953   2.418   4.326   6.376
 9504SOL    HW229954   2.491   4.274   6.499
 9505SOL     OW29955   3.105   5.063   5.944
 9505SOL    HW129956   3.184   5.070   5.997
 9505SOL    HW229957   3.033   5.074   6.007
 9506SOL     OW29958   3.133   5.192   6.728
 9506SOL    HW129959   3.188   5.191   6.806
 9506SOL    HW229960   3.081   5.111   6.735
 9507SOL     OW29961   2.214   5.249   6.899
 9507SOL    HW129962   2.195   5.218   6.810
 9507SOL    HW229963   2.309   5.260   6.900
 9508SOL     OW29964   2.274   4.466   7.195
 9508SOL    HW129965   2.333   4.515   7.139
 9508SOL    HW229966   2.317   4.382   7.208
 9509SOL     OW29967   2.864   3.869   7.348
 9509SOL    HW129968   2.924   3.942   7.334
 9509SOL    HW229969   2.905   3.795   7.303
 9510SOL     OW29970   2.348   3.753   7.349
 9510SOL    HW129971   2.315   3.700   7.276
 9510SOL    HW229972   2.295   3.833   7.346
 9511SOL     OW29973   2.396   4.660   6.614
 9511SOL    HW129974   2.485   4.690   6.594
 9511SOL    HW229975   2.405   4.609   6.694
 9512SOL     OW29976   3.199   4.578   6.633
 9512SOL    HW129977   3.208   4.573   6.538
 9512SOL    HW229978   3.219   4.490   6.664
 9513SOL     OW29979   2.140   3.917   6.842
 9513SOL    HW129980   2.103   3.940   6.928
 9513SOL    HW229981   2.135   3.822   6.838
 9514SOL     OW29982   1.882   5.039   6.865
 9514SOL    HW129983   1.925   4.977   6.924
 9514SOL    HW229984   1.910   5.125   6.897
 9515SOL     OW29985   2.600   4.359   6.655
 9515SOL    HW129986   2.646   4.286   6.615
 9515SOL    HW229987   2.656   4.435   6.639
 9516SOL     OW29988   2.155   3.770   6.222
 9516SOL    HW129989   2.133   3.863   6.232
 9516SOL    HW229990   2.180   3.742   6.310
 9517SOL     OW29991   2.851   4.503   6.604
 9517SOL    HW129992   2.930   4.523   6.654
 9517SOL    HW229993   2.884   4.480   6.517
 9518SOL     OW29994   2.835   5.262   7.305
 9518SOL    HW129995   2.827   5.310   7.222
 9518SOL    HW229996   2.896   5.191   7.286
 9519SOL     OW29997   3.726   5.300   7.204
 9519SOL    HW129998   3.742   5.281   7.111
 9519SOL    HW229999   3.755   5.221   7.250
 9520SOL     OW30000   2.235   4.643   7.402
 9520SOL    HW130001   2.327   4.669   7.412
 9520SOL    HW230002   2.237   4.574   7.335
 9521SOL     OW30003   3.133   4.528   5.575
 9521SOL    HW130004   3.209   4.538   5.633
 9521SOL    HW230005   3.157   4.576   5.496
 9522SOL     OW30006   2.914   5.055   6.416
 9522SOL    HW130007   2.914   4.972   6.368
 9522SOL    HW230008   3.000   5.093   6.399
 9523SOL     OW30009   2.164   4.541   6.538
 9523SOL    HW130010   2.251   4.575   6.555
 9523SOL    HW230011   2.170   4.447   6.555
 9524SOL     OW30012   2.184   4.264   6.591
 9524SOL    HW130013   2.153   4.174   6.579
 9524SOL    HW230014   2.267   4.268   6.543
 9525SOL     OW30015   2.995   4.123   7.316
 9525SOL    HW130016   2.983   4.182   7.390
 9525SOL    HW230017   3.085   4.137   7.288
 9526SOL     OW30018   2.992   3.949   7.069
 9526SOL    HW130019   3.012   4.011   7.139
 9526SOL    HW230020   3.037   3.985   6.992
 9527SOL     OW30021   1.874   5.041   5.790
 9527SOL    HW130022   1.786   5.060   5.757
 9527SOL    HW230023   1.869   4.951   5.821
 9528SOL     OW30024   2.361   5.292   6.487
 9528SOL    HW130025   2.434   5.345   6.519
 9528SOL    HW230026   2.402   5.229   6.427
 9529SOL     OW30027   2.823   4.554   6.875
 9529SOL    HW130028   2.877   4.496   6.928
 9529SOL    HW230029   2.813   4.508   6.792
 9530SOL     OW30030   1.907   4.266   6.708
 9530SOL    HW130031   1.951   4.258   6.623
 9530SOL    HW230032   1.978   4.262   6.772
 9531SOL     OW30033   2.078   4.248   7.320
 9531SOL    HW130034   2.148   4.213   7.264
 9531SOL    HW230035   2.038   4.318   7.269
 9532SOL     OW30036   2.662   4.265   5.953
 9532SOL    HW130037   2.683   4.211   5.877
 9532SOL    HW230038   2.600   4.330   5.919
 9533SOL     OW30039   3.513   4.332   6.781
 9533SOL    HW130040   3.513   4.266   6.850
 9533SOL    HW230041   3.595   4.316   6.734
 9534SOL     OW30042   2.091   5.271   7.316
 9534SOL    HW130043   2.078   5.313   7.402
 9534SOL    HW230044   2.108   5.179   7.337
 9535SOL     OW30045   2.464   4.196   6.835
 9535SOL    HW130046   2.495   4.109   6.809
 9535SOL    HW230047   2.516   4.256   6.781
 9536SOL     OW30048   2.747   5.403   7.077
 9536SOL    HW130049   2.755   5.346   7.001
 9536SOL    HW230050   2.777   5.489   7.046
 9537SOL     OW30051   2.321   4.210   5.765
 9537SOL    HW130052   2.382   4.280   5.787
 9537SOL    HW230053   2.236   4.255   5.756
 9538SOL     OW30054   1.992   4.863   7.056
 9538SOL    HW130055   2.007   4.819   7.139
 9538SOL    HW230056   2.010   4.797   6.990
 9539SOL     OW30057   3.193   4.791   6.797
 9539SOL    HW130058   3.199   4.713   6.743
 9539SOL    HW230059   3.130   4.847   6.752
 9540SOL     OW30060   3.646   5.483   6.708
 9540SOL    HW130061   3.723   5.479   6.650
 9540SOL    HW230062   3.607   5.396   6.700
 9541SOL     OW30063   3.104   5.468   6.707
 9541SOL    HW130064   3.158   5.474   6.629
 9541SOL    HW230065   3.104   5.375   6.729
 9542SOL     OW30066   1.926   5.021   6.585
 9542SOL    HW130067   1.906   5.013   6.679
 9542SOL    HW230068   1.879   4.948   6.545
 9543SOL     OW30069   2.563   5.401   7.329
 9543SOL    HW130070   2.513   5.476   7.297
 9543SOL    HW230071   2.639   5.396   7.271
 9544SOL     OW30072   3.221   5.307   6.077
 9544SOL    HW130073   3.286   5.321   6.008
 9544SOL    HW230074   3.198   5.394   6.107
 9545SOL     OW30075   1.978   5.546   7.436
 9545SOL    HW130076   1.944   5.465   7.473
 9545SOL    HW230077   2.039   5.579   7.502
 9546SOL     OW30078   2.676   5.014   7.008
 9546SOL    HW130079   2.635   5.058   7.083
 9546SOL    HW230080   2.604   5.000   6.947
 9547SOL     OW30081   2.531   5.360   5.744
 9547SOL    HW130082   2.548   5.375   5.651
 9547SOL    HW230083   2.482   5.278   5.746
 9548SOL     OW30084   3.469   5.444   6.985
 9548SOL    HW130085   3.538   5.432   6.919
 9548SOL    HW230086   3.467   5.538   7.001
 9549SOL     OW30087   3.695   3.917   6.596
 9549SOL    HW130088   3.718   3.827   6.573
 9549SOL    HW230089   3.613   3.934   6.550
 9550SOL     OW30090   2.116   4.029   6.295
 9550SOL    HW130091   2.024   4.049   6.282
 9550SOL    HW230092   2.129   4.035   6.390
 9551SOL     OW30093   3.060   5.331   5.622
 9551SOL    HW130094   3.053   5.239   5.647
 9551SOL    HW230095   3.000   5.341   5.549
 9552SOL     OW30096   2.651   4.742   6.950
 9552SOL    HW130097   2.716   4.685   6.909
 9552SOL    HW230098   2.699   4.823   6.968
 9553SOL     OW30099   2.752   4.652   5.851
 9553SOL    HW130100   2.825   4.673   5.793
 9553SOL    HW230101   2.788   4.590   5.915
 9554SOL     OW30102   3.333   5.409   5.629
 9554SOL    HW130103   3.249   5.366   5.614
 9554SOL    HW230104   3.384   5.389   5.551
 9555SOL     OW30105   2.207   5.043   7.095
 9555SOL    HW130106   2.222   5.104   7.023
 9555SOL    HW230107   2.146   4.978   7.059
 9556SOL     OW30108   3.526   5.006   6.863
 9556SOL    HW130109   3.604   4.968   6.905
 9556SOL    HW230110   3.455   4.991   6.926
 9557SOL     OW30111   2.923   4.812   6.302
 9557SOL    HW130112   2.855   4.753   6.334
 9557SOL    HW230113   2.992   4.753   6.270
 9558SOL     OW30114   2.452   5.206   6.058
 9558SOL    HW130115   2.518   5.155   6.010
 9558SOL    HW230116   2.394   5.239   5.991
 9559SOL     OW30117   3.588   4.133   6.979
 9559SOL    HW130118   3.669   4.181   6.964
 9559SOL    HW230119   3.598   4.051   6.931
 9560SOL     OW30120   2.122   5.096   5.902
 9560SOL    HW130121   2.038   5.076   5.861
 9560SOL    HW230122   2.126   5.038   5.978
 9561SOL     OW30123   1.989   4.772   7.329
 9561SOL    HW130124   1.909   4.736   7.368
 9561SOL    HW230125   2.059   4.714   7.358
 9562SOL     OW30126   2.518   3.940   7.099
 9562SOL    HW130127   2.598   3.925   7.048
 9562SOL    HW230128   2.548   3.953   7.188
 9563SOL     OW30129   1.945   4.061   5.606
 9563SOL    HW130130   1.863   4.049   5.559
 9563SOL    HW230131   1.986   4.137   5.563
 9564SOL     OW30132   3.272   4.578   6.969
 9564SOL    HW130133   3.244   4.652   6.915
 9564SOL    HW230134   3.367   4.579   6.963
 9565SOL     OW30135   1.923   3.868   5.876
 9565SOL    HW130136   1.913   3.954   5.834
 9565SOL    HW230137   2.009   3.837   5.847
 9566SOL     OW30138   3.025   5.067   5.689
 9566SOL    HW130139   2.960   4.997   5.693
 9566SOL    HW230140   3.067   5.066   5.775
 9567SOL     OW30141   2.461   4.577   7.036
 9567SOL    HW130142   2.522   4.645   7.008
 9567SOL    HW230143   2.514   4.497   7.038
 9568SOL     OW30144   3.378   5.466   6.530
 9568SOL    HW130145   3.326   5.418   6.466
 9568SOL    HW230146   3.394   5.404   6.600
 9569SOL     OW30147   2.566   4.289   7.322
 9569SOL    HW130148   2.610   4.367   7.356
 9569SOL    HW230149   2.629   4.218   7.335
 9570SOL     OW30150   2.235   5.469   7.159
 9570SOL    HW130151   2.150   5.510   7.148
 9570SOL    HW230152   2.215   5.380   7.190
 9571SOL     OW30153   3.527   4.598   6.852
 9571SOL    HW130154   3.523   4.506   6.826
 9571SOL    HW230155   3.538   4.646   6.770
 9572SOL     OW30156   2.432   4.464   6.263
 9572SOL    HW130157   2.486   4.541   6.244
 9572SOL    HW230158   2.374   4.455   6.186
 9573SOL     OW30159   3.605   4.111   7.256
 9573SOL    HW130160   3.597   4.126   7.161
 9573SOL    HW230161   3.534   4.050   7.276
 9574SOL     OW30162   3.700   4.660   7.063
 9574SOL    HW130163   3.716   4.751   7.037
 9574SOL    HW230164   3.629   4.631   7.007
 9575SOL     OW30165   2.705   5.092   5.621
 9575SOL    HW130166   2.701   5.127   5.710
 9575SOL    HW230167   2.742   5.163   5.569
 9576SOL     OW30168   2.532   5.506   6.536
 9576SOL    HW130169   2.526   5.592   6.493
 9576SOL    HW230170   2.623   5.480   6.524
 9577SOL     OW30171   2.711   4.690   6.442
 9577SOL    HW130172   2.765   4.617   6.474
 9577SOL    HW230173   2.695   4.744   6.519
 9578SOL     OW30174   2.941   4.703   5.666
 9578SOL    HW130175   2.923   4.754   5.588
 9578SOL    HW230176   3.012   4.644   5.641
 9579SOL     OW30177   3.696   5.282   6.436
 9579SOL    HW130178   3.688   5.233   6.354
 9579SOL    HW230179   3.722   5.217   6.501
 9580SOL     OW30180   2.066   5.012   7.436
 9580SOL    HW130181   2.037   4.934   7.388
 9580SOL    HW230182   1.998   5.026   7.501
 9581SOL     OW30183   1.964   4.942   6.235
 9581SOL    HW130184   1.978   4.899   6.320
 9581SOL    HW230185   2.019   4.893   6.174
 9582SOL     OW30186   2.531   5.141   7.206
 9582SOL    HW130187   2.456   5.103   7.252
 9582SOL    HW230188   2.551   5.220   7.254
 9583SOL     OW30189   3.649   3.897   6.862
 9583SOL    HW130190   3.731   3.853   6.884
 9583SOL    HW230191   3.654   3.912   6.768
 9584SOL     OW30192   2.282   4.163   6.107
 9584SOL    HW130193   2.323   4.097   6.052
 9584SOL    HW230194   2.237   4.114   6.175
 9585SOL     OW30195   3.528   5.240   6.699
 9585SOL    HW130196   3.478   5.196   6.630
 9585SOL    HW230197   3.550   5.171   6.761
 9586SOL     OW30198   2.202   4.265   6.862
 9586SOL    HW130199   2.290   4.235   6.885
 9586SOL    HW230200   2.200   4.263   6.767
 9587SOL     OW30201   2.672   5.325   6.276
 9587SOL    HW130202   2.681   5.351   6.184
 9587SOL    HW230203   2.617   5.246   6.272
 9588SOL     OW30204   2.806   3.697   6.773
 9588SOL    HW130205   2.799   3.638   6.699
 9588SOL    HW230206   2.869   3.763   6.746
 9589SOL     OW30207   2.634   5.061   5.923
 9589SOL    HW130208   2.613   4.967   5.922
 9589SOL    HW230209   2.719   5.066   5.967
 9590SOL     OW30210   2.480   5.292   6.858
 9590SOL    HW130211   2.482   5.380   6.897
 9590SOL    HW230212   2.572   5.274   6.837
 9591SOL     OW30213   3.429   4.020   6.547
 9591SOL    HW130214   3.342   4.017   6.586
 9591SOL    HW230215   3.420   4.081   6.473
 9592SOL     OW30216   1.910   4.789   5.903
 9592SOL    HW130217   2.000   4.775   5.872
 9592SOL    HW230218   1.878   4.701   5.924
 9593SOL     OW30219   2.751   5.389   5.941
 9593SOL    HW130220   2.682   5.372   5.876
 9593SOL    HW230221   2.721   5.468   5.986
 9594SOL     OW30222   2.086   4.373   7.574
 9594SOL    HW130223   2.003   4.331   7.598
 9594SOL    HW230224   2.099   4.348   7.482
 9595SOL     OW30225   2.085   3.943   8.506
 9595SOL    HW130226   2.122   4.028   8.483
 9595SOL    HW230227   2.003   3.939   8.457
 9596SOL     OW30228   1.870   4.124   8.074
 9596SOL    HW130229   1.794   4.077   8.109
 9596SOL    HW230230   1.912   4.061   8.016
 9597SOL     OW30231   2.426   5.029   8.643
 9597SOL    HW130232   2.350   5.039   8.586
 9597SOL    HW230233   2.452   5.118   8.665
 9598SOL     OW30234   3.430   5.257   8.151
 9598SOL    HW130235   3.389   5.217   8.228
 9598SOL    HW230236   3.366   5.248   8.081
 9599SOL     OW30237   2.945   4.440   8.138
 9599SOL    HW130238   3.031   4.431   8.096
 9599SOL    HW230239   2.963   4.483   8.222
 9600SOL     OW30240   2.596   4.862   8.498
 9600SOL    HW130241   2.536   4.902   8.561
 9600SOL    HW230242   2.638   4.935   8.454
 9601SOL     OW30243   2.698   4.528   9.262
 9601SOL    HW130244   2.755   4.572   9.325
 9601SOL    HW230245   2.734   4.553   9.177
 9602SOL     OW30246   2.553   4.749   8.121
 9602SOL    HW130247   2.621   4.703   8.171
 9602SOL    HW230248   2.535   4.828   8.172
 9603SOL     OW30249   2.569   4.879   9.270
 9603SOL    HW130250   2.613   4.960   9.296
 9603SOL    HW230251   2.493   4.908   9.219
 9604SOL     OW30252   2.189   5.144   8.512
 9604SOL    HW130253   2.116   5.109   8.461
 9604SOL    HW230254   2.240   5.195   8.449
 9605SOL     OW30255   3.298   5.258   8.833
 9605SOL    HW130256   3.363   5.328   8.827
 9605SOL    HW230257   3.263   5.265   8.921
 9606SOL     OW30258   2.292   4.104   9.029
 9606SOL    HW130259   2.376   4.071   8.996
 9606SOL    HW230260   2.226   4.060   8.975
 9607SOL     OW30261   2.088   5.437   7.913
 9607SOL    HW130262   2.108   5.511   7.969
 9607SOL    HW230263   2.162   5.431   7.853
 9608SOL     OW30264   3.004   5.063   9.155
 9608SOL    HW130265   3.089   5.033   9.188
 9608SOL    HW230266   2.953   4.983   9.146
 9609SOL     OW30267   2.073   5.168   7.979
 9609SOL    HW130268   2.078   5.262   7.963
 9609SOL    HW230269   2.025   5.160   8.062
 9610SOL     OW30270   2.100   4.811   8.322
 9610SOL    HW130271   2.125   4.721   8.345
 9610SOL    HW230272   2.072   4.850   8.404
 9611SOL     OW30273   2.445   5.535   8.855
 9611SOL    HW130274   2.373   5.511   8.912
 9611SOL    HW230275   2.479   5.617   8.892
 9612SOL     OW30276   2.486   4.710   7.581
 9612SOL    HW130277   2.512   4.766   7.508
 9612SOL    HW230278   2.568   4.670   7.611
 9613SOL     OW30279   1.970   4.386   8.008
 9613SOL    HW130280   1.949   4.295   8.028
 9613SOL    HW230281   1.968   4.431   8.092
 9614SOL     OW30282   3.700   5.486   7.784
 9614SOL    HW130283   3.774   5.456   7.837
 9614SOL    HW230284   3.724   5.574   7.756
 9615SOL     OW30285   1.915   5.317   7.568
 9615SOL    HW130286   1.896   5.225   7.584
 9615SOL    HW230287   1.884   5.362   7.647
 9616SOL     OW30288   2.002   4.462   9.044
 9616SOL    HW130289   2.096   4.480   9.036
 9616SOL    HW230290   1.960   4.546   9.026
 9617SOL     OW30291   2.462   5.118   8.181
 9617SOL    HW130292   2.412   5.036   8.185
 9617SOL    HW230293   2.454   5.145   8.090
 9618SOL     OW30294   3.147   4.969   8.893
 9618SOL    HW130295   3.157   4.905   8.823
 9618SOL    HW230296   3.225   4.957   8.947
 9619SOL     OW30297   2.660   3.737   8.012
 9619SOL    HW130298   2.704   3.801   7.956
 9619SOL    HW230299   2.567   3.745   7.989
 9620SOL     OW30300   2.045   4.680   8.720
 9620SOL    HW130301   2.134   4.644   8.720
 9620SOL    HW230302   2.002   4.639   8.646
 9621SOL     OW30303   3.022   5.537   9.077
 9621SOL    HW130304   3.045   5.594   9.003
 9621SOL    HW230305   3.040   5.449   9.046
 9622SOL     OW30306   2.213   3.972   9.285
 9622SOL    HW130307   2.269   4.027   9.230
 9622SOL    HW230308   2.133   4.023   9.296
 9623SOL     OW30309   3.302   5.164   8.375
 9623SOL    HW130310   3.254   5.169   8.458
 9623SOL    HW230311   3.298   5.071   8.352
 9624SOL     OW30312   3.500   5.495   8.029
 9624SOL    HW130313   3.491   5.464   7.939
 9624SOL    HW230314   3.487   5.417   8.082
 9625SOL     OW30315   2.463   4.422   7.702
 9625SOL    HW130316   2.478   4.491   7.637
 9625SOL    HW230317   2.398   4.459   7.761
 9626SOL     OW30318   3.175   4.070   8.454
 9626SOL    HW130319   3.118   4.034   8.386
 9626SOL    HW230320   3.263   4.042   8.428
 9627SOL     OW30321   3.433   5.415   7.766
 9627SOL    HW130322   3.528   5.428   7.756
 9627SOL    HW230323   3.402   5.400   7.677
 9628SOL     OW30324   2.639   4.334   8.909
 9628SOL    HW130325   2.611   4.301   8.994
 9628SOL    HW230326   2.605   4.272   8.846
 9629SOL     OW30327   2.822   4.600   9.029
 9629SOL    HW130328   2.874   4.528   8.994
 9629SOL    HW230329   2.769   4.630   8.955
 9630SOL     OW30330   2.815   4.137   8.697
 9630SOL    HW130331   2.720   4.146   8.690
 9630SOL    HW230332   2.843   4.103   8.612
 9631SOL     OW30333   2.855   4.469   7.880
 9631SOL    HW130334   2.883   4.455   7.970
 9631SOL    HW230335   2.842   4.381   7.845
 9632SOL     OW30336   1.938   4.553   8.228
 9632SOL    HW130337   2.019   4.531   8.273
 9632SOL    HW230338   1.908   4.633   8.270
 9633SOL     OW30339   1.985   5.599   9.032
 9633SOL    HW130340   1.985   5.576   9.125
 9633SOL    HW230341   1.907   5.555   8.996
 9634SOL     OW30342   2.801   4.094   7.617
 9634SOL    HW130343   2.862   4.166   7.598
 9634SOL    HW230344   2.843   4.017   7.578
 9635SOL     OW30345   3.576   4.338   9.322
 9635SOL    HW130346   3.497   4.392   9.316
 9635SOL    HW230347   3.628   4.363   9.246
 9636SOL     OW30348   3.261   4.857   7.950
 9636SOL    HW130349   3.329   4.839   7.886
 9636SOL    HW230350   3.207   4.926   7.910
 9637SOL     OW30351   2.401   3.912   8.338
 9637SOL    HW130352   2.410   3.943   8.428
 9637SOL    HW230353   2.427   3.986   8.284
 9638SOL     OW30354   2.869   5.166   7.922
 9638SOL    HW130355   2.831   5.241   7.878
 9638SOL    HW230356   2.864   5.187   8.015
 9639SOL     OW30357   2.218   5.540   8.323
 9639SOL    HW130358   2.265   5.456   8.327
 9639SOL    HW230359   2.287   5.606   8.336
 9640SOL     OW30360   3.062   5.278   8.985
 9640SOL    HW130361   3.054   5.195   9.033
 9640SOL    HW230362   3.054   5.253   8.893
 9641SOL     OW30363   2.177   4.673   7.670
 9641SOL    HW130364   2.192   4.664   7.575
 9641SOL    HW230365   2.151   4.585   7.698
 9642SOL     OW30366   3.297   4.521   8.248
 9642SOL    HW130367   3.298   4.462   8.323
 9642SOL    HW230368   3.368   4.490   8.191
 9643SOL     OW30369   2.328   5.001   9.185
 9643SOL    HW130370   2.298   5.006   9.094
 9643SOL    HW230371   2.247   5.000   9.237
 9644SOL     OW30372   2.957   5.491   7.673
 9644SOL    HW130373   2.894   5.437   7.721
 9644SOL    HW230374   2.989   5.433   7.603
 9645SOL     OW30375   2.049   3.993   8.949
 9645SOL    HW130376   1.976   4.054   8.953
 9645SOL    HW230377   2.014   3.911   8.983
 9646SOL     OW30378   3.461   5.157   7.596
 9646SOL    HW130379   3.440   5.238   7.549
 9646SOL    HW230380   3.402   5.091   7.560
 9647SOL     OW30381   2.324   5.460   7.765
 9647SOL    HW130382   2.377   5.511   7.827
 9647SOL    HW230383   2.388   5.423   7.705
 9648SOL     OW30384   2.124   5.514   8.671
 9648SOL    HW130385   2.179   5.444   8.707
 9648SOL    HW230386   2.113   5.491   8.579
 9649SOL     OW30387   2.812   5.423   8.342
 9649SOL    HW130388   2.898   5.381   8.346
 9649SOL    HW230389   2.765   5.374   8.273
 9650SOL     OW30390   2.245   4.431   7.908
 9650SOL    HW130391   2.271   4.339   7.913
 9650SOL    HW230392   2.153   4.432   7.935
 9651SOL     OW30393   2.480   3.822   7.580
 9651SOL    HW130394   2.573   3.803   7.573
 9651SOL    HW230395   2.444   3.797   7.494
 9652SOL     OW30396   2.623   3.966   9.235
 9652SOL    HW130397   2.703   3.921   9.209
 9652SOL    HW230398   2.646   4.013   9.315
 9653SOL     OW30399   2.736   5.245   8.649
 9653SOL    HW130400   2.727   5.211   8.560
 9653SOL    HW230401   2.810   5.197   8.686
 9654SOL     OW30402   2.672   5.112   8.396
 9654SOL    HW130403   2.759   5.101   8.357
 9654SOL    HW230404   2.613   5.121   8.321
 9655SOL     OW30405   2.779   4.232   8.351
 9655SOL    HW130406   2.764   4.226   8.257
 9655SOL    HW230407   2.808   4.144   8.376
 9656SOL     OW30408   2.398   3.784   7.946
 9656SOL    HW130409   2.318   3.793   7.998
 9656SOL    HW230410   2.401   3.862   7.891
 9657SOL     OW30411   2.156   3.766   7.631
 9657SOL    HW130412   2.214   3.822   7.580
 9657SOL    HW230413   2.214   3.703   7.674
 9658SOL     OW30414   2.762   3.944   7.870
 9658SOL    HW130415   2.766   4.007   7.798
 9658SOL    HW230416   2.839   3.888   7.857
 9659SOL     OW30417   2.928   4.378   8.893
 9659SOL    HW130418   2.845   4.331   8.883
 9659SOL    HW230419   2.995   4.315   8.867
 9660SOL     OW30420   3.072   5.313   8.257
 9660SOL    HW130421   3.104   5.367   8.185
 9660SOL    HW230422   3.151   5.276   8.297
 9661SOL     OW30423   2.314   4.885   8.174
 9661SOL    HW130424   2.238   4.861   8.226
 9661SOL    HW230425   2.352   4.802   8.146
 9662SOL     OW30426   3.135   5.518   8.056
 9662SOL    HW130427   3.184   5.573   7.996
 9662SOL    HW230428   3.066   5.575   8.090
 9663SOL     OW30429   1.952   4.272   8.853
 9663SOL    HW130430   2.041   4.263   8.820
 9663SOL    HW230431   1.958   4.344   8.916
 9664SOL     OW30432   2.437   3.948   8.615
 9664SOL    HW130433   2.486   3.866   8.620
 9664SOL    HW230434   2.356   3.930   8.663
 9665SOL     OW30435   2.727   4.173   8.076
 9665SOL    HW130436   2.703   4.225   8.000
 9665SOL    HW230437   2.740   4.085   8.042
 9666SOL     OW30438   2.811   3.808   8.225
 9666SOL    HW130439   2.761   3.791   8.145
 9666SOL    HW230440   2.867   3.730   8.236
 9667SOL     OW30441   3.282   4.910   8.285
 9667SOL    HW130442   3.232   4.836   8.250
 9667SOL    HW230443   3.360   4.915   8.230
 9668SOL     OW30444   3.293   4.358   8.470
 9668SOL    HW130445   3.278   4.264   8.461
 9668SOL    HW230446   3.388   4.367   8.480
 9669SOL     OW30447   2.355   5.136   7.613
 9669SOL    HW130448   2.270   5.103   7.643
 9669SOL    HW230449   2.363   5.101   7.524
 9670SOL     OW30450   3.518   4.981   8.154
 9670SOL    HW130451   3.608   4.958   8.131
 9670SOL    HW230452   3.500   5.060   8.103
 9671SOL     OW30453   2.377   3.989   7.768
 9671SOL    HW130454   2.424   3.932   7.706
 9671SOL    HW230455   2.353   4.066   7.717
 9672SOL     OW30456   2.919   5.092   8.796
 9672SOL    HW130457   2.843   5.050   8.837
 9672SOL    HW230458   2.994   5.043   8.828
 9673SOL     OW30459   3.469   5.366   9.113
 9673SOL    HW130460   3.460   5.397   9.023
 9673SOL    HW230461   3.556   5.325   9.116
 9674SOL     OW30462   3.004   4.965   8.545
 9674SOL    HW130463   2.924   4.974   8.597
 9674SOL    HW230464   2.975   4.978   8.454
 9675SOL     OW30465   2.780   3.821   8.842
 9675SOL    HW130466   2.800   3.797   8.751
 9675SOL    HW230467   2.853   3.877   8.868
 9676SOL     OW30468   2.848   4.834   9.170
 9676SOL    HW130469   2.755   4.842   9.192
 9676SOL    HW230470   2.852   4.759   9.111
 9677SOL     OW30471   2.554   4.783   7.854
 9677SOL    HW130472   2.567   4.768   7.948
 9677SOL    HW230473   2.628   4.737   7.812
 9678SOL     OW30474   2.280   4.548   8.714
 9678SOL    HW130475   2.354   4.550   8.775
 9678SOL    HW230476   2.260   4.455   8.702
 9679SOL     OW30477   3.146   4.099   8.735
 9679SOL    HW130478   3.241   4.100   8.745
 9679SOL    HW230479   3.131   4.097   8.641
 9680SOL     OW30480   1.944   5.291   8.795
 9680SOL    HW130481   1.914   5.362   8.738
 9680SOL    HW230482   2.039   5.291   8.785
 9681SOL     OW30483   2.429   4.205   8.273
 9681SOL    HW130484   2.438   4.278   8.213
 9681SOL    HW230485   2.420   4.245   8.360
 9682SOL     OW30486   3.115   5.067   7.845
 9682SOL    HW130487   3.168   5.141   7.875
 9682SOL    HW230488   3.026   5.089   7.874
 9683SOL     OW30489   3.148   5.196   8.600
 9683SOL    HW130490   3.202   5.192   8.679
 9683SOL    HW230491   3.105   5.111   8.596
 9684SOL     OW30492   2.215   5.254   8.756
 9684SOL    HW130493   2.203   5.210   8.671
 9684SOL    HW230494   2.309   5.268   8.762
 9685SOL     OW30495   2.281   4.462   9.058
 9685SOL    HW130496   2.343   4.507   9.000
 9685SOL    HW230497   2.320   4.376   9.072
 9686SOL     OW30498   2.853   3.851   9.163
 9686SOL    HW130499   2.891   3.900   9.089
 9686SOL    HW230500   2.898   3.767   9.161
 9687SOL     OW30501   2.348   3.745   9.216
 9687SOL    HW130502   2.305   3.700   9.143
 9687SOL    HW230503   2.302   3.828   9.224
 9688SOL     OW30504   2.421   4.633   8.473
 9688SOL    HW130505   2.490   4.699   8.481
 9688SOL    HW230506   2.397   4.613   8.563
 9689SOL     OW30507   3.159   4.590   8.497
 9689SOL    HW130508   3.188   4.621   8.411
 9689SOL    HW230509   3.208   4.509   8.511
 9690SOL     OW30510   2.203   3.897   8.742
 9690SOL    HW130511   2.142   3.934   8.807
 9690SOL    HW230512   2.157   3.906   8.659
 9691SOL     OW30513   1.861   5.035   8.731
 9691SOL    HW130514   1.905   4.976   8.792
 9691SOL    HW230515   1.893   5.122   8.755
 9692SOL     OW30516   2.584   4.355   8.503
 9692SOL    HW130517   2.651   4.314   8.449
 9692SOL    HW230518   2.563   4.437   8.458
 9693SOL     OW30519   3.577   4.661   9.332
 9693SOL    HW130520   3.608   4.684   9.244
 9693SOL    HW230521   3.498   4.609   9.317
 9694SOL     OW30522   2.151   3.786   8.083
 9694SOL    HW130523   2.142   3.878   8.106
 9694SOL    HW230524   2.172   3.742   8.165
 9695SOL     OW30525   2.873   4.484   8.428
 9695SOL    HW130526   2.962   4.488   8.462
 9695SOL    HW230527   2.863   4.393   8.398
 9696SOL     OW30528   2.828   5.273   9.172
 9696SOL    HW130529   2.821   5.319   9.088
 9696SOL    HW230530   2.888   5.200   9.155
 9697SOL     OW30531   3.727   5.282   9.075
 9697SOL    HW130532   3.749   5.296   8.983
 9697SOL    HW230533   3.773   5.201   9.098
 9698SOL     OW30534   2.213   4.631   9.264
 9698SOL    HW130535   2.294   4.662   9.305
 9698SOL    HW230536   2.242   4.573   9.194
 9699SOL     OW30537   3.373   3.961   7.586
 9699SOL    HW130538   3.303   4.027   7.582
 9699SOL    HW230539   3.451   4.010   7.612
 9700SOL     OW30540   2.916   5.064   8.298
 9700SOL    HW130541   2.917   4.987   8.240
 9700SOL    HW230542   2.987   5.119   8.266
 9701SOL     OW30543   2.167   4.552   8.391
 9701SOL    HW130544   2.261   4.570   8.400
 9701SOL    HW230545   2.160   4.458   8.407
 9702SOL     OW30546   3.006   3.959   8.938
 9702SOL    HW130547   3.082   3.980   8.993
 9702SOL    HW230548   3.022   4.006   8.856
 9703SOL     OW30549   1.876   5.041   7.636
 9703SOL    HW130550   1.787   5.062   7.607
 9703SOL    HW230551   1.868   4.954   7.676
 9704SOL     OW30552   1.955   5.504   8.395
 9704SOL    HW130553   1.922   5.426   8.349
 9704SOL    HW230554   2.043   5.517   8.360
 9705SOL     OW30555   2.355   5.300   8.357
 9705SOL    HW130556   2.426   5.358   8.383
 9705SOL    HW230557   2.394   5.240   8.295
 9706SOL     OW30558   2.813   4.550   8.708
 9706SOL    HW130559   2.874   4.498   8.759
 9706SOL    HW230560   2.797   4.497   8.629
 9707SOL     OW30561   1.862   4.271   8.586
 9707SOL    HW130562   1.932   4.261   8.521
 9707SOL    HW230563   1.908   4.274   8.670
 9708SOL     OW30564   2.078   4.232   9.178
 9708SOL    HW130565   2.147   4.195   9.123
 9708SOL    HW230566   2.045   4.306   9.128
 9709SOL     OW30567   2.667   4.258   7.810
 9709SOL    HW130568   2.704   4.207   7.737
 9709SOL    HW230569   2.603   4.316   7.768
 9710SOL     OW30570   2.104   5.272   9.173
 9710SOL    HW130571   2.091   5.332   9.247
 9710SOL    HW230572   2.110   5.186   9.213
 9711SOL     OW30573   2.525   4.189   8.709
 9711SOL    HW130574   2.498   4.106   8.668
 9711SOL    HW230575   2.540   4.248   8.635
 9712SOL     OW30576   2.750   5.408   8.939
 9712SOL    HW130577   2.757   5.352   8.861
 9712SOL    HW230578   2.765   5.496   8.906
 9713SOL     OW30579   2.305   4.209   7.629
 9713SOL    HW130580   2.380   4.267   7.642
 9713SOL    HW230581   2.230   4.267   7.620
 9714SOL     OW30582   1.963   4.845   8.916
 9714SOL    HW130583   2.010   4.821   8.996
 9714SOL    HW230584   1.997   4.787   8.849
 9715SOL     OW30585   3.157   4.791   8.691
 9715SOL    HW130586   3.178   4.710   8.644
 9715SOL    HW230587   3.113   4.846   8.627
 9716SOL     OW30588   3.645   5.468   8.610
 9716SOL    HW130589   3.704   5.486   8.537
 9716SOL    HW230590   3.606   5.383   8.589
 9717SOL     OW30591   3.104   5.468   8.570
 9717SOL    HW130592   3.186   5.491   8.525
 9717SOL    HW230593   3.109   5.374   8.582
 9718SOL     OW30594   1.922   5.009   8.456
 9718SOL    HW130595   1.903   4.998   8.549
 9718SOL    HW230596   1.878   4.935   8.414
 9719SOL     OW30597   2.556   5.401   9.187
 9719SOL    HW130598   2.502   5.472   9.153
 9719SOL    HW230599   2.633   5.399   9.130
 9720SOL     OW30600   3.548   3.768   7.976
 9720SOL    HW130601   3.601   3.847   7.972
 9720SOL    HW230602   3.589   3.708   7.914
 9721SOL     OW30603   3.253   5.290   7.938
 9721SOL    HW130604   3.312   5.319   7.869
 9721SOL    HW230605   3.205   5.369   7.964
 9722SOL     OW30606   1.994   5.523   9.293
 9722SOL    HW130607   1.946   5.452   9.336
 9722SOL    HW230608   2.044   5.565   9.362
 9723SOL     OW30609   3.133   4.706   8.136
 9723SOL    HW130610   3.186   4.628   8.155
 9723SOL    HW230611   3.176   4.746   8.060
 9724SOL     OW30612   2.669   5.008   8.868
 9724SOL    HW130613   2.633   5.051   8.946
 9724SOL    HW230614   2.598   5.012   8.803
 9725SOL     OW30615   2.527   5.359   7.608
 9725SOL    HW130616   2.555   5.369   7.517
 9725SOL    HW230617   2.493   5.269   7.613
 9726SOL     OW30618   3.480   5.460   8.846
 9726SOL    HW130619   3.544   5.454   8.776
 9726SOL    HW230620   3.465   5.553   8.859
 9727SOL     OW30621   2.131   4.043   8.182
 9727SOL    HW130622   2.059   4.104   8.171
 9727SOL    HW230623   2.183   4.079   8.254
 9728SOL     OW30624   3.060   5.327   7.481
 9728SOL    HW130625   3.043   5.238   7.512
 9728SOL    HW230626   3.008   5.335   7.401
 9729SOL     OW30627   2.666   4.732   8.836
 9729SOL    HW130628   2.722   4.688   8.772
 9729SOL    HW230629   2.693   4.824   8.832
 9730SOL     OW30630   2.750   4.658   7.718
 9730SOL    HW130631   2.817   4.680   7.654
 9730SOL    HW230632   2.789   4.591   7.773
 9731SOL     OW30633   3.334   5.390   7.493
 9731SOL    HW130634   3.245   5.362   7.473
 9731SOL    HW230635   3.380   5.387   7.409
 9732SOL     OW30636   2.202   5.037   8.947
 9732SOL    HW130637   2.222   5.112   8.891
 9732SOL    HW230638   2.167   4.971   8.887
 9733SOL     OW30639   3.410   5.041   8.725
 9733SOL    HW130640   3.456   4.981   8.783
 9733SOL    HW230641   3.368   5.104   8.784
 9734SOL     OW30642   2.898   4.838   8.159
 9734SOL    HW130643   2.840   4.772   8.197
 9734SOL    HW230644   2.978   4.790   8.137
 9735SOL     OW30645   2.847   3.974   8.439
 9735SOL    HW130646   2.835   3.934   8.354
 9735SOL    HW230647   2.873   3.902   8.497
 9736SOL     OW30648   2.459   5.205   7.925
 9736SOL    HW130649   2.524   5.152   7.878
 9736SOL    HW230650   2.400   5.237   7.856
 9737SOL     OW30651   2.141   5.025   7.755
 9737SOL    HW130652   2.056   5.035   7.711
 9737SOL    HW230653   2.131   5.073   7.837
 9738SOL     OW30654   1.986   4.772   9.196
 9738SOL    HW130655   1.909   4.733   9.239
 9738SOL    HW230656   2.059   4.717   9.224
 9739SOL     OW30657   2.535   3.914   8.967
 9739SOL    HW130658   2.616   3.902   8.918
 9739SOL    HW230659   2.563   3.936   9.055
 9740SOL     OW30660   1.932   4.085   7.489
 9740SOL    HW130661   1.863   4.053   7.430
 9740SOL    HW230662   1.982   4.148   7.437
 9741SOL     OW30663   1.926   3.881   7.742
 9741SOL    HW130664   1.914   3.951   7.677
 9741SOL    HW230665   2.013   3.846   7.723
 9742SOL     OW30666   2.994   5.084   7.594
 9742SOL    HW130667   3.008   5.009   7.536
 9742SOL    HW230668   3.046   5.064   7.672
 9743SOL     OW30669   2.479   4.552   8.894
 9743SOL    HW130670   2.535   4.627   8.876
 9743SOL    HW230671   2.539   4.477   8.895
 9744SOL     OW30672   3.349   5.527   8.453
 9744SOL    HW130673   3.371   5.539   8.360
 9744SOL    HW230674   3.412   5.461   8.484
 9745SOL     OW30675   2.570   4.297   9.174
 9745SOL    HW130676   2.607   4.378   9.209
 9745SOL    HW230677   2.625   4.228   9.209
 9746SOL     OW30678   2.232   5.471   9.017
 9746SOL    HW130679   2.148   5.513   9.000
 9746SOL    HW230680   2.209   5.385   9.052
 9747SOL     OW30681   2.423   4.456   8.132
 9747SOL    HW130682   2.503   4.499   8.103
 9747SOL    HW230683   2.368   4.451   8.054
 9748SOL     OW30684   2.686   5.122   7.484
 9748SOL    HW130685   2.752   5.110   7.552
 9748SOL    HW230686   2.730   5.173   7.416
 9749SOL     OW30687   2.533   5.506   8.397
 9749SOL    HW130688   2.520   5.594   8.361
 9749SOL    HW230689   2.625   5.486   8.381
 9750SOL     OW30690   2.729   4.683   8.315
 9750SOL    HW130691   2.780   4.609   8.347
 9750SOL    HW230692   2.700   4.729   8.394
 9751SOL     OW30693   2.935   4.721   7.523
 9751SOL    HW130694   2.905   4.766   7.445
 9751SOL    HW230695   3.015   4.675   7.495
 9752SOL     OW30696   3.698   5.282   8.289
 9752SOL    HW130697   3.626   5.269   8.227
 9752SOL    HW230698   3.721   5.194   8.318
 9753SOL     OW30699   2.082   5.018   9.299
 9753SOL    HW130700   2.039   4.943   9.258
 9753SOL    HW230701   2.059   5.011   9.391
 9754SOL     OW30702   1.936   4.956   8.130
 9754SOL    HW130703   1.981   4.904   8.197
 9754SOL    HW230704   1.995   4.953   8.055
 9755SOL     OW30705   2.534   5.139   9.067
 9755SOL    HW130706   2.464   5.095   9.115
 9755SOL    HW230707   2.549   5.221   9.114
 9756SOL     OW30708   2.274   4.167   7.959
 9756SOL    HW130709   2.322   4.107   7.902
 9756SOL    HW230710   2.266   4.120   8.042
 9757SOL     OW30711   3.517   5.235   8.557
 9757SOL    HW130712   3.473   5.206   8.477
 9757SOL    HW230713   3.495   5.168   8.622
 9758SOL     OW30714   2.204   4.269   8.750
 9758SOL    HW130715   2.288   4.225   8.764
 9758SOL    HW230716   2.187   4.257   8.657
 9759SOL     OW30717   2.681   5.315   8.128
 9759SOL    HW130718   2.681   5.357   8.042
 9759SOL    HW230719   2.613   5.247   8.122
 9760SOL     OW30720   2.867   3.726   8.593
 9760SOL    HW130721   2.821   3.677   8.525
 9760SOL    HW230722   2.957   3.692   8.590
 9761SOL     OW30723   2.642   5.052   7.802
 9761SOL    HW130724   2.641   4.958   7.786
 9761SOL    HW230725   2.732   5.071   7.829
 9762SOL     OW30726   2.483   5.290   8.732
 9762SOL    HW130727   2.484   5.376   8.773
 9762SOL    HW230728   2.573   5.276   8.702
 9763SOL     OW30729   3.221   3.720   7.549
 9763SOL    HW130730   3.274   3.799   7.560
 9763SOL    HW230731   3.199   3.694   7.638
 9764SOL     OW30732   1.901   4.793   7.761
 9764SOL    HW130733   1.989   4.784   7.725
 9764SOL    HW230734   1.874   4.703   7.780
 9765SOL     OW30735   2.734   5.378   7.814
 9765SOL    HW130736   2.670   5.365   7.744
 9765SOL    HW230737   2.714   5.464   7.850
 9766SOL     OW30738   2.086   4.363   9.439
 9766SOL    HW130739   2.006   4.310   9.439
 9766SOL    HW230740   2.115   4.361   9.348
 9767SOL     OW30741   2.081   4.009  10.309
 9767SOL    HW130742   2.113   3.971  10.391
 9767SOL    HW230743   1.994   3.971  10.297
 9768SOL     OW30744   1.851   4.118   9.947
 9768SOL    HW130745   1.767   4.134   9.989
 9768SOL    HW230746   1.840   4.035   9.901
 9769SOL     OW30747   2.428   5.027  10.495
 9769SOL    HW130748   2.344   5.041  10.450
 9769SOL    HW230749   2.451   5.114  10.529
 9770SOL     OW30750   3.438   5.252  10.022
 9770SOL    HW130751   3.394   5.220  10.101
 9770SOL    HW230752   3.371   5.247   9.954
 9771SOL     OW30753   2.996   4.430  10.012
 9771SOL    HW130754   3.046   4.509   9.991
 9771SOL    HW230755   2.953   4.451  10.095
 9772SOL     OW30756   3.599   4.308   9.588
 9772SOL    HW130757   3.584   4.329   9.496
 9772SOL    HW230758   3.642   4.223   9.587
 9773SOL     OW30759   2.597   4.857  10.361
 9773SOL    HW130760   2.534   4.900  10.419
 9773SOL    HW230761   2.643   4.929  10.318
 9774SOL     OW30762   2.748   4.489  11.147
 9774SOL    HW130763   2.688   4.551  11.188
 9774SOL    HW230764   2.762   4.522  11.059
 9775SOL     OW30765   2.541   4.721   9.956
 9775SOL    HW130766   2.612   4.709  10.019
 9775SOL    HW230767   2.481   4.782   9.999
 9776SOL     OW30768   2.572   4.871  11.135
 9776SOL    HW130769   2.622   4.946  11.165
 9776SOL    HW230770   2.496   4.909  11.090
 9777SOL     OW30771   2.198   5.140  10.373
 9777SOL    HW130772   2.121   5.115  10.323
 9777SOL    HW230773   2.247   5.197  10.313
 9778SOL     OW30774   3.319   5.224  10.681
 9778SOL    HW130775   3.353   5.307  10.647
 9778SOL    HW230776   3.327   5.232  10.776
 9779SOL     OW30777   2.311   4.115  10.796
 9779SOL    HW130778   2.387   4.057  10.796
 9779SOL    HW230779   2.236   4.057  10.809
 9780SOL     OW30780   3.456   4.196  10.055
 9780SOL    HW130781   3.380   4.184   9.999
 9780SOL    HW230782   3.507   4.264  10.011
 9781SOL     OW30783   2.091   5.448   9.779
 9781SOL    HW130784   2.111   5.522   9.836
 9781SOL    HW230785   2.162   5.448   9.714
 9782SOL     OW30786   3.003   5.057  11.012
 9782SOL    HW130787   3.052   5.047  11.094
 9782SOL    HW230788   2.950   4.977  11.006
 9783SOL     OW30789   2.078   5.177   9.844
 9783SOL    HW130790   2.082   5.272   9.833
 9783SOL    HW230791   2.026   5.164   9.924
 9784SOL     OW30792   2.113   4.803  10.203
 9784SOL    HW130793   2.173   4.765  10.268
 9784SOL    HW230794   2.059   4.864  10.253
 9785SOL     OW30795   2.445   5.527  10.716
 9785SOL    HW130796   2.372   5.506  10.774
 9785SOL    HW230797   2.480   5.609  10.751
 9786SOL     OW30798   2.428   4.727   9.451
 9786SOL    HW130799   2.482   4.761   9.381
 9786SOL    HW230800   2.475   4.749   9.531
 9787SOL     OW30801   3.441   3.866  10.774
 9787SOL    HW130802   3.487   3.932  10.723
 9787SOL    HW230803   3.431   3.905  10.861
 9788SOL     OW30804   1.972   4.389   9.926
 9788SOL    HW130805   1.941   4.299   9.931
 9788SOL    HW230806   2.062   4.383   9.895
 9789SOL     OW30807   3.699   5.483   9.640
 9789SOL    HW130808   3.775   5.460   9.693
 9789SOL    HW230809   3.721   5.569   9.602
 9790SOL     OW30810   1.892   5.315   9.432
 9790SOL    HW130811   1.884   5.223   9.456
 9790SOL    HW230812   1.872   5.363   9.513
 9791SOL     OW30813   3.571   4.652   9.952
 9791SOL    HW130814   3.617   4.582   9.906
 9791SOL    HW230815   3.531   4.704   9.882
 9792SOL     OW30816   3.506   4.822   9.744
 9792SOL    HW130817   3.584   4.823   9.689
 9792SOL    HW230818   3.518   4.895   9.805
 9793SOL     OW30819   1.996   4.469  10.891
 9793SOL    HW130820   2.089   4.492  10.894
 9793SOL    HW230821   1.951   4.551  10.911
 9794SOL     OW30822   2.479   5.125  10.032
 9794SOL    HW130823   2.437   5.040  10.043
 9794SOL    HW230824   2.459   5.150   9.941
 9795SOL     OW30825   3.140   4.956  10.732
 9795SOL    HW130826   3.169   4.889  10.670
 9795SOL    HW230827   3.204   4.953  10.803
 9796SOL     OW30828   2.678   3.740   9.846
 9796SOL    HW130829   2.722   3.816   9.810
 9796SOL    HW230830   2.585   3.763   9.847
 9797SOL     OW30831   2.047   4.685  10.586
 9797SOL    HW130832   2.135   4.648  10.576
 9797SOL    HW230833   1.989   4.618  10.550
 9798SOL     OW30834   3.338   4.705   9.503
 9798SOL    HW130835   3.346   4.626   9.449
 9798SOL    HW230836   3.419   4.708   9.554
 9799SOL     OW30837   3.018   5.536  10.934
 9799SOL    HW130838   3.051   5.595  10.867
 9799SOL    HW230839   3.039   5.448  10.901
 9800SOL     OW30840   2.208   3.973  11.154
 9800SOL    HW130841   2.245   4.060  11.168
 9800SOL    HW230842   2.113   3.985  11.167
 9801SOL     OW30843   3.320   5.149  10.250
 9801SOL    HW130844   3.261   5.159  10.324
 9801SOL    HW230845   3.312   5.057  10.225
 9802SOL     OW30846   3.518   5.488   9.891
 9802SOL    HW130847   3.509   5.455   9.801
 9802SOL    HW230848   3.492   5.414   9.946
 9803SOL     OW30849   2.461   4.447   9.564
 9803SOL    HW130850   2.500   4.501   9.495
 9803SOL    HW230851   2.448   4.508   9.637
 9804SOL     OW30852   3.125   4.083  10.241
 9804SOL    HW130853   3.039   4.043  10.253
 9804SOL    HW230854   3.182   4.035  10.301
 9805SOL     OW30855   3.434   5.407   9.623
 9805SOL    HW130856   3.528   5.425   9.611
 9805SOL    HW230857   3.403   5.387   9.535
 9806SOL     OW30858   2.646   4.346  10.747
 9806SOL    HW130859   2.627   4.316  10.836
 9806SOL    HW230860   2.615   4.275  10.690
 9807SOL     OW30861   3.252   4.202  10.991
 9807SOL    HW130862   3.266   4.244  11.076
 9807SOL    HW230863   3.319   4.133  10.988
 9808SOL     OW30864   2.806   4.595  10.902
 9808SOL    HW130865   2.855   4.522  10.864
 9808SOL    HW230866   2.763   4.637  10.828
 9809SOL     OW30867   2.852   4.137  10.542
 9809SOL    HW130868   2.757   4.145  10.558
 9809SOL    HW230869   2.858   4.097  10.456
 9810SOL     OW30870   2.890   4.453   9.750
 9810SOL    HW130871   2.918   4.433   9.840
 9810SOL    HW230872   2.910   4.373   9.701
 9811SOL     OW30873   1.979   5.580  10.891
 9811SOL    HW130874   1.987   5.558  10.984
 9811SOL    HW230875   1.886   5.574  10.872
 9812SOL     OW30876   2.757   4.052   9.477
 9812SOL    HW130877   2.787   4.134   9.438
 9812SOL    HW230878   2.833   3.994   9.469
 9813SOL     OW30879   3.546   4.294  11.146
 9813SOL    HW130880   3.523   4.370  11.092
 9813SOL    HW230881   3.586   4.232  11.084
 9814SOL     OW30882   3.246   4.859   9.842
 9814SOL    HW130883   3.321   4.833   9.789
 9814SOL    HW230884   3.198   4.922   9.788
 9815SOL     OW30885   2.403   3.893  10.204
 9815SOL    HW130886   2.411   3.933  10.291
 9815SOL    HW230887   2.424   3.965  10.144
 9816SOL     OW30888   2.875   5.175   9.784
 9816SOL    HW130889   2.834   5.246   9.735
 9816SOL    HW230890   2.868   5.201   9.876
 9817SOL     OW30891   2.204   5.526  10.167
 9817SOL    HW130892   2.264   5.453  10.185
 9817SOL    HW230893   2.242   5.600  10.215
 9818SOL     OW30894   3.671   4.789  10.171
 9818SOL    HW130895   3.627   4.750  10.096
 9818SOL    HW230896   3.607   4.785  10.241
 9819SOL     OW30897   3.049   5.274  10.834
 9819SOL    HW130898   3.065   5.196  10.887
 9819SOL    HW230899   3.057   5.244  10.743
 9820SOL     OW30900   2.177   4.671   9.563
 9820SOL    HW130901   2.261   4.700   9.529
 9820SOL    HW230902   2.147   4.604   9.501
 9821SOL     OW30903   3.333   4.509  10.070
 9821SOL    HW130904   3.335   4.416  10.095
 9821SOL    HW230905   3.410   4.521  10.015
 9822SOL     OW30906   2.332   4.989  11.049
 9822SOL    HW130907   2.307   4.994  10.957
 9822SOL    HW230908   2.249   4.990  11.097
 9823SOL     OW30909   2.983   5.501   9.543
 9823SOL    HW130910   2.911   5.455   9.586
 9823SOL    HW230911   3.011   5.442   9.473
 9824SOL     OW30912   2.063   3.988  10.814
 9824SOL    HW130913   1.980   4.036  10.816
 9824SOL    HW230914   2.041   3.901  10.847
 9825SOL     OW30915   3.489   5.121   9.411
 9825SOL    HW130916   3.492   5.164   9.326
 9825SOL    HW230917   3.421   5.054   9.401
 9826SOL     OW30918   2.350   5.476   9.650
 9826SOL    HW130919   2.389   5.421   9.719
 9826SOL    HW230920   2.400   5.454   9.572
 9827SOL     OW30921   2.091   5.517  10.541
 9827SOL    HW130922   2.163   5.469  10.583
 9827SOL    HW230923   2.111   5.512  10.447
 9828SOL     OW30924   2.803   5.425  10.202
 9828SOL    HW130925   2.884   5.377  10.218
 9828SOL    HW230926   2.760   5.376  10.132
 9829SOL     OW30927   2.220   4.421   9.800
 9829SOL    HW130928   2.249   4.330   9.808
 9829SOL    HW230929   2.215   4.437   9.706
 9830SOL     OW30930   3.388   3.957  11.035
 9830SOL    HW130931   3.396   3.972  11.129
 9830SOL    HW230932   3.311   3.900  11.027
 9831SOL     OW30933   2.484   3.787   9.450
 9831SOL    HW130934   2.573   3.818   9.433
 9831SOL    HW230935   2.445   3.776   9.363
 9832SOL     OW30936   2.630   4.007  11.070
 9832SOL    HW130937   2.711   3.956  11.064
 9832SOL    HW230938   2.579   3.963  11.139
 9833SOL     OW30939   2.733   5.241  10.504
 9833SOL    HW130940   2.720   5.203  10.417
 9833SOL    HW230941   2.807   5.192  10.540
 9834SOL     OW30942   3.195   4.322  10.742
 9834SOL    HW130943   3.237   4.293  10.823
 9834SOL    HW230944   3.238   4.406  10.722
 9835SOL     OW30945   2.677   5.107  10.255
 9835SOL    HW130946   2.765   5.095  10.219
 9835SOL    HW230947   2.620   5.113  10.179
 9836SOL     OW30948   2.780   4.226  10.211
 9836SOL    HW130949   2.761   4.222  10.117
 9836SOL    HW230950   2.819   4.141  10.231
 9837SOL     OW30951   2.411   3.798   9.826
 9837SOL    HW130952   2.326   3.797   9.870
 9837SOL    HW230953   2.406   3.871   9.765
 9838SOL     OW30954   3.259   4.938   9.362
 9838SOL    HW130955   3.336   4.883   9.346
 9838SOL    HW230956   3.199   4.882   9.411
 9839SOL     OW30957   2.147   3.774   9.488
 9839SOL    HW130958   2.193   3.836   9.431
 9839SOL    HW230959   2.217   3.724   9.530
 9840SOL     OW30960   2.793   3.973   9.769
 9840SOL    HW130961   2.771   4.010   9.684
 9840SOL    HW230962   2.886   3.990   9.779
 9841SOL     OW30963   2.937   4.375  10.798
 9841SOL    HW130964   2.884   4.318  10.742
 9841SOL    HW230965   3.027   4.357  10.772
 9842SOL     OW30966   3.067   5.302  10.107
 9842SOL    HW130967   3.094   5.361  10.036
 9842SOL    HW230968   3.143   5.297  10.164
 9843SOL     OW30969   2.328   4.889  10.035
 9843SOL    HW130970   2.265   4.858  10.100
 9843SOL    HW230971   2.287   4.869   9.951
 9844SOL     OW30972   3.124   5.518   9.920
 9844SOL    HW130973   3.170   5.572   9.857
 9844SOL    HW230974   3.083   5.580   9.980
 9845SOL     OW30975   2.840   4.283   9.368
 9845SOL    HW130976   2.853   4.354   9.304
 9845SOL    HW230977   2.912   4.294   9.430
 9846SOL     OW30978   1.949   4.284  10.696
 9846SOL    HW130979   2.041   4.279  10.671
 9846SOL    HW230980   1.946   4.352  10.763
 9847SOL     OW30981   2.419   3.955  10.477
 9847SOL    HW130982   2.464   3.875  10.507
 9847SOL    HW230983   2.329   3.945  10.508
 9848SOL     OW30984   2.718   4.182   9.947
 9848SOL    HW130985   2.688   4.235   9.873
 9848SOL    HW230986   2.751   4.101   9.908
 9849SOL     OW30987   2.839   3.804  10.085
 9849SOL    HW130988   2.814   3.798   9.993
 9849SOL    HW230989   2.845   3.714  10.115
 9850SOL     OW30990   3.309   4.889  10.158
 9850SOL    HW130991   3.240   4.825  10.140
 9850SOL    HW230992   3.356   4.897  10.075
 9851SOL     OW30993   3.302   4.328  10.326
 9851SOL    HW130994   3.296   4.246  10.276
 9851SOL    HW230995   3.382   4.318  10.378
 9852SOL     OW30996   3.711   4.546   9.708
 9852SOL    HW130997   3.765   4.484   9.756
 9852SOL    HW230998   3.671   4.495   9.638
 9853SOL     OW30999   2.348   5.153   9.487
 9853SOL    HW131000   2.266   5.111   9.512
 9853SOL    HW231001   2.380   5.101   9.413
 9854SOL     OW31002   3.533   4.996   9.957
 9854SOL    HW131003   3.628   4.992   9.964
 9854SOL    HW231004   3.511   5.088   9.973
 9855SOL     OW31005   2.378   3.982   9.630
 9855SOL    HW131006   2.422   3.927   9.566
 9855SOL    HW231007   2.360   4.063   9.584
 9856SOL     OW31008   3.607   4.947  10.867
 9856SOL    HW131009   3.694   4.912  10.844
 9856SOL    HW231010   3.624   5.036  10.897
 9857SOL     OW31011   2.913   5.072  10.636
 9857SOL    HW131012   2.838   5.046  10.690
 9857SOL    HW231013   2.989   5.033  10.680
 9858SOL     OW31014   2.999   4.938  10.411
 9858SOL    HW131015   2.942   4.981  10.475
 9858SOL    HW231016   2.971   4.972  10.327
 9859SOL     OW31017   3.488   4.818  10.381
 9859SOL    HW131018   3.478   4.883  10.451
 9859SOL    HW231019   3.414   4.833  10.323
 9860SOL     OW31020   2.778   3.814  10.697
 9860SOL    HW131021   2.797   3.791  10.606
 9860SOL    HW231022   2.860   3.851  10.730
 9861SOL     OW31023   2.844   4.826  11.049
 9861SOL    HW131024   2.753   4.854  11.060
 9861SOL    HW231025   2.839   4.753  10.986
 9862SOL     OW31026   2.562   4.781   9.685
 9862SOL    HW131027   2.559   4.761   9.779
 9862SOL    HW231028   2.641   4.735   9.654
 9863SOL     OW31029   2.281   4.544  10.567
 9863SOL    HW131030   2.351   4.556  10.632
 9863SOL    HW231031   2.253   4.454  10.578
 9864SOL     OW31032   3.123   4.090  10.607
 9864SOL    HW131033   3.162   4.172  10.637
 9864SOL    HW231034   3.039   4.116  10.570
 9865SOL     OW31035   1.944   5.297  10.665
 9865SOL    HW131036   1.930   5.382  10.623
 9865SOL    HW231037   2.039   5.286  10.663
 9866SOL     OW31038   2.184   4.837   9.802
 9866SOL    HW131039   2.197   4.909   9.741
 9866SOL    HW231040   2.192   4.758   9.748
 9867SOL     OW31041   2.404   4.256  10.172
 9867SOL    HW131042   2.414   4.316  10.098
 9867SOL    HW231043   2.478   4.276  10.229
 9868SOL     OW31044   3.117   5.067   9.712
 9868SOL    HW131045   3.173   5.139   9.742
 9868SOL    HW231046   3.028   5.094   9.738
 9869SOL     OW31047   3.156   5.185  10.466
 9869SOL    HW131048   3.210   5.192  10.545
 9869SOL    HW231049   3.106   5.104  10.478
 9870SOL     OW31050   3.453   4.393   9.812
 9870SOL    HW131051   3.372   4.424   9.771
 9870SOL    HW231052   3.511   4.374   9.739
 9871SOL     OW31053   2.210   5.242  10.623
 9871SOL    HW131054   2.201   5.204  10.536
 9871SOL    HW231055   2.303   5.262  10.631
 9872SOL     OW31056   2.281   4.470  10.913
 9872SOL    HW131057   2.345   4.514  10.858
 9872SOL    HW231058   2.315   4.380  10.921
 9873SOL     OW31059   3.464   4.507  10.999
 9873SOL    HW131060   3.380   4.551  10.987
 9873SOL    HW231061   3.521   4.544  10.932
 9874SOL     OW31062   2.862   3.864  11.067
 9874SOL    HW131063   2.921   3.935  11.043
 9874SOL    HW231064   2.907   3.785  11.039
 9875SOL     OW31065   2.356   3.760  11.066
 9875SOL    HW131066   2.309   3.708  11.001
 9875SOL    HW231067   2.300   3.836  11.083
 9876SOL     OW31068   2.393   4.642  10.329
 9876SOL    HW131069   2.469   4.700  10.337
 9876SOL    HW231070   2.375   4.614  10.418
 9877SOL     OW31071   3.202   4.577  10.340
 9877SOL    HW131072   3.188   4.592  10.246
 9877SOL    HW231073   3.239   4.489  10.345
 9878SOL     OW31074   3.004   4.250   9.598
 9878SOL    HW131075   3.039   4.178   9.650
 9878SOL    HW231076   3.081   4.295   9.563
 9879SOL     OW31077   2.160   3.917  10.559
 9879SOL    HW131078   2.121   3.946  10.641
 9879SOL    HW231079   2.143   3.822  10.557
 9880SOL     OW31080   1.900   5.039  10.585
 9880SOL    HW131081   1.936   4.984  10.654
 9880SOL    HW231082   1.913   5.129  10.616
 9881SOL     OW31083   2.588   4.353  10.354
 9881SOL    HW131084   2.663   4.316  10.307
 9881SOL    HW231085   2.586   4.444  10.327
 9882SOL     OW31086   3.608   4.676  11.173
 9882SOL    HW131087   3.559   4.619  11.115
 9882SOL    HW231088   3.546   4.699  11.242
 9883SOL     OW31089   2.161   3.782   9.939
 9883SOL    HW131090   2.140   3.873   9.961
 9883SOL    HW231091   2.176   3.740  10.024
 9884SOL     OW31092   3.493   4.081   9.760
 9884SOL    HW131093   3.427   4.030   9.713
 9884SOL    HW231094   3.486   4.169   9.725
 9885SOL     OW31095   2.866   4.484  10.263
 9885SOL    HW131096   2.880   4.498  10.357
 9885SOL    HW231097   2.856   4.390  10.253
 9886SOL     OW31098   2.833   5.275  11.039
 9886SOL    HW131099   2.818   5.329  10.961
 9886SOL    HW231100   2.890   5.204  11.008
 9887SOL     OW31101   3.731   5.183  10.919
 9887SOL    HW131102   3.667   5.254  10.911
 9887SOL    HW231103   3.812   5.226  10.946
 9888SOL     OW31104   2.212   4.637  11.123
 9888SOL    HW131105   2.293   4.664  11.166
 9888SOL    HW231106   2.241   4.577  11.054
 9889SOL     OW31107   2.927   5.064  10.170
 9889SOL    HW131108   2.932   4.990  10.110
 9889SOL    HW231109   2.986   5.129  10.132
 9890SOL     OW31110   2.164   4.512  10.241
 9890SOL    HW131111   2.252   4.548  10.254
 9890SOL    HW231112   2.169   4.422  10.275
 9891SOL     OW31113   2.187   4.251  10.325
 9891SOL    HW131114   2.152   4.162  10.314
 9891SOL    HW231115   2.265   4.253  10.270
 9892SOL     OW31116   2.999   4.100  10.984
 9892SOL    HW131117   2.948   4.174  10.951
 9892SOL    HW231118   3.089   4.132  10.989
 9893SOL     OW31119   3.023   3.908  10.785
 9893SOL    HW131120   3.015   3.975  10.854
 9893SOL    HW231121   3.067   3.953  10.713
 9894SOL     OW31122   1.857   5.043   9.507
 9894SOL    HW131123   1.780   5.054   9.451
 9894SOL    HW231124   1.852   4.952   9.536
 9895SOL     OW31125   1.940   5.503  10.243
 9895SOL    HW131126   1.918   5.422  10.196
 9895SOL    HW231127   2.029   5.524  10.215
 9896SOL     OW31128   2.360   5.298  10.217
 9896SOL    HW131129   2.426   5.364  10.236
 9896SOL    HW231130   2.402   5.239  10.155
 9897SOL     OW31131   2.832   4.510  10.543
 9897SOL    HW131132   2.909   4.505  10.600
 9897SOL    HW231133   2.767   4.457  10.587
 9898SOL     OW31134   1.903   4.293  10.422
 9898SOL    HW131135   1.984   4.270  10.375
 9898SOL    HW231136   1.926   4.287  10.514
 9899SOL     OW31137   2.058   4.244  11.039
 9899SOL    HW131138   2.107   4.196  10.972
 9899SOL    HW231139   2.023   4.321  10.993
 9900SOL     OW31140   3.234   4.656  10.967
 9900SOL    HW131141   3.260   4.748  10.965
 9900SOL    HW231142   3.235   4.629  10.875
 9901SOL     OW31143   2.644   4.257   9.681
 9901SOL    HW131144   2.689   4.210   9.611
 9901SOL    HW231145   2.597   4.328   9.637
 9902SOL     OW31146   3.514   4.324  10.505
 9902SOL    HW131147   3.506   4.257  10.572
 9902SOL    HW231148   3.600   4.309  10.465
 9903SOL     OW31149   2.094   5.271  11.032
 9903SOL    HW131150   2.078   5.340  11.097
 9903SOL    HW231151   2.108   5.192  11.084
 9904SOL     OW31152   2.572   4.170  10.556
 9904SOL    HW131153   2.517   4.097  10.528
 9904SOL    HW231154   2.566   4.234  10.485
 9905SOL     OW31155   2.743   5.414  10.808
 9905SOL    HW131156   2.755   5.367  10.726
 9905SOL    HW231157   2.763   5.505  10.786
 9906SOL     OW31158   2.315   4.218   9.514
 9906SOL    HW131159   2.382   4.286   9.523
 9906SOL    HW231160   2.236   4.266   9.487
 9907SOL     OW31161   1.995   4.865  10.781
 9907SOL    HW131162   2.000   4.817  10.863
 9907SOL    HW231163   2.016   4.801  10.714
 9908SOL     OW31164   3.168   4.761  10.532
 9908SOL    HW131165   3.189   4.695  10.466
 9908SOL    HW231166   3.110   4.822  10.488
 9909SOL     OW31167   3.155   4.506   9.652
 9909SOL    HW131168   3.061   4.516   9.671
 9909SOL    HW231169   3.160   4.511   9.557
 9910SOL     OW31170   3.640   5.480  10.448
 9910SOL    HW131171   3.681   5.509  10.367
 9910SOL    HW231172   3.625   5.386  10.435
 9911SOL     OW31173   3.093   5.453  10.411
 9911SOL    HW131174   3.177   5.482  10.375
 9911SOL    HW231175   3.108   5.363  10.437
 9912SOL     OW31176   1.948   4.979  10.325
 9912SOL    HW131177   1.942   5.000  10.418
 9912SOL    HW231178   1.858   4.965  10.297
 9913SOL     OW31179   2.546   5.396  11.043
 9913SOL    HW131180   2.491   5.473  11.035
 9913SOL    HW231181   2.617   5.409  10.980
 9914SOL     OW31182   3.630   3.828   9.855
 9914SOL    HW131183   3.579   3.882   9.795
 9914SOL    HW231184   3.584   3.744   9.857
 9915SOL     OW31185   3.261   5.291   9.809
 9915SOL    HW131186   3.316   5.318   9.735
 9915SOL    HW231187   3.206   5.367   9.827
 9916SOL     OW31188   2.004   5.519  11.152
 9916SOL    HW131189   1.954   5.454  11.201
 9916SOL    HW231190   2.053   5.567  11.220
 9917SOL     OW31191   3.135   4.672  10.000
 9917SOL    HW131192   3.208   4.612  10.018
 9917SOL    HW231193   3.169   4.730   9.931
 9918SOL     OW31194   2.665   5.000  10.736
 9918SOL    HW131195   2.637   5.042  10.817
 9918SOL    HW231196   2.601   5.027  10.670
 9919SOL     OW31197   2.528   5.367   9.463
 9919SOL    HW131198   2.551   5.372   9.370
 9919SOL    HW231199   2.482   5.284   9.472
 9920SOL     OW31200   3.427   5.466  10.631
 9920SOL    HW131201   3.514   5.484  10.596
 9920SOL    HW231202   3.439   5.462  10.726
 9921SOL     OW31203   3.701   3.889  10.282
 9921SOL    HW131204   3.732   3.808  10.242
 9921SOL    HW231205   3.619   3.909  10.237
 9922SOL     OW31206   2.111   4.032  10.031
 9922SOL    HW131207   2.026   4.072  10.012
 9922SOL    HW231208   2.114   4.028  10.127
 9923SOL     OW31209   3.060   5.328   9.349
 9923SOL    HW131210   3.041   5.239   9.379
 9923SOL    HW231211   3.008   5.338   9.269
 9924SOL     OW31212   2.691   4.730  10.693
 9924SOL    HW131213   2.735   4.718  10.609
 9924SOL    HW231214   2.686   4.825  10.705
 9925SOL     OW31215   2.772   4.645   9.599
 9925SOL    HW131216   2.835   4.658   9.528
 9925SOL    HW231217   2.812   4.578   9.654
 9926SOL     OW31218   3.333   5.410   9.351
 9926SOL    HW131219   3.250   5.364   9.338
 9926SOL    HW231220   3.383   5.394   9.271
 9927SOL     OW31221   2.225   5.025  10.806
 9927SOL    HW131222   2.220   5.101  10.747
 9927SOL    HW231223   2.146   4.975  10.787
 9928SOL     OW31224   3.464   5.012  10.581
 9928SOL    HW131225   3.534   4.998  10.645
 9928SOL    HW231226   3.408   5.078  10.621
 9929SOL     OW31227   2.914   4.838  10.027
 9929SOL    HW131228   2.845   4.778  10.055
 9929SOL    HW231229   2.987   4.781  10.003
 9930SOL     OW31230   2.874   3.969  10.297
 9930SOL    HW131231   2.861   3.928  10.212
 9930SOL    HW231232   2.877   3.896  10.359
 9931SOL     OW31233   2.448   5.213   9.765
 9931SOL    HW131234   2.523   5.162   9.733
 9931SOL    HW231235   2.382   5.201   9.697
 9932SOL     OW31236   3.596   4.109  10.700
 9932SOL    HW131237   3.669   4.171  10.698
 9932SOL    HW231238   3.621   4.040  10.638
 9933SOL     OW31239   2.112   5.056   9.606
 9933SOL    HW131240   2.021   5.060   9.577
 9933SOL    HW231241   2.112   5.101   9.691
 9934SOL     OW31242   1.974   4.737  11.024
 9934SOL    HW131243   1.900   4.721  11.083
 9934SOL    HW231244   2.051   4.707  11.072
 9935SOL     OW31245   2.539   3.919  10.811
 9935SOL    HW131246   2.621   3.896  10.766
 9935SOL    HW231247   2.567   3.954  10.895
 9936SOL     OW31248   1.915   4.104   9.355
 9936SOL    HW131249   1.858   4.056   9.295
 9936SOL    HW231250   1.975   4.152   9.298
 9937SOL     OW31251   3.285   4.584  10.708
 9937SOL    HW131252   3.236   4.644  10.652
 9937SOL    HW231253   3.373   4.585  10.671
 9938SOL     OW31254   1.923   3.883   9.599
 9938SOL    HW131255   1.917   3.960   9.542
 9938SOL    HW231256   2.009   3.846   9.579
 9939SOL     OW31257   2.983   5.087   9.467
 9939SOL    HW131258   2.973   5.003   9.422
 9939SOL    HW231259   3.049   5.071   9.534
 9940SOL     OW31260   2.482   4.560  10.748
 9940SOL    HW131261   2.540   4.635  10.734
 9940SOL    HW231262   2.540   4.484  10.747
 9941SOL     OW31263   3.339   5.513  10.306
 9941SOL    HW131264   3.388   5.549  10.231
 9941SOL    HW231265   3.406   5.481  10.366
 9942SOL     OW31266   2.586   4.275  11.004
 9942SOL    HW131267   2.621   4.328  11.077
 9942SOL    HW231268   2.595   4.185  11.034
 9943SOL     OW31269   3.333   4.912  10.935
 9943SOL    HW131270   3.326   4.935  11.028
 9943SOL    HW231271   3.425   4.930  10.913
 9944SOL     OW31272   2.229   5.463  10.874
 9944SOL    HW131273   2.145   5.508  10.861
 9944SOL    HW231274   2.206   5.380  10.914
 9945SOL     OW31275   3.522   4.603  10.567
 9945SOL    HW131276   3.523   4.516  10.526
 9945SOL    HW231277   3.515   4.663  10.493
 9946SOL     OW31278   3.052   4.044   9.796
 9946SOL    HW131279   3.097   3.970   9.754
 9946SOL    HW231280   3.119   4.085   9.850
 9947SOL     OW31281   2.424   4.467   9.997
 9947SOL    HW131282   2.480   4.542   9.976
 9947SOL    HW231283   2.366   4.458   9.921
 9948SOL     OW31284   3.622   4.087  10.979
 9948SOL    HW131285   3.623   4.100  10.884
 9948SOL    HW231286   3.545   4.031  10.994
 9949SOL     OW31287   3.602   4.655  10.824
 9949SOL    HW131288   3.597   4.750  10.837
 9949SOL    HW231289   3.588   4.642  10.730
 9950SOL     OW31290   2.679   5.118   9.346
 9950SOL    HW131291   2.737   5.118   9.422
 9950SOL    HW231292   2.725   5.171   9.281
 9951SOL     OW31293   2.521   5.517  10.233
 9951SOL    HW131294   2.508   5.611  10.224
 9951SOL    HW231295   2.616   5.507  10.243
 9952SOL     OW31296   2.719   4.691  10.163
 9952SOL    HW131297   2.774   4.619  10.193
 9952SOL    HW231298   2.693   4.736  10.243
 9953SOL     OW31299   2.938   4.664   9.385
 9953SOL    HW131300   2.946   4.717   9.306
 9953SOL    HW231301   3.007   4.598   9.377
 9954SOL     OW31302   3.719   5.296  10.159
 9954SOL    HW131303   3.643   5.289  10.102
 9954SOL    HW231304   3.693   5.253  10.240
 9955SOL     OW31305   2.095   5.026  11.172
 9955SOL    HW131306   2.016   4.977  11.149
 9955SOL    HW231307   2.088   5.039  11.267
 9956SOL     OW31308   1.950   4.930   9.975
 9956SOL    HW131309   2.002   4.924  10.055
 9956SOL    HW231310   2.014   4.918   9.905
 9957SOL     OW31311   2.546   5.130  10.942
 9957SOL    HW131312   2.465   5.095  10.980
 9957SOL    HW231313   2.551   5.219  10.975
 9958SOL     OW31314   3.659   3.894  10.551
 9958SOL    HW131315   3.686   3.803  10.560
 9958SOL    HW231316   3.668   3.913  10.457
 9959SOL     OW31317   2.263   4.161   9.829
 9959SOL    HW131318   2.314   4.104   9.771
 9959SOL    HW231319   2.235   4.104   9.901
 9960SOL     OW31320   3.566   5.218  10.385
 9960SOL    HW131321   3.482   5.192  10.347
 9960SOL    HW231322   3.579   5.157  10.458
 9961SOL     OW31323   2.203   4.283  10.605
 9961SOL    HW131324   2.256   4.224  10.659
 9961SOL    HW231325   2.219   4.253  10.515
 9962SOL     OW31326   2.681   5.319   9.975
 9962SOL    HW131327   2.676   5.325   9.879
 9962SOL    HW231328   2.615   5.254   9.998
 9963SOL     OW31329   3.281   3.953  10.420
 9963SOL    HW131330   3.318   3.870  10.451
 9963SOL    HW231331   3.239   3.990  10.498
 9964SOL     OW31332   2.871   3.728  10.446
 9964SOL    HW131333   2.829   3.670  10.382
 9964SOL    HW231334   2.960   3.694  10.455
 9965SOL     OW31335   2.640   5.053   9.669
 9965SOL    HW131336   2.617   4.961   9.656
 9965SOL    HW231337   2.734   5.052   9.689
 9966SOL     OW31338   2.482   5.282  10.597
 9966SOL    HW131339   2.479   5.368  10.640
 9966SOL    HW231340   2.571   5.275  10.564
 9967SOL     OW31341   3.174   4.205  10.000
 9967SOL    HW131342   3.111   4.277   9.994
 9967SOL    HW231343   3.154   4.163  10.084
 9968SOL     OW31344   3.452   3.943  10.191
 9968SOL    HW131345   3.382   3.961  10.254
 9968SOL    HW231346   3.453   4.019  10.133
 9969SOL     OW31347   1.897   4.784   9.622
 9969SOL    HW131348   1.991   4.784   9.602
 9969SOL    HW231349   1.876   4.692   9.638
 9970SOL     OW31350   2.725   5.389   9.675
 9970SOL    HW131351   2.676   5.359   9.599
 9970SOL    HW231352   2.688   5.475   9.695
 9971SOL     OW31353   2.077   4.342  11.302
 9971SOL    HW131354   1.987   4.325  11.332
 9971SOL    HW231355   2.074   4.324  11.208
 9972SOL     OW31356   2.092   4.005  12.159
 9972SOL    HW131357   2.122   3.974  12.245
 9972SOL    HW231358   2.001   3.977  12.153
 9973SOL     OW31359   1.852   4.107  11.814
 9973SOL    HW131360   1.772   4.134  11.858
 9973SOL    HW231361   1.828   4.028  11.766
 9974SOL     OW31362   3.434   5.229  11.883
 9974SOL    HW131363   3.392   5.210  11.967
 9974SOL    HW231364   3.361   5.238  11.821
 9975SOL     OW31365   3.000   4.435  11.868
 9975SOL    HW131366   3.068   4.502  11.869
 9975SOL    HW231367   2.956   4.444  11.952
 9976SOL     OW31368   3.606   4.325  11.406
 9976SOL    HW131369   3.592   4.322  11.312
 9976SOL    HW231370   3.595   4.234  11.435
 9977SOL     OW31371   2.593   4.861  12.196
 9977SOL    HW131372   2.533   4.873  12.270
 9977SOL    HW231373   2.621   4.950  12.174
 9978SOL     OW31374   2.546   4.716  11.821
 9978SOL    HW131375   2.614   4.715  11.889
 9978SOL    HW231376   2.477   4.772  11.857
 9979SOL     OW31377   2.155   5.208  12.221
 9979SOL    HW131378   2.162   5.112  12.215
 9979SOL    HW231379   2.228   5.241  12.169
 9980SOL     OW31380   3.463   4.154  11.910
 9980SOL    HW131381   3.395   4.177  11.846
 9980SOL    HW231382   3.452   4.218  11.980
 9981SOL     OW31383   2.086   5.439  11.638
 9981SOL    HW131384   2.104   5.512  11.697
 9981SOL    HW231385   2.163   5.433  11.582
 9982SOL     OW31386   2.079   5.170  11.705
 9982SOL    HW131387   2.075   5.266  11.701
 9982SOL    HW231388   2.037   5.149  11.789
 9983SOL     OW31389   2.104   4.819  12.054
 9983SOL    HW131390   2.126   4.739  12.101
 9983SOL    HW231391   2.050   4.869  12.115
 9984SOL     OW31392   2.438   4.711  11.316
 9984SOL    HW131393   2.484   4.760  11.248
 9984SOL    HW231394   2.475   4.743  11.398
 9985SOL     OW31395   1.970   4.367  11.746
 9985SOL    HW131396   1.966   4.279  11.783
 9985SOL    HW231397   1.975   4.425  11.822
 9986SOL     OW31398   3.707   5.478  11.501
 9986SOL    HW131399   3.778   5.453  11.560
 9986SOL    HW231400   3.726   5.569  11.478
 9987SOL     OW31401   1.896   5.317  11.291
 9987SOL    HW131402   1.883   5.225  11.313
 9987SOL    HW231403   1.875   5.364  11.371
 9988SOL     OW31404   3.502   4.585  11.796
 9988SOL    HW131405   3.589   4.578  11.836
 9988SOL    HW231406   3.512   4.652  11.729
 9989SOL     OW31407   3.516   4.820  11.612
 9989SOL    HW131408   3.602   4.819  11.570
 9989SOL    HW231409   3.527   4.878  11.687
 9990SOL     OW31410   2.036   4.459   0.226
 9990SOL    HW131411   2.051   4.459   0.321
 9990SOL    HW231412   1.957   4.511   0.214
 9991SOL     OW31413   2.478   5.111  11.896
 9991SOL    HW131414   2.433   5.028  11.909
 9991SOL    HW231415   2.455   5.138  11.807
 9992SOL     OW31416   2.682   3.721  11.688
 9992SOL    HW131417   2.725   3.804  11.668
 9992SOL    HW231418   2.588   3.742  11.690
 9993SOL     OW31419   2.024   4.710  12.396
 9993SOL    HW131420   2.119   4.717  12.408
 9993SOL    HW231421   1.999   4.633  12.447
 9994SOL     OW31422   3.387   4.727  11.382
 9994SOL    HW131423   3.331   4.662  11.424
 9994SOL    HW231424   3.439   4.764  11.453
 9995SOL     OW31425   3.339   5.122  12.127
 9995SOL    HW131426   3.273   5.139  12.194
 9995SOL    HW231427   3.337   5.027  12.115
 9996SOL     OW31428   3.509   5.488  11.752
 9996SOL    HW131429   3.492   5.449  11.666
 9996SOL    HW231430   3.498   5.416  11.814
 9997SOL     OW31431   2.454   4.442  11.441
 9997SOL    HW131432   2.455   4.528  11.400
 9997SOL    HW231433   2.391   4.449  11.513
 9998SOL     OW31434   3.152   4.090  12.099
 9998SOL    HW131435   3.062   4.057  12.104
 9998SOL    HW231436   3.200   4.039  12.164
 9999SOL     OW31437   3.441   5.404  11.491
 9999SOL    HW131438   3.534   5.424  11.480
 9999SOL    HW231439   3.409   5.389  11.402
10000SOL     OW31440   2.829   4.068  12.391
10000SOL    HW131441   2.855   4.139  12.450
10000SOL    HW231442   2.735   4.083  12.375
10001SOL     OW31443   2.916   4.443  11.601
10001SOL    HW131444   2.937   4.435  11.694
10001SOL    HW231445   2.835   4.393  11.590
10002SOL     OW31446   1.955   4.545  11.950
10002SOL    HW131447   2.036   4.548  12.002
10002SOL    HW231448   1.900   4.614  11.987
10003SOL     OW31449   2.752   4.051  11.381
10003SOL    HW131450   2.829   4.081  11.332
10003SOL    HW231451   2.716   3.980  11.328
10004SOL     OW31452   3.241   4.868  11.711
10004SOL    HW131453   3.324   4.868  11.663
10004SOL    HW231454   3.188   4.935  11.667
10005SOL     OW31455   2.416   3.906  12.061
10005SOL    HW131456   2.418   3.937  12.151
10005SOL    HW231457   2.414   3.986  12.008
10006SOL     OW31458   2.853   5.164  11.635
10006SOL    HW131459   2.832   5.243  11.585
10006SOL    HW231460   2.826   5.184  11.724
10007SOL     OW31461   2.220   5.537  12.040
10007SOL    HW131462   2.266   5.454  12.052
10007SOL    HW231463   2.285   5.604  12.062
10008SOL     OW31464   3.573   4.744  12.031
10008SOL    HW131465   3.583   4.821  11.975
10008SOL    HW231466   3.565   4.779  12.119
10009SOL     OW31467   2.168   4.683  11.423
10009SOL    HW131468   2.253   4.707  11.385
10009SOL    HW231469   2.144   4.602  11.377
10010SOL     OW31470   2.991   5.509  11.398
10010SOL    HW131471   2.915   5.472  11.443
10010SOL    HW231472   3.013   5.444  11.332
10011SOL     OW31473   3.489   5.106  11.269
10011SOL    HW131474   3.465   5.191  11.232
10011SOL    HW231475   3.420   5.047  11.238
10012SOL     OW31476   2.328   5.454  11.493
10012SOL    HW131477   2.370   5.514  11.554
10012SOL    HW231478   2.398   5.427  11.433
10013SOL     OW31479   3.262   3.832  11.620
10013SOL    HW131480   3.258   3.807  11.528
10013SOL    HW231481   3.355   3.843  11.639
10014SOL     OW31482   2.092   5.513  12.383
10014SOL    HW131483   2.136   5.445  12.435
10014SOL    HW231484   2.076   5.471  12.298
10015SOL     OW31485   2.829   5.412  12.042
10015SOL    HW131486   2.815   5.370  12.126
10015SOL    HW231487   2.782   5.357  11.979
10016SOL     OW31488   2.261   4.418  11.643
10016SOL    HW131489   2.274   4.324  11.657
10016SOL    HW231490   2.170   4.434  11.668
10017SOL     OW31491   2.520   3.839  11.269
10017SOL    HW131492   2.566   3.758  11.294
10017SOL    HW231493   2.459   3.811  11.200
10018SOL     OW31494   2.674   5.104  12.098
10018SOL    HW131495   2.761   5.104  12.059
10018SOL    HW231496   2.614   5.111  12.024
10019SOL     OW31497   2.799   4.239  12.076
10019SOL    HW131498   2.773   4.226  11.985
10019SOL    HW231499   2.832   4.154  12.104
10020SOL     OW31500   2.417   3.787  11.664
10020SOL    HW131501   2.338   3.788  11.718
10020SOL    HW231502   2.408   3.864  11.608
10021SOL     OW31503   3.285   4.924  11.210
10021SOL    HW131504   3.317   4.856  11.269
10021SOL    HW231505   3.207   4.959  11.253
10022SOL     OW31506   2.150   3.773  11.358
10022SOL    HW131507   2.205   3.837  11.312
10022SOL    HW231508   2.213   3.713  11.399
10023SOL     OW31509   2.806   3.967  11.638
10023SOL    HW131510   2.781   3.998  11.551
10023SOL    HW231511   2.899   3.987  11.646
10024SOL     OW31512   3.114   5.272  11.943
10024SOL    HW131513   3.103   5.348  11.887
10024SOL    HW231514   3.156   5.306  12.022
10025SOL     OW31515   2.329   4.872  11.894
10025SOL    HW131516   2.266   4.858  11.965
10025SOL    HW231517   2.278   4.860  11.814
10026SOL     OW31518   3.121   5.511  11.780
10026SOL    HW131519   3.166   5.579  11.729
10026SOL    HW231520   3.050   5.557  11.824
10027SOL     OW31521   2.418   3.936  12.335
10027SOL    HW131522   2.444   3.844  12.348
10027SOL    HW231523   2.327   3.940  12.364
10028SOL     OW31524   2.732   4.185  11.815
10028SOL    HW131525   2.667   4.236  11.765
10028SOL    HW231526   2.750   4.109  11.761
10029SOL     OW31527   2.891   3.764  11.915
10029SOL    HW131528   2.826   3.769  11.845
10029SOL    HW231529   2.860   3.693  11.971
10030SOL     OW31530   3.285   4.848  12.002
10030SOL    HW131531   3.195   4.870  12.027
10030SOL    HW231532   3.299   4.893  11.919
10031SOL     OW31533   3.364   4.326  12.099
10031SOL    HW131534   3.285   4.276  12.119
10031SOL    HW231535   3.411   4.330  12.181
10032SOL     OW31536   3.708   4.536  11.543
10032SOL    HW131537   3.761   4.490  11.608
10032SOL    HW231538   3.675   4.467  11.485
10033SOL     OW31539   2.353   5.147  11.321
10033SOL    HW131540   2.278   5.120  11.374
10033SOL    HW231541   2.348   5.092  11.243
10034SOL     OW31542   3.549   4.973  11.833
10034SOL    HW131543   3.644   4.979  11.840
10034SOL    HW231544   3.518   5.063  11.848
10035SOL     OW31545   3.277   4.295  11.248
10035SOL    HW131546   3.242   4.259  11.330
10035SOL    HW231547   3.371   4.279  11.253
10036SOL     OW31548   2.391   3.986  11.478
10036SOL    HW131549   2.442   3.944  11.409
10036SOL    HW231550   2.361   4.068  11.439
10037SOL     OW31551   2.966   4.975  12.267
10037SOL    HW131552   2.907   4.940  12.334
10037SOL    HW231553   2.910   4.996  12.193
10038SOL     OW31554   3.476   4.823  12.277
10038SOL    HW131555   3.508   4.882  12.345
10038SOL    HW231556   3.381   4.821  12.290
10039SOL     OW31557   2.566   4.785  11.549
10039SOL    HW131558   2.555   4.767  11.642
10039SOL    HW231559   2.639   4.729  11.522
10040SOL     OW31560   2.280   4.515  12.472
10040SOL    HW131561   2.318   4.589  12.519
10040SOL    HW231562   2.354   4.455  12.459
10041SOL     OW31563   3.122   4.093  12.435
10041SOL    HW131564   3.165   4.168  12.476
10041SOL    HW231565   3.037   4.127  12.406
10042SOL     OW31566   2.182   4.843  11.660
10042SOL    HW131567   2.197   4.921  11.606
10042SOL    HW231568   2.186   4.770  11.599
10043SOL     OW31569   2.406   4.248  12.024
10043SOL    HW131570   2.423   4.308  11.951
10043SOL    HW231571   2.465   4.278  12.094
10044SOL     OW31572   3.105   5.074  11.569
10044SOL    HW131573   3.161   5.146  11.598
10044SOL    HW231574   3.018   5.097  11.601
10045SOL     OW31575   3.153   5.158  12.328
10045SOL    HW131576   3.170   5.133  12.418
10045SOL    HW231577   3.087   5.096  12.298
10046SOL     OW31578   3.450   4.353  11.645
10046SOL    HW131579   3.467   4.426  11.705
10046SOL    HW231580   3.500   4.375  11.566
10047SOL     OW31581   2.221   5.296  12.478
10047SOL    HW131582   2.201   5.249  12.396
10047SOL    HW231583   2.271   5.233  12.530
10048SOL     OW31584   2.437   4.614  12.216
10048SOL    HW131585   2.486   4.694  12.197
10048SOL    HW231586   2.388   4.634  12.296
10049SOL     OW31587   3.187   4.565  12.166
10049SOL    HW131588   3.095   4.541  12.152
10049SOL    HW231589   3.206   4.534  12.254
10050SOL     OW31590   3.024   4.267  11.422
10050SOL    HW131591   3.049   4.182  11.459
10050SOL    HW231592   3.003   4.321  11.498
10051SOL     OW31593   2.160   3.915  12.411
10051SOL    HW131594   2.131   3.949  12.495
10051SOL    HW231595   2.143   3.821  12.415
10052SOL     OW31596   1.924   5.060  12.434
10052SOL    HW131597   1.977   4.990  12.471
10052SOL    HW231598   1.929   5.130  12.499
10053SOL     OW31599   2.564   4.357  12.218
10053SOL    HW131600   2.651   4.352  12.179
10053SOL    HW231601   2.541   4.450  12.215
10054SOL     OW31602   2.174   3.786  11.793
10054SOL    HW131603   2.147   3.876  11.814
10054SOL    HW231604   2.181   3.743  11.879
10055SOL     OW31605   3.472   4.099  11.537
10055SOL    HW131606   3.507   4.034  11.598
10055SOL    HW231607   3.455   4.176  11.591
10056SOL     OW31608   2.905   4.479  12.145
10056SOL    HW131609   2.891   4.492  12.239
10056SOL    HW231610   2.873   4.391  12.128
10057SOL     OW31611   3.378   3.994  11.302
10057SOL    HW131612   3.317   3.927  11.333
10057SOL    HW231613   3.417   4.031  11.381
10058SOL     OW31614   3.150   4.526  11.193
10058SOL    HW131615   3.213   4.455  11.204
10058SOL    HW231616   3.180   4.572  11.115
10059SOL     OW31617   2.921   5.078  11.996
10059SOL    HW131618   2.939   5.000  11.943
10059SOL    HW231619   2.990   5.140  11.973
10060SOL     OW31620   2.182   4.541  12.109
10060SOL    HW131621   2.272   4.565  12.130
10060SOL    HW231622   2.173   4.451  12.140
10061SOL     OW31623   2.171   4.265  12.162
10061SOL    HW131624   2.145   4.173  12.167
10061SOL    HW231625   2.254   4.264  12.114
10062SOL     OW31626   3.040   3.941   0.149
10062SOL    HW131627   3.025   4.006   0.218
10062SOL    HW231628   3.064   3.992   0.072
10063SOL     OW31629   1.866   5.046  11.361
10063SOL    HW131630   1.778   5.061  11.326
10063SOL    HW231631   1.864   4.957  11.394
10064SOL     OW31632   1.952   5.509  12.099
10064SOL    HW131633   1.926   5.427  12.057
10064SOL    HW231634   2.045   5.519  12.077
10065SOL     OW31635   2.369   5.306  12.076
10065SOL    HW131636   2.438   5.368  12.099
10065SOL    HW231637   2.414   5.237  12.028
10066SOL     OW31638   2.847   4.507  12.415
10066SOL    HW131639   2.914   4.564  12.453
10066SOL    HW231640   2.764   4.554  12.431
10067SOL     OW31641   1.918   4.276  12.288
10067SOL    HW131642   1.991   4.286  12.227
10067SOL    HW231643   1.960   4.274  12.374
10068SOL     OW31644   2.694   4.308  11.509
10068SOL    HW131645   2.682   4.221  11.471
10068SOL    HW231646   2.612   4.354  11.490
10069SOL     OW31647   3.510   4.326  12.326
10069SOL    HW131648   3.508   4.276  12.407
10069SOL    HW231649   3.600   4.317  12.295
10070SOL     OW31650   2.572   4.155  12.405
10070SOL    HW131651   2.503   4.096  12.375
10070SOL    HW231652   2.562   4.234  12.351
10071SOL     OW31653   2.749   5.393   0.027
10071SOL    HW131654   2.745   5.454  -0.047
10071SOL    HW231655   2.787   5.444   0.098
10072SOL     OW31656   2.318   4.217  11.350
10072SOL    HW131657   2.376   4.288  11.376
10072SOL    HW231658   2.232   4.257  11.343
10073SOL     OW31659   3.215   4.799  12.325
10073SOL    HW131660   3.180   4.726  12.274
10073SOL    HW231661   3.156   4.806  12.400
10074SOL     OW31662   3.177   4.572  11.487
10074SOL    HW131663   3.093   4.555  11.531
10074SOL    HW231664   3.155   4.577  11.394
10075SOL     OW31665   3.597   5.478  12.284
10075SOL    HW131666   3.679   5.480  12.234
10075SOL    HW231667   3.578   5.385  12.295
10076SOL     OW31668   3.187   5.440  12.317
10076SOL    HW131669   3.238   5.464  12.240
10076SOL    HW231670   3.164   5.348  12.302
10077SOL     OW31671   1.911   4.972  12.178
10077SOL    HW131672   1.933   5.018  12.258
10077SOL    HW231673   1.837   4.916  12.201
10078SOL     OW31674   3.579   3.879  11.670
10078SOL    HW131675   3.651   3.865  11.609
10078SOL    HW231676   3.567   3.795  11.713
10079SOL     OW31677   3.253   5.290  11.659
10079SOL    HW131678   3.313   5.329  11.596
10079SOL    HW231679   3.203   5.364  11.693
10080SOL     OW31680   3.197   4.621  11.820
10080SOL    HW131681   3.237   4.574  11.747
10080SOL    HW231682   3.203   4.713  11.795
10081SOL     OW31683   2.530   5.353  11.324
10081SOL    HW131684   2.547   5.367  11.231
10081SOL    HW231685   2.476   5.275  11.328
10082SOL     OW31686   3.572   5.582   0.037
10082SOL    HW131687   3.578   5.534  -0.046
10082SOL    HW231688   3.497   5.542   0.081
10083SOL     OW31689   3.702   3.892  12.141
10083SOL    HW131690   3.733   3.805  12.114
10083SOL    HW231691   3.615   3.899  12.102
10084SOL     OW31692   2.114   4.036  11.882
10084SOL    HW131693   2.025   4.066  11.865
10084SOL    HW231694   2.121   4.033  11.978
10085SOL     OW31695   3.064   5.323  11.210
10085SOL    HW131696   3.055   5.230  11.228
10085SOL    HW231697   3.004   5.340  11.138
10086SOL     OW31698   2.695   4.731  12.481
10086SOL    HW131699   2.785   4.752  12.509
10086SOL    HW231700   2.646   4.812  12.495
10087SOL     OW31701   2.767   4.628  11.456
10087SOL    HW131702   2.832   4.672  11.402
10087SOL    HW231703   2.818   4.580  11.521
10088SOL     OW31704   3.338   5.379  11.231
10088SOL    HW131705   3.247   5.356  11.215
10088SOL    HW231706   3.378   5.383  11.144
10089SOL     OW31707   2.934   4.827  11.881
10089SOL    HW131708   2.860   4.790  11.928
10089SOL    HW231709   2.976   4.752  11.839
10090SOL     OW31710   2.902   3.976  12.111
10090SOL    HW131711   2.897   3.902  12.051
10090SOL    HW231712   2.878   3.940  12.196
10091SOL     OW31713   2.448   5.202  11.641
10091SOL    HW131714   2.504   5.159  11.577
10091SOL    HW231715   2.392   5.259  11.588
10092SOL     OW31716   3.616   4.159   0.031
10092SOL    HW131717   3.698   4.162   0.080
10092SOL    HW231718   3.610   4.069  -0.001
10093SOL     OW31719   2.120   5.070  11.460
10093SOL    HW131720   2.027   5.069  11.437
10093SOL    HW231721   2.122   5.109  11.547
10094SOL     OW31722   1.942   4.052  11.201
10094SOL    HW131723   1.858   4.031  11.160
10094SOL    HW231724   1.973   4.129  11.153
10095SOL     OW31725   1.923   3.878  11.468
10095SOL    HW131726   1.910   3.955  11.412
10095SOL    HW231727   2.008   3.843  11.442
10096SOL     OW31728   3.044   5.049  11.298
10096SOL    HW131729   2.948   5.040  11.298
10096SOL    HW231730   3.067   5.058  11.390
10097SOL     OW31731   3.369   5.507  12.124
10097SOL    HW131732   3.388   5.580  12.066
10097SOL    HW231733   3.449   5.496  12.176
10098SOL     OW31734   3.569   4.593  12.404
10098SOL    HW131735   3.525   4.513  12.373
10098SOL    HW231736   3.526   4.664  12.355
10099SOL     OW31737   3.078   4.050  11.619
10099SOL    HW131738   3.139   3.976  11.619
10099SOL    HW231739   3.103   4.102  11.695
10100SOL     OW31740   2.463   4.446  11.834
10100SOL    HW131741   2.496   4.535  11.834
10100SOL    HW231742   2.392   4.447  11.769
10101SOL     OW31743   3.668   4.601   0.152
10101SOL    HW131744   3.656   4.692   0.179
10101SOL    HW231745   3.631   4.596   0.064
10102SOL     OW31746   2.729   5.081  11.217
10102SOL    HW131747   2.692   5.116  11.298
10102SOL    HW231748   2.748   5.158  11.164
10103SOL     OW31749   2.534   5.525  12.113
10103SOL    HW131750   2.506   5.612  12.084
10103SOL    HW231751   2.608   5.542  12.172
10104SOL     OW31752   2.737   4.700  12.028
10104SOL    HW131753   2.783   4.633  12.079
10104SOL    HW231754   2.692   4.754  12.093
10105SOL     OW31755   2.948   4.695  11.266
10105SOL    HW131756   2.903   4.754  11.204
10105SOL    HW231757   3.038   4.692  11.234
10106SOL     OW31758   3.709   5.271  12.027
10106SOL    HW131759   3.627   5.255  11.982
10106SOL    HW231760   3.726   5.190  12.076
10107SOL     OW31761   1.957   4.926  11.837
10107SOL    HW131762   1.997   4.898  11.920
10107SOL    HW231763   2.025   4.910  11.772
10108SOL     OW31764   3.670   3.905  12.414
10108SOL    HW131765   3.679   3.810  12.416
10108SOL    HW231766   3.680   3.929  12.322
10109SOL     OW31767   2.284   4.155  11.692
10109SOL    HW131768   2.317   4.083  11.639
10109SOL    HW231769   2.236   4.112  11.763
10110SOL     OW31770   3.525   5.225  12.312
10110SOL    HW131771   3.476   5.181  12.243
10110SOL    HW231772   3.583   5.157  12.348
10111SOL     OW31773   2.693   5.288  11.833
10111SOL    HW131774   2.660   5.365  11.788
10111SOL    HW231775   2.615   5.234  11.848
10112SOL     OW31776   3.308   3.957  12.297
10112SOL    HW131777   3.376   3.934  12.361
10112SOL    HW231778   3.240   4.000  12.349
10113SOL     OW31779   2.859   3.698  12.317
10113SOL    HW131780   2.825   3.660  12.237
10113SOL    HW231781   2.954   3.683  12.312
10114SOL     OW31782   2.635   5.058  11.492
10114SOL    HW131783   2.613   4.967  11.510
10114SOL    HW231784   2.713   5.075  11.546
10115SOL     OW31785   3.208   3.781  11.351
10115SOL    HW131786   3.227   3.729  11.273
10115SOL    HW231787   3.123   3.748  11.381
10116SOL     OW31788   3.151   4.190  11.843
10116SOL    HW131789   3.100   4.270  11.855
10116SOL    HW231790   3.156   4.152  11.930
10117SOL     OW31791   3.441   3.908  12.057
10117SOL    HW131792   3.390   3.936  12.132
10117SOL    HW231793   3.442   3.984  11.998
10118SOL     OW31794   1.905   4.800  11.479
10118SOL    HW131795   1.995   4.784  11.449
10118SOL    HW231796   1.891   4.734  11.547
10119SOL     OW31797   2.755   5.386  11.503
10119SOL    HW131798   2.679   5.374  11.446
10119SOL    HW231799   2.728   5.456  11.563
10120SOL     OW31800   2.106   6.166   0.051
10120SOL    HW131801   2.076   6.227   0.119
10120SOL    HW231802   2.075   6.203  -0.031
10121SOL     OW31803   2.023   5.867   1.037
10121SOL    HW131804   2.081   5.841   1.108
10121SOL    HW231805   2.063   5.829   0.958
10122SOL     OW31806   1.883   5.971   0.625
10122SOL    HW131807   1.789   5.957   0.625
10122SOL    HW231808   1.920   5.886   0.600
10123SOL     OW31809   2.427   6.878   1.185
10123SOL    HW131810   2.344   6.889   1.140
10123SOL    HW231811   2.448   6.965   1.219
10124SOL     OW31812   3.437   7.105   0.711
10124SOL    HW131813   3.392   7.079   0.791
10124SOL    HW231814   3.369   7.105   0.644
10125SOL     OW31815   2.999   6.277   0.701
10125SOL    HW131816   3.046   6.357   0.679
10125SOL    HW231817   2.948   6.299   0.779
10126SOL     OW31818   3.586   6.197   0.276
10126SOL    HW131819   3.595   6.212   0.182
10126SOL    HW231820   3.569   6.103   0.284
10127SOL     OW31821   2.599   6.717   1.045
10127SOL    HW131822   2.536   6.757   1.105
10127SOL    HW231823   2.643   6.791   1.004
10128SOL     OW31824   2.738   6.341   1.829
10128SOL    HW131825   2.725   6.405   1.899
10128SOL    HW231826   2.760   6.394   1.752
10129SOL     OW31827   2.548   6.582   0.643
10129SOL    HW131828   2.615   6.575   0.711
10129SOL    HW231829   2.480   6.638   0.681
10130SOL     OW31830   2.572   6.740   1.814
10130SOL    HW131831   2.603   6.824   1.848
10130SOL    HW231832   2.486   6.760   1.777
10131SOL     OW31833   2.194   7.003   1.061
10131SOL    HW131834   2.124   6.966   1.006
10131SOL    HW231835   2.246   7.056   1.001
10132SOL     OW31836   3.288   7.113   1.365
10132SOL    HW131837   3.352   7.183   1.375
10132SOL    HW231838   3.340   7.034   1.356
10133SOL     OW31839   2.314   5.979   1.469
10133SOL    HW131840   2.392   5.924   1.481
10133SOL    HW231841   2.241   5.925   1.499
10134SOL     OW31842   3.463   6.046   0.744
10134SOL    HW131843   3.454   6.090   0.660
10134SOL    HW231844   3.477   6.117   0.807
10135SOL     OW31845   2.073   7.299   0.474
10135SOL    HW131846   2.098   7.374   0.528
10135SOL    HW231847   2.148   7.286   0.416
10136SOL     OW31848   2.979   6.935   1.709
10136SOL    HW131849   3.035   6.919   1.785
10136SOL    HW231850   2.933   6.852   1.696
10137SOL     OW31851   2.111   7.034   0.550
10137SOL    HW131852   2.077   7.123   0.541
10137SOL    HW231853   2.042   6.987   0.596
10138SOL     OW31854   2.124   6.670   0.891
10138SOL    HW131855   2.140   6.578   0.909
10138SOL    HW231856   2.067   6.698   0.963
10139SOL     OW31857   2.455   6.552   0.139
10139SOL    HW131858   2.522   6.578   0.075
10139SOL    HW231859   2.481   6.595   0.220
10140SOL     OW31860   3.445   5.722   1.459
10140SOL    HW131861   3.492   5.794   1.417
10140SOL    HW231862   3.435   5.751   1.550
10141SOL     OW31863   1.988   6.241   0.553
10141SOL    HW131864   1.963   6.151   0.573
10141SOL    HW231865   1.976   6.288   0.635
10142SOL     OW31866   3.708   7.331   0.313
10142SOL    HW131867   3.774   7.303   0.377
10142SOL    HW231868   3.727   7.424   0.299
10143SOL     OW31869   1.880   7.154   0.099
10143SOL    HW131870   1.805   7.095   0.106
10143SOL    HW231871   1.879   7.204   0.181
10144SOL     OW31872   3.534   6.511   0.647
10144SOL    HW131873   3.609   6.467   0.607
10144SOL    HW231874   3.506   6.574   0.580
10145SOL     OW31875   3.507   6.697   0.434
10145SOL    HW131876   3.592   6.698   0.390
10145SOL    HW231877   3.516   6.761   0.505
10146SOL     OW31878   2.008   6.340   1.582
10146SOL    HW131879   2.103   6.346   1.584
10146SOL    HW231880   1.977   6.425   1.614
10147SOL     OW31881   2.475   6.979   0.735
10147SOL    HW131882   2.433   6.894   0.743
10147SOL    HW231883   2.462   7.004   0.643
10148SOL     OW31884   3.140   6.826   1.427
10148SOL    HW131885   3.191   6.781   1.359
10148SOL    HW231886   3.198   6.825   1.503
10149SOL     OW31887   2.677   5.601   0.530
10149SOL    HW131888   2.713   5.684   0.497
10149SOL    HW231889   2.583   5.616   0.535
10150SOL     OW31890   2.049   6.547   1.259
10150SOL    HW131891   2.138   6.512   1.260
10150SOL    HW231892   1.999   6.484   1.208
10151SOL     OW31893   3.359   6.593   0.227
10151SOL    HW131894   3.297   6.531   0.266
10151SOL    HW231895   3.413   6.622   0.300
10152SOL     OW31896   2.997   7.380   1.599
10152SOL    HW131897   3.037   7.449   1.546
10152SOL    HW231898   3.036   7.299   1.566
10153SOL     OW31899   2.211   5.843   1.804
10153SOL    HW131900   2.258   5.909   1.854
10153SOL    HW231901   2.122   5.845   1.840
10154SOL     OW31902   3.314   7.012   0.935
10154SOL    HW131903   3.259   7.024   1.012
10154SOL    HW231904   3.311   6.918   0.917
10155SOL     OW31905   3.514   7.348   0.581
10155SOL    HW131906   3.488   7.313   0.496
10155SOL    HW231907   3.502   7.275   0.642
10156SOL     OW31908   2.446   6.301   0.274
10156SOL    HW131909   2.459   6.387   0.235
10156SOL    HW231910   2.381   6.315   0.343
10157SOL     OW31911   3.446   7.250   0.323
10157SOL    HW131912   3.538   7.276   0.316
10157SOL    HW231913   3.430   7.194   0.247
10158SOL     OW31914   2.655   6.200   1.445
10158SOL    HW131915   2.629   6.176   1.534
10158SOL    HW231916   2.615   6.134   1.390
10159SOL     OW31917   3.255   6.054   1.678
10159SOL    HW131918   3.261   6.102   1.760
10159SOL    HW231919   3.313   5.979   1.690
10160SOL     OW31920   2.812   6.472   1.589
10160SOL    HW131921   2.871   6.407   1.551
10160SOL    HW231922   2.763   6.506   1.514
10161SOL     OW31923   2.850   5.996   1.226
10161SOL    HW131924   2.783   6.039   1.278
10161SOL    HW231925   2.802   5.932   1.172
10162SOL     OW31926   2.918   6.283   0.426
10162SOL    HW131927   2.932   6.275   0.520
10162SOL    HW231928   2.832   6.244   0.411
10163SOL     OW31929   1.952   6.389   0.784
10163SOL    HW131930   2.034   6.385   0.834
10163SOL    HW231931   1.915   6.475   0.804
10164SOL     OW31932   2.010   7.440   1.582
10164SOL    HW131933   2.013   7.419   1.675
10164SOL    HW231934   1.918   7.429   1.558
10165SOL     OW31935   2.741   5.949   0.213
10165SOL    HW131936   2.723   5.996   0.132
10165SOL    HW231937   2.745   5.857   0.187
10166SOL     OW31938   3.547   6.156   1.831
10166SOL    HW131939   3.526   6.233   1.778
10166SOL    HW231940   3.599   6.101   1.773
10167SOL     OW31941   3.244   6.724   0.539
10167SOL    HW131942   3.325   6.719   0.488
10167SOL    HW231943   3.189   6.786   0.491
10168SOL     OW31944   2.465   5.772   0.904
10168SOL    HW131945   2.439   5.804   0.991
10168SOL    HW231946   2.432   5.839   0.843
10169SOL     OW31947   2.859   7.025   0.472
10169SOL    HW131948   2.824   7.101   0.427
10169SOL    HW231949   2.839   7.039   0.564
10170SOL     OW31950   2.215   7.402   0.878
10170SOL    HW131951   2.264   7.319   0.881
10170SOL    HW231952   2.282   7.469   0.891
10171SOL     OW31953   3.668   6.627   0.866
10171SOL    HW131954   3.611   6.609   0.791
10171SOL    HW231955   3.608   6.635   0.940
10172SOL     OW31956   3.062   7.132   1.517
10172SOL    HW131957   3.052   7.048   1.562
10172SOL    HW231958   3.139   7.121   1.461
10173SOL     OW31959   2.220   6.542   0.281
10173SOL    HW131960   2.286   6.552   0.213
10173SOL    HW231961   2.156   6.481   0.244
10174SOL     OW31962   3.341   6.338   0.734
10174SOL    HW131963   3.340   6.317   0.827
10174SOL    HW231964   3.414   6.400   0.724
10175SOL     OW31965   2.335   6.855   1.731
10175SOL    HW131966   2.303   6.858   1.641
10175SOL    HW231967   2.257   6.851   1.785
10176SOL     OW31968   2.964   7.376   0.236
10176SOL    HW131969   2.916   7.332   0.306
10176SOL    HW231970   2.997   7.305   0.181
10177SOL     OW31971   2.063   5.856   1.509
10177SOL    HW131972   2.005   5.921   1.550
10177SOL    HW231973   2.050   5.777   1.561
10178SOL     OW31974   3.513   6.998   0.118
10178SOL    HW131975   3.450   7.055   0.073
10178SOL    HW231976   3.474   6.911   0.113
10179SOL     OW31977   2.308   7.318   0.328
10179SOL    HW131978   2.358   7.370   0.390
10179SOL    HW231979   2.374   7.274   0.274
10180SOL     OW31980   3.262   5.685   0.435
10180SOL    HW131981   3.255   5.656   0.344
10180SOL    HW231982   3.354   5.672   0.458
10181SOL     OW31983   2.105   7.368   1.227
10181SOL    HW131984   2.158   7.299   1.266
10181SOL    HW231985   2.116   7.356   1.133
10182SOL     OW31986   2.802   7.285   0.896
10182SOL    HW131987   2.884   7.240   0.915
10182SOL    HW231988   2.762   7.233   0.826
10183SOL     OW31989   2.257   6.279   0.478
10183SOL    HW131990   2.278   6.186   0.485
10183SOL    HW231991   2.165   6.285   0.505
10184SOL     OW31992   3.397   5.809   1.726
10184SOL    HW131993   3.403   5.840   1.817
10184SOL    HW231994   3.352   5.725   1.733
10185SOL     OW31995   2.488   5.678   0.130
10185SOL    HW131996   2.583   5.680   0.142
10185SOL    HW231997   2.474   5.624   0.052
10186SOL     OW31998   2.618   5.866   1.753
10186SOL    HW131999   2.701   5.818   1.748
10186SOL    HW232000   2.580   5.840   1.836
10187SOL     OW32001   2.735   7.105   1.192
10187SOL    HW132002   2.717   7.068   1.106
10187SOL    HW232003   2.806   7.051   1.228
10188SOL     OW32004   3.200   6.167   1.429
10188SOL    HW132005   3.231   6.135   1.514
10188SOL    HW232006   3.238   6.254   1.421
10189SOL     OW32007   2.674   6.972   0.948
10189SOL    HW132008   2.761   6.961   0.909
10189SOL    HW232009   2.614   6.979   0.873
10190SOL     OW32010   2.804   6.091   0.896
10190SOL    HW132011   2.778   6.089   0.804
10190SOL    HW232012   2.794   6.000   0.926
10191SOL     OW32013   2.404   5.646   0.515
10191SOL    HW132014   2.327   5.652   0.571
10191SOL    HW232015   2.395   5.720   0.455
10192SOL     OW32016   3.325   6.803   0.057
10192SOL    HW132017   3.338   6.721   0.105
10192SOL    HW232018   3.231   6.820   0.064
10193SOL     OW32019   2.166   5.670   0.205
10193SOL    HW132020   2.246   5.719   0.224
10193SOL    HW232021   2.191   5.578   0.219
10194SOL     OW32022   2.805   5.841   0.462
10194SOL    HW132023   2.776   5.878   0.379
10194SOL    HW232024   2.901   5.847   0.458
10195SOL     OW32025   2.946   6.274   1.456
10195SOL    HW132026   2.885   6.204   1.480
10195SOL    HW232027   3.032   6.231   1.455
10196SOL     OW32028   3.071   7.158   0.800
10196SOL    HW132029   3.095   7.224   0.735
10196SOL    HW232030   3.148   7.148   0.855
10197SOL     OW32031   2.335   6.742   0.729
10197SOL    HW132032   2.267   6.718   0.791
10197SOL    HW232033   2.295   6.732   0.643
10198SOL     OW32034   3.124   7.375   0.612
10198SOL    HW132035   3.175   7.438   0.561
10198SOL    HW232036   3.056   7.427   0.654
10199SOL     OW32037   2.897   6.194   0.067
10199SOL    HW132038   2.881   6.119   0.010
10199SOL    HW232039   2.952   6.160   0.137
10200SOL     OW32040   1.941   6.147   1.398
10200SOL    HW132041   2.031   6.136   1.368
10200SOL    HW232042   1.945   6.218   1.462
10201SOL     OW32043   2.413   5.821   1.173
10201SOL    HW132044   2.455   5.743   1.208
10201SOL    HW232045   2.322   5.815   1.203
10202SOL     OW32046   2.736   6.050   0.636
10202SOL    HW132047   2.690   6.105   0.573
10202SOL    HW232048   2.754   5.969   0.589
10203SOL     OW32049   2.874   5.640   0.738
10203SOL    HW132050   2.810   5.635   0.667
10203SOL    HW232051   2.856   5.562   0.791
10204SOL     OW32052   3.301   6.746   0.855
10204SOL    HW132053   3.233   6.680   0.865
10204SOL    HW232054   3.318   6.750   0.761
10205SOL     OW32055   3.335   6.197   0.990
10205SOL    HW132056   3.315   6.104   1.001
10205SOL    HW232057   3.400   6.215   1.058
10206SOL     OW32058   3.693   6.416   0.432
10206SOL    HW132059   3.742   6.346   0.475
10206SOL    HW232060   3.650   6.374   0.358
10207SOL     OW32061   2.348   6.984   0.138
10207SOL    HW132062   2.277   6.959   0.197
10207SOL    HW232063   2.365   6.905   0.087
10208SOL     OW32064   3.541   6.855   0.644
10208SOL    HW132065   3.635   6.851   0.660
10208SOL    HW232066   3.516   6.944   0.669
10209SOL     OW32067   3.257   6.134   0.080
10209SOL    HW132068   3.201   6.134   0.158
10209SOL    HW232069   3.313   6.058   0.091
10210SOL     OW32070   2.383   5.837   0.322
10210SOL    HW132071   2.433   5.789   0.256
10210SOL    HW232072   2.365   5.922   0.281
10211SOL     OW32073   3.616   6.819   1.614
10211SOL    HW132074   3.701   6.788   1.584
10211SOL    HW232075   3.622   6.914   1.608
10212SOL     OW32076   2.907   6.918   1.312
10212SOL    HW132077   2.834   6.893   1.368
10212SOL    HW232078   2.985   6.894   1.363
10213SOL     OW32079   3.471   7.221   1.656
10213SOL    HW132080   3.458   7.249   1.565
10213SOL    HW232081   3.552   7.169   1.653
10214SOL     OW32082   2.993   6.785   1.091
10214SOL    HW132083   2.946   6.828   1.162
10214SOL    HW232084   2.964   6.831   1.012
10215SOL     OW32085   3.488   6.666   1.065
10215SOL    HW132086   3.485   6.726   1.140
10215SOL    HW232087   3.414   6.692   1.010
10216SOL     OW32088   2.780   5.689   1.383
10216SOL    HW132089   2.805   5.660   1.295
10216SOL    HW232090   2.859   5.730   1.418
10217SOL     OW32091   2.834   6.703   1.725
10217SOL    HW132092   2.742   6.712   1.750
10217SOL    HW232093   2.837   6.625   1.670
10218SOL     OW32094   2.575   6.652   0.371
10218SOL    HW132095   2.556   6.628   0.462
10218SOL    HW232096   2.652   6.600   0.348
10219SOL     OW32097   2.283   6.406   1.257
10219SOL    HW132098   2.352   6.413   1.323
10219SOL    HW232099   2.249   6.317   1.267
10220SOL     OW32100   3.118   5.998   1.224
10220SOL    HW132101   3.155   6.057   1.290
10220SOL    HW232102   3.024   6.002   1.238
10221SOL     OW32103   1.943   7.154   1.353
10221SOL    HW132104   1.930   7.240   1.312
10221SOL    HW232105   2.037   7.140   1.351
10222SOL     OW32106   2.209   6.713   0.491
10222SOL    HW132107   2.195   6.786   0.432
10222SOL    HW232108   2.214   6.636   0.434
10223SOL     OW32109   2.414   6.118   0.858
10223SOL    HW132110   2.425   6.178   0.784
10223SOL    HW232111   2.480   6.146   0.922
10224SOL     OW32112   3.108   6.931   0.400
10224SOL    HW132113   3.163   7.002   0.433
10224SOL    HW232114   3.020   6.952   0.431
10225SOL     OW32115   3.144   7.052   1.144
10225SOL    HW132116   3.194   7.069   1.224
10225SOL    HW232117   3.097   6.970   1.163
10226SOL     OW32118   3.434   6.182   0.511
10226SOL    HW132119   3.388   6.257   0.549
10226SOL    HW232120   3.478   6.217   0.434
10227SOL     OW32121   2.208   7.114   1.305
10227SOL    HW132122   2.202   7.070   1.220
10227SOL    HW232123   2.303   7.126   1.318
10228SOL     OW32124   2.289   6.309   1.603
10228SOL    HW132125   2.348   6.359   1.546
10228SOL    HW232126   2.341   6.233   1.630
10229SOL     OW32127   3.482   6.382   1.690
10229SOL    HW132128   3.393   6.417   1.683
10229SOL    HW232129   3.531   6.424   1.620
10230SOL     OW32130   2.850   5.723   1.741
10230SOL    HW132131   2.912   5.796   1.733
10230SOL    HW232132   2.900   5.646   1.712
10231SOL     OW32133   2.366   5.620   1.746
10231SOL    HW132134   2.315   5.564   1.687
10231SOL    HW232135   2.311   5.697   1.758
10232SOL     OW32136   2.449   6.462   1.037
10232SOL    HW132137   2.489   6.549   1.040
10232SOL    HW232138   2.394   6.458   1.115
10233SOL     OW32139   3.201   6.444   0.999
10233SOL    HW132140   3.110   6.426   0.976
10233SOL    HW232141   3.241   6.358   1.010
10234SOL     OW32142   3.063   6.100   0.278
10234SOL    HW132143   3.080   6.032   0.344
10234SOL    HW232144   3.020   6.170   0.326
10235SOL     OW32145   2.155   5.778   1.259
10235SOL    HW132146   2.123   5.805   1.345
10235SOL    HW232147   2.139   5.684   1.256
10236SOL     OW32148   1.888   6.896   1.270
10236SOL    HW132149   1.924   6.836   1.335
10236SOL    HW232150   1.903   6.983   1.306
10237SOL     OW32151   2.583   6.218   1.049
10237SOL    HW132152   2.662   6.216   0.995
10237SOL    HW232153   2.549   6.307   1.037
10238SOL     OW32154   3.585   6.565   1.883
10238SOL    HW132155   3.570   6.509   1.806
10238SOL    HW232156   3.520   6.535   1.947
10239SOL     OW32157   3.483   5.947   0.371
10239SOL    HW132158   3.516   5.878   0.428
10239SOL    HW232159   3.455   6.016   0.430
10240SOL     OW32160   2.894   6.342   0.959
10240SOL    HW132161   2.880   6.359   1.052
10240SOL    HW232162   2.867   6.251   0.947
10241SOL     OW32163   2.825   7.159   1.711
10241SOL    HW132164   2.863   7.218   1.645
10241SOL    HW232165   2.871   7.076   1.698
10242SOL     OW32166   3.709   7.090   1.608
10242SOL    HW132167   3.729   7.117   1.519
10242SOL    HW232168   3.793   7.096   1.654
10243SOL     OW32169   2.201   6.528   1.766
10243SOL    HW132170   2.207   6.525   1.861
10243SOL    HW232171   2.256   6.456   1.736
10244SOL     OW32172   3.378   5.881   0.129
10244SOL    HW132173   3.333   5.796   0.132
10244SOL    HW232174   3.410   5.894   0.218
10245SOL     OW32175   3.151   6.400   0.059
10245SOL    HW132176   3.201   6.321   0.041
10245SOL    HW232177   3.183   6.464  -0.006
10246SOL     OW32178   2.923   6.927   0.857
10246SOL    HW132179   2.934   6.854   0.796
10246SOL    HW232180   2.981   6.995   0.825
10247SOL     OW32181   2.178   6.396   0.945
10247SOL    HW132182   2.272   6.413   0.943
10247SOL    HW232183   2.171   6.305   0.974
10248SOL     OW32184   2.191   6.112   1.008
10248SOL    HW132185   2.141   6.039   0.971
10248SOL    HW232186   2.270   6.117   0.954
10249SOL     OW32187   2.996   5.961   1.685
10249SOL    HW132188   2.951   6.012   1.752
10249SOL    HW232189   3.086   5.995   1.686
10250SOL     OW32190   3.019   5.800   1.463
10250SOL    HW132191   3.007   5.855   1.540
10250SOL    HW232192   3.080   5.850   1.408
10251SOL     OW32193   1.948   7.366   0.942
10251SOL    HW132194   1.924   7.282   0.902
10251SOL    HW232195   2.038   7.382   0.912
10252SOL     OW32196   2.356   7.162   0.907
10252SOL    HW132197   2.426   7.223   0.929
10252SOL    HW232198   2.397   7.100   0.846
10253SOL     OW32199   2.830   6.364   1.222
10253SOL    HW132200   2.893   6.351   1.293
10253SOL    HW232201   2.747   6.332   1.257
10254SOL     OW32202   1.895   6.145   1.111
10254SOL    HW132203   1.955   6.097   1.054
10254SOL    HW232204   1.939   6.148   1.195
10255SOL     OW32205   2.041   6.110   1.727
10255SOL    HW132206   2.127   6.086   1.694
10255SOL    HW232207   2.018   6.190   1.680
10256SOL     OW32208   3.244   6.518   1.652
10256SOL    HW132209   3.263   6.612   1.647
10256SOL    HW232210   3.242   6.490   1.560
10257SOL     OW32211   2.675   6.166   0.378
10257SOL    HW132212   2.686   6.091   0.320
10257SOL    HW232213   2.598   6.211   0.344
10258SOL     OW32214   3.518   6.197   1.185
10258SOL    HW132215   3.512   6.142   1.263
10258SOL    HW232216   3.604   6.178   1.149
10259SOL     OW32217   2.100   7.132   1.718
10259SOL    HW132218   2.084   7.195   1.788
10259SOL    HW232219   2.111   7.049   1.762
10260SOL     OW32220   2.567   6.036   1.251
10260SOL    HW132221   2.508   5.964   1.227
10260SOL    HW232222   2.561   6.097   1.178
10261SOL     OW32223   2.690   7.297   1.442
10261SOL    HW132224   2.734   7.233   1.386
10261SOL    HW232225   2.748   7.374   1.439
10262SOL     OW32226   2.325   6.064   0.192
10262SOL    HW132227   2.372   6.144   0.214
10262SOL    HW232228   2.251   6.094   0.140
10263SOL     OW32229   1.998   6.726   1.457
10263SOL    HW132230   2.001   6.679   1.540
10263SOL    HW232231   2.021   6.660   1.392
10264SOL     OW32232   3.167   6.611   1.215
10264SOL    HW132233   3.197   6.560   1.140
10264SOL    HW232234   3.105   6.674   1.178
10265SOL     OW32235   3.165   6.420   0.330
10265SOL    HW132236   3.083   6.391   0.370
10265SOL    HW232237   3.153   6.405   0.236
10266SOL     OW32238   3.644   7.324   1.156
10266SOL    HW132239   3.705   7.347   1.085
10266SOL    HW232240   3.614   7.236   1.134
10267SOL     OW32241   3.101   7.323   1.102
10267SOL    HW132242   3.186   7.347   1.066
10267SOL    HW232243   3.108   7.230   1.123
10268SOL     OW32244   1.908   6.887   0.997
10268SOL    HW132245   1.910   6.871   1.092
10268SOL    HW232246   1.878   6.804   0.960
10269SOL     OW32247   2.572   7.262   1.730
10269SOL    HW132248   2.550   7.268   1.823
10269SOL    HW232249   2.663   7.232   1.729
10270SOL     OW32250   2.761   5.684   0.149
10270SOL    HW132251   2.765   5.680   0.054
10270SOL    HW232252   2.849   5.660   0.178
10271SOL     OW32253   3.594   5.742   0.515
10271SOL    HW132254   3.661   5.717   0.451
10271SOL    HW232255   3.567   5.659   0.554
10272SOL     OW32256   3.252   7.152   0.499
10272SOL    HW132257   3.313   7.187   0.433
10272SOL    HW232258   3.204   7.228   0.530
10273SOL     OW32259   2.011   7.380   1.845
10273SOL    HW132260   1.957   7.316   1.891
10273SOL    HW232261   2.057   7.428   1.914
10274SOL     OW32262   3.135   6.510   0.664
10274SOL    HW132263   3.210   6.455   0.684
10274SOL    HW232264   3.170   6.581   0.611
10275SOL     OW32265   2.660   6.855   1.420
10275SOL    HW132266   2.631   6.903   1.497
10275SOL    HW232267   2.587   6.861   1.359
10276SOL     OW32268   2.510   7.200   0.187
10276SOL    HW132269   2.578   7.204   0.119
10276SOL    HW232270   2.462   7.120   0.167
10277SOL     OW32271   3.474   7.316   1.388
10277SOL    HW132272   3.535   7.312   1.315
10277SOL    HW232273   3.461   7.409   1.404
10278SOL     OW32274   3.706   5.755   0.958
10278SOL    HW132275   3.736   5.666   0.940
10278SOL    HW232276   3.621   5.761   0.914
10279SOL     OW32277   2.127   5.961   0.761
10279SOL    HW132278   2.045   5.988   0.719
10279SOL    HW232279   2.138   5.870   0.735
10280SOL     OW32280   3.052   7.195   0.063
10280SOL    HW132281   3.052   7.102   0.085
10280SOL    HW232282   3.043   7.197  -0.032
10281SOL     OW32283   2.689   6.587   1.372
10281SOL    HW132284   2.741   6.580   1.292
10281SOL    HW232285   2.687   6.681   1.391
10282SOL     OW32286   2.791   6.511   0.297
10282SOL    HW132287   2.849   6.538   0.226
10282SOL    HW232288   2.833   6.433   0.333
10283SOL     OW32289   3.324   7.166   0.032
10283SOL    HW132290   3.233   7.193   0.042
10283SOL    HW232291   3.372   7.247   0.015
10284SOL     OW32292   2.221   6.891   1.491
10284SOL    HW132293   2.211   6.965   1.431
10284SOL    HW232294   2.145   6.835   1.473
10285SOL     OW32295   2.926   6.698   0.712
10285SOL    HW132296   2.854   6.647   0.748
10285SOL    HW232297   2.990   6.632   0.685
10286SOL     OW32298   2.886   5.810   0.959
10286SOL    HW132299   2.871   5.767   0.875
10286SOL    HW232300   2.870   5.742   1.025
10287SOL     OW32301   2.471   7.069   0.478
10287SOL    HW132302   2.518   7.018   0.412
10287SOL    HW232303   2.386   7.088   0.438
10288SOL     OW32304   3.586   5.983   1.375
10288SOL    HW132305   3.662   6.041   1.380
10288SOL    HW232306   3.615   5.912   1.317
10289SOL     OW32307   2.147   6.919   0.307
10289SOL    HW132308   2.063   6.879   0.285
10289SOL    HW232309   2.130   6.967   0.388
10290SOL     OW32310   1.954   6.601   1.694
10290SOL    HW132311   1.891   6.589   1.765
10290SOL    HW232312   2.039   6.583   1.735
10291SOL     OW32313   2.536   5.773   1.497
10291SOL    HW132314   2.622   5.757   1.459
10291SOL    HW232315   2.555   5.805   1.586
10292SOL     OW32316   3.284   6.436   1.392
10292SOL    HW132317   3.233   6.499   1.341
10292SOL    HW232318   3.374   6.448   1.363
10293SOL     OW32319   1.923   5.740   0.315
10293SOL    HW132320   1.924   5.834   0.299
10293SOL    HW232321   2.009   5.709   0.286
10294SOL     OW32322   3.052   6.929   0.123
10294SOL    HW132323   2.959   6.908   0.113
10294SOL    HW232324   3.071   6.913   0.216
10295SOL     OW32325   2.485   6.414   1.435
10295SOL    HW132326   2.542   6.489   1.421
10295SOL    HW232327   2.545   6.340   1.444
10296SOL     OW32328   3.350   7.379   0.996
10296SOL    HW132329   3.382   7.434   0.925
10296SOL    HW232330   3.429   7.337   1.031
10297SOL     OW32331   2.575   6.147   1.697
10297SOL    HW132332   2.621   6.204   1.758
10297SOL    HW232333   2.590   6.059   1.731
10298SOL     OW32334   3.325   6.782   1.636
10298SOL    HW132335   3.330   6.796   1.730
10298SOL    HW232336   3.414   6.801   1.604
10299SOL     OW32337   2.260   7.311   1.549
10299SOL    HW132338   2.178   7.359   1.539
10299SOL    HW232339   2.234   7.228   1.590
10300SOL     OW32340   3.528   6.468   1.262
10300SOL    HW132341   3.530   6.383   1.219
10300SOL    HW232342   3.519   6.531   1.191
10301SOL     OW32343   3.088   5.900   0.466
10301SOL    HW132344   3.145   5.826   0.446
10301SOL    HW232345   3.105   5.920   0.559
10302SOL     OW32346   2.446   6.323   0.675
10302SOL    HW132347   2.487   6.407   0.658
10302SOL    HW232348   2.382   6.311   0.605
10303SOL     OW32349   3.627   5.948   1.648
10303SOL    HW132350   3.603   5.967   1.557
10303SOL    HW232351   3.555   5.894   1.681
10304SOL     OW32352   3.612   6.537   1.514
10304SOL    HW132353   3.598   6.631   1.526
10304SOL    HW232354   3.592   6.521   1.422
10305SOL     OW32355   2.774   6.954   0.061
10305SOL    HW132356   2.710   6.932   0.129
10305SOL    HW232357   2.755   7.045   0.038
10306SOL     OW32358   2.527   7.372   0.940
10306SOL    HW132359   2.512   7.463   0.917
10306SOL    HW232360   2.621   7.360   0.933
10307SOL     OW32361   2.733   6.556   0.853
10307SOL    HW132362   2.785   6.486   0.891
10307SOL    HW232363   2.692   6.599   0.928
10308SOL     OW32364   2.953   6.590   0.087
10308SOL    HW132365   2.986   6.644   0.016
10308SOL    HW232366   3.016   6.519   0.095
10309SOL     OW32367   3.710   7.135   0.838
10309SOL    HW132368   3.627   7.122   0.794
10309SOL    HW232369   3.709   7.072   0.910
10310SOL     OW32370   2.095   6.890   1.859
10310SOL    HW132371   2.024   6.826   1.859
10310SOL    HW232372   2.105   6.915   1.951
10311SOL     OW32373   1.934   6.834   0.654
10311SOL    HW132374   1.986   6.779   0.713
10311SOL    HW232375   1.950   6.797   0.567
10312SOL     OW32376   2.521   7.018   1.593
10312SOL    HW132377   2.462   6.963   1.645
10312SOL    HW232378   2.546   7.089   1.652
10313SOL     OW32379   3.657   5.771   1.227
10313SOL    HW132380   3.683   5.683   1.252
10313SOL    HW232381   3.676   5.777   1.134
10314SOL     OW32382   2.293   6.021   0.527
10314SOL    HW132383   2.321   5.944   0.478
10314SOL    HW232384   2.260   5.987   0.609
10315SOL     OW32385   3.547   7.083   1.083
10315SOL    HW132386   3.471   7.061   1.029
10315SOL    HW232387   3.542   7.021   1.156
10316SOL     OW32388   2.189   6.145   1.287
10316SOL    HW132389   2.245   6.089   1.342
10316SOL    HW232390   2.207   6.117   1.198
10317SOL     OW32391   2.691   7.165   0.678
10317SOL    HW132392   2.668   7.231   0.612
10317SOL    HW232393   2.618   7.103   0.677
10318SOL     OW32394   3.273   5.823   1.072
10318SOL    HW132395   3.302   5.733   1.091
10318SOL    HW232396   3.260   5.862   1.159
10319SOL     OW32397   2.867   5.593   1.128
10319SOL    HW132398   2.819   5.530   1.074
10319SOL    HW232399   2.955   5.556   1.136
10320SOL     OW32400   2.641   6.914   0.313
10320SOL    HW132401   2.611   6.824   0.326
10320SOL    HW232402   2.721   6.920   0.365
10321SOL     OW32403   2.483   7.122   1.306
10321SOL    HW132404   2.513   7.111   1.396
10321SOL    HW232405   2.563   7.138   1.256
10322SOL     OW32406   3.238   5.631   0.161
10322SOL    HW132407   3.231   5.555   0.103
10322SOL    HW232408   3.149   5.665   0.168
10323SOL     OW32409   3.139   6.043   0.778
10323SOL    HW132410   3.081   6.112   0.743
10323SOL    HW232411   3.225   6.065   0.743
10324SOL     OW32412   3.454   5.794   0.861
10324SOL    HW132413   3.394   5.811   0.934
10324SOL    HW232414   3.453   5.875   0.810
10325SOL     OW32415   2.741   7.244   0.353
10325SOL    HW132416   2.658   7.217   0.314
10325SOL    HW232417   2.718   7.315   0.413
10326SOL     OW32418   2.078   6.208   1.994
10326SOL    HW132419   1.994   6.202   2.040
10326SOL    HW232420   2.058   6.182   1.904
10327SOL     OW32421   2.091   5.865   2.852
10327SOL    HW132422   2.116   5.836   2.939
10327SOL    HW232423   2.001   5.832   2.840
10328SOL     OW32424   1.854   5.986   2.498
10328SOL    HW132425   1.775   6.011   2.546
10328SOL    HW232426   1.835   5.898   2.465
10329SOL     OW32427   2.437   6.876   3.052
10329SOL    HW132428   2.352   6.847   3.085
10329SOL    HW232429   2.441   6.969   3.073
10330SOL     OW32430   3.420   7.093   2.572
10330SOL    HW132431   3.392   7.130   2.656
10330SOL    HW232432   3.346   7.107   2.513
10331SOL     OW32433   2.990   6.284   2.552
10331SOL    HW132434   3.038   6.367   2.545
10331SOL    HW232435   2.944   6.290   2.636
10332SOL     OW32436   3.629   6.191   2.089
10332SOL    HW132437   3.605   6.179   1.997
10332SOL    HW232438   3.603   6.110   2.132
10333SOL     OW32439   2.609   6.724   2.900
10333SOL    HW132440   2.543   6.760   2.960
10333SOL    HW232441   2.654   6.800   2.864
10334SOL     OW32442   2.739   6.343   3.692
10334SOL    HW132443   2.740   6.406   3.764
10334SOL    HW232444   2.763   6.395   3.615
10335SOL     OW32445   2.535   6.585   2.507
10335SOL    HW132446   2.600   6.581   2.577
10335SOL    HW232447   2.464   6.638   2.544
10336SOL     OW32448   2.575   6.732   3.673
10336SOL    HW132449   2.616   6.810   3.709
10336SOL    HW232450   2.491   6.762   3.640
10337SOL     OW32451   2.161   7.063   2.900
10337SOL    HW132452   2.108   6.991   2.866
10337SOL    HW232453   2.237   7.066   2.842
10338SOL     OW32454   3.324   7.089   3.221
10338SOL    HW132455   3.377   7.169   3.232
10338SOL    HW232456   3.255   7.098   3.287
10339SOL     OW32457   2.317   5.970   3.320
10339SOL    HW132458   2.394   5.917   3.343
10339SOL    HW232459   2.244   5.925   3.361
10340SOL     OW32460   3.459   6.029   2.610
10340SOL    HW132461   3.390   6.043   2.546
10340SOL    HW232462   3.440   6.091   2.680
10341SOL     OW32463   2.079   7.321   2.325
10341SOL    HW132464   2.113   7.386   2.386
10341SOL    HW232465   2.157   7.290   2.277
10342SOL     OW32466   2.993   6.933   3.547
10342SOL    HW132467   3.027   6.931   3.637
10342SOL    HW232468   2.943   6.852   3.538
10343SOL     OW32469   2.080   7.027   2.384
10343SOL    HW132470   2.061   7.112   2.425
10343SOL    HW232471   2.044   6.963   2.444
10344SOL     OW32472   2.059   6.660   2.769
10344SOL    HW132473   2.095   6.580   2.808
10344SOL    HW232474   2.133   6.698   2.721
10345SOL     OW32475   2.453   7.379   3.253
10345SOL    HW132476   2.382   7.356   3.313
10345SOL    HW232477   2.493   7.456   3.292
10346SOL     OW32478   2.454   6.563   2.019
10346SOL    HW132479   2.495   6.607   1.945
10346SOL    HW232480   2.494   6.603   2.097
10347SOL     OW32481   3.467   5.726   3.305
10347SOL    HW132482   3.423   5.806   3.278
10347SOL    HW232483   3.443   5.716   3.398
10348SOL     OW32484   1.972   6.248   2.422
10348SOL    HW132485   1.946   6.159   2.445
10348SOL    HW232486   1.968   6.297   2.504
10349SOL     OW32487   3.701   7.340   2.177
10349SOL    HW132488   3.744   7.319   2.260
10349SOL    HW232489   3.721   7.433   2.162
10350SOL     OW32490   1.888   7.179   1.976
10350SOL    HW132491   1.881   7.085   1.994
10350SOL    HW232492   1.872   7.221   2.060
10351SOL     OW32493   3.554   6.489   2.509
10351SOL    HW132494   3.642   6.456   2.527
10351SOL    HW232495   3.559   6.521   2.419
10352SOL     OW32496   3.551   6.715   2.270
10352SOL    HW132497   3.642   6.684   2.279
10352SOL    HW232498   3.537   6.769   2.347
10353SOL     OW32499   2.004   6.337   3.438
10353SOL    HW132500   2.098   6.349   3.453
10353SOL    HW232501   1.963   6.412   3.479
10354SOL     OW32502   2.485   7.004   2.587
10354SOL    HW132503   2.431   6.927   2.603
10354SOL    HW232504   2.475   7.022   2.493
10355SOL     OW32505   3.149   6.822   3.276
10355SOL    HW132506   3.184   6.753   3.221
10355SOL    HW232507   3.201   6.818   3.357
10356SOL     OW32508   2.681   5.589   2.379
10356SOL    HW132509   2.723   5.673   2.358
10356SOL    HW232510   2.588   5.610   2.384
10357SOL     OW32511   2.049   6.541   3.128
10357SOL    HW132512   2.138   6.508   3.119
10357SOL    HW232513   1.994   6.462   3.121
10358SOL     OW32514   3.396   6.591   2.083
10358SOL    HW132515   3.322   6.534   2.104
10358SOL    HW232516   3.433   6.615   2.168
10359SOL     OW32517   3.047   7.393   3.486
10359SOL    HW132518   3.057   7.454   3.413
10359SOL    HW232519   3.072   7.308   3.450
10360SOL     OW32520   2.206   5.851   3.662
10360SOL    HW132521   2.256   5.911   3.718
10360SOL    HW232522   2.122   5.842   3.705
10361SOL     OW32523   3.344   6.978   2.838
10361SOL    HW132524   3.268   7.008   2.888
10361SOL    HW232525   3.315   6.895   2.798
10362SOL     OW32526   3.541   7.328   2.440
10362SOL    HW132527   3.492   7.282   2.372
10362SOL    HW232528   3.499   7.301   2.522
10363SOL     OW32529   2.455   6.293   2.129
10363SOL    HW132530   2.467   6.381   2.092
10363SOL    HW232531   2.394   6.306   2.202
10364SOL     OW32532   3.141   5.953   2.794
10364SOL    HW132533   3.052   5.921   2.806
10364SOL    HW232534   3.194   5.900   2.853
10365SOL     OW32535   3.438   7.251   2.172
10365SOL    HW132536   3.526   7.290   2.173
10365SOL    HW232537   3.417   7.244   2.079
10366SOL     OW32538   2.653   6.207   3.305
10366SOL    HW132539   2.631   6.182   3.394
10366SOL    HW232540   2.621   6.135   3.251
10367SOL     OW32541   3.256   6.061   3.537
10367SOL    HW132542   3.258   6.111   3.619
10367SOL    HW232543   3.313   5.986   3.554
10368SOL     OW32544   2.817   6.470   3.449
10368SOL    HW132545   2.873   6.401   3.412
10368SOL    HW232546   2.764   6.500   3.375
10369SOL     OW32547   2.865   6.005   3.089
10369SOL    HW132548   2.784   6.027   3.134
10369SOL    HW232549   2.840   5.938   3.026
10370SOL     OW32550   2.913   6.287   2.284
10370SOL    HW132551   2.935   6.283   2.377
10370SOL    HW232552   2.831   6.238   2.277
10371SOL     OW32553   1.952   6.429   2.633
10371SOL    HW132554   2.026   6.392   2.681
10371SOL    HW232555   1.944   6.519   2.665
10372SOL     OW32556   1.949   7.427   3.430
10372SOL    HW132557   1.981   7.406   3.517
10372SOL    HW232558   1.858   7.454   3.444
10373SOL     OW32559   2.759   5.932   2.054
10373SOL    HW132560   2.800   5.995   1.994
10373SOL    HW232561   2.793   5.847   2.025
10374SOL     OW32562   3.666   6.203   3.617
10374SOL    HW132563   3.599   6.268   3.594
10374SOL    HW232564   3.617   6.130   3.653
10375SOL     OW32565   3.244   6.727   2.400
10375SOL    HW132566   3.333   6.758   2.381
10375SOL    HW232567   3.187   6.790   2.355
10376SOL     OW32568   2.412   5.750   2.773
10376SOL    HW132569   2.416   5.771   2.867
10376SOL    HW232570   2.413   5.835   2.730
10377SOL     OW32571   2.858   7.024   2.326
10377SOL    HW132572   2.832   7.105   2.283
10377SOL    HW232573   2.842   7.039   2.419
10378SOL     OW32574   3.657   6.637   2.731
10378SOL    HW132575   3.594   6.620   2.661
10378SOL    HW232576   3.604   6.650   2.809
10379SOL     OW32577   3.092   7.129   3.373
10379SOL    HW132578   3.079   7.060   3.438
10379SOL    HW232579   3.017   7.120   3.313
10380SOL     OW32580   2.179   6.509   2.036
10380SOL    HW132581   2.268   6.534   2.058
10380SOL    HW232582   2.167   6.423   2.075
10381SOL     OW32583   3.337   6.336   2.580
10381SOL    HW132584   3.336   6.293   2.665
10381SOL    HW232585   3.417   6.389   2.581
10382SOL     OW32586   2.338   6.853   3.597
10382SOL    HW132587   2.311   6.850   3.505
10382SOL    HW232588   2.256   6.849   3.646
10383SOL     OW32589   2.976   7.370   2.071
10383SOL    HW132590   2.909   7.332   2.127
10383SOL    HW232591   3.009   7.296   2.020
10384SOL     OW32592   2.059   5.860   3.371
10384SOL    HW132593   1.992   5.917   3.409
10384SOL    HW232594   2.067   5.787   3.431
10385SOL     OW32595   3.499   6.960   1.964
10385SOL    HW132596   3.469   7.051   1.959
10385SOL    HW232597   3.424   6.908   1.936
10386SOL     OW32598   2.328   7.320   2.181
10386SOL    HW132599   2.367   7.375   2.249
10386SOL    HW232600   2.401   7.295   2.125
10387SOL     OW32601   3.265   5.699   2.304
10387SOL    HW132602   3.266   5.669   2.213
10387SOL    HW232603   3.356   5.698   2.331
10388SOL     OW32604   2.157   7.363   3.092
10388SOL    HW132605   2.189   7.353   3.182
10388SOL    HW232606   2.132   7.274   3.066
10389SOL     OW32607   2.818   7.269   2.760
10389SOL    HW132608   2.903   7.231   2.783
10389SOL    HW232609   2.788   7.218   2.685
10390SOL     OW32610   2.246   6.286   2.323
10390SOL    HW132611   2.266   6.194   2.338
10390SOL    HW232612   2.155   6.295   2.351
10391SOL     OW32613   3.369   5.763   3.561
10391SOL    HW132614   3.413   5.817   3.626
10391SOL    HW232615   3.328   5.692   3.612
10392SOL     OW32616   2.506   5.706   1.964
10392SOL    HW132617   2.560   5.633   1.995
10392SOL    HW232618   2.456   5.670   1.891
10393SOL     OW32619   2.626   5.872   3.603
10393SOL    HW132620   2.710   5.826   3.592
10393SOL    HW232621   2.585   5.830   3.679
10394SOL     OW32622   2.733   7.107   3.060
10394SOL    HW132623   2.722   7.070   2.972
10394SOL    HW232624   2.803   7.055   3.100
10395SOL     OW32625   3.220   6.177   3.293
10395SOL    HW132626   3.241   6.141   3.378
10395SOL    HW232627   3.244   6.270   3.299
10396SOL     OW32628   2.677   6.985   2.807
10396SOL    HW132629   2.764   6.969   2.771
10396SOL    HW232630   2.619   6.978   2.731
10397SOL     OW32631   2.798   6.099   2.762
10397SOL    HW132632   2.771   6.082   2.671
10397SOL    HW232633   2.825   6.013   2.795
10398SOL     OW32634   2.413   5.648   2.356
10398SOL    HW132635   2.336   5.650   2.414
10398SOL    HW232636   2.403   5.726   2.301
10399SOL     OW32637   3.296   6.789   1.915
10399SOL    HW132638   3.311   6.708   1.964
10399SOL    HW232639   3.210   6.819   1.944
10400SOL     OW32640   2.161   5.637   2.051
10400SOL    HW132641   2.223   5.710   2.054
10400SOL    HW232642   2.206   5.565   2.093
10401SOL     OW32643   2.803   5.832   2.317
10401SOL    HW132644   2.781   5.876   2.235
10401SOL    HW232645   2.897   5.845   2.328
10402SOL     OW32646   2.949   6.266   3.318
10402SOL    HW132647   2.884   6.200   3.343
10402SOL    HW232648   3.033   6.220   3.324
10403SOL     OW32649   3.075   7.149   2.649
10403SOL    HW132650   3.079   7.206   2.573
10403SOL    HW232651   3.145   7.181   2.706
10404SOL     OW32652   3.134   7.383   2.459
10404SOL    HW132653   3.172   7.451   2.404
10404SOL    HW232654   3.165   7.403   2.548
10405SOL     OW32655   2.890   6.114   1.889
10405SOL    HW132656   2.847   6.198   1.875
10405SOL    HW232657   2.951   6.130   1.961
10406SOL     OW32658   1.940   6.156   3.242
10406SOL    HW132659   2.033   6.141   3.225
10406SOL    HW232660   1.939   6.216   3.316
10407SOL     OW32661   2.418   5.801   3.045
10407SOL    HW132662   2.462   5.752   3.114
10407SOL    HW232663   2.327   5.806   3.073
10408SOL     OW32664   2.727   6.038   2.503
10408SOL    HW132665   2.684   6.096   2.440
10408SOL    HW232666   2.750   5.960   2.453
10409SOL     OW32667   2.882   5.633   2.607
10409SOL    HW132668   2.816   5.627   2.538
10409SOL    HW232669   2.866   5.557   2.663
10410SOL     OW32670   3.292   6.729   2.726
10410SOL    HW132671   3.234   6.654   2.739
10410SOL    HW232672   3.295   6.741   2.631
10411SOL     OW32673   3.328   6.187   2.818
10411SOL    HW132674   3.265   6.116   2.829
10411SOL    HW232675   3.379   6.188   2.899
10412SOL     OW32676   3.698   6.407   2.239
10412SOL    HW132677   3.753   6.361   2.303
10412SOL    HW232678   3.671   6.339   2.177
10413SOL     OW32679   2.350   7.013   2.015
10413SOL    HW132680   2.269   6.992   2.061
10413SOL    HW232681   2.363   6.938   1.956
10414SOL     OW32682   3.531   6.857   2.491
10414SOL    HW132683   3.622   6.854   2.522
10414SOL    HW232684   3.496   6.937   2.529
10415SOL     OW32685   3.253   6.163   1.931
10415SOL    HW132686   3.197   6.136   2.003
10415SOL    HW232687   3.341   6.134   1.956
10416SOL     OW32688   2.376   5.844   2.165
10416SOL    HW132689   2.437   5.806   2.102
10416SOL    HW232690   2.353   5.930   2.130
10417SOL     OW32691   3.607   6.827   3.419
10417SOL    HW132692   3.687   6.781   3.445
10417SOL    HW232693   3.622   6.918   3.445
10418SOL     OW32694   2.917   6.932   3.186
10418SOL    HW132695   2.842   6.904   3.237
10418SOL    HW232696   2.993   6.896   3.232
10419SOL     OW32697   3.471   7.217   3.520
10419SOL    HW132698   3.464   7.248   3.430
10419SOL    HW232699   3.549   7.162   3.521
10420SOL     OW32700   2.984   6.779   2.962
10420SOL    HW132701   2.942   6.828   3.033
10420SOL    HW232702   2.964   6.829   2.883
10421SOL     OW32703   3.489   6.690   2.938
10421SOL    HW132704   3.486   6.752   3.011
10421SOL    HW232705   3.412   6.712   2.885
10422SOL     OW32706   2.780   5.697   3.245
10422SOL    HW132707   2.818   5.676   3.160
10422SOL    HW232708   2.854   5.723   3.299
10423SOL     OW32709   2.840   6.708   3.573
10423SOL    HW132710   2.751   6.717   3.607
10423SOL    HW232711   2.840   6.624   3.526
10424SOL     OW32712   2.584   6.654   2.241
10424SOL    HW132713   2.564   6.634   2.332
10424SOL    HW232714   2.654   6.593   2.218
10425SOL     OW32715   2.286   6.404   3.113
10425SOL    HW132716   2.351   6.415   3.182
10425SOL    HW232717   2.251   6.316   3.126
10426SOL     OW32718   3.135   5.975   3.131
10426SOL    HW132719   3.165   6.048   3.185
10426SOL    HW232720   3.042   5.994   3.114
10427SOL     OW32721   1.950   7.170   3.232
10427SOL    HW132722   1.959   7.258   3.271
10427SOL    HW232723   2.041   7.140   3.222
10428SOL     OW32724   2.155   6.692   2.322
10428SOL    HW132725   2.201   6.740   2.391
10428SOL    HW232726   2.195   6.605   2.323
10429SOL     OW32727   2.406   6.108   2.706
10429SOL    HW132728   2.426   6.168   2.634
10429SOL    HW232729   2.468   6.131   2.775
10430SOL     OW32730   3.110   6.938   2.254
10430SOL    HW132731   3.162   7.011   2.286
10430SOL    HW232732   3.022   6.953   2.289
10431SOL     OW32733   3.146   7.044   3.021
10431SOL    HW132734   3.214   7.058   3.086
10431SOL    HW232735   3.088   6.978   3.059
10432SOL     OW32736   3.426   6.202   2.348
10432SOL    HW132737   3.382   6.246   2.421
10432SOL    HW232738   3.483   6.269   2.310
10433SOL     OW32739   2.199   7.078   3.165
10433SOL    HW132740   2.188   7.062   3.071
10433SOL    HW232741   2.290   7.107   3.174
10434SOL     OW32742   2.286   6.323   3.474
10434SOL    HW132743   2.349   6.364   3.414
10434SOL    HW232744   2.333   6.248   3.510
10435SOL     OW32745   3.475   6.379   3.547
10435SOL    HW132746   3.385   6.409   3.551
10435SOL    HW232747   3.515   6.432   3.478
10436SOL     OW32748   2.852   5.723   3.584
10436SOL    HW132749   2.924   5.784   3.599
10436SOL    HW232750   2.894   5.640   3.562
10437SOL     OW32751   2.368   5.627   3.602
10437SOL    HW132752   2.314   5.568   3.550
10437SOL    HW232753   2.309   5.700   3.623
10438SOL     OW32754   2.442   6.457   2.890
10438SOL    HW132755   2.479   6.545   2.895
10438SOL    HW232756   2.391   6.448   2.971
10439SOL     OW32757   3.197   6.444   2.865
10439SOL    HW132758   3.105   6.420   2.853
10439SOL    HW232759   3.245   6.361   2.862
10440SOL     OW32760   3.053   6.112   2.121
10440SOL    HW132761   3.068   6.036   2.176
10440SOL    HW232762   3.014   6.177   2.179
10441SOL     OW32763   2.150   5.792   3.109
10441SOL    HW132764   2.115   5.822   3.193
10441SOL    HW232765   2.136   5.697   3.110
10442SOL     OW32766   1.898   6.901   3.138
10442SOL    HW132767   1.931   6.839   3.202
10442SOL    HW232768   1.911   6.987   3.179
10443SOL     OW32769   2.569   6.204   2.901
10443SOL    HW132770   2.656   6.197   2.861
10443SOL    HW232771   2.547   6.297   2.893
10444SOL     OW32772   3.602   6.553   3.722
10444SOL    HW132773   3.560   6.482   3.673
10444SOL    HW232774   3.543   6.568   3.796
10445SOL     OW32775   2.170   5.652   2.485
10445SOL    HW132776   2.146   5.742   2.508
10445SOL    HW232777   2.177   5.607   2.569
10446SOL     OW32778   3.485   5.969   2.216
10446SOL    HW132779   3.515   5.901   2.276
10446SOL    HW232780   3.457   6.040   2.273
10447SOL     OW32781   2.897   6.345   2.826
10447SOL    HW132782   2.882   6.362   2.919
10447SOL    HW232783   2.869   6.254   2.813
10448SOL     OW32784   2.838   7.157   3.584
10448SOL    HW132785   2.826   7.197   3.497
10448SOL    HW232786   2.880   7.073   3.566
10449SOL     OW32787   3.710   7.082   3.468
10449SOL    HW132788   3.733   7.115   3.381
10449SOL    HW232789   3.790   7.095   3.520
10450SOL     OW32790   2.213   6.531   3.644
10450SOL    HW132791   2.272   6.537   3.720
10450SOL    HW232792   2.244   6.454   3.596
10451SOL     OW32793   3.378   5.869   1.985
10451SOL    HW132794   3.325   5.795   2.016
10451SOL    HW232795   3.420   5.903   2.063
10452SOL     OW32796   3.140   6.409   1.881
10452SOL    HW132797   3.184   6.324   1.892
10452SOL    HW232798   3.177   6.445   1.801
10453SOL     OW32799   2.925   6.927   2.718
10453SOL    HW132800   2.938   6.855   2.657
10453SOL    HW232801   2.988   6.993   2.691
10454SOL     OW32802   2.174   6.387   2.793
10454SOL    HW132803   2.266   6.414   2.801
10454SOL    HW232804   2.172   6.299   2.831
10455SOL     OW32805   2.185   6.115   2.864
10455SOL    HW132806   2.152   6.025   2.860
10455SOL    HW232807   2.263   6.114   2.809
10456SOL     OW32808   2.996   5.976   3.532
10456SOL    HW132809   2.950   6.019   3.605
10456SOL    HW232810   3.087   6.003   3.542
10457SOL     OW32811   3.027   5.799   3.324
10457SOL    HW132812   3.011   5.856   3.400
10457SOL    HW232813   3.073   5.855   3.262
10458SOL     OW32814   1.857   6.906   2.048
10458SOL    HW132815   1.768   6.914   2.013
10458SOL    HW232816   1.858   6.820   2.091
10459SOL     OW32817   1.946   7.366   2.781
10459SOL    HW132818   1.912   7.285   2.743
10459SOL    HW232819   2.024   7.339   2.830
10460SOL     OW32820   2.394   7.195   2.777
10460SOL    HW132821   2.462   7.165   2.838
10460SOL    HW232822   2.405   7.140   2.699
10461SOL     OW32823   2.830   6.367   3.090
10461SOL    HW132824   2.895   6.344   3.156
10461SOL    HW232825   2.747   6.335   3.125
10462SOL     OW32826   1.899   6.149   2.973
10462SOL    HW132827   1.984   6.134   2.931
10462SOL    HW232828   1.918   6.147   3.067
10463SOL     OW32829   2.029   6.092   3.574
10463SOL    HW132830   2.121   6.074   3.556
10463SOL    HW232831   2.015   6.181   3.542
10464SOL     OW32832   3.239   6.516   3.518
10464SOL    HW132833   3.258   6.609   3.519
10464SOL    HW232834   3.239   6.492   3.425
10465SOL     OW32835   2.681   6.151   2.225
10465SOL    HW132836   2.686   6.077   2.164
10465SOL    HW232837   2.605   6.201   2.196
10466SOL     OW32838   3.460   6.204   3.057
10466SOL    HW132839   3.393   6.208   3.125
10466SOL    HW232840   3.520   6.135   3.086
10467SOL     OW32841   2.093   7.127   3.581
10467SOL    HW132842   2.096   7.189   3.654
10467SOL    HW232843   2.105   7.041   3.622
10468SOL     OW32844   2.580   6.030   3.112
10468SOL    HW132845   2.518   5.958   3.100
10468SOL    HW232846   2.564   6.088   3.038
10469SOL     OW32847   2.787   7.259   3.329
10469SOL    HW132848   2.757   7.225   3.245
10469SOL    HW232849   2.785   7.354   3.318
10470SOL     OW32850   2.317   6.074   2.026
10470SOL    HW132851   2.379   6.141   2.055
10470SOL    HW232852   2.233   6.118   2.026
10471SOL     OW32853   2.005   6.725   3.323
10471SOL    HW132854   2.000   6.681   3.408
10471SOL    HW232855   2.023   6.654   3.261
10472SOL     OW32856   3.186   6.626   3.072
10472SOL    HW132857   3.204   6.565   3.001
10472SOL    HW232858   3.114   6.681   3.039
10473SOL     OW32859   3.180   6.450   2.159
10473SOL    HW132860   3.119   6.416   2.225
10473SOL    HW232861   3.142   6.422   2.076
10474SOL     OW32862   3.656   7.319   3.033
10474SOL    HW132863   3.705   7.350   2.957
10474SOL    HW232864   3.610   7.241   3.001
10475SOL     OW32865   3.092   7.313   2.974
10475SOL    HW132866   3.161   7.333   2.911
10475SOL    HW232867   3.108   7.221   2.997
10476SOL     OW32868   1.915   6.899   2.868
10476SOL    HW132869   1.920   6.886   2.962
10476SOL    HW232870   1.937   6.814   2.830
10477SOL     OW32871   2.534   7.268   3.598
10477SOL    HW132872   2.486   7.348   3.577
10477SOL    HW232873   2.622   7.283   3.564
10478SOL     OW32874   3.582   5.746   2.358
10478SOL    HW132875   3.654   5.727   2.299
10478SOL    HW232876   3.564   5.663   2.403
10479SOL     OW32877   3.241   7.159   2.340
10479SOL    HW132878   3.308   7.194   2.280
10479SOL    HW232879   3.200   7.237   2.377
10480SOL     OW32880   1.995   7.394   3.700
10480SOL    HW132881   1.952   7.323   3.747
10480SOL    HW232882   2.052   7.435   3.765
10481SOL     OW32883   3.136   6.513   2.525
10481SOL    HW132884   3.209   6.454   2.544
10481SOL    HW232885   3.175   6.584   2.474
10482SOL     OW32886   2.672   6.861   3.287
10482SOL    HW132887   2.648   6.903   3.369
10482SOL    HW232888   2.594   6.873   3.231
10483SOL     OW32889   2.531   7.205   2.005
10483SOL    HW132890   2.600   7.148   1.970
10483SOL    HW232891   2.455   7.148   2.014
10484SOL     OW32892   3.481   7.314   3.256
10484SOL    HW132893   3.536   7.319   3.178
10484SOL    HW232894   3.464   7.406   3.279
10485SOL     OW32895   3.702   5.749   2.814
10485SOL    HW132896   3.731   5.660   2.795
10485SOL    HW232897   3.612   5.753   2.780
10486SOL     OW32898   2.115   5.903   2.576
10486SOL    HW132899   2.029   5.942   2.561
10486SOL    HW232900   2.121   5.893   2.671
10487SOL     OW32901   3.082   7.177   1.898
10487SOL    HW132902   3.065   7.087   1.927
10487SOL    HW232903   3.021   7.190   1.825
10488SOL     OW32904   2.685   6.590   3.236
10488SOL    HW132905   2.741   6.582   3.159
10488SOL    HW232906   2.688   6.683   3.258
10489SOL     OW32907   2.777   6.489   2.138
10489SOL    HW132908   2.844   6.530   2.084
10489SOL    HW232909   2.825   6.427   2.193
10490SOL     OW32910   3.362   7.209   1.907
10490SOL    HW132911   3.268   7.197   1.895
10490SOL    HW232912   3.396   7.219   1.819
10491SOL     OW32913   2.234   6.871   3.346
10491SOL    HW132914   2.214   6.950   3.295
10491SOL    HW232915   2.154   6.819   3.342
10492SOL     OW32916   3.481   6.873   3.149
10492SOL    HW132917   3.527   6.852   3.231
10492SOL    HW232918   3.418   6.940   3.174
10493SOL     OW32919   2.926   6.697   2.568
10493SOL    HW132920   2.854   6.649   2.610
10493SOL    HW232921   2.993   6.630   2.551
10494SOL     OW32922   2.889   5.825   2.823
10494SOL    HW132923   2.888   5.775   2.741
10494SOL    HW232924   2.882   5.758   2.891
10495SOL     OW32925   2.476   7.079   2.321
10495SOL    HW132926   2.517   7.019   2.259
10495SOL    HW232927   2.391   7.099   2.283
10496SOL     OW32928   3.569   5.999   3.197
10496SOL    HW132929   3.629   6.030   3.265
10496SOL    HW232930   3.604   5.913   3.172
10497SOL     OW32931   2.110   6.962   2.125
10497SOL    HW132932   2.017   6.943   2.112
10497SOL    HW232933   2.119   6.976   2.219
10498SOL     OW32934   1.963   6.620   3.573
10498SOL    HW132935   1.893   6.594   3.633
10498SOL    HW232936   2.043   6.586   3.614
10499SOL     OW32937   2.541   5.785   3.350
10499SOL    HW132938   2.627   5.761   3.316
10499SOL    HW232939   2.557   5.812   3.440
10500SOL     OW32940   1.952   5.907   1.890
10500SOL    HW132941   1.857   5.902   1.894
10500SOL    HW232942   1.971   5.983   1.835
10501SOL     OW32943   3.292   6.447   3.256
10501SOL    HW132944   3.243   6.507   3.199
10501SOL    HW232945   3.383   6.458   3.229
10502SOL     OW32946   1.925   5.736   2.165
10502SOL    HW132947   1.923   5.826   2.131
10502SOL    HW232948   2.010   5.702   2.137
10503SOL     OW32949   3.046   6.907   1.990
10503SOL    HW132950   2.982   6.836   2.000
10503SOL    HW232951   3.076   6.925   2.079
10504SOL     OW32952   2.481   6.417   3.297
10504SOL    HW132953   2.540   6.491   3.286
10504SOL    HW232954   2.539   6.341   3.306
10505SOL     OW32955   2.579   6.148   3.557
10505SOL    HW132956   2.623   6.202   3.623
10505SOL    HW232957   2.593   6.059   3.586
10506SOL     OW32958   3.327   6.780   3.494
10506SOL    HW132959   3.313   6.794   3.588
10506SOL    HW232960   3.420   6.799   3.482
10507SOL     OW32961   2.214   7.304   3.369
10507SOL    HW132962   2.202   7.379   3.428
10507SOL    HW232963   2.201   7.228   3.425
10508SOL     OW32964   3.534   6.475   3.112
10508SOL    HW132965   3.525   6.391   3.069
10508SOL    HW232966   3.524   6.540   3.043
10509SOL     OW32967   3.076   5.906   2.314
10509SOL    HW132968   3.139   5.834   2.310
10509SOL    HW232969   3.102   5.956   2.392
10510SOL     OW32970   2.455   6.311   2.518
10510SOL    HW132971   2.490   6.400   2.521
10510SOL    HW232972   2.381   6.317   2.458
10511SOL     OW32973   3.662   5.931   3.462
10511SOL    HW132974   3.575   5.916   3.425
10511SOL    HW232975   3.648   5.930   3.557
10512SOL     OW32976   3.595   6.540   3.369
10512SOL    HW132977   3.585   6.635   3.376
10512SOL    HW232978   3.588   6.522   3.276
10513SOL     OW32979   2.668   6.983   1.906
10513SOL    HW132980   2.671   6.956   1.998
10513SOL    HW232981   2.757   7.011   1.886
10514SOL     OW32982   2.602   7.420   2.826
10514SOL    HW132983   2.643   7.506   2.816
10514SOL    HW232984   2.670   7.358   2.803
10515SOL     OW32985   2.734   6.558   2.711
10515SOL    HW132986   2.784   6.487   2.752
10515SOL    HW232987   2.693   6.604   2.785
10516SOL     OW32988   2.949   6.592   1.950
10516SOL    HW132989   2.919   6.629   1.867
10516SOL    HW232990   3.016   6.528   1.926
10517SOL     OW32991   3.702   7.135   2.710
10517SOL    HW132992   3.622   7.137   2.658
10517SOL    HW232993   3.675   7.097   2.794
10518SOL     OW32994   2.094   6.882   3.716
10518SOL    HW132995   2.033   6.808   3.705
10518SOL    HW232996   2.099   6.895   3.811
10519SOL     OW32997   1.954   6.817   2.530
10519SOL    HW132998   1.927   6.771   2.609
10519SOL    HW232999   2.038   6.779   2.507
10520SOL     OW33000   2.533   7.008   3.474
10520SOL    HW133001   2.471   6.956   3.525
10520SOL    HW233002   2.540   7.091   3.523
10521SOL     OW33003   3.714   5.796   3.087
10521SOL    HW133004   3.699   5.719   3.142
10521SOL    HW233005   3.694   5.765   2.998
10522SOL     OW33006   2.275   6.024   2.376
10522SOL    HW133007   2.318   5.949   2.335
10522SOL    HW233008   2.235   5.988   2.455
10523SOL     OW33009   3.573   7.066   2.950
10523SOL    HW133010   3.490   7.050   2.906
10523SOL    HW233011   3.576   7.001   3.021
10524SOL     OW33012   2.200   6.146   3.152
10524SOL    HW133013   2.247   6.088   3.212
10524SOL    HW233014   2.216   6.109   3.065
10525SOL     OW33015   2.704   7.164   2.532
10525SOL    HW133016   2.669   7.224   2.466
10525SOL    HW233017   2.632   7.106   2.554
10526SOL     OW33018   3.294   5.817   2.975
10526SOL    HW133019   3.308   5.732   3.018
10526SOL    HW233020   3.246   5.869   3.040
10527SOL     OW33021   2.875   5.602   2.997
10527SOL    HW133022   2.818   5.527   3.014
10527SOL    HW233023   2.961   5.563   2.983
10528SOL     OW33024   2.660   6.908   2.166
10528SOL    HW133025   2.630   6.821   2.193
10528SOL    HW233026   2.728   6.931   2.229
10529SOL     OW33027   2.468   7.148   3.114
10529SOL    HW133028   2.465   7.228   3.168
10529SOL    HW233029   2.562   7.131   3.102
10530SOL     OW33030   3.231   5.632   2.032
10530SOL    HW133031   3.274   5.551   2.005
10530SOL    HW233032   3.140   5.608   2.047
10531SOL     OW33033   3.152   6.049   2.536
10531SOL    HW133034   3.101   6.129   2.543
10531SOL    HW233035   3.150   6.011   2.624
10532SOL     OW33036   3.442   5.777   2.743
10532SOL    HW133037   3.388   5.798   2.820
10532SOL    HW233038   3.439   5.856   2.689
10533SOL     OW33039   1.905   6.662   2.175
10533SOL    HW133040   1.992   6.680   2.210
10533SOL    HW233041   1.893   6.568   2.184
10534SOL     OW33042   2.754   7.245   2.196
10534SOL    HW133043   2.671   7.230   2.150
10534SOL    HW233044   2.736   7.318   2.255
10535SOL     OW33045   2.067   6.285   3.846
10535SOL    HW133046   1.998   6.239   3.895
10535SOL    HW233047   2.130   6.216   3.824
10536SOL     OW33048   2.074   5.888   4.732
10536SOL    HW133049   2.108   5.843   4.809
10536SOL    HW233050   1.992   5.844   4.713
10537SOL     OW33051   1.851   6.013   4.341
10537SOL    HW133052   1.774   5.964   4.370
10537SOL    HW233053   1.925   5.957   4.362
10538SOL     OW33054   2.441   6.876   4.930
10538SOL    HW133055   2.351   6.848   4.948
10538SOL    HW233056   2.439   6.971   4.943
10539SOL     OW33057   3.459   7.109   4.453
10539SOL    HW133058   3.408   7.074   4.526
10539SOL    HW233059   3.396   7.123   4.383
10540SOL     OW33060   2.994   6.282   4.421
10540SOL    HW133061   3.037   6.365   4.406
10540SOL    HW233062   2.946   6.294   4.504
10541SOL     OW33063   3.661   6.172   3.942
10541SOL    HW133064   3.604   6.145   3.870
10541SOL    HW233065   3.637   6.113   4.014
10542SOL     OW33066   2.604   6.721   4.769
10542SOL    HW133067   2.543   6.765   4.829
10542SOL    HW233068   2.655   6.793   4.731
10543SOL     OW33069   2.746   6.347   5.550
10543SOL    HW133070   2.699   6.418   5.594
10543SOL    HW233071   2.767   6.382   5.463
10544SOL     OW33072   2.545   6.589   4.365
10544SOL    HW133073   2.613   6.576   4.431
10544SOL    HW233074   2.478   6.640   4.410
10545SOL     OW33075   2.576   6.739   5.550
10545SOL    HW133076   2.629   6.814   5.578
10545SOL    HW233077   2.496   6.779   5.515
10546SOL     OW33078   2.167   7.035   4.790
10546SOL    HW133079   2.106   6.976   4.746
10546SOL    HW233080   2.227   7.064   4.721
10547SOL     OW33081   3.313   7.085   5.074
10547SOL    HW133082   3.363   7.164   5.095
10547SOL    HW233083   3.250   7.076   5.146
10548SOL     OW33084   2.306   5.985   5.222
10548SOL    HW133085   2.385   5.931   5.219
10548SOL    HW233086   2.234   5.921   5.227
10549SOL     OW33087   3.466   6.049   4.472
10549SOL    HW133088   3.401   6.060   4.403
10549SOL    HW233089   3.429   6.096   4.547
10550SOL     OW33090   2.075   7.312   4.198
10550SOL    HW133091   2.088   7.385   4.258
10550SOL    HW233092   2.158   7.303   4.151
10551SOL     OW33093   2.996   6.935   5.435
10551SOL    HW133094   3.027   6.913   5.522
10551SOL    HW233095   2.953   6.855   5.404
10552SOL     OW33096   2.086   7.028   4.243
10552SOL    HW133097   2.071   7.121   4.264
10552SOL    HW233098   2.042   6.980   4.313
10553SOL     OW33099   2.121   6.670   4.618
10553SOL    HW133100   2.136   6.579   4.642
10553SOL    HW233101   2.070   6.706   4.690
10554SOL     OW33102   2.490   7.408   5.194
10554SOL    HW133103   2.405   7.367   5.208
10554SOL    HW233104   2.549   7.335   5.178
10555SOL     OW33105   2.431   6.579   3.870
10555SOL    HW133106   2.487   6.611   3.800
10555SOL    HW233107   2.474   6.609   3.950
10556SOL     OW33108   3.452   5.724   5.171
10556SOL    HW133109   3.404   5.797   5.131
10556SOL    HW233110   3.438   5.735   5.265
10557SOL     OW33111   1.966   6.261   4.279
10557SOL    HW133112   1.939   6.170   4.289
10557SOL    HW233113   1.967   6.296   4.368
10558SOL     OW33114   3.718   7.335   4.041
10558SOL    HW133115   3.779   7.310   4.110
10558SOL    HW233116   3.732   7.429   4.030
10559SOL     OW33117   1.893   7.183   3.839
10559SOL    HW133118   1.885   7.089   3.856
10559SOL    HW233119   1.876   7.223   3.924
10560SOL     OW33120   3.571   6.517   4.363
10560SOL    HW133121   3.610   6.444   4.315
10560SOL    HW233122   3.531   6.571   4.296
10561SOL     OW33123   3.514   6.689   4.147
10561SOL    HW133124   3.601   6.685   4.108
10561SOL    HW233125   3.519   6.761   4.210
10562SOL     OW33126   1.995   6.324   5.313
10562SOL    HW133127   2.089   6.346   5.312
10562SOL    HW233128   1.951   6.409   5.320
10563SOL     OW33129   2.465   6.980   4.460
10563SOL    HW133130   2.426   6.893   4.470
10563SOL    HW233131   2.457   7.000   4.367
10564SOL     OW33132   3.142   6.856   5.173
10564SOL    HW133133   3.165   6.801   5.098
10564SOL    HW233134   3.204   6.830   5.241
10565SOL     OW33135   2.686   5.605   4.230
10565SOL    HW133136   2.718   5.694   4.215
10565SOL    HW233137   2.592   5.614   4.242
10566SOL     OW33138   2.046   6.547   4.998
10566SOL    HW133139   2.134   6.510   4.989
10566SOL    HW233140   1.990   6.487   4.949
10567SOL     OW33141   3.397   6.585   3.921
10567SOL    HW133142   3.328   6.527   3.952
10567SOL    HW233143   3.435   6.621   4.002
10568SOL     OW33144   3.037   7.395   5.351
10568SOL    HW133145   3.055   7.452   5.276
10568SOL    HW233146   3.059   7.307   5.320
10569SOL     OW33147   2.193   5.833   5.578
10569SOL    HW133148   2.234   5.918   5.563
10569SOL    HW233149   2.099   5.853   5.589
10570SOL     OW33150   3.319   7.012   4.665
10570SOL    HW133151   3.251   7.021   4.733
10570SOL    HW233152   3.309   6.923   4.633
10571SOL     OW33153   3.517   7.352   4.292
10571SOL    HW133154   3.473   7.319   4.214
10571SOL    HW233155   3.513   7.279   4.354
10572SOL     OW33156   2.447   6.302   3.973
10572SOL    HW133157   2.456   6.394   3.945
10572SOL    HW233158   2.390   6.306   4.050
10573SOL     OW33159   3.139   5.951   4.659
10573SOL    HW133160   3.051   5.915   4.665
10573SOL    HW233161   3.193   5.892   4.712
10574SOL     OW33162   3.442   7.335   4.015
10574SOL    HW133163   3.537   7.322   4.016
10574SOL    HW233164   3.411   7.276   3.946
10575SOL     OW33165   2.608   6.211   5.178
10575SOL    HW133166   2.602   6.173   5.266
10575SOL    HW233167   2.590   6.137   5.119
10576SOL     OW33168   3.299   6.052   5.475
10576SOL    HW133169   3.231   6.084   5.416
10576SOL    HW233170   3.335   5.975   5.431
10577SOL     OW33171   2.813   6.458   5.308
10577SOL    HW133172   2.856   6.382   5.268
10577SOL    HW233173   2.761   6.497   5.238
10578SOL     OW33174   2.832   6.056   5.001
10578SOL    HW133175   2.738   6.035   4.998
10578SOL    HW233176   2.873   5.987   4.950
10579SOL     OW33177   2.914   6.289   4.149
10579SOL    HW133178   2.931   6.278   4.242
10579SOL    HW233179   2.832   6.243   4.134
10580SOL     OW33180   1.949   6.419   4.506
10580SOL    HW133181   2.030   6.399   4.552
10580SOL    HW233182   1.914   6.497   4.549
10581SOL     OW33183   1.987   7.453   5.307
10581SOL    HW133184   1.981   7.440   5.402
10581SOL    HW233185   1.936   7.382   5.269
10582SOL     OW33186   2.750   5.931   3.923
10582SOL    HW133187   2.801   5.980   3.858
10582SOL    HW233188   2.732   5.847   3.881
10583SOL     OW33189   3.593   6.174   5.553
10583SOL    HW133190   3.550   6.248   5.509
10583SOL    HW233191   3.602   6.108   5.485
10584SOL     OW33192   3.251   6.734   4.276
10584SOL    HW133193   3.324   6.719   4.216
10584SOL    HW233194   3.199   6.802   4.232
10585SOL     OW33195   2.405   5.767   4.608
10585SOL    HW133196   2.412   5.797   4.698
10585SOL    HW233197   2.416   5.846   4.555
10586SOL     OW33198   2.829   7.050   4.212
10586SOL    HW133199   2.827   7.124   4.150
10586SOL    HW233200   2.915   7.011   4.199
10587SOL     OW33201   2.211   7.401   4.592
10587SOL    HW133202   2.258   7.317   4.594
10587SOL    HW233203   2.280   7.467   4.596
10588SOL     OW33204   3.678   6.646   4.579
10588SOL    HW133205   3.628   6.610   4.506
10588SOL    HW233206   3.613   6.655   4.649
10589SOL     OW33207   3.085   7.141   5.257
10589SOL    HW133208   3.085   7.066   5.317
10589SOL    HW233209   3.031   7.113   5.183
10590SOL     OW33210   2.159   6.552   3.959
10590SOL    HW133211   2.252   6.557   3.935
10590SOL    HW233212   2.133   6.463   3.935
10591SOL     OW33213   3.341   6.341   4.437
10591SOL    HW133214   3.311   6.298   4.517
10591SOL    HW233215   3.410   6.401   4.466
10592SOL     OW33216   2.995   7.375   3.942
10592SOL    HW133217   2.917   7.343   3.987
10592SOL    HW233218   3.022   7.302   3.886
10593SOL     OW33219   2.062   5.847   5.231
10593SOL    HW133220   1.977   5.883   5.205
10593SOL    HW233221   2.043   5.759   5.263
10594SOL     OW33222   3.498   6.971   3.808
10594SOL    HW133223   3.451   7.055   3.806
10594SOL    HW233224   3.429   6.905   3.797
10595SOL     OW33225   2.315   7.329   4.049
10595SOL    HW133226   2.353   7.389   4.113
10595SOL    HW233227   2.390   7.299   3.997
10596SOL     OW33228   3.258   5.702   4.150
10596SOL    HW133229   3.246   5.681   4.057
10596SOL    HW233230   3.349   5.678   4.167
10597SOL     OW33231   2.120   7.393   4.924
10597SOL    HW133232   2.157   7.315   4.965
10597SOL    HW233233   2.093   7.365   4.837
10598SOL     OW33234   2.808   7.289   4.624
10598SOL    HW133235   2.893   7.245   4.625
10598SOL    HW233236   2.757   7.241   4.559
10599SOL     OW33237   2.240   6.323   4.192
10599SOL    HW133238   2.265   6.231   4.187
10599SOL    HW233239   2.148   6.322   4.216
10600SOL     OW33240   3.391   5.771   5.450
10600SOL    HW133241   3.384   5.786   5.544
10600SOL    HW233242   3.336   5.694   5.435
10601SOL     OW33243   2.543   5.704   3.804
10601SOL    HW133244   2.559   5.633   3.866
10601SOL    HW233245   2.475   5.670   3.745
10602SOL     OW33246   2.634   5.866   5.492
10602SOL    HW133247   2.714   5.815   5.481
10602SOL    HW233248   2.581   5.814   5.552
10603SOL     OW33249   2.737   7.105   4.915
10603SOL    HW133250   2.720   7.067   4.829
10603SOL    HW233251   2.811   7.054   4.949
10604SOL     OW33252   3.193   6.211   5.237
10604SOL    HW133253   3.223   6.135   5.187
10604SOL    HW233254   3.234   6.286   5.193
10605SOL     OW33255   2.670   6.985   4.669
10605SOL    HW133256   2.756   6.971   4.628
10605SOL    HW233257   2.608   6.981   4.596
10606SOL     OW33258   2.789   6.090   4.629
10606SOL    HW133259   2.766   6.080   4.536
10606SOL    HW233260   2.819   6.003   4.655
10607SOL     OW33261   2.410   5.649   4.223
10607SOL    HW133262   2.336   5.642   4.283
10607SOL    HW233263   2.390   5.724   4.167
10608SOL     OW33264   3.292   6.789   3.768
10608SOL    HW133265   3.323   6.713   3.817
10608SOL    HW233266   3.214   6.817   3.815
10609SOL     OW33267   2.161   5.630   3.909
10609SOL    HW133268   2.219   5.703   3.929
10609SOL    HW233269   2.202   5.554   3.949
10610SOL     OW33270   2.806   5.852   4.184
10610SOL    HW133271   2.785   5.880   4.095
10610SOL    HW233272   2.902   5.859   4.189
10611SOL     OW33273   2.931   6.251   5.173
10611SOL    HW133274   2.897   6.176   5.125
10611SOL    HW233275   3.023   6.230   5.189
10612SOL     OW33276   3.064   7.185   4.540
10612SOL    HW133277   3.091   7.239   4.466
10612SOL    HW233278   3.144   7.138   4.566
10613SOL     OW33279   2.329   6.742   4.455
10613SOL    HW133280   2.265   6.717   4.521
10613SOL    HW233281   2.284   6.727   4.371
10614SOL     OW33282   3.118   7.396   4.349
10614SOL    HW133283   3.155   7.453   4.282
10614SOL    HW233284   3.038   7.441   4.377
10615SOL     OW33285   2.892   6.112   3.749
10615SOL    HW133286   2.845   6.194   3.741
10615SOL    HW233287   2.949   6.124   3.824
10616SOL     OW33288   1.953   6.142   5.112
10616SOL    HW133289   2.045   6.139   5.086
10616SOL    HW233290   1.951   6.208   5.182
10617SOL     OW33291   2.423   5.810   4.883
10617SOL    HW133292   2.465   5.725   4.899
10617SOL    HW233293   2.334   5.799   4.917
10618SOL     OW33294   2.724   6.047   4.368
10618SOL    HW133295   2.658   6.090   4.313
10618SOL    HW233296   2.752   5.971   4.317
10619SOL     OW33297   2.878   5.636   4.463
10619SOL    HW133298   2.818   5.623   4.389
10619SOL    HW233299   2.858   5.565   4.523
10620SOL     OW33300   3.288   6.766   4.556
10620SOL    HW133301   3.256   6.684   4.594
10620SOL    HW233302   3.275   6.755   4.462
10621SOL     OW33303   3.322   6.167   4.688
10621SOL    HW133304   3.257   6.098   4.690
10621SOL    HW233305   3.364   6.164   4.774
10622SOL     OW33306   3.713   6.394   4.104
10622SOL    HW133307   3.766   6.341   4.164
10622SOL    HW233308   3.678   6.331   4.041
10623SOL     OW33309   2.354   7.015   3.872
10623SOL    HW133310   2.277   6.985   3.920
10623SOL    HW233311   2.369   6.948   3.805
10624SOL     OW33312   3.557   6.873   4.333
10624SOL    HW133313   3.647   6.870   4.364
10624SOL    HW233314   3.518   6.948   4.378
10625SOL     OW33315   3.253   6.160   3.795
10625SOL    HW133316   3.194   6.135   3.866
10625SOL    HW233317   3.329   6.103   3.805
10626SOL     OW33318   2.345   5.808   3.990
10626SOL    HW133319   2.430   5.825   3.950
10626SOL    HW233320   2.333   5.879   4.052
10627SOL     OW33321   3.610   6.829   5.286
10627SOL    HW133322   3.696   6.788   5.272
10627SOL    HW233323   3.630   6.918   5.315
10628SOL     OW33324   2.907   6.991   5.112
10628SOL    HW133325   2.830   6.935   5.113
10628SOL    HW233326   2.981   6.931   5.121
10629SOL     OW33327   3.478   7.223   5.396
10629SOL    HW133328   3.462   7.252   5.306
10629SOL    HW233329   3.555   7.167   5.390
10630SOL     OW33330   2.940   6.862   4.831
10630SOL    HW133331   2.983   6.777   4.845
10630SOL    HW233332   2.931   6.869   4.736
10631SOL     OW33333   3.520   6.699   4.800
10631SOL    HW133334   3.529   6.759   4.875
10631SOL    HW233335   3.426   6.682   4.795
10632SOL     OW33336   2.772   5.703   5.106
10632SOL    HW133337   2.794   5.667   5.020
10632SOL    HW233338   2.856   5.732   5.142
10633SOL     OW33339   2.847   6.691   5.448
10633SOL    HW133340   2.754   6.705   5.465
10633SOL    HW233341   2.850   6.615   5.390
10634SOL     OW33342   2.573   6.654   4.095
10634SOL    HW133343   2.560   6.634   4.188
10634SOL    HW233344   2.647   6.599   4.069
10635SOL     OW33345   2.282   6.412   4.977
10635SOL    HW133346   2.348   6.423   5.046
10635SOL    HW233347   2.254   6.321   4.986
10636SOL     OW33348   1.943   7.171   5.093
10636SOL    HW133349   1.910   7.223   5.021
10636SOL    HW233350   2.038   7.164   5.077
10637SOL     OW33351   2.185   6.698   4.224
10637SOL    HW133352   2.207   6.753   4.149
10637SOL    HW233353   2.188   6.608   4.190
10638SOL     OW33354   2.407   6.115   4.585
10638SOL    HW133355   2.420   6.172   4.510
10638SOL    HW233356   2.479   6.137   4.645
10639SOL     OW33357   3.133   7.057   4.861
10639SOL    HW133358   3.186   7.039   4.939
10639SOL    HW233359   3.066   6.988   4.862
10640SOL     OW33360   3.430   6.224   4.207
10640SOL    HW133361   3.390   6.259   4.287
10640SOL    HW233362   3.402   6.283   4.138
10641SOL     OW33363   2.205   7.161   5.023
10641SOL    HW133364   2.192   7.103   4.947
10641SOL    HW233365   2.289   7.133   5.060
10642SOL     OW33366   2.275   6.326   5.329
10642SOL    HW133367   2.340   6.372   5.275
10642SOL    HW233368   2.306   6.235   5.331
10643SOL     OW33369   3.479   6.378   5.414
10643SOL    HW133370   3.388   6.379   5.385
10643SOL    HW233371   3.529   6.408   5.338
10644SOL     OW33372   2.864   5.722   5.481
10644SOL    HW133373   2.933   5.783   5.457
10644SOL    HW233374   2.898   5.636   5.454
10645SOL     OW33375   2.351   5.631   5.488
10645SOL    HW133376   2.313   5.574   5.421
10645SOL    HW233377   2.286   5.701   5.499
10646SOL     OW33378   2.443   6.467   4.753
10646SOL    HW133379   2.488   6.551   4.765
10646SOL    HW233380   2.392   6.456   4.834
10647SOL     OW33381   3.253   6.452   4.694
10647SOL    HW133382   3.208   6.495   4.767
10647SOL    HW233383   3.251   6.359   4.715
10648SOL     OW33384   3.051   6.115   3.981
10648SOL    HW133385   3.064   6.037   4.035
10648SOL    HW233386   3.010   6.179   4.040
10649SOL     OW33387   2.166   5.779   4.972
10649SOL    HW133388   2.126   5.799   5.057
10649SOL    HW233389   2.153   5.685   4.962
10650SOL     OW33390   1.895   6.903   5.002
10650SOL    HW133391   1.934   6.838   5.061
10650SOL    HW233392   1.921   6.987   5.039
10651SOL     OW33393   2.586   6.214   4.775
10651SOL    HW133394   2.661   6.190   4.722
10651SOL    HW233395   2.564   6.303   4.747
10652SOL     OW33396   3.606   6.544   5.593
10652SOL    HW133397   3.567   6.483   5.531
10652SOL    HW233398   3.538   6.559   5.658
10653SOL     OW33399   2.163   5.637   4.352
10653SOL    HW133400   2.126   5.723   4.372
10653SOL    HW233401   2.178   5.597   4.438
10654SOL     OW33402   3.561   5.995   4.120
10654SOL    HW133403   3.537   5.910   4.156
10654SOL    HW233404   3.499   6.056   4.159
10655SOL     OW33405   2.872   6.344   4.679
10655SOL    HW133406   2.873   6.361   4.774
10655SOL    HW233407   2.854   6.250   4.672
10656SOL     OW33408   2.832   7.151   5.442
10656SOL    HW133409   2.813   7.183   5.354
10656SOL    HW233410   2.882   7.070   5.428
10657SOL     OW33411   3.712   7.085   5.335
10657SOL    HW133412   3.730   7.120   5.248
10657SOL    HW233413   3.795   7.095   5.382
10658SOL     OW33414   2.204   6.494   5.535
10658SOL    HW133415   2.286   6.530   5.569
10658SOL    HW233416   2.231   6.430   5.470
10659SOL     OW33417   3.145   6.409   3.754
10659SOL    HW133418   3.186   6.323   3.763
10659SOL    HW233419   3.180   6.443   3.672
10660SOL     OW33420   2.912   6.926   4.562
10660SOL    HW133421   2.919   6.849   4.506
10660SOL    HW233422   2.966   6.992   4.517
10661SOL     OW33423   2.174   6.399   4.667
10661SOL    HW133424   2.269   6.415   4.665
10661SOL    HW233425   2.165   6.310   4.699
10662SOL     OW33426   2.190   6.127   4.739
10662SOL    HW133427   2.152   6.040   4.731
10662SOL    HW233428   2.268   6.124   4.683
10663SOL     OW33429   3.007   5.978   5.402
10663SOL    HW133430   2.961   6.018   5.476
10663SOL    HW233431   3.015   6.048   5.338
10664SOL     OW33432   3.024   5.793   5.192
10664SOL    HW133433   3.022   5.849   5.270
10664SOL    HW233434   3.094   5.829   5.138
10665SOL     OW33435   1.860   6.907   3.918
10665SOL    HW133436   1.773   6.918   3.879
10665SOL    HW233437   1.860   6.818   3.953
10666SOL     OW33438   1.954   7.363   4.672
10666SOL    HW133439   1.920   7.284   4.630
10666SOL    HW233440   2.042   7.374   4.635
10667SOL     OW33441   2.359   7.169   4.628
10667SOL    HW133442   2.438   7.203   4.670
10667SOL    HW233443   2.391   7.103   4.567
10668SOL     OW33444   2.818   6.377   4.951
10668SOL    HW133445   2.877   6.351   5.023
10668SOL    HW233446   2.748   6.312   4.954
10669SOL     OW33447   1.897   6.153   4.836
10669SOL    HW133448   1.964   6.112   4.781
10669SOL    HW233449   1.929   6.142   4.926
10670SOL     OW33450   2.059   6.096   5.454
10670SOL    HW133451   2.094   6.040   5.385
10670SOL    HW233452   2.025   6.173   5.407
10671SOL     OW33453   3.224   6.532   5.386
10671SOL    HW133454   3.253   6.622   5.375
10671SOL    HW233455   3.223   6.495   5.297
10672SOL     OW33456   2.684   6.165   4.072
10672SOL    HW133457   2.688   6.080   4.029
10672SOL    HW233458   2.599   6.201   4.047
10673SOL     OW33459   3.486   6.183   4.927
10673SOL    HW133460   3.432   6.127   4.984
10673SOL    HW233461   3.554   6.125   4.894
10674SOL     OW33462   2.105   7.144   5.453
10674SOL    HW133463   2.064   7.141   5.539
10674SOL    HW233464   2.166   7.070   5.452
10675SOL     OW33465   2.553   6.034   4.978
10675SOL    HW133466   2.508   5.956   4.948
10675SOL    HW233467   2.551   6.094   4.903
10676SOL     OW33468   2.736   7.262   5.200
10676SOL    HW133469   2.741   7.189   5.138
10676SOL    HW233470   2.796   7.328   5.164
10677SOL     OW33471   2.294   6.095   3.858
10677SOL    HW133472   2.360   6.161   3.877
10677SOL    HW233473   2.276   6.055   3.943
10678SOL     OW33474   1.989   6.723   5.196
10678SOL    HW133475   1.999   6.680   5.281
10678SOL    HW233476   2.010   6.655   5.132
10679SOL     OW33477   3.190   6.438   4.030
10679SOL    HW133478   3.119   6.416   4.091
10679SOL    HW233479   3.153   6.422   3.944
10680SOL     OW33480   3.657   7.317   4.894
10680SOL    HW133481   3.710   7.342   4.818
10680SOL    HW233482   3.613   7.236   4.867
10681SOL     OW33483   3.105   7.331   4.857
10681SOL    HW133484   3.185   7.353   4.809
10681SOL    HW233485   3.104   7.236   4.860
10682SOL     OW33486   1.927   6.879   4.726
10682SOL    HW133487   1.912   6.877   4.820
10682SOL    HW233488   1.878   6.804   4.692
10683SOL     OW33489   2.557   7.265   5.478
10683SOL    HW133490   2.497   7.315   5.423
10683SOL    HW233491   2.638   7.261   5.427
10684SOL     OW33492   3.597   5.744   4.246
10684SOL    HW133493   3.661   5.721   4.179
10684SOL    HW233494   3.568   5.659   4.280
10685SOL     OW33495   3.279   7.170   4.265
10685SOL    HW133496   3.241   7.103   4.209
10685SOL    HW233497   3.213   7.240   4.268
10686SOL     OW33498   1.969   7.419   5.577
10686SOL    HW133499   1.942   7.331   5.601
10686SOL    HW233500   2.034   7.444   5.643
10687SOL     OW33501   3.131   6.512   4.376
10687SOL    HW133502   3.205   6.456   4.399
10687SOL    HW233503   3.170   6.588   4.332
10688SOL     OW33504   2.663   6.864   5.127
10688SOL    HW133505   2.631   6.906   5.207
10688SOL    HW233506   2.587   6.863   5.069
10689SOL     OW33507   2.522   7.229   3.878
10689SOL    HW133508   2.538   7.238   3.784
10689SOL    HW233509   2.472   7.147   3.886
10690SOL     OW33510   3.476   7.311   5.128
10690SOL    HW133511   3.532   7.307   5.051
10690SOL    HW233512   3.459   7.404   5.141
10691SOL     OW33513   3.729   5.766   4.679
10691SOL    HW133514   3.750   5.673   4.669
10691SOL    HW233515   3.640   5.774   4.644
10692SOL     OW33516   2.082   5.889   4.436
10692SOL    HW133517   2.153   5.940   4.396
10692SOL    HW233518   2.101   5.893   4.530
10693SOL     OW33519   3.074   7.189   3.752
10693SOL    HW133520   3.058   7.100   3.784
10693SOL    HW233521   3.003   7.205   3.690
10694SOL     OW33522   2.688   6.587   5.103
10694SOL    HW133523   2.734   6.554   5.025
10694SOL    HW233524   2.696   6.682   5.097
10695SOL     OW33525   2.773   6.497   4.009
10695SOL    HW133526   2.836   6.528   3.945
10695SOL    HW233527   2.820   6.430   4.059
10696SOL     OW33528   3.351   7.220   3.771
10696SOL    HW133529   3.257   7.205   3.760
10696SOL    HW233530   3.385   7.222   3.682
10697SOL     OW33531   2.229   6.886   5.156
10697SOL    HW133532   2.262   6.898   5.245
10697SOL    HW233533   2.160   6.820   5.166
10698SOL     OW33534   3.517   6.885   5.018
10698SOL    HW133535   3.534   6.850   5.105
10698SOL    HW233536   3.423   6.901   5.016
10699SOL     OW33537   2.922   6.690   4.434
10699SOL    HW133538   2.850   6.638   4.471
10699SOL    HW233539   2.988   6.626   4.408
10700SOL     OW33540   2.890   5.825   4.680
10700SOL    HW133541   2.884   5.774   4.599
10700SOL    HW233542   2.879   5.760   4.750
10701SOL     OW33543   2.456   7.056   4.201
10701SOL    HW133544   2.511   7.013   4.136
10701SOL    HW233545   2.397   7.111   4.149
10702SOL     OW33546   3.652   5.975   5.143
10702SOL    HW133547   3.695   6.047   5.097
10702SOL    HW233548   3.638   5.909   5.076
10703SOL     OW33549   2.119   6.935   3.994
10703SOL    HW133550   2.025   6.926   3.979
10703SOL    HW233551   2.126   6.968   4.084
10704SOL     OW33552   1.973   6.618   5.451
10704SOL    HW133553   1.898   6.589   5.504
10704SOL    HW233554   2.048   6.575   5.491
10705SOL     OW33555   2.537   5.807   5.227
10705SOL    HW133556   2.614   5.779   5.178
10705SOL    HW233557   2.571   5.830   5.314
10706SOL     OW33558   1.945   5.916   3.768
10706SOL    HW133559   1.855   5.897   3.742
10706SOL    HW233560   1.972   5.987   3.710
10707SOL     OW33561   3.310   6.449   5.134
10707SOL    HW133562   3.269   6.517   5.080
10707SOL    HW233563   3.393   6.432   5.090
10708SOL     OW33564   1.921   5.740   4.026
10708SOL    HW133565   1.923   5.817   3.970
10708SOL    HW233566   2.009   5.703   4.019
10709SOL     OW33567   3.022   6.924   3.822
10709SOL    HW133568   2.945   6.870   3.837
10709SOL    HW233569   3.057   6.939   3.910
10710SOL     OW33570   2.471   6.435   5.168
10710SOL    HW133571   2.536   6.502   5.150
10710SOL    HW233572   2.521   6.353   5.171
10711SOL     OW33573   3.346   7.390   4.731
10711SOL    HW133574   3.357   7.411   4.639
10711SOL    HW233575   3.401   7.313   4.745
10712SOL     OW33576   2.579   6.134   5.437
10712SOL    HW133577   2.635   6.187   5.494
10712SOL    HW233578   2.599   6.044   5.462
10713SOL     OW33579   3.339   6.786   5.363
10713SOL    HW133580   3.335   6.796   5.458
10713SOL    HW233581   3.432   6.799   5.342
10714SOL     OW33582   2.246   7.332   5.302
10714SOL    HW133583   2.164   7.369   5.269
10714SOL    HW233584   2.220   7.250   5.345
10715SOL     OW33585   3.553   6.453   4.980
10715SOL    HW133586   3.534   6.365   4.947
10715SOL    HW233587   3.523   6.512   4.911
10716SOL     OW33588   3.082   5.915   4.175
10716SOL    HW133589   3.141   5.840   4.165
10716SOL    HW233590   3.113   5.959   4.254
10717SOL     OW33591   2.442   6.324   4.404
10717SOL    HW133592   2.484   6.407   4.383
10717SOL    HW233593   2.380   6.310   4.332
10718SOL     OW33594   3.594   5.949   5.401
10718SOL    HW133595   3.609   5.962   5.307
10718SOL    HW233596   3.533   5.875   5.406
10719SOL     OW33597   3.639   6.510   5.232
10719SOL    HW133598   3.602   6.598   5.245
10719SOL    HW233599   3.617   6.489   5.141
10720SOL     OW33600   2.691   6.958   3.765
10720SOL    HW133601   2.679   6.963   3.860
10720SOL    HW233602   2.735   7.039   3.741
10721SOL     OW33603   2.546   7.403   4.723
10721SOL    HW133604   2.512   7.467   4.659
10721SOL    HW233605   2.624   7.367   4.680
10722SOL     OW33606   2.727   6.555   4.573
10722SOL    HW133607   2.775   6.480   4.608
10722SOL    HW233608   2.688   6.596   4.650
10723SOL     OW33609   2.931   6.569   3.802
10723SOL    HW133610   2.922   6.624   3.724
10723SOL    HW233611   3.007   6.515   3.785
10724SOL     OW33612   3.711   7.140   4.568
10724SOL    HW133613   3.628   7.130   4.522
10724SOL    HW233614   3.721   7.059   4.618
10725SOL     OW33615   2.013   6.891   5.591
10725SOL    HW133616   1.979   6.812   5.549
10725SOL    HW233617   2.107   6.889   5.572
10726SOL     OW33618   1.965   6.815   4.390
10726SOL    HW133619   1.976   6.769   4.473
10726SOL    HW233620   2.026   6.773   4.330
10727SOL     OW33621   2.562   7.001   5.343
10727SOL    HW133622   2.481   6.956   5.370
10727SOL    HW233623   2.563   7.081   5.395
10728SOL     OW33624   3.691   5.787   4.952
10728SOL    HW133625   3.661   5.703   4.988
10728SOL    HW233626   3.696   5.773   4.858
10729SOL     OW33627   3.536   7.086   4.825
10729SOL    HW133628   3.467   7.058   4.765
10729SOL    HW233629   3.537   7.019   4.893
10730SOL     OW33630   2.207   6.150   5.020
10730SOL    HW133631   2.259   6.090   5.073
10730SOL    HW233632   2.220   6.120   4.930
10731SOL     OW33633   2.679   7.169   4.422
10731SOL    HW133634   2.733   7.134   4.351
10731SOL    HW233635   2.597   7.120   4.415
10732SOL     OW33636   3.297   5.798   4.814
10732SOL    HW133637   3.297   5.705   4.835
10732SOL    HW233638   3.292   5.842   4.899
10733SOL     OW33639   2.866   5.605   4.860
10733SOL    HW133640   2.811   5.539   4.817
10733SOL    HW233641   2.953   5.565   4.863
10734SOL     OW33642   2.643   6.922   4.040
10734SOL    HW133643   2.621   6.830   4.056
10734SOL    HW233644   2.710   6.943   4.105
10735SOL     OW33645   2.490   7.157   5.007
10735SOL    HW133646   2.481   7.239   4.958
10735SOL    HW233647   2.577   7.125   4.984
10736SOL     OW33648   3.215   5.634   3.887
10736SOL    HW133649   3.262   5.560   3.850
10736SOL    HW233650   3.127   5.600   3.905
10737SOL     OW33651   3.162   6.054   4.403
10737SOL    HW133652   3.102   6.129   4.406
10737SOL    HW233653   3.153   6.012   4.489
10738SOL     OW33654   3.475   5.795   4.604
10738SOL    HW133655   3.406   5.794   4.670
10738SOL    HW233656   3.451   5.867   4.545
10739SOL     OW33657   1.904   6.652   4.022
10739SOL    HW133658   1.996   6.640   4.002
10739SOL    HW233659   1.873   6.564   4.046
10740SOL     OW33660   2.757   7.270   4.049
10740SOL    HW133661   2.677   7.248   4.001
10740SOL    HW233662   2.728   7.328   4.119
10741SOL     OW33663   2.087   6.210   5.710
10741SOL    HW133664   1.997   6.194   5.736
10741SOL    HW233665   2.091   6.187   5.617
10742SOL     OW33666   2.061   5.884   6.595
10742SOL    HW133667   2.103   5.843   6.671
10742SOL    HW233668   1.988   5.826   6.574
10743SOL     OW33669   1.863   5.956   6.230
10743SOL    HW133670   1.786   5.991   6.273
10743SOL    HW233671   1.830   5.883   6.177
10744SOL     OW33672   2.409   6.878   6.767
10744SOL    HW133673   2.335   6.909   6.716
10744SOL    HW233674   2.446   6.958   6.806
10745SOL     OW33675   3.441   7.103   6.295
10745SOL    HW133676   3.394   7.069   6.371
10745SOL    HW233677   3.376   7.103   6.225
10746SOL     OW33678   3.004   6.280   6.283
10746SOL    HW133679   3.042   6.367   6.270
10746SOL    HW233680   2.952   6.288   6.362
10747SOL     OW33681   2.604   6.717   6.619
10747SOL    HW133682   2.567   6.730   6.706
10747SOL    HW233683   2.621   6.806   6.587
10748SOL     OW33684   2.741   6.346   7.408
10748SOL    HW133685   2.731   6.424   7.463
10748SOL    HW233686   2.766   6.380   7.322
10749SOL     OW33687   2.549   6.585   6.230
10749SOL    HW133688   2.615   6.575   6.298
10749SOL    HW233689   2.481   6.639   6.269
10750SOL     OW33690   2.559   6.739   7.419
10750SOL    HW133691   2.617   6.814   7.405
10750SOL    HW233692   2.479   6.762   7.372
10751SOL     OW33693   2.182   7.013   6.652
10751SOL    HW133694   2.111   6.970   6.604
10751SOL    HW233695   2.233   7.059   6.585
10752SOL     OW33696   3.320   7.086   6.946
10752SOL    HW133697   3.368   7.167   6.960
10752SOL    HW233698   3.249   7.088   7.011
10753SOL     OW33699   2.306   5.981   7.104
10753SOL    HW133700   2.385   5.928   7.096
10753SOL    HW233701   2.234   5.917   7.098
10754SOL     OW33702   3.458   6.028   6.334
10754SOL    HW133703   3.376   6.024   6.285
10754SOL    HW233704   3.437   6.082   6.410
10755SOL     OW33705   2.074   7.313   6.053
10755SOL    HW133706   2.105   7.385   6.107
10755SOL    HW233707   2.148   7.293   5.995
10756SOL     OW33708   3.002   6.932   7.285
10756SOL    HW133709   3.038   6.914   7.371
10756SOL    HW233710   2.953   6.853   7.263
10757SOL     OW33711   2.096   7.039   6.135
10757SOL    HW133712   2.061   7.128   6.134
10757SOL    HW233713   2.034   6.989   6.188
10758SOL     OW33714   2.126   6.679   6.477
10758SOL    HW133715   2.140   6.587   6.498
10758SOL    HW233716   2.044   6.702   6.522
10759SOL     OW33717   2.441   6.571   5.730
10759SOL    HW133718   2.486   6.618   5.660
10759SOL    HW233719   2.481   6.603   5.810
10760SOL     OW33720   3.462   5.715   7.050
10760SOL    HW133721   3.455   5.800   7.007
10760SOL    HW233722   3.444   5.734   7.142
10761SOL     OW33723   1.965   6.247   6.171
10761SOL    HW133724   1.957   6.152   6.160
10761SOL    HW233725   1.941   6.263   6.263
10762SOL     OW33726   3.704   7.344   5.916
10762SOL    HW133727   3.778   7.319   5.971
10762SOL    HW233728   3.724   7.433   5.887
10763SOL     OW33729   1.920   7.170   5.687
10763SOL    HW133730   1.917   7.075   5.680
10763SOL    HW233731   1.883   7.189   5.773
10764SOL     OW33732   3.606   6.500   6.216
10764SOL    HW133733   3.636   6.445   6.143
10764SOL    HW233734   3.546   6.562   6.176
10765SOL     OW33735   3.508   6.690   6.018
10765SOL    HW133736   3.592   6.691   5.972
10765SOL    HW233737   3.517   6.754   6.088
10766SOL     OW33738   2.003   6.319   7.129
10766SOL    HW133739   2.089   6.345   7.162
10766SOL    HW233740   1.945   6.392   7.151
10767SOL     OW33741   2.478   6.980   6.317
10767SOL    HW133742   2.435   6.895   6.325
10767SOL    HW233743   2.460   7.008   6.227
10768SOL     OW33744   3.157   6.826   7.003
10768SOL    HW133745   3.176   6.753   6.944
10768SOL    HW233746   3.214   6.810   7.079
10769SOL     OW33747   2.686   5.609   6.107
10769SOL    HW133748   2.723   5.692   6.076
10769SOL    HW233749   2.591   5.623   6.108
10770SOL     OW33750   2.031   6.507   6.858
10770SOL    HW133751   2.126   6.494   6.856
10770SOL    HW233752   2.007   6.526   6.767
10771SOL     OW33753   3.399   6.578   5.788
10771SOL    HW133754   3.327   6.519   5.811
10771SOL    HW233755   3.430   6.613   5.871
10772SOL     OW33756   3.062   7.396   7.218
10772SOL    HW133757   3.064   7.456   7.143
10772SOL    HW233758   3.071   7.309   7.179
10773SOL     OW33759   2.198   5.835   7.423
10773SOL    HW133760   2.245   5.918   7.432
10773SOL    HW233761   2.108   5.856   7.446
10774SOL     OW33762   3.323   7.006   6.524
10774SOL    HW133763   3.257   7.018   6.592
10774SOL    HW233764   3.311   6.916   6.494
10775SOL     OW33765   3.507   7.349   6.162
10775SOL    HW133766   3.495   7.317   6.073
10775SOL    HW233767   3.491   7.272   6.218
10776SOL     OW33768   2.458   6.309   5.860
10776SOL    HW133769   2.453   6.389   5.808
10776SOL    HW233770   2.390   6.320   5.926
10777SOL     OW33771   3.144   5.953   6.523
10777SOL    HW133772   3.056   5.916   6.531
10777SOL    HW233773   3.199   5.894   6.573
10778SOL     OW33774   3.437   7.274   5.897
10778SOL    HW133775   3.530   7.289   5.885
10778SOL    HW233776   3.404   7.254   5.809
10779SOL     OW33777   2.653   6.186   7.049
10779SOL    HW133778   2.616   6.158   7.133
10779SOL    HW233779   2.611   6.128   6.984
10780SOL     OW33780   3.258   6.055   7.267
10780SOL    HW133781   3.268   6.102   7.349
10780SOL    HW233782   3.309   5.974   7.278
10781SOL     OW33783   2.828   6.465   7.177
10781SOL    HW133784   2.874   6.393   7.132
10781SOL    HW233785   2.783   6.512   7.106
10782SOL     OW33786   2.864   5.998   6.813
10782SOL    HW133787   2.775   6.015   6.847
10782SOL    HW233788   2.850   5.947   6.734
10783SOL     OW33789   2.915   6.285   6.012
10783SOL    HW133790   2.931   6.273   6.105
10783SOL    HW233791   2.831   6.242   5.996
10784SOL     OW33792   1.969   7.471   7.171
10784SOL    HW133793   1.961   7.446   7.263
10784SOL    HW233794   1.884   7.446   7.132
10785SOL     OW33795   2.758   5.942   5.782
10785SOL    HW133796   2.803   5.998   5.718
10785SOL    HW233797   2.733   5.864   5.733
10786SOL     OW33798   3.632   6.198   7.397
10786SOL    HW133799   3.569   6.256   7.356
10786SOL    HW233800   3.622   6.114   7.351
10787SOL     OW33801   3.250   6.736   6.138
10787SOL    HW133802   3.320   6.714   6.076
10787SOL    HW233803   3.191   6.791   6.087
10788SOL     OW33804   2.379   5.763   6.480
10788SOL    HW133805   2.403   5.790   6.569
10788SOL    HW233806   2.400   5.839   6.426
10789SOL     OW33807   2.878   7.048   6.064
10789SOL    HW133808   2.839   7.113   6.005
10789SOL    HW233809   2.831   7.060   6.146
10790SOL     OW33810   2.218   7.398   6.457
10790SOL    HW133811   2.256   7.311   6.459
10790SOL    HW233812   2.291   7.457   6.479
10791SOL     OW33813   3.673   6.597   6.464
10791SOL    HW133814   3.624   6.596   6.382
10791SOL    HW233815   3.609   6.626   6.529
10792SOL     OW33816   3.095   7.130   7.109
10792SOL    HW133817   3.086   7.058   7.172
10792SOL    HW233818   3.036   7.106   7.037
10793SOL     OW33819   2.174   6.541   5.838
10793SOL    HW133820   2.256   6.565   5.795
10793SOL    HW233821   2.144   6.463   5.791
10794SOL     OW33822   3.344   6.341   6.305
10794SOL    HW133823   3.316   6.277   6.371
10794SOL    HW233824   3.431   6.368   6.332
10795SOL     OW33825   2.320   6.861   7.334
10795SOL    HW133826   2.293   6.867   7.243
10795SOL    HW233827   2.238   6.844   7.382
10796SOL     OW33828   2.993   7.359   5.818
10796SOL    HW133829   2.913   7.326   5.858
10796SOL    HW233830   3.014   7.297   5.749
10797SOL     OW33831   2.053   5.846   7.086
10797SOL    HW133832   1.964   5.881   7.077
10797SOL    HW233833   2.042   5.759   7.124
10798SOL     OW33834   3.490   6.981   5.694
10798SOL    HW133835   3.449   7.060   5.659
10798SOL    HW233836   3.428   6.911   5.674
10799SOL     OW33837   2.318   7.332   5.902
10799SOL    HW133838   2.373   7.366   5.972
10799SOL    HW233839   2.377   7.277   5.850
10800SOL     OW33840   3.268   5.695   5.997
10800SOL    HW133841   3.240   5.667   5.910
10800SOL    HW233842   3.340   5.635   6.019
10801SOL     OW33843   2.129   7.375   6.809
10801SOL    HW133844   2.188   7.313   6.851
10801SOL    HW233845   2.119   7.343   6.719
10802SOL     OW33846   2.794   7.289   6.470
10802SOL    HW133847   2.859   7.230   6.508
10802SOL    HW233848   2.755   7.238   6.398
10803SOL     OW33849   2.259   6.284   6.063
10803SOL    HW133850   2.274   6.190   6.071
10803SOL    HW233851   2.166   6.295   6.078
10804SOL     OW33852   3.397   5.814   7.327
10804SOL    HW133853   3.416   5.844   7.416
10804SOL    HW233854   3.354   5.729   7.340
10805SOL     OW33855   2.515   5.693   5.690
10805SOL    HW133856   2.571   5.616   5.700
10805SOL    HW233857   2.455   5.669   5.619
10806SOL     OW33858   2.627   5.869   7.351
10806SOL    HW133859   2.708   5.821   7.340
10806SOL    HW233860   2.580   5.823   7.420
10807SOL     OW33861   2.746   7.123   6.767
10807SOL    HW133862   2.718   7.075   6.689
10807SOL    HW233863   2.806   7.063   6.811
10808SOL     OW33864   3.199   6.170   7.022
10808SOL    HW133865   3.231   6.137   7.105
10808SOL    HW233866   3.235   6.259   7.016
10809SOL     OW33867   2.673   6.980   6.533
10809SOL    HW133868   2.758   6.961   6.494
10809SOL    HW233869   2.612   6.981   6.459
10810SOL     OW33870   2.792   6.092   6.483
10810SOL    HW133871   2.766   6.084   6.391
10810SOL    HW233872   2.821   6.005   6.508
10811SOL     OW33873   2.415   5.657   6.086
10811SOL    HW133874   2.328   5.656   6.128
10811SOL    HW233875   2.410   5.727   6.021
10812SOL     OW33876   3.301   6.791   5.638
10812SOL    HW133877   3.327   6.708   5.679
10812SOL    HW233878   3.208   6.799   5.657
10813SOL     OW33879   2.151   5.639   5.780
10813SOL    HW133880   2.195   5.697   5.719
10813SOL    HW233881   2.218   5.576   5.808
10814SOL     OW33882   2.810   5.848   6.038
10814SOL    HW133883   2.786   5.877   5.950
10814SOL    HW233884   2.905   5.854   6.041
10815SOL     OW33885   2.935   6.261   7.039
10815SOL    HW133886   2.864   6.196   7.038
10815SOL    HW233887   3.015   6.208   7.031
10816SOL     OW33888   3.076   7.157   6.382
10816SOL    HW133889   3.096   7.224   6.317
10816SOL    HW233890   3.157   7.147   6.431
10817SOL     OW33891   2.334   6.746   6.309
10817SOL    HW133892   2.268   6.724   6.374
10817SOL    HW233893   2.290   6.731   6.225
10818SOL     OW33894   3.129   7.382   6.207
10818SOL    HW133895   3.167   7.442   6.143
10818SOL    HW233896   3.044   7.420   6.229
10819SOL     OW33897   2.890   6.122   5.615
10819SOL    HW133898   2.845   6.204   5.594
10819SOL    HW233899   2.955   6.146   5.681
10820SOL     OW33900   2.425   5.805   6.754
10820SOL    HW133901   2.470   5.727   6.786
10820SOL    HW233902   2.336   5.797   6.785
10821SOL     OW33903   2.731   6.048   6.219
10821SOL    HW133904   2.687   6.101   6.152
10821SOL    HW233905   2.756   5.969   6.173
10822SOL     OW33906   2.861   5.648   6.334
10822SOL    HW133907   2.807   5.633   6.257
10822SOL    HW233908   2.852   5.568   6.386
10823SOL     OW33909   3.290   6.749   6.431
10823SOL    HW133910   3.223   6.683   6.447
10823SOL    HW233911   3.297   6.754   6.336
10824SOL     OW33912   3.326   6.183   6.547
10824SOL    HW133913   3.262   6.112   6.554
10824SOL    HW233914   3.379   6.176   6.627
10825SOL     OW33915   3.725   6.397   5.986
10825SOL    HW133916   3.761   6.321   6.032
10825SOL    HW233917   3.677   6.360   5.912
10826SOL     OW33918   2.351   7.022   5.768
10826SOL    HW133919   2.277   6.981   5.814
10826SOL    HW233920   2.347   6.985   5.680
10827SOL     OW33921   3.552   6.849   6.230
10827SOL    HW133922   3.647   6.851   6.241
10827SOL    HW233923   3.523   6.938   6.248
10828SOL     OW33924   3.312   6.146   5.726
10828SOL    HW133925   3.228   6.135   5.771
10828SOL    HW233926   3.296   6.112   5.637
10829SOL     OW33927   2.394   5.847   5.895
10829SOL    HW133928   2.440   5.799   5.826
10829SOL    HW233929   2.365   5.928   5.853
10830SOL     OW33930   3.614   6.824   7.156
10830SOL    HW133931   3.678   6.773   7.207
10830SOL    HW233932   3.633   6.915   7.178
10831SOL     OW33933   2.936   6.986   6.937
10831SOL    HW133934   2.853   6.954   6.970
10831SOL    HW233935   2.998   6.915   6.956
10832SOL     OW33936   3.471   7.229   7.255
10832SOL    HW133937   3.458   7.253   7.164
10832SOL    HW233938   3.548   7.171   7.254
10833SOL     OW33939   2.988   6.799   6.692
10833SOL    HW133940   2.910   6.763   6.733
10833SOL    HW233941   2.960   6.830   6.606
10834SOL     OW33942   3.496   6.698   6.652
10834SOL    HW133943   3.484   6.748   6.732
10834SOL    HW233944   3.412   6.705   6.606
10835SOL     OW33945   2.769   5.697   6.967
10835SOL    HW133946   2.792   5.664   6.880
10835SOL    HW233947   2.852   5.727   7.004
10836SOL     OW33948   2.848   6.701   7.306
10836SOL    HW133949   2.753   6.713   7.305
10836SOL    HW233950   2.863   6.624   7.251
10837SOL     OW33951   2.574   6.651   5.959
10837SOL    HW133952   2.559   6.626   6.050
10837SOL    HW233953   2.652   6.602   5.933
10838SOL     OW33954   2.277   6.404   6.866
10838SOL    HW133955   2.352   6.420   6.923
10838SOL    HW233956   2.286   6.313   6.838
10839SOL     OW33957   3.133   5.956   6.863
10839SOL    HW133958   3.162   6.034   6.911
10839SOL    HW233959   3.042   5.976   6.839
10840SOL     OW33960   1.944   7.156   6.937
10840SOL    HW133961   1.918   7.231   6.884
10840SOL    HW233962   2.040   7.154   6.931
10841SOL     OW33963   2.195   6.707   6.072
10841SOL    HW133964   2.191   6.777   6.007
10841SOL    HW233965   2.196   6.626   6.020
10842SOL     OW33966   2.410   6.114   6.438
10842SOL    HW133967   2.421   6.175   6.366
10842SOL    HW233968   2.477   6.138   6.502
10843SOL     OW33969   3.112   6.931   5.989
10843SOL    HW133970   3.170   7.002   6.015
10843SOL    HW233971   3.025   6.959   6.018
10844SOL     OW33972   3.148   7.045   6.725
10844SOL    HW133973   3.193   7.042   6.809
10844SOL    HW233974   3.080   6.978   6.732
10845SOL     OW33975   3.451   6.246   6.054
10845SOL    HW133976   3.402   6.266   6.134
10845SOL    HW233977   3.391   6.270   5.983
10846SOL     OW33978   2.215   7.114   6.899
10846SOL    HW133979   2.197   7.073   6.814
10846SOL    HW233980   2.310   7.125   6.900
10847SOL     OW33981   2.281   6.321   7.192
10847SOL    HW133982   2.348   6.363   7.138
10847SOL    HW233983   2.315   6.233   7.208
10848SOL     OW33984   3.468   6.377   7.276
10848SOL    HW133985   3.378   6.409   7.269
10848SOL    HW233986   3.514   6.417   7.203
10849SOL     OW33987   2.855   5.726   7.340
10849SOL    HW133988   2.918   5.794   7.314
10849SOL    HW233989   2.895   5.644   7.311
10850SOL     OW33990   2.357   5.627   7.344
10850SOL    HW133991   2.317   5.569   7.279
10850SOL    HW233992   2.297   5.701   7.351
10851SOL     OW33993   2.463   6.466   6.631
10851SOL    HW133994   2.510   6.548   6.620
10851SOL    HW233995   2.404   6.481   6.706
10852SOL     OW33996   3.206   6.440   6.606
10852SOL    HW133997   3.116   6.423   6.579
10852SOL    HW233998   3.252   6.357   6.594
10853SOL     OW33999   3.068   6.119   5.852
10853SOL    HW134000   3.068   6.036   5.900
10853SOL    HW234001   3.015   6.177   5.907
10854SOL     OW34002   2.160   5.780   6.832
10854SOL    HW134003   2.123   5.805   6.916
10854SOL    HW234004   2.149   5.685   6.829
10855SOL     OW34005   1.872   6.900   6.867
10855SOL    HW134006   1.919   6.842   6.927
10855SOL    HW234007   1.898   6.988   6.893
10856SOL     OW34008   2.577   6.205   6.636
10856SOL    HW134009   2.659   6.193   6.587
10856SOL    HW234010   2.559   6.299   6.629
10857SOL     OW34011   3.598   6.558   7.439
10857SOL    HW134012   3.559   6.486   7.389
10857SOL    HW234013   3.538   6.571   7.512
10858SOL     OW34014   2.165   5.648   6.220
10858SOL    HW134015   2.144   5.741   6.233
10858SOL    HW234016   2.203   5.621   6.304
10859SOL     OW34017   3.510   5.976   5.946
10859SOL    HW134018   3.535   5.902   6.001
10859SOL    HW234019   3.488   6.046   6.007
10860SOL     OW34020   2.895   6.339   6.544
10860SOL    HW134021   2.885   6.357   6.637
10860SOL    HW234022   2.865   6.249   6.533
10861SOL     OW34023   2.840   7.157   7.293
10861SOL    HW134024   2.830   7.202   7.209
10861SOL    HW234025   2.887   7.076   7.271
10862SOL     OW34026   3.704   7.085   7.199
10862SOL    HW134027   3.736   7.128   7.120
10862SOL    HW234028   3.779   7.084   7.258
10863SOL     OW34029   2.213   6.497   7.392
10863SOL    HW134030   2.293   6.516   7.440
10863SOL    HW234031   2.240   6.433   7.326
10864SOL     OW34032   3.379   5.836   5.731
10864SOL    HW134033   3.314   5.766   5.722
10864SOL    HW234034   3.386   5.849   5.826
10865SOL     OW34035   3.169   6.410   5.623
10865SOL    HW134036   3.218   6.328   5.619
10865SOL    HW234037   3.184   6.451   5.538
10866SOL     OW34038   2.924   6.926   6.445
10866SOL    HW134039   2.929   6.853   6.384
10866SOL    HW234040   2.977   6.995   6.404
10867SOL     OW34041   2.175   6.422   6.559
10867SOL    HW134042   2.270   6.416   6.546
10867SOL    HW234043   2.142   6.335   6.537
10868SOL     OW34044   2.204   6.112   6.605
10868SOL    HW134045   2.158   6.030   6.586
10868SOL    HW234046   2.276   6.115   6.542
10869SOL     OW34047   2.996   5.961   7.268
10869SOL    HW134048   2.950   6.015   7.332
10869SOL    HW234049   3.085   5.996   7.267
10870SOL     OW34050   3.014   5.787   7.053
10870SOL    HW134051   3.009   5.850   7.125
10870SOL    HW234052   3.065   5.832   6.985
10871SOL     OW34053   1.846   6.928   5.850
10871SOL    HW134054   1.768   6.941   5.796
10871SOL    HW234055   1.861   6.834   5.848
10872SOL     OW34056   1.952   7.369   6.523
10872SOL    HW134057   1.922   7.287   6.482
10872SOL    HW234058   2.042   7.380   6.493
10873SOL     OW34059   2.350   7.158   6.488
10873SOL    HW134060   2.421   7.218   6.512
10873SOL    HW234061   2.391   7.095   6.429
10874SOL     OW34062   2.859   6.396   6.805
10874SOL    HW134063   2.887   6.347   6.882
10874SOL    HW234064   2.803   6.466   6.840
10875SOL     OW34065   1.929   6.152   6.718
10875SOL    HW134066   1.973   6.074   6.684
10875SOL    HW234067   1.899   6.198   6.640
10876SOL     OW34068   2.060   6.109   7.320
10876SOL    HW134069   2.117   6.055   7.265
10876SOL    HW234070   2.023   6.174   7.260
10877SOL     OW34071   3.233   6.523   7.245
10877SOL    HW134072   3.262   6.613   7.235
10877SOL    HW234073   3.228   6.489   7.156
10878SOL     OW34074   2.680   6.160   5.952
10878SOL    HW134075   2.688   6.085   5.893
10878SOL    HW234076   2.604   6.208   5.919
10879SOL     OW34077   3.501   6.193   6.765
10879SOL    HW134078   3.494   6.128   6.835
10879SOL    HW234079   3.589   6.179   6.728
10880SOL     OW34080   2.052   7.106   7.327
10880SOL    HW134081   2.121   7.169   7.346
10880SOL    HW234082   2.083   7.023   7.364
10881SOL     OW34083   2.544   6.040   6.848
10881SOL    HW134084   2.508   5.958   6.813
10881SOL    HW234085   2.551   6.097   6.771
10882SOL     OW34086   2.782   7.276   7.050
10882SOL    HW134087   2.783   7.218   6.974
10882SOL    HW234088   2.698   7.322   7.044
10883SOL     OW34089   2.320   6.081   5.782
10883SOL    HW134090   2.381   6.153   5.797
10883SOL    HW234091   2.236   6.123   5.762
10884SOL     OW34092   1.995   6.719   7.050
10884SOL    HW134093   2.005   6.680   7.137
10884SOL    HW234094   2.006   6.646   6.989
10885SOL     OW34095   3.192   6.638   6.796
10885SOL    HW134096   3.201   6.567   6.732
10885SOL    HW234097   3.120   6.692   6.762
10886SOL     OW34098   3.183   6.433   5.898
10886SOL    HW134099   3.104   6.404   5.945
10886SOL    HW234100   3.162   6.422   5.806
10887SOL     OW34101   3.655   7.311   6.755
10887SOL    HW134102   3.710   7.337   6.681
10887SOL    HW234103   3.614   7.229   6.727
10888SOL     OW34104   3.105   7.326   6.704
10888SOL    HW134105   3.188   7.344   6.660
10888SOL    HW234106   3.104   7.231   6.717
10889SOL     OW34107   1.921   6.895   6.587
10889SOL    HW134108   1.906   6.883   6.681
10889SOL    HW234109   1.877   6.820   6.546
10890SOL     OW34110   2.553   7.262   7.324
10890SOL    HW134111   2.510   7.310   7.253
10890SOL    HW234112   2.645   7.258   7.297
10891SOL     OW34113   3.610   5.757   6.098
10891SOL    HW134114   3.675   5.738   6.030
10891SOL    HW234115   3.578   5.671   6.126
10892SOL     OW34116   3.267   7.152   6.084
10892SOL    HW134117   3.316   7.185   6.009
10892SOL    HW234118   3.203   7.221   6.103
10893SOL     OW34119   1.962   7.408   7.438
10893SOL    HW134120   1.943   7.319   7.465
10893SOL    HW234121   2.040   7.432   7.489
10894SOL     OW34122   3.140   6.518   6.258
10894SOL    HW134123   3.212   6.456   6.266
10894SOL    HW234124   3.175   6.588   6.203
10895SOL     OW34125   2.693   6.920   7.020
10895SOL    HW134126   2.637   6.930   7.097
10895SOL    HW234127   2.682   6.829   6.994
10896SOL     OW34128   2.533   7.220   5.747
10896SOL    HW134129   2.543   7.230   5.653
10896SOL    HW234130   2.478   7.142   5.757
10897SOL     OW34131   3.476   7.312   6.983
10897SOL    HW134132   3.535   7.311   6.907
10897SOL    HW234133   3.463   7.405   7.002
10898SOL     OW34134   2.118   5.899   6.303
10898SOL    HW134135   2.032   5.930   6.275
10898SOL    HW234136   2.118   5.909   6.398
10899SOL     OW34137   3.067   7.184   5.621
10899SOL    HW134138   3.058   7.093   5.646
10899SOL    HW234139   3.005   7.196   5.548
10900SOL     OW34140   2.794   6.516   5.886
10900SOL    HW134141   2.852   6.541   5.813
10900SOL    HW234142   2.834   6.436   5.921
10901SOL     OW34143   3.342   7.242   5.634
10901SOL    HW134144   3.252   7.214   5.616
10901SOL    HW234145   3.386   7.238   5.549
10902SOL     OW34146   2.215   6.901   7.092
10902SOL    HW134147   2.223   6.966   7.022
10902SOL    HW234148   2.150   6.838   7.058
10903SOL     OW34149   3.498   6.885   6.883
10903SOL    HW134150   3.524   6.844   6.966
10903SOL    HW234151   3.423   6.939   6.906
10904SOL     OW34152   2.927   6.699   6.302
10904SOL    HW134153   2.853   6.649   6.336
10904SOL    HW234154   2.989   6.632   6.271
10905SOL     OW34155   2.887   5.826   6.553
10905SOL    HW134156   2.878   5.781   6.468
10905SOL    HW234157   2.882   5.756   6.618
10906SOL     OW34158   2.465   7.079   6.061
10906SOL    HW134159   2.526   7.027   6.008
10906SOL    HW234160   2.382   7.075   6.013
10907SOL     OW34161   3.589   5.987   6.957
10907SOL    HW134162   3.666   6.044   6.958
10907SOL    HW234163   3.616   5.910   6.908
10908SOL     OW34164   2.133   6.921   5.897
10908SOL    HW134165   2.049   6.921   5.851
10908SOL    HW234166   2.115   6.966   5.979
10909SOL     OW34167   1.982   6.628   7.319
10909SOL    HW134168   1.905   6.596   7.365
10909SOL    HW234169   2.055   6.576   7.353
10910SOL     OW34170   2.536   5.792   7.091
10910SOL    HW134171   2.616   5.768   7.044
10910SOL    HW234172   2.567   5.820   7.177
10911SOL     OW34173   1.927   5.922   5.625
10911SOL    HW134174   1.857   5.885   5.571
10911SOL    HW234175   1.962   5.994   5.572
10912SOL     OW34176   3.283   6.446   6.987
10912SOL    HW134177   3.233   6.501   6.927
10912SOL    HW234178   3.371   6.444   6.949
10913SOL     OW34179   1.924   5.753   5.877
10913SOL    HW134180   1.907   5.819   5.810
10913SOL    HW234181   2.010   5.717   5.855
10914SOL     OW34182   3.035   6.920   5.710
10914SOL    HW134183   2.944   6.894   5.705
10914SOL    HW234184   3.059   6.908   5.802
10915SOL     OW34185   2.488   6.410   7.032
10915SOL    HW134186   2.541   6.487   7.009
10915SOL    HW234187   2.551   6.338   7.034
10916SOL     OW34188   3.349   7.388   6.580
10916SOL    HW134189   3.369   7.408   6.489
10916SOL    HW234190   3.408   7.316   6.603
10917SOL     OW34191   2.563   6.141   7.304
10917SOL    HW134192   2.623   6.198   7.351
10917SOL    HW234193   2.589   6.052   7.327
10918SOL     OW34194   3.340   6.779   7.213
10918SOL    HW134195   3.326   6.792   7.307
10918SOL    HW234196   3.434   6.790   7.201
10919SOL     OW34197   2.208   7.327   7.222
10919SOL    HW134198   2.136   7.371   7.177
10919SOL    HW234199   2.245   7.268   7.157
10920SOL     OW34200   3.523   6.463   6.834
10920SOL    HW134201   3.517   6.373   6.804
10920SOL    HW234202   3.512   6.516   6.756
10921SOL     OW34203   3.089   5.907   6.043
10921SOL    HW134204   3.149   5.835   6.025
10921SOL    HW234205   3.125   5.950   6.121
10922SOL     OW34206   2.441   6.326   6.265
10922SOL    HW134207   2.486   6.408   6.245
10922SOL    HW234208   2.381   6.313   6.192
10923SOL     OW34209   3.616   5.972   7.237
10923SOL    HW134210   3.594   5.977   7.144
10923SOL    HW234211   3.558   5.905   7.272
10924SOL     OW34212   3.591   6.528   7.089
10924SOL    HW134213   3.601   6.623   7.088
10924SOL    HW234214   3.578   6.505   6.997
10925SOL     OW34215   2.743   6.956   5.644
10925SOL    HW134216   2.683   6.987   5.711
10925SOL    HW234217   2.749   7.028   5.582
10926SOL     OW34218   2.522   7.371   6.517
10926SOL    HW134219   2.512   7.464   6.500
10926SOL    HW234220   2.617   7.355   6.510
10927SOL     OW34221   2.736   6.556   6.437
10927SOL    HW134222   2.780   6.481   6.476
10927SOL    HW234223   2.694   6.601   6.510
10928SOL     OW34224   2.959   6.587   5.679
10928SOL    HW134225   2.924   6.624   5.599
10928SOL    HW234226   3.024   6.523   5.650
10929SOL     OW34227   3.704   7.143   6.429
10929SOL    HW134228   3.628   7.132   6.371
10929SOL    HW234229   3.701   7.067   6.487
10930SOL     OW34230   2.073   6.855   7.446
10930SOL    HW134231   2.037   6.783   7.394
10930SOL    HW234232   2.007   6.870   7.514
10931SOL     OW34233   1.946   6.821   6.244
10931SOL    HW134234   1.957   6.768   6.323
10931SOL    HW234235   2.005   6.780   6.180
10932SOL     OW34236   2.557   6.984   7.262
10932SOL    HW134237   2.468   6.949   7.269
10932SOL    HW234238   2.546   7.079   7.262
10933SOL     OW34239   3.680   5.766   6.831
10933SOL    HW134240   3.686   5.688   6.887
10933SOL    HW234241   3.669   5.730   6.743
10934SOL     OW34242   2.289   6.021   6.109
10934SOL    HW134243   2.326   5.957   6.047
10934SOL    HW234244   2.245   5.968   6.175
10935SOL     OW34245   3.541   7.076   6.684
10935SOL    HW134246   3.470   7.052   6.625
10935SOL    HW234247   3.539   7.010   6.753
10936SOL     OW34248   2.216   6.133   6.875
10936SOL    HW134249   2.276   6.077   6.925
10936SOL    HW234250   2.231   6.107   6.784
10937SOL     OW34251   2.689   7.160   6.256
10937SOL    HW134252   2.657   7.217   6.186
10937SOL    HW234253   2.619   7.096   6.268
10938SOL     OW34254   3.300   5.806   6.693
10938SOL    HW134255   3.305   5.715   6.722
10938SOL    HW234256   3.250   5.851   6.762
10939SOL     OW34257   2.865   5.600   6.721
10939SOL    HW134258   2.819   5.535   6.669
10939SOL    HW234259   2.953   5.564   6.732
10940SOL     OW34260   2.635   6.920   5.921
10940SOL    HW134261   2.598   6.832   5.921
10940SOL    HW234262   2.728   6.906   5.941
10941SOL     OW34263   2.483   7.139   6.866
10941SOL    HW134264   2.486   7.221   6.915
10941SOL    HW234265   2.572   7.127   6.834
10942SOL     OW34266   3.212   5.629   5.736
10942SOL    HW134267   3.256   5.554   5.697
10942SOL    HW234268   3.123   5.598   5.754
10943SOL     OW34269   3.180   6.057   6.271
10943SOL    HW134270   3.117   6.128   6.265
10943SOL    HW234271   3.160   6.014   6.354
10944SOL     OW34272   3.504   5.762   6.467
10944SOL    HW134273   3.438   5.770   6.536
10944SOL    HW234274   3.491   5.841   6.413
10945SOL     OW34275   1.905   6.654   5.899
10945SOL    HW134276   1.995   6.646   5.866
10945SOL    HW234277   1.879   6.564   5.920
10946SOL     OW34278   2.754   7.252   5.921
10946SOL    HW134279   2.679   7.231   5.866
10946SOL    HW234280   2.722   7.318   5.983
10947SOL     OW34281   2.083   6.222   7.579
10947SOL    HW134282   1.996   6.198   7.610
10947SOL    HW234283   2.083   6.197   7.486
10948SOL     OW34284   2.080   5.879   8.446
10948SOL    HW134285   2.113   5.838   8.525
10948SOL    HW234286   1.994   5.839   8.432
10949SOL     OW34287   1.863   5.970   8.085
10949SOL    HW134288   1.780   5.986   8.130
10949SOL    HW234289   1.845   5.894   8.029
10950SOL     OW34290   2.440   6.882   8.644
10950SOL    HW134291   2.352   6.871   8.608
10950SOL    HW234292   2.447   6.975   8.664
10951SOL     OW34293   3.437   7.108   8.156
10951SOL    HW134294   3.393   7.077   8.234
10951SOL    HW234295   3.370   7.108   8.088
10952SOL     OW34296   3.627   6.203   7.669
10952SOL    HW134297   3.630   6.218   7.574
10952SOL    HW234298   3.582   6.119   7.678
10953SOL     OW34299   2.623   6.729   8.505
10953SOL    HW134300   2.557   6.764   8.564
10953SOL    HW234301   2.651   6.805   8.453
10954SOL     OW34302   2.754   6.383   9.300
10954SOL    HW134303   2.674   6.421   9.338
10954SOL    HW234304   2.749   6.405   9.207
10955SOL     OW34305   2.548   6.583   8.096
10955SOL    HW134306   2.613   6.574   8.166
10955SOL    HW234307   2.480   6.640   8.133
10956SOL     OW34308   2.581   6.739   9.250
10956SOL    HW134309   2.619   6.816   9.293
10956SOL    HW234310   2.494   6.767   9.224
10957SOL     OW34311   2.183   7.017   8.513
10957SOL    HW134312   2.115   6.966   8.469
10957SOL    HW234313   2.233   7.057   8.441
10958SOL     OW34314   3.350   7.070   8.819
10958SOL    HW134315   3.396   7.153   8.811
10958SOL    HW234316   3.272   7.090   8.870
10959SOL     OW34317   2.313   5.980   8.936
10959SOL    HW134318   2.390   5.923   8.935
10959SOL    HW234319   2.239   5.920   8.946
10960SOL     OW34320   3.438   6.056   8.179
10960SOL    HW134321   3.429   6.031   8.087
10960SOL    HW234322   3.524   6.097   8.185
10961SOL     OW34323   2.060   7.310   7.917
10961SOL    HW134324   2.106   7.376   7.970
10961SOL    HW234325   2.129   7.268   7.865
10962SOL     OW34326   2.097   7.038   7.998
10962SOL    HW134327   2.049   7.121   8.006
10962SOL    HW234328   2.047   6.976   8.051
10963SOL     OW34329   2.139   6.675   8.350
10963SOL    HW134330   2.139   6.583   8.376
10963SOL    HW234331   2.072   6.715   8.405
10964SOL     OW34332   2.452   7.382   8.873
10964SOL    HW134333   2.375   7.362   8.926
10964SOL    HW234334   2.480   7.469   8.903
10965SOL     OW34335   2.431   6.572   7.597
10965SOL    HW134336   2.479   6.617   7.528
10965SOL    HW234337   2.474   6.600   7.678
10966SOL     OW34338   3.440   5.725   8.900
10966SOL    HW134339   3.485   5.793   8.850
10966SOL    HW234340   3.431   5.761   8.988
10967SOL     OW34341   1.978   6.239   8.008
10967SOL    HW134342   1.951   6.149   8.026
10967SOL    HW234343   1.971   6.284   8.092
10968SOL     OW34344   3.695   7.349   7.790
10968SOL    HW134345   3.771   7.316   7.839
10968SOL    HW234346   3.725   7.431   7.751
10969SOL     OW34347   1.929   7.182   7.593
10969SOL    HW134348   1.909   7.089   7.584
10969SOL    HW234349   1.866   7.214   7.657
10970SOL     OW34350   3.579   6.532   8.098
10970SOL    HW134351   3.615   6.449   8.068
10970SOL    HW234352   3.544   6.574   8.020
10971SOL     OW34353   3.505   6.692   7.879
10971SOL    HW134354   3.590   6.692   7.835
10971SOL    HW234355   3.513   6.759   7.947
10972SOL     OW34356   1.993   6.331   9.033
10972SOL    HW134357   2.085   6.357   9.042
10972SOL    HW234358   1.944   6.412   9.040
10973SOL     OW34359   2.473   6.986   8.171
10973SOL    HW134360   2.434   6.899   8.182
10973SOL    HW234361   2.451   7.010   8.081
10974SOL     OW34362   3.138   6.823   8.900
10974SOL    HW134363   3.153   6.759   8.831
10974SOL    HW234364   3.209   6.809   8.962
10975SOL     OW34365   2.686   5.609   7.968
10975SOL    HW134366   2.723   5.692   7.938
10975SOL    HW234367   2.592   5.622   7.968
10976SOL     OW34368   2.050   6.544   8.716
10976SOL    HW134369   2.136   6.504   8.706
10976SOL    HW234370   1.990   6.484   8.671
10977SOL     OW34371   3.395   6.590   7.643
10977SOL    HW134372   3.329   6.526   7.670
10977SOL    HW234373   3.434   6.619   7.725
10978SOL     OW34374   3.035   7.388   9.066
10978SOL    HW134375   3.048   7.457   9.000
10978SOL    HW234376   3.069   7.309   9.025
10979SOL     OW34377   2.194   5.829   9.296
10979SOL    HW134378   2.232   5.916   9.290
10979SOL    HW234379   2.100   5.844   9.306
10980SOL     OW34380   3.337   6.999   8.395
10980SOL    HW134381   3.266   7.016   8.457
10980SOL    HW234382   3.318   6.912   8.360
10981SOL     OW34383   3.501   7.353   8.027
10981SOL    HW134384   3.503   7.317   7.939
10981SOL    HW234385   3.487   7.277   8.084
10982SOL     OW34386   2.451   6.305   7.715
10982SOL    HW134387   2.450   6.387   7.665
10982SOL    HW234388   2.385   6.318   7.783
10983SOL     OW34389   3.139   5.950   8.391
10983SOL    HW134390   3.053   5.908   8.398
10983SOL    HW234391   3.197   5.895   8.444
10984SOL     OW34392   3.433   7.268   7.759
10984SOL    HW134393   3.527   7.282   7.751
10984SOL    HW234394   3.404   7.249   7.670
10985SOL     OW34395   2.648   6.205   8.897
10985SOL    HW134396   2.629   6.174   8.986
10985SOL    HW234397   2.619   6.134   8.840
10986SOL     OW34398   3.255   6.058   9.125
10986SOL    HW134399   3.266   6.098   9.212
10986SOL    HW234400   3.306   5.977   9.130
10987SOL     OW34401   2.808   6.466   9.035
10987SOL    HW134402   2.861   6.395   8.998
10987SOL    HW234403   2.755   6.497   8.962
10988SOL     OW34404   2.856   6.004   8.669
10988SOL    HW134405   2.765   6.006   8.698
10988SOL    HW234406   2.855   5.944   8.594
10989SOL     OW34407   2.903   6.252   7.894
10989SOL    HW134408   2.897   6.194   7.970
10989SOL    HW234409   2.822   6.236   7.845
10990SOL     OW34410   1.951   6.403   8.229
10990SOL    HW134411   2.032   6.395   8.279
10990SOL    HW234412   1.910   6.482   8.264
10991SOL     OW34413   1.980   7.457   9.032
10991SOL    HW134414   1.984   7.443   9.127
10991SOL    HW234415   1.908   7.402   9.003
10992SOL     OW34416   2.766   5.933   7.642
10992SOL    HW134417   2.804   5.995   7.580
10992SOL    HW234418   2.762   5.850   7.595
10993SOL     OW34419   3.565   6.169   9.284
10993SOL    HW134420   3.533   6.238   9.227
10993SOL    HW234421   3.591   6.099   9.225
10994SOL     OW34422   3.236   6.724   7.981
10994SOL    HW134423   3.315   6.705   7.931
10994SOL    HW234424   3.188   6.787   7.927
10995SOL     OW34425   2.403   5.759   8.343
10995SOL    HW134426   2.413   5.793   8.432
10995SOL    HW234427   2.405   5.837   8.288
10996SOL     OW34428   2.884   7.046   7.932
10996SOL    HW134429   2.840   7.107   7.872
10996SOL    HW234430   2.838   7.057   8.015
10997SOL     OW34431   2.212   7.406   8.319
10997SOL    HW134432   2.251   7.319   8.323
10997SOL    HW234433   2.283   7.466   8.341
10998SOL     OW34434   3.668   6.646   8.327
10998SOL    HW134435   3.637   6.620   8.241
10998SOL    HW234436   3.601   6.614   8.388
10999SOL     OW34437   3.104   7.129   8.936
10999SOL    HW134438   3.110   7.046   8.985
10999SOL    HW234439   3.028   7.118   8.880
11000SOL     OW34440   2.167   6.542   7.700
11000SOL    HW134441   2.251   6.563   7.658
11000SOL    HW234442   2.140   6.460   7.659
11001SOL     OW34443   3.308   6.324   8.198
11001SOL    HW134444   3.341   6.262   8.263
11001SOL    HW234445   3.363   6.310   8.121
11002SOL     OW34446   2.343   6.861   9.184
11002SOL    HW134447   2.311   6.870   9.095
11002SOL    HW234448   2.266   6.835   9.235
11003SOL     OW34449   2.992   7.356   7.681
11003SOL    HW134450   2.916   7.315   7.722
11003SOL    HW234451   3.015   7.297   7.609
11004SOL     OW34452   2.066   5.849   8.951
11004SOL    HW134453   1.983   5.898   8.954
11004SOL    HW234454   2.044   5.762   8.983
11005SOL     OW34455   3.479   6.987   7.551
11005SOL    HW134456   3.437   7.064   7.514
11005SOL    HW234457   3.423   6.914   7.524
11006SOL     OW34458   2.385   7.345   7.814
11006SOL    HW134459   2.400   7.262   7.861
11006SOL    HW234460   2.427   7.333   7.730
11007SOL     OW34461   3.258   5.692   7.878
11007SOL    HW134462   3.241   5.669   7.786
11007SOL    HW234463   3.353   5.687   7.886
11008SOL     OW34464   2.126   7.373   8.667
11008SOL    HW134465   2.163   7.311   8.731
11008SOL    HW234466   2.148   7.336   8.582
11009SOL     OW34467   2.804   7.282   8.341
11009SOL    HW134468   2.889   7.241   8.349
11009SOL    HW234469   2.760   7.234   8.271
11010SOL     OW34470   2.258   6.280   7.927
11010SOL    HW134471   2.278   6.187   7.936
11010SOL    HW234472   2.163   6.285   7.936
11011SOL     OW34473   3.388   5.811   9.171
11011SOL    HW134474   3.388   5.831   9.265
11011SOL    HW234475   3.352   5.722   9.166
11012SOL     OW34476   2.511   5.697   7.554
11012SOL    HW134477   2.571   5.624   7.568
11012SOL    HW234478   2.456   5.670   7.480
11013SOL     OW34479   2.628   5.866   9.206
11013SOL    HW134480   2.711   5.820   9.197
11013SOL    HW234481   2.581   5.820   9.275
11014SOL     OW34482   2.735   7.115   8.644
11014SOL    HW134483   2.722   7.077   8.558
11014SOL    HW234484   2.805   7.062   8.683
11015SOL     OW34485   3.194   6.177   8.885
11015SOL    HW134486   3.228   6.138   8.966
11015SOL    HW234487   3.243   6.259   8.876
11016SOL     OW34488   2.680   6.976   8.392
11016SOL    HW134489   2.767   6.968   8.352
11016SOL    HW234490   2.620   6.985   8.317
11017SOL     OW34491   2.795   6.103   8.336
11017SOL    HW134492   2.777   6.090   8.243
11017SOL    HW234493   2.819   6.017   8.368
11018SOL     OW34494   2.417   5.653   7.945
11018SOL    HW134495   2.333   5.649   7.992
11018SOL    HW234496   2.406   5.726   7.884
11019SOL     OW34497   3.295   6.792   7.484
11019SOL    HW134498   3.327   6.715   7.532
11019SOL    HW234499   3.207   6.807   7.517
11020SOL     OW34500   2.153   5.634   7.634
11020SOL    HW134501   2.207   5.688   7.576
11020SOL    HW234502   2.214   5.572   7.673
11021SOL     OW34503   2.812   5.852   7.903
11021SOL    HW134504   2.789   5.876   7.813
11021SOL    HW234505   2.908   5.848   7.903
11022SOL     OW34506   2.939   6.273   8.892
11022SOL    HW134507   2.876   6.200   8.895
11022SOL    HW234508   3.025   6.230   8.890
11023SOL     OW34509   3.070   7.177   8.251
11023SOL    HW134510   3.085   7.230   8.173
11023SOL    HW234511   3.148   7.190   8.304
11024SOL     OW34512   2.335   6.746   8.173
11024SOL    HW134513   2.271   6.721   8.240
11024SOL    HW234514   2.291   6.730   8.090
11025SOL     OW34515   3.123   7.382   8.061
11025SOL    HW134516   3.173   7.437   8.001
11025SOL    HW234517   3.055   7.440   8.095
11026SOL     OW34518   2.883   6.118   7.475
11026SOL    HW134519   2.842   6.202   7.452
11026SOL    HW234520   2.953   6.142   7.536
11027SOL     OW34521   1.952   6.141   8.840
11027SOL    HW134522   2.044   6.139   8.813
11027SOL    HW234523   1.948   6.210   8.906
11028SOL     OW34524   2.424   5.814   8.617
11028SOL    HW134525   2.466   5.733   8.646
11028SOL    HW234526   2.333   5.805   8.646
11029SOL     OW34527   2.759   6.069   8.065
11029SOL    HW134528   2.695   6.109   8.006
11029SOL    HW234529   2.775   5.983   8.028
11030SOL     OW34530   2.853   5.656   8.201
11030SOL    HW134531   2.804   5.638   8.121
11030SOL    HW234532   2.849   5.574   8.251
11031SOL     OW34533   3.307   6.749   8.289
11031SOL    HW134534   3.234   6.696   8.257
11031SOL    HW234535   3.364   6.759   8.213
11032SOL     OW34536   3.296   6.193   8.457
11032SOL    HW134537   3.258   6.107   8.442
11032SOL    HW234538   3.369   6.177   8.517
11033SOL     OW34539   3.700   6.395   7.841
11033SOL    HW134540   3.757   6.342   7.896
11033SOL    HW234541   3.671   6.336   7.771
11034SOL     OW34542   2.346   7.011   7.593
11034SOL    HW134543   2.272   6.974   7.641
11034SOL    HW234544   2.352   6.958   7.513
11035SOL     OW34545   3.528   6.848   8.109
11035SOL    HW134546   3.624   6.841   8.111
11035SOL    HW234547   3.511   6.942   8.105
11036SOL     OW34548   3.258   6.168   7.521
11036SOL    HW134549   3.190   6.146   7.585
11036SOL    HW234550   3.331   6.110   7.542
11037SOL     OW34551   2.391   5.850   7.759
11037SOL    HW134552   2.439   5.801   7.691
11037SOL    HW234553   2.360   5.929   7.714
11038SOL     OW34554   3.588   6.860   9.004
11038SOL    HW134555   3.641   6.785   9.033
11038SOL    HW234556   3.633   6.936   9.040
11039SOL     OW34557   2.911   6.961   8.805
11039SOL    HW134558   2.830   6.920   8.833
11039SOL    HW234559   2.980   6.903   8.835
11040SOL     OW34560   3.464   7.211   9.102
11040SOL    HW134561   3.458   7.247   9.014
11040SOL    HW234562   3.550   7.169   9.106
11041SOL     OW34563   2.993   6.815   8.548
11041SOL    HW134564   2.905   6.799   8.582
11041SOL    HW234565   2.979   6.846   8.458
11042SOL     OW34566   3.468   6.705   8.529
11042SOL    HW134567   3.498   6.778   8.475
11042SOL    HW234568   3.390   6.672   8.484
11043SOL     OW34569   2.772   5.690   8.830
11043SOL    HW134570   2.796   5.660   8.743
11043SOL    HW234571   2.854   5.722   8.868
11044SOL     OW34572   2.832   6.715   9.136
11044SOL    HW134573   2.742   6.727   9.167
11044SOL    HW234574   2.832   6.629   9.093
11045SOL     OW34575   2.569   6.646   7.825
11045SOL    HW134576   2.557   6.622   7.917
11045SOL    HW234577   2.648   6.600   7.798
11046SOL     OW34578   2.285   6.405   8.700
11046SOL    HW134579   2.350   6.415   8.769
11046SOL    HW234580   2.251   6.316   8.711
11047SOL     OW34581   3.123   5.957   8.734
11047SOL    HW134582   3.157   6.036   8.776
11047SOL    HW234583   3.035   5.980   8.705
11048SOL     OW34584   1.942   7.165   8.814
11048SOL    HW134585   1.917   7.227   8.746
11048SOL    HW234586   2.036   7.151   8.802
11049SOL     OW34587   2.194   6.706   7.938
11049SOL    HW134588   2.195   6.771   7.868
11049SOL    HW234589   2.195   6.622   7.892
11050SOL     OW34590   2.408   6.121   8.313
11050SOL    HW134591   2.421   6.179   8.237
11050SOL    HW234592   2.482   6.140   8.371
11051SOL     OW34593   3.112   6.932   7.841
11051SOL    HW134594   3.173   7.001   7.868
11051SOL    HW234595   3.027   6.960   7.875
11052SOL     OW34596   3.154   7.042   8.595
11052SOL    HW134597   3.199   7.033   8.679
11052SOL    HW234598   3.091   6.970   8.594
11053SOL     OW34599   3.440   6.278   7.961
11053SOL    HW134600   3.468   6.335   7.889
11053SOL    HW234601   3.451   6.189   7.927
11054SOL     OW34602   2.206   7.117   8.759
11054SOL    HW134603   2.193   7.074   8.674
11054SOL    HW234604   2.301   7.127   8.766
11055SOL     OW34605   2.281   6.315   9.051
11055SOL    HW134606   2.345   6.362   8.999
11055SOL    HW234607   2.315   6.226   9.057
11056SOL     OW34608   3.467   6.375   9.133
11056SOL    HW134609   3.374   6.393   9.123
11056SOL    HW234610   3.509   6.427   9.065
11057SOL     OW34611   2.858   5.726   9.204
11057SOL    HW134612   2.919   5.795   9.177
11057SOL    HW234613   2.899   5.645   9.174
11058SOL     OW34614   2.355   5.627   9.201
11058SOL    HW134615   2.311   5.572   9.136
11058SOL    HW234616   2.293   5.698   9.219
11059SOL     OW34617   2.453   6.455   8.484
11059SOL    HW134618   2.475   6.548   8.488
11059SOL    HW234619   2.392   6.442   8.556
11060SOL     OW34620   3.225   6.456   8.505
11060SOL    HW134621   3.142   6.448   8.458
11060SOL    HW234622   3.265   6.370   8.497
11061SOL     OW34623   3.056   6.120   7.702
11061SOL    HW134624   3.071   6.031   7.734
11061SOL    HW234625   3.008   6.163   7.773
11062SOL     OW34626   2.161   5.781   8.693
11062SOL    HW134627   2.124   5.808   8.778
11062SOL    HW234628   2.146   5.686   8.690
11063SOL     OW34629   1.915   6.901   8.718
11063SOL    HW134630   1.946   6.838   8.783
11063SOL    HW234631   1.913   6.984   8.764
11064SOL     OW34632   2.595   6.214   8.501
11064SOL    HW134633   2.665   6.198   8.438
11064SOL    HW234634   2.561   6.300   8.478
11065SOL     OW34635   3.586   6.563   9.300
11065SOL    HW134636   3.548   6.487   9.255
11065SOL    HW234637   3.537   6.569   9.381
11066SOL     OW34638   2.171   5.645   8.073
11066SOL    HW134639   2.148   5.735   8.095
11066SOL    HW234640   2.182   5.602   8.158
11067SOL     OW34641   3.453   5.978   7.913
11067SOL    HW134642   3.499   5.897   7.936
11067SOL    HW234643   3.446   5.975   7.817
11068SOL     OW34644   2.930   6.332   8.393
11068SOL    HW134645   2.914   6.353   8.485
11068SOL    HW234646   2.886   6.249   8.379
11069SOL     OW34647   2.857   7.119   9.143
11069SOL    HW134648   2.851   7.189   9.078
11069SOL    HW234649   2.788   7.057   9.119
11070SOL     OW34650   3.714   7.100   9.050
11070SOL    HW134651   3.744   7.124   8.963
11070SOL    HW234652   3.791   7.109   9.106
11071SOL     OW34653   2.188   6.530   9.220
11071SOL    HW134654   2.201   6.541   9.314
11071SOL    HW234655   2.244   6.456   9.197
11072SOL     OW34656   3.157   6.421   7.486
11072SOL    HW134657   3.198   6.334   7.488
11072SOL    HW234658   3.182   6.457   7.401
11073SOL     OW34659   2.934   6.934   8.307
11073SOL    HW134660   2.934   6.862   8.244
11073SOL    HW234661   2.987   7.002   8.265
11074SOL     OW34662   2.174   6.396   8.392
11074SOL    HW134663   2.267   6.406   8.376
11074SOL    HW234664   2.165   6.306   8.424
11075SOL     OW34665   2.186   6.122   8.461
11075SOL    HW134666   2.150   6.034   8.450
11075SOL    HW234667   2.264   6.123   8.405
11076SOL     OW34668   2.993   5.966   9.133
11076SOL    HW134669   2.948   6.022   9.196
11076SOL    HW234670   3.082   6.002   9.129
11077SOL     OW34671   3.012   5.786   8.921
11077SOL    HW134672   3.007   5.851   8.991
11077SOL    HW234673   3.063   5.829   8.852
11078SOL     OW34674   1.880   6.899   7.644
11078SOL    HW134675   1.791   6.920   7.614
11078SOL    HW234676   1.873   6.811   7.680
11079SOL     OW34677   1.935   7.425   8.328
11079SOL    HW134678   1.905   7.335   8.317
11079SOL    HW234679   2.030   7.420   8.324
11080SOL     OW34680   2.349   7.166   8.343
11080SOL    HW134681   2.420   7.225   8.369
11080SOL    HW234682   2.390   7.102   8.285
11081SOL     OW34683   2.835   6.376   8.654
11081SOL    HW134684   2.887   6.353   8.732
11081SOL    HW234685   2.757   6.321   8.661
11082SOL     OW34686   1.898   6.146   8.564
11082SOL    HW134687   1.973   6.123   8.509
11082SOL    HW234688   1.931   6.140   8.654
11083SOL     OW34689   2.058   6.103   9.172
11083SOL    HW134690   2.102   6.053   9.103
11083SOL    HW234691   2.025   6.181   9.128
11084SOL     OW34692   3.226   6.530   9.107
11084SOL    HW134693   3.275   6.611   9.100
11084SOL    HW234694   3.227   6.493   9.019
11085SOL     OW34695   2.670   6.156   7.799
11085SOL    HW134696   2.679   6.080   7.742
11085SOL    HW234697   2.594   6.203   7.764
11086SOL     OW34698   3.507   6.189   8.639
11086SOL    HW134699   3.502   6.120   8.706
11086SOL    HW234700   3.591   6.176   8.597
11087SOL     OW34701   2.096   7.130   9.181
11087SOL    HW134702   2.069   7.175   9.260
11087SOL    HW234703   2.109   7.039   9.208
11088SOL     OW34704   2.576   6.030   8.703
11088SOL    HW134705   2.522   5.956   8.677
11088SOL    HW234706   2.570   6.091   8.629
11089SOL     OW34707   2.765   7.271   8.923
11089SOL    HW134708   2.755   7.227   8.839
11089SOL    HW234709   2.768   7.364   8.901
11090SOL     OW34710   2.312   6.078   7.634
11090SOL    HW134711   2.377   6.147   7.649
11090SOL    HW234712   2.230   6.125   7.622
11091SOL     OW34713   2.021   6.732   8.908
11091SOL    HW134714   2.007   6.690   8.993
11091SOL    HW234715   2.032   6.659   8.847
11092SOL     OW34716   3.177   6.657   8.681
11092SOL    HW134717   3.205   6.588   8.620
11092SOL    HW234718   3.115   6.709   8.630
11093SOL     OW34719   3.167   6.450   7.758
11093SOL    HW134720   3.103   6.390   7.797
11093SOL    HW234721   3.155   6.440   7.664
11094SOL     OW34722   3.618   7.317   8.591
11094SOL    HW134723   3.687   7.339   8.528
11094SOL    HW234724   3.607   7.222   8.581
11095SOL     OW34725   3.107   7.316   8.559
11095SOL    HW134726   3.190   7.343   8.519
11095SOL    HW234727   3.117   7.222   8.574
11096SOL     OW34728   1.941   6.873   8.448
11096SOL    HW134729   1.927   6.877   8.543
11096SOL    HW234730   1.881   6.805   8.417
11097SOL     OW34731   2.549   7.269   9.177
11097SOL    HW134732   2.486   7.341   9.175
11097SOL    HW234733   2.608   7.287   9.103
11098SOL     OW34734   3.594   5.746   7.965
11098SOL    HW134735   3.656   5.729   7.894
11098SOL    HW234736   3.570   5.659   7.997
11099SOL     OW34737   3.260   7.152   7.943
11099SOL    HW134738   3.316   7.183   7.872
11099SOL    HW234739   3.202   7.225   7.962
11100SOL     OW34740   1.992   7.404   9.295
11100SOL    HW134741   1.951   7.327   9.334
11100SOL    HW234742   2.047   7.439   9.364
11101SOL     OW34743   3.137   6.517   8.121
11101SOL    HW134744   3.220   6.472   8.137
11101SOL    HW234745   3.158   6.585   8.058
11102SOL     OW34746   2.658   6.864   8.858
11102SOL    HW134747   2.632   6.905   8.941
11102SOL    HW234748   2.582   6.874   8.801
11103SOL     OW34749   2.529   7.214   7.601
11103SOL    HW134750   2.538   7.236   7.508
11103SOL    HW234751   2.468   7.140   7.603
11104SOL     OW34752   3.479   7.313   8.833
11104SOL    HW134753   3.529   7.321   8.752
11104SOL    HW234754   3.462   7.403   8.860
11105SOL     OW34755   3.711   5.761   8.413
11105SOL    HW134756   3.736   5.671   8.393
11105SOL    HW234757   3.624   5.771   8.374
11106SOL     OW34758   2.120   5.898   8.164
11106SOL    HW134759   2.033   5.930   8.139
11106SOL    HW234760   2.117   5.894   8.260
11107SOL     OW34761   3.064   7.186   7.480
11107SOL    HW134762   3.057   7.093   7.503
11107SOL    HW234763   3.003   7.197   7.408
11108SOL     OW34764   2.684   6.589   8.825
11108SOL    HW134765   2.724   6.572   8.740
11108SOL    HW234766   2.682   6.684   8.832
11109SOL     OW34767   2.792   6.513   7.759
11109SOL    HW134768   2.842   6.540   7.682
11109SOL    HW234769   2.838   6.436   7.792
11110SOL     OW34770   3.336   7.247   7.494
11110SOL    HW134771   3.246   7.220   7.475
11110SOL    HW234772   3.380   7.245   7.409
11111SOL     OW34773   2.234   6.900   8.942
11111SOL    HW134774   2.215   6.972   8.882
11111SOL    HW234775   2.163   6.838   8.928
11112SOL     OW34776   2.914   6.707   8.167
11112SOL    HW134777   2.844   6.651   8.200
11112SOL    HW234778   2.968   6.649   8.113
11113SOL     OW34779   2.879   5.829   8.420
11113SOL    HW134780   2.869   5.785   8.335
11113SOL    HW234781   2.878   5.758   8.484
11114SOL     OW34782   2.438   7.081   7.909
11114SOL    HW134783   2.511   7.035   7.868
11114SOL    HW234784   2.360   7.042   7.870
11115SOL     OW34785   3.598   5.979   8.829
11115SOL    HW134786   3.673   6.040   8.827
11115SOL    HW234787   3.624   5.907   8.772
11116SOL     OW34788   2.139   6.926   7.759
11116SOL    HW134789   2.053   6.921   7.716
11116SOL    HW234790   2.122   6.968   7.843
11117SOL     OW34791   1.954   6.649   9.166
11117SOL    HW134792   1.885   6.612   9.221
11117SOL    HW234793   2.034   6.603   9.192
11118SOL     OW34794   2.537   5.789   8.948
11118SOL    HW134795   2.617   5.764   8.903
11118SOL    HW234796   2.566   5.816   9.035
11119SOL     OW34797   1.936   5.925   7.489
11119SOL    HW134798   1.863   5.890   7.438
11119SOL    HW234799   1.968   5.999   7.438
11120SOL     OW34800   3.286   6.445   8.855
11120SOL    HW134801   3.234   6.497   8.793
11120SOL    HW234802   3.374   6.445   8.817
11121SOL     OW34803   1.926   5.743   7.741
11121SOL    HW134804   1.913   5.814   7.679
11121SOL    HW234805   2.012   5.707   7.719
11122SOL     OW34806   3.040   6.920   7.565
11122SOL    HW134807   2.944   6.916   7.562
11122SOL    HW234808   3.061   6.911   7.658
11123SOL     OW34809   2.480   6.417   8.887
11123SOL    HW134810   2.539   6.490   8.872
11123SOL    HW234811   2.537   6.340   8.891
11124SOL     OW34812   3.351   7.373   8.441
11124SOL    HW134813   3.371   7.425   8.363
11124SOL    HW234814   3.437   7.354   8.479
11125SOL     OW34815   2.593   6.135   9.153
11125SOL    HW134816   2.629   6.179   9.231
11125SOL    HW234817   2.602   6.042   9.172
11126SOL     OW34818   3.333   6.787   9.089
11126SOL    HW134819   3.330   6.792   9.185
11126SOL    HW234820   3.424   6.806   9.067
11127SOL     OW34821   2.224   7.325   9.019
11127SOL    HW134822   2.140   7.370   9.008
11127SOL    HW234823   2.201   7.242   9.061
11128SOL     OW34824   3.523   6.460   8.707
11128SOL    HW134825   3.523   6.370   8.674
11128SOL    HW234826   3.513   6.514   8.629
11129SOL     OW34827   3.101   5.913   7.917
11129SOL    HW134828   3.132   5.825   7.895
11129SOL    HW234829   3.180   5.966   7.924
11130SOL     OW34830   2.444   6.324   8.128
11130SOL    HW134831   2.487   6.406   8.105
11130SOL    HW234832   2.382   6.308   8.057
11131SOL     OW34833   3.608   5.963   9.107
11131SOL    HW134834   3.604   5.972   9.012
11131SOL    HW234835   3.541   5.898   9.128
11132SOL     OW34836   3.581   6.550   8.957
11132SOL    HW134837   3.674   6.548   8.982
11132SOL    HW234838   3.580   6.518   8.867
11133SOL     OW34839   2.766   6.985   7.520
11133SOL    HW134840   2.675   6.998   7.546
11133SOL    HW234841   2.775   7.034   7.439
11134SOL     OW34842   2.525   7.375   8.381
11134SOL    HW134843   2.516   7.468   8.362
11134SOL    HW234844   2.619   7.358   8.377
11135SOL     OW34845   2.731   6.555   8.308
11135SOL    HW134846   2.777   6.479   8.343
11135SOL    HW234847   2.693   6.598   8.385
11136SOL     OW34848   2.932   6.573   7.537
11136SOL    HW134849   2.911   6.624   7.459
11136SOL    HW234850   3.009   6.522   7.512
11137SOL     OW34851   3.703   7.127   8.308
11137SOL    HW134852   3.633   7.117   8.243
11137SOL    HW234853   3.730   7.038   8.329
11138SOL     OW34854   2.089   6.876   9.296
11138SOL    HW134855   2.037   6.803   9.265
11138SOL    HW234856   2.087   6.869   9.392
11139SOL     OW34857   1.959   6.822   8.109
11139SOL    HW134858   1.958   6.771   8.190
11139SOL    HW234859   2.014   6.771   8.049
11140SOL     OW34860   2.568   7.002   9.087
11140SOL    HW134861   2.491   6.952   9.113
11140SOL    HW234862   2.549   7.092   9.114
11141SOL     OW34863   3.670   5.765   8.686
11141SOL    HW134864   3.673   5.670   8.701
11141SOL    HW234865   3.684   5.774   8.591
11142SOL     OW34866   2.297   6.019   7.976
11142SOL    HW134867   2.328   5.954   7.913
11142SOL    HW234868   2.245   5.969   8.039
11143SOL     OW34869   3.545   7.039   8.573
11143SOL    HW134870   3.476   7.041   8.507
11143SOL    HW234871   3.623   7.007   8.527
11144SOL     OW34872   2.204   6.146   8.742
11144SOL    HW134873   2.256   6.087   8.796
11144SOL    HW234874   2.218   6.115   8.652
11145SOL     OW34875   2.690   7.165   8.123
11145SOL    HW134876   2.679   7.216   8.043
11145SOL    HW234877   2.616   7.104   8.123
11146SOL     OW34878   3.294   5.803   8.555
11146SOL    HW134879   3.311   5.710   8.564
11146SOL    HW234880   3.252   5.829   8.636
11147SOL     OW34881   2.868   5.600   8.581
11147SOL    HW134882   2.820   5.534   8.531
11147SOL    HW234883   2.956   5.564   8.589
11148SOL     OW34884   2.623   6.918   7.801
11148SOL    HW134885   2.598   6.825   7.801
11148SOL    HW234886   2.714   6.918   7.772
11149SOL     OW34887   2.478   7.147   8.733
11149SOL    HW134888   2.479   7.229   8.782
11149SOL    HW234889   2.567   7.138   8.700
11150SOL     OW34890   3.197   5.619   7.627
11150SOL    HW134891   3.246   5.556   7.574
11150SOL    HW234892   3.109   5.582   7.634
11151SOL     OW34893   3.086   6.075   8.152
11151SOL    HW134894   3.066   6.009   8.086
11151SOL    HW234895   3.128   6.027   8.223
11152SOL     OW34896   3.462   5.818   8.328
11152SOL    HW134897   3.399   5.811   8.400
11152SOL    HW234898   3.431   5.893   8.276
11153SOL     OW34899   1.907   6.649   7.763
11153SOL    HW134900   1.998   6.637   7.735
11153SOL    HW234901   1.877   6.560   7.784
11154SOL     OW34902   2.745   7.238   7.792
11154SOL    HW134903   2.678   7.224   7.725
11154SOL    HW234904   2.719   7.319   7.835
11155SOL     OW34905   2.094   6.169   9.435
11155SOL    HW134906   2.054   6.252   9.461
11155SOL    HW234907   2.083   6.164   9.341
11156SOL     OW34908   2.111   5.781  10.292
11156SOL    HW134909   2.146   5.868  10.313
11156SOL    HW234910   2.016   5.792  10.293
11157SOL     OW34911   1.850   5.975   9.944
11157SOL    HW134912   1.771   6.000   9.993
11157SOL    HW234913   1.825   5.895   9.898
11158SOL     OW34914   2.444   6.887  10.484
11158SOL    HW134915   2.354   6.883  10.452
11158SOL    HW234916   2.451   6.975  10.523
11159SOL     OW34917   3.439   7.092  10.014
11159SOL    HW134918   3.394   7.077  10.098
11159SOL    HW234919   3.368   7.102   9.950
11160SOL     OW34920   3.026   6.271  10.025
11160SOL    HW134921   3.048   6.361  10.001
11160SOL    HW234922   2.960   6.280  10.094
11161SOL     OW34923   3.600   6.176   9.551
11161SOL    HW134924   3.590   6.185   9.456
11161SOL    HW234925   3.602   6.082   9.566
11162SOL     OW34926   2.650   6.747  10.363
11162SOL    HW134927   2.577   6.772  10.419
11162SOL    HW234928   2.666   6.823  10.308
11163SOL     OW34929   2.740   6.343  11.138
11163SOL    HW134930   2.733   6.414  11.202
11163SOL    HW234931   2.761   6.387  11.055
11164SOL     OW34932   2.553   6.585   9.958
11164SOL    HW134933   2.617   6.578  10.029
11164SOL    HW234934   2.482   6.636   9.995
11165SOL     OW34935   2.571   6.731  11.128
11165SOL    HW134936   2.618   6.809  11.160
11165SOL    HW234937   2.492   6.765  11.088
11166SOL     OW34938   2.191   7.001  10.379
11166SOL    HW134939   2.116   6.959  10.337
11166SOL    HW234940   2.232   7.052  10.309
11167SOL     OW34941   3.322   7.091  10.669
11167SOL    HW134942   3.377   7.168  10.683
11167SOL    HW234943   3.261   7.091  10.743
11168SOL     OW34944   2.316   5.983  10.803
11168SOL    HW134945   2.391   5.923  10.801
11168SOL    HW234946   2.240   5.925  10.811
11169SOL     OW34947   3.431   6.054  10.039
11169SOL    HW134948   3.446   6.100   9.957
11169SOL    HW234949   3.481   6.104  10.104
11170SOL     OW34950   2.076   7.312   9.778
11170SOL    HW134951   2.104   7.385   9.833
11170SOL    HW234952   2.152   7.293   9.723
11171SOL     OW34953   2.993   6.933  11.002
11171SOL    HW134954   3.049   6.924  11.079
11171SOL    HW234955   2.944   6.852  10.998
11172SOL     OW34956   2.104   7.033   9.852
11172SOL    HW134957   2.068   7.121   9.862
11172SOL    HW234958   2.050   6.978   9.908
11173SOL     OW34959   2.135   6.680  10.208
11173SOL    HW134960   2.129   6.589  10.235
11173SOL    HW234961   2.071   6.726  10.263
11174SOL     OW34962   2.451   7.382  10.726
11174SOL    HW134963   2.374   7.362  10.779
11174SOL    HW234964   2.481   7.467  10.759
11175SOL     OW34965   2.535   6.524   9.420
11175SOL    HW134966   2.539   6.592   9.353
11175SOL    HW234967   2.494   6.566   9.496
11176SOL     OW34968   3.523   5.724  10.777
11176SOL    HW134969   3.473   5.800  10.746
11176SOL    HW234970   3.474   5.693  10.853
11177SOL     OW34971   1.987   6.231   9.873
11177SOL    HW134972   1.944   6.149   9.895
11177SOL    HW234973   1.976   6.286   9.951
11178SOL     OW34974   3.697   7.340   9.641
11178SOL    HW134975   3.771   7.315   9.696
11178SOL    HW234976   3.714   7.432   9.619
11179SOL     OW34977   1.910   7.178   9.421
11179SOL    HW134978   1.896   7.085   9.436
11179SOL    HW234979   1.880   7.221   9.501
11180SOL     OW34980   3.531   6.472   9.942
11180SOL    HW134981   3.623   6.447   9.953
11180SOL    HW234982   3.531   6.531   9.866
11181SOL     OW34983   3.503   6.690   9.749
11181SOL    HW134984   3.588   6.685   9.703
11181SOL    HW234985   3.520   6.746   9.824
11182SOL     OW34986   1.990   6.333  10.896
11182SOL    HW134987   2.081   6.360  10.896
11182SOL    HW234988   1.940   6.414  10.899
11183SOL     OW34989   2.470   6.977  10.044
11183SOL    HW134990   2.426   6.892  10.051
11183SOL    HW234991   2.458   7.002   9.953
11184SOL     OW34992   3.153   6.827  10.722
11184SOL    HW134993   3.200   6.755  10.681
11184SOL    HW234994   3.195   6.838  10.807
11185SOL     OW34995   2.613   5.640   9.819
11185SOL    HW134996   2.681   5.701   9.790
11185SOL    HW234997   2.647   5.604   9.901
11186SOL     OW34998   2.049   6.544  10.586
11186SOL    HW134999   2.136   6.505  10.577
11186SOL    HW235000   1.993   6.492  10.529
11187SOL     OW35001   3.388   6.593   9.512
11187SOL    HW135002   3.323   6.532   9.547
11187SOL    HW235003   3.438   6.622   9.588
11188SOL     OW35004   3.042   7.393  10.938
11188SOL    HW135005   3.052   7.455  10.865
11188SOL    HW235006   3.066   7.308  10.901
11189SOL     OW35007   2.204   5.832  11.138
11189SOL    HW135008   2.249   5.914  11.158
11189SOL    HW235009   2.113   5.848  11.162
11190SOL     OW35010   3.324   7.010  10.258
11190SOL    HW135011   3.270   7.019  10.337
11190SOL    HW235012   3.323   6.916  10.239
11191SOL     OW35013   3.513   7.339   9.892
11191SOL    HW135014   3.508   7.306   9.803
11191SOL    HW235015   3.503   7.262   9.948
11192SOL     OW35016   2.455   6.302   9.578
11192SOL    HW135017   2.473   6.373   9.517
11192SOL    HW235018   2.385   6.335   9.634
11193SOL     OW35019   3.131   5.939  10.214
11193SOL    HW135020   3.041   5.912  10.231
11193SOL    HW235021   3.184   5.888  10.275
11194SOL     OW35022   3.437   7.253   9.618
11194SOL    HW135023   3.529   7.280   9.614
11194SOL    HW235024   3.414   7.235   9.527
11195SOL     OW35025   2.650   6.197  10.760
11195SOL    HW135026   2.622   6.171  10.848
11195SOL    HW235027   2.616   6.129  10.703
11196SOL     OW35028   3.254   6.054  10.986
11196SOL    HW135029   3.262   6.102  11.069
11196SOL    HW235030   3.308   5.976  10.998
11197SOL     OW35031   2.809   6.468  10.903
11197SOL    HW135032   2.874   6.412  10.862
11197SOL    HW235033   2.756   6.501  10.831
11198SOL     OW35034   2.856   5.996  10.539
11198SOL    HW135035   2.769   6.016  10.573
11198SOL    HW235036   2.840   5.950  10.457
11199SOL     OW35037   2.914   6.277   9.736
11199SOL    HW135038   2.926   6.265   9.830
11199SOL    HW235039   2.829   6.237   9.717
11200SOL     OW35040   1.950   6.410  10.081
11200SOL    HW135041   2.029   6.398  10.133
11200SOL    HW235042   1.906   6.485  10.120
11201SOL     OW35043   1.976   7.451  10.896
11201SOL    HW135044   1.980   7.435  10.990
11201SOL    HW235045   1.890   7.420  10.870
11202SOL     OW35046   2.761   5.935   9.499
11202SOL    HW135047   2.802   5.999   9.440
11202SOL    HW235048   2.757   5.855   9.448
11203SOL     OW35049   3.582   6.166  11.144
11203SOL    HW135050   3.541   6.237  11.096
11203SOL    HW235051   3.596   6.098  11.078
11204SOL     OW35052   3.244   6.733   9.845
11204SOL    HW135053   3.327   6.716   9.800
11204SOL    HW235054   3.198   6.794   9.788
11205SOL     OW35055   2.442   5.790  10.197
11205SOL    HW135056   2.426   5.796  10.292
11205SOL    HW235057   2.443   5.881  10.167
11206SOL     OW35058   2.863   7.035   9.778
11206SOL    HW135059   2.835   7.107   9.722
11206SOL    HW235060   2.826   7.056   9.864
11207SOL     OW35061   2.217   7.402  10.176
11207SOL    HW135062   2.258   7.316  10.185
11207SOL    HW235063   2.285   7.464  10.201
11208SOL     OW35064   3.653   6.644  10.201
11208SOL    HW135065   3.611   6.663  10.117
11208SOL    HW235066   3.583   6.651  10.265
11209SOL     OW35067   3.088   7.131  10.825
11209SOL    HW135068   3.083   7.064  10.894
11209SOL    HW235069   3.013   7.114  10.769
11210SOL     OW35070   3.333   6.338  10.065
11210SOL    HW135071   3.321   6.371  10.154
11210SOL    HW235072   3.409   6.385  10.032
11211SOL     OW35073   2.335   6.854  11.043
11211SOL    HW135074   2.307   6.859  10.951
11211SOL    HW235075   2.253   6.850  11.092
11212SOL     OW35076   2.987   7.367   9.524
11212SOL    HW135077   2.912   7.329   9.570
11212SOL    HW235078   3.010   7.303   9.457
11213SOL     OW35079   2.062   5.868  10.824
11213SOL    HW135080   1.986   5.927  10.828
11213SOL    HW235081   2.039   5.796  10.882
11214SOL     OW35082   3.474   6.955   9.387
11214SOL    HW135083   3.444   7.045   9.377
11214SOL    HW235084   3.395   6.902   9.376
11215SOL     OW35085   2.321   7.323   9.627
11215SOL    HW135086   2.370   7.371   9.694
11215SOL    HW235087   2.388   7.281   9.574
11216SOL     OW35088   3.259   5.682   9.742
11216SOL    HW135089   3.250   5.655   9.651
11216SOL    HW235090   3.353   5.677   9.759
11217SOL     OW35091   2.133   7.377  10.532
11217SOL    HW135092   2.173   7.303  10.578
11217SOL    HW235093   2.110   7.341  10.446
11218SOL     OW35094   2.801   7.296  10.206
11218SOL    HW135095   2.881   7.252  10.235
11218SOL    HW235096   2.768   7.242  10.135
11219SOL     OW35097   2.262   6.271   9.803
11219SOL    HW135098   2.284   6.180   9.822
11219SOL    HW235099   2.167   6.275   9.813
11220SOL     OW35100   3.390   5.806  11.040
11220SOL    HW135101   3.392   5.830  11.133
11220SOL    HW235102   3.350   5.719  11.039
11221SOL     OW35103   2.528   5.688   9.396
11221SOL    HW135104   2.582   5.610   9.411
11221SOL    HW235105   2.466   5.662   9.327
11222SOL     OW35106   2.622   5.866  11.067
11222SOL    HW135107   2.705   5.817  11.063
11222SOL    HW235108   2.579   5.833  11.146
11223SOL     OW35109   2.741   7.107  10.500
11223SOL    HW135110   2.723   7.065  10.416
11223SOL    HW235111   2.804   7.049  10.543
11224SOL     OW35112   3.193   6.170  10.741
11224SOL    HW135113   3.224   6.143  10.828
11224SOL    HW235114   3.229   6.257  10.729
11225SOL     OW35115   2.684   6.983  10.223
11225SOL    HW135116   2.731   7.035  10.158
11225SOL    HW235117   2.598   6.967  10.184
11226SOL     OW35118   2.826   6.091  10.196
11226SOL    HW135119   2.787   6.081  10.109
11226SOL    HW235120   2.830   6.002  10.230
11227SOL     OW35121   3.250   6.772   9.358
11227SOL    HW135122   3.304   6.701   9.392
11227SOL    HW235123   3.206   6.807   9.435
11228SOL     OW35124   2.154   5.635   9.497
11228SOL    HW135125   2.190   5.701   9.437
11228SOL    HW235126   2.230   5.595   9.539
11229SOL     OW35127   2.800   5.835   9.754
11229SOL    HW135128   2.777   5.870   9.668
11229SOL    HW235129   2.895   5.845   9.759
11230SOL     OW35130   2.934   6.277  10.745
11230SOL    HW135131   2.870   6.209  10.766
11230SOL    HW235132   3.019   6.234  10.755
11231SOL     OW35133   3.074   7.113  10.119
11231SOL    HW135134   3.076   7.171  10.043
11231SOL    HW235135   3.140   7.147  10.178
11232SOL     OW35136   2.338   6.739  10.041
11232SOL    HW135137   2.272   6.718  10.107
11232SOL    HW235138   2.293   6.727   9.957
11233SOL     OW35139   3.119   7.372   9.924
11233SOL    HW135140   3.170   7.432   9.870
11233SOL    HW235141   3.057   7.429   9.970
11234SOL     OW35142   2.883   6.132   9.341
11234SOL    HW135143   2.848   6.220   9.329
11234SOL    HW235144   2.952   6.142   9.406
11235SOL     OW35145   1.946   6.139  10.708
11235SOL    HW135146   2.038   6.137  10.678
11235SOL    HW235147   1.943   6.210  10.771
11236SOL     OW35148   2.425   5.802  10.475
11236SOL    HW135149   2.466   5.741  10.536
11236SOL    HW235150   2.334   5.806  10.504
11237SOL     OW35151   2.746   6.049   9.937
11237SOL    HW135152   2.684   6.103   9.887
11237SOL    HW235153   2.760   5.972   9.882
11238SOL     OW35154   2.882   5.644  10.061
11238SOL    HW135155   2.871   5.611   9.972
11238SOL    HW235156   2.859   5.570  10.117
11239SOL     OW35157   3.249   6.764  10.148
11239SOL    HW135158   3.256   6.677  10.186
11239SOL    HW235159   3.289   6.755  10.061
11240SOL     OW35160   3.313   6.146  10.316
11240SOL    HW135161   3.269   6.080  10.369
11240SOL    HW235162   3.387   6.175  10.370
11241SOL     OW35163   3.689   6.399   9.682
11241SOL    HW135164   3.751   6.360   9.743
11241SOL    HW235165   3.663   6.328   9.624
11242SOL     OW35166   2.356   7.010   9.454
11242SOL    HW135167   2.278   6.991   9.505
11242SOL    HW235168   2.351   6.950   9.379
11243SOL     OW35169   3.544   6.835   9.975
11243SOL    HW135170   3.640   6.837   9.977
11243SOL    HW235171   3.517   6.926   9.982
11244SOL     OW35172   3.261   6.159   9.382
11244SOL    HW135173   3.200   6.131   9.450
11244SOL    HW235174   3.343   6.115   9.404
11245SOL     OW35175   2.401   5.814   9.601
11245SOL    HW135176   2.449   5.779   9.526
11245SOL    HW235177   2.376   5.902   9.574
11246SOL     OW35178   3.614   6.823  10.855
11246SOL    HW135179   3.703   6.789  10.848
11246SOL    HW235180   3.624   6.910  10.893
11247SOL     OW35181   2.925   6.924  10.621
11247SOL    HW135182   2.848   6.900  10.672
11247SOL    HW235183   2.999   6.889  10.670
11248SOL     OW35184   3.483   7.230  10.972
11248SOL    HW135185   3.470   7.254  10.880
11248SOL    HW235186   3.557   7.168  10.970
11249SOL     OW35187   2.932   6.814  10.369
11249SOL    HW135188   2.932   6.849  10.458
11249SOL    HW235189   2.853   6.760  10.364
11250SOL     OW35190   3.467   6.689  10.398
11250SOL    HW135191   3.492   6.753  10.464
11250SOL    HW235192   3.373   6.675  10.412
11251SOL     OW35193   2.783   5.679  10.702
11251SOL    HW135194   2.804   5.660  10.611
11251SOL    HW235195   2.862   5.718  10.738
11252SOL     OW35196   2.843   6.705  11.033
11252SOL    HW135197   2.750   6.713  11.057
11252SOL    HW235198   2.847   6.624  10.981
11253SOL     OW35199   2.589   6.664   9.690
11253SOL    HW135200   2.564   6.632   9.777
11253SOL    HW235201   2.662   6.608   9.664
11254SOL     OW35202   2.283   6.404  10.567
11254SOL    HW135203   2.351   6.410  10.634
11254SOL    HW235204   2.249   6.315  10.576
11255SOL     OW35205   3.125   5.966  10.577
11255SOL    HW135206   3.153   6.039  10.633
11255SOL    HW235207   3.031   5.983  10.562
11256SOL     OW35208   1.933   7.169  10.668
11256SOL    HW135209   1.902   7.236  10.607
11256SOL    HW235210   2.028   7.168  10.657
11257SOL     OW35211   2.197   6.713   9.808
11257SOL    HW135212   2.205   6.785   9.745
11257SOL    HW235213   2.198   6.634   9.755
11258SOL     OW35214   2.471   6.112  10.170
11258SOL    HW135215   2.468   6.180  10.103
11258SOL    HW235216   2.382   6.111  10.207
11259SOL     OW35217   3.111   6.943   9.702
11259SOL    HW135218   3.168   7.012   9.734
11259SOL    HW235219   3.025   6.964   9.739
11260SOL     OW35220   3.149   7.042  10.468
11260SOL    HW135221   3.216   7.056  10.536
11260SOL    HW235222   3.079   6.995  10.513
11261SOL     OW35223   3.463   6.196   9.804
11261SOL    HW135224   3.445   6.285   9.832
11261SOL    HW235225   3.513   6.206   9.723
11262SOL     OW35226   2.205   7.120  10.619
11262SOL    HW135227   2.193   7.072  10.537
11262SOL    HW235228   2.300   7.128  10.629
11263SOL     OW35229   2.282   6.327  10.917
11263SOL    HW135230   2.344   6.371  10.859
11263SOL    HW235231   2.320   6.241  10.934
11264SOL     OW35232   3.483   6.372  10.997
11264SOL    HW135233   3.394   6.405  10.982
11264SOL    HW235234   3.534   6.411  10.926
11265SOL     OW35235   2.855   5.725  11.064
11265SOL    HW135236   2.915   5.797  11.042
11265SOL    HW235237   2.900   5.647  11.033
11266SOL     OW35238   2.359   5.617  11.061
11266SOL    HW135239   2.312   5.566  10.995
11266SOL    HW235240   2.304   5.694  11.075
11267SOL     OW35241   2.436   6.462  10.350
11267SOL    HW135242   2.460   6.554  10.362
11267SOL    HW235243   2.378   6.443  10.424
11268SOL     OW35244   3.205   6.421  10.296
11268SOL    HW135245   3.109   6.418  10.297
11268SOL    HW235246   3.232   6.380  10.377
11269SOL     OW35247   3.059   6.113   9.567
11269SOL    HW135248   3.063   6.029   9.613
11269SOL    HW235249   3.013   6.171   9.628
11270SOL     OW35250   2.181   5.779  10.592
11270SOL    HW135251   2.131   5.813  10.666
11270SOL    HW235252   2.137   5.697  10.569
11271SOL     OW35253   1.914   6.903  10.584
11271SOL    HW135254   1.941   6.844  10.655
11271SOL    HW235255   1.912   6.989  10.625
11272SOL     OW35256   2.608   6.246  10.381
11272SOL    HW135257   2.597   6.191  10.304
11272SOL    HW235258   2.548   6.320  10.367
11273SOL     OW35259   3.607   6.538  11.181
11273SOL    HW135260   3.565   6.478  11.120
11273SOL    HW235261   3.538   6.560  11.244
11274SOL     OW35262   2.196   5.665   9.933
11274SOL    HW135263   2.154   5.746   9.960
11274SOL    HW235264   2.197   5.611  10.012
11275SOL     OW35265   3.471   5.942   9.677
11275SOL    HW135266   3.515   5.878   9.733
11275SOL    HW235267   3.460   6.019   9.734
11276SOL     OW35268   2.899   6.343  10.272
11276SOL    HW135269   2.878   6.365  10.363
11276SOL    HW235270   2.864   6.255  10.260
11277SOL     OW35271   2.830   7.152  11.031
11277SOL    HW135272   2.826   7.193  10.945
11277SOL    HW235273   2.881   7.072  11.018
11278SOL     OW35274   3.714   7.083  10.913
11278SOL    HW135275   3.738   7.110  10.825
11278SOL    HW235276   3.793   7.098  10.965
11279SOL     OW35277   2.214   6.505  11.118
11279SOL    HW135278   2.292   6.522  11.170
11279SOL    HW235279   2.241   6.440  11.054
11280SOL     OW35280   3.365   5.867   9.436
11280SOL    HW135281   3.315   5.788   9.455
11280SOL    HW235282   3.406   5.890   9.519
11281SOL     OW35283   3.153   6.405   9.342
11281SOL    HW135284   3.194   6.319   9.346
11281SOL    HW235285   3.180   6.442   9.258
11282SOL     OW35286   2.170   6.400  10.249
11282SOL    HW135287   2.264   6.418  10.251
11282SOL    HW235288   2.163   6.306  10.268
11283SOL     OW35289   2.995   5.960  10.996
11283SOL    HW135290   2.949   6.014  11.060
11283SOL    HW235291   3.083   5.997  10.991
11284SOL     OW35292   3.023   5.790  10.778
11284SOL    HW135293   3.012   5.851  10.851
11284SOL    HW235294   3.066   5.841  10.710
11285SOL     OW35295   1.867   6.909   9.513
11285SOL    HW135296   1.780   6.922   9.474
11285SOL    HW235297   1.866   6.818   9.543
11286SOL     OW35298   1.951   7.369  10.239
11286SOL    HW135299   1.921   7.289  10.195
11286SOL    HW235300   2.042   7.380  10.210
11287SOL     OW35301   2.348   7.162  10.211
11287SOL    HW135302   2.419   7.222  10.232
11287SOL    HW235303   2.388   7.098  10.152
11288SOL     OW35304   2.824   6.398  10.528
11288SOL    HW135305   2.871   6.363  10.603
11288SOL    HW235306   2.749   6.339  10.517
11289SOL     OW35307   1.896   6.133  10.427
11289SOL    HW135308   1.973   6.118  10.372
11289SOL    HW235309   1.931   6.132  10.516
11290SOL     OW35310   2.057   6.111  11.042
11290SOL    HW135311   2.123   6.075  10.983
11290SOL    HW235312   2.022   6.187  10.995
11291SOL     OW35313   2.678   6.159   9.668
11291SOL    HW135314   2.680   6.085   9.607
11291SOL    HW235315   2.600   6.209   9.641
11292SOL     OW35316   3.515   6.200  10.487
11292SOL    HW135317   3.507   6.141  10.562
11292SOL    HW235318   3.601   6.180  10.450
11293SOL     OW35319   2.104   7.137  11.045
11293SOL    HW135320   2.075   7.186  11.121
11293SOL    HW235321   2.116   7.047  11.077
11294SOL     OW35322   2.575   6.031  10.557
11294SOL    HW135323   2.516   5.963  10.523
11294SOL    HW235324   2.570   6.101  10.493
11295SOL     OW35325   2.786   7.263  10.778
11295SOL    HW135326   2.753   7.228  10.696
11295SOL    HW235327   2.780   7.358  10.768
11296SOL     OW35328   2.319   6.065   9.543
11296SOL    HW135329   2.374   6.143   9.551
11296SOL    HW235330   2.236   6.098   9.506
11297SOL     OW35331   2.003   6.726  10.782
11297SOL    HW135332   2.006   6.680  10.866
11297SOL    HW235333   2.020   6.658  10.716
11298SOL     OW35334   3.208   6.659  10.480
11298SOL    HW135335   3.223   6.577  10.527
11298SOL    HW235336   3.114   6.674  10.487
11299SOL     OW35337   3.174   6.446   9.616
11299SOL    HW135338   3.105   6.404   9.667
11299SOL    HW235339   3.159   6.419   9.526
11300SOL     OW35340   3.648   7.328  10.473
11300SOL    HW135341   3.705   7.349  10.400
11300SOL    HW235342   3.613   7.241  10.453
11301SOL     OW35343   3.094   7.309  10.394
11301SOL    HW135344   3.179   7.340  10.362
11301SOL    HW235345   3.114   7.223  10.432
11302SOL     OW35346   1.946   6.860  10.318
11302SOL    HW135347   1.930   6.872  10.412
11302SOL    HW235348   1.879   6.799  10.289
11303SOL     OW35349   2.547   7.253  11.054
11303SOL    HW135350   2.500   7.332  11.030
11303SOL    HW235351   2.634   7.263  11.014
11304SOL     OW35352   3.602   5.744   9.817
11304SOL    HW135353   3.664   5.728   9.746
11304SOL    HW235354   3.581   5.657   9.850
11305SOL     OW35355   3.255   7.156   9.805
11305SOL    HW135356   3.315   7.189   9.739
11305SOL    HW235357   3.208   7.234   9.836
11306SOL     OW35358   1.990   7.406  11.161
11306SOL    HW135359   1.947   7.330  11.199
11306SOL    HW235360   2.048   7.439  11.230
11307SOL     OW35361   3.132   6.517   9.968
11307SOL    HW135362   3.207   6.463   9.991
11307SOL    HW235363   3.169   6.586   9.913
11308SOL     OW35364   2.673   6.869  10.722
11308SOL    HW135365   2.650   6.908  10.806
11308SOL    HW235366   2.593   6.874  10.670
11309SOL     OW35367   2.530   7.215   9.459
11309SOL    HW135368   2.542   7.231   9.365
11309SOL    HW235369   2.475   7.137   9.464
11310SOL     OW35370   3.479   7.314  10.702
11310SOL    HW135371   3.536   7.316  10.625
11310SOL    HW235372   3.465   7.406  10.724
11311SOL     OW35373   3.708   5.712  10.247
11311SOL    HW135374   3.744   5.718  10.158
11311SOL    HW235375   3.618   5.742  10.238
11312SOL     OW35376   2.108   5.913  10.017
11312SOL    HW135377   2.017   5.941  10.005
11312SOL    HW235378   2.130   5.939  10.106
11313SOL     OW35379   3.064   7.178   9.334
11313SOL    HW135380   3.051   7.091   9.371
11313SOL    HW235381   3.003   7.181   9.260
11314SOL     OW35382   2.680   6.591  10.692
11314SOL    HW135383   2.734   6.566  10.617
11314SOL    HW235384   2.690   6.685  10.699
11315SOL     OW35385   2.809   6.521   9.623
11315SOL    HW135386   2.864   6.540   9.546
11315SOL    HW235387   2.841   6.437   9.655
11316SOL     OW35388   3.345   7.212   9.352
11316SOL    HW135389   3.251   7.205   9.334
11316SOL    HW235390   3.386   7.219   9.266
11317SOL     OW35391   2.225   6.893  10.800
11317SOL    HW135392   2.207   6.970  10.747
11317SOL    HW235393   2.148   6.837  10.787
11318SOL     OW35394   3.480   6.873  10.602
11318SOL    HW135395   3.529   6.848  10.681
11318SOL    HW235396   3.415   6.937  10.633
11319SOL     OW35397   2.939   6.711  10.053
11319SOL    HW135398   2.860   6.664  10.080
11319SOL    HW235399   2.992   6.646  10.008
11320SOL     OW35400   2.884   5.825  10.275
11320SOL    HW135401   2.877   5.775  10.194
11320SOL    HW235402   2.879   5.758  10.344
11321SOL     OW35403   2.472   7.071   9.787
11321SOL    HW135404   2.517   7.021   9.720
11321SOL    HW235405   2.384   7.086   9.751
11322SOL     OW35406   3.588   5.995  10.679
11322SOL    HW135407   3.667   6.049  10.685
11322SOL    HW235408   3.614   5.921  10.625
11323SOL     OW35409   2.124   6.964   9.593
11323SOL    HW135410   2.033   6.944   9.571
11323SOL    HW235411   2.122   6.988   9.685
11324SOL     OW35412   1.977   6.621  11.035
11324SOL    HW135413   1.902   6.593  11.087
11324SOL    HW235414   2.052   6.578  11.076
11325SOL     OW35415   2.541   5.777  10.810
11325SOL    HW135416   2.626   5.756  10.771
11325SOL    HW235417   2.562   5.811  10.896
11326SOL     OW35418   1.930   5.904   9.340
11326SOL    HW135419   1.862   5.893   9.273
11326SOL    HW235420   1.963   5.993   9.326
11327SOL     OW35421   3.276   6.441  10.636
11327SOL    HW135422   3.247   6.463  10.725
11327SOL    HW235423   3.371   6.445  10.640
11328SOL     OW35424   1.920   5.739   9.603
11328SOL    HW135425   1.903   5.811   9.543
11328SOL    HW235426   2.007   5.707   9.578
11329SOL     OW35427   3.019   6.924   9.443
11329SOL    HW135428   2.923   6.927   9.450
11329SOL    HW235429   3.049   6.929   9.534
11330SOL     OW35430   2.482   6.413  10.748
11330SOL    HW135431   2.540   6.488  10.735
11330SOL    HW235432   2.541   6.337  10.754
11331SOL     OW35433   3.344   7.375  10.295
11331SOL    HW135434   3.369   7.442  10.232
11331SOL    HW235435   3.427   7.333  10.319
11332SOL     OW35436   2.575   6.144  11.014
11332SOL    HW135437   2.623   6.201  11.072
11332SOL    HW235438   2.594   6.055  11.045
11333SOL     OW35439   3.332   6.854  10.933
11333SOL    HW135440   3.307   6.813  11.016
11333SOL    HW235441   3.421   6.824  10.917
11334SOL     OW35442   2.227   7.330  10.881
11334SOL    HW135443   2.142   7.370  10.865
11334SOL    HW235444   2.206   7.248  10.926
11335SOL     OW35445   3.550   6.468  10.565
11335SOL    HW135446   3.543   6.381  10.525
11335SOL    HW235447   3.536   6.529  10.492
11336SOL     OW35448   3.074   5.891   9.750
11336SOL    HW135449   3.128   5.816   9.727
11336SOL    HW235450   3.116   5.927   9.829
11337SOL     OW35451   2.464   6.320   9.981
11337SOL    HW135452   2.501   6.408   9.969
11337SOL    HW235453   2.392   6.315   9.918
11338SOL     OW35454   3.611   5.958  10.963
11338SOL    HW135455   3.600   5.972  10.869
11338SOL    HW235456   3.544   5.892  10.985
11339SOL     OW35457   3.634   6.519  10.819
11339SOL    HW135458   3.602   6.607  10.836
11339SOL    HW235459   3.612   6.503  10.728
11340SOL     OW35460   2.749   6.945   9.374
11340SOL    HW135461   2.699   6.945   9.455
11340SOL    HW235462   2.736   7.033   9.338
11341SOL     OW35463   2.525   7.370  10.235
11341SOL    HW135464   2.506   7.463  10.223
11341SOL    HW235465   2.620   7.365  10.240
11342SOL     OW35466   2.737   6.562  10.168
11342SOL    HW135467   2.775   6.480  10.199
11342SOL    HW235468   2.697   6.601  10.246
11343SOL     OW35469   2.957   6.585   9.376
11343SOL    HW135470   2.882   6.538   9.340
11343SOL    HW235471   3.028   6.521   9.374
11344SOL     OW35472   3.718   7.134  10.165
11344SOL    HW135473   3.652   7.110  10.101
11344SOL    HW235474   3.741   7.051  10.209
11345SOL     OW35475   2.090   6.882  11.159
11345SOL    HW135476   2.028   6.818  11.124
11345SOL    HW235477   2.070   6.887  11.252
11346SOL     OW35478   1.963   6.818   9.971
11346SOL    HW135479   1.970   6.773  10.056
11346SOL    HW235480   2.022   6.770   9.914
11347SOL     OW35481   2.544   6.997  10.928
11347SOL    HW135482   2.472   6.950  10.969
11347SOL    HW235483   2.547   7.081  10.974
11348SOL     OW35484   3.677   5.782  10.533
11348SOL    HW135485   3.651   5.711  10.592
11348SOL    HW235486   3.690   5.738  10.448
11349SOL     OW35487   2.299   5.969   9.834
11349SOL    HW135488   2.258   5.998   9.753
11349SOL    HW235489   2.228   5.968   9.898
11350SOL     OW35490   3.544   7.086  10.425
11350SOL    HW135491   3.482   7.058  10.357
11350SOL    HW235492   3.551   7.012  10.484
11351SOL     OW35493   2.199   6.146  10.610
11351SOL    HW135494   2.254   6.088  10.663
11351SOL    HW235495   2.207   6.112  10.521
11352SOL     OW35496   2.701   7.160   9.987
11352SOL    HW135497   2.688   7.238   9.933
11352SOL    HW235498   2.621   7.109   9.976
11353SOL     OW35499   3.282   5.818  10.411
11353SOL    HW135500   3.298   5.730  10.447
11353SOL    HW235501   3.233   5.863  10.480
11354SOL     OW35502   2.868   5.602  10.444
11354SOL    HW135503   2.813   5.535  10.403
11354SOL    HW235504   2.955   5.563  10.446
11355SOL     OW35505   2.645   6.920   9.624
11355SOL    HW135506   2.612   6.831   9.637
11355SOL    HW235507   2.720   6.926   9.683
11356SOL     OW35508   2.481   7.143  10.592
11356SOL    HW135509   2.478   7.226  10.640
11356SOL    HW235510   2.572   7.136  10.562
11357SOL     OW35511   3.226   5.629   9.478
11357SOL    HW135512   3.270   5.559   9.431
11357SOL    HW235513   3.136   5.599   9.487
11358SOL     OW35514   3.460   5.806  10.200
11358SOL    HW135515   3.400   5.813  10.274
11358SOL    HW235516   3.431   5.875  10.140
11359SOL     OW35517   1.895   6.649   9.618
11359SOL    HW135518   1.985   6.642   9.586
11359SOL    HW235519   1.872   6.560   9.645
11360SOL     OW35520   2.755   7.245   9.636
11360SOL    HW135521   2.677   7.228   9.582
11360SOL    HW235522   2.725   7.308   9.701
11361SOL     OW35523   2.081   6.214  11.303
11361SOL    HW135524   1.992   6.204  11.338
11361SOL    HW235525   2.073   6.191  11.211
11362SOL     OW35526   2.084   5.873  12.169
11362SOL    HW135527   2.122   5.834  12.248
11362SOL    HW235528   1.997   5.833  12.161
11363SOL     OW35529   1.861   5.976  11.810
11363SOL    HW135530   1.779   5.998  11.855
11363SOL    HW235531   1.841   5.897  11.760
11364SOL     OW35532   2.415   6.857  12.360
11364SOL    HW135533   2.332   6.882  12.318
11364SOL    HW235534   2.472   6.933  12.347
11365SOL     OW35535   3.412   7.088  11.855
11365SOL    HW135536   3.368   7.074  11.938
11365SOL    HW235537   3.341   7.099  11.791
11366SOL     OW35538   3.003   6.281  11.863
11366SOL    HW135539   3.045   6.366  11.854
11366SOL    HW235540   2.951   6.288  11.943
11367SOL     OW35541   3.645   6.171  11.406
11367SOL    HW135542   3.624   6.180  11.313
11367SOL    HW235543   3.603   6.089  11.433
11368SOL     OW35544   2.607   6.711  12.207
11368SOL    HW135545   2.557   6.733  12.286
11368SOL    HW235546   2.630   6.796  12.169
11369SOL     OW35547   2.545   6.582  11.815
11369SOL    HW135548   2.613   6.574  11.882
11369SOL    HW235549   2.477   6.636  11.856
11370SOL     OW35550   2.204   6.997  12.238
11370SOL    HW135551   2.122   6.962  12.202
11370SOL    HW235552   2.240   7.051  12.168
11371SOL     OW35553   3.455   6.032  11.909
11371SOL    HW135554   3.368   6.037  11.871
11371SOL    HW235555   3.453   6.094  11.982
11372SOL     OW35556   2.077   7.314  11.638
11372SOL    HW135557   2.105   7.387  11.693
11372SOL    HW235558   2.153   7.294  11.583
11373SOL     OW35559   2.086   7.030  11.703
11373SOL    HW135560   2.068   7.122  11.724
11373SOL    HW235561   2.039   6.981  11.770
11374SOL     OW35562   2.122   6.671  12.069
11374SOL    HW135563   2.133   6.580  12.095
11374SOL    HW235564   2.083   6.714  12.145
11375SOL     OW35565   2.435   6.572  11.316
11375SOL    HW135566   2.486   6.614  11.246
11375SOL    HW235567   2.477   6.603  11.397
11376SOL     OW35568   1.976   6.247  11.734
11376SOL    HW135569   1.952   6.157  11.756
11376SOL    HW235570   1.972   6.294  11.817
11377SOL     OW35571   3.705   7.342  11.500
11377SOL    HW135572   3.776   7.313  11.558
11377SOL    HW235573   3.727   7.433  11.479
11378SOL     OW35574   1.914   7.183  11.298
11378SOL    HW135575   1.896   7.089  11.301
11378SOL    HW235576   1.878   7.216  11.380
11379SOL     OW35577   3.612   6.482  11.726
11379SOL    HW135578   3.647   6.505  11.812
11379SOL    HW235579   3.569   6.562  11.695
11380SOL     OW35580   3.512   6.715  11.608
11380SOL    HW135581   3.595   6.730  11.562
11380SOL    HW235582   3.519   6.767  11.688
11381SOL     OW35583   2.027   6.350   0.231
11381SOL    HW135584   2.033   6.333   0.325
11381SOL    HW235585   1.944   6.397   0.220
11382SOL     OW35586   2.469   6.976  11.903
11382SOL    HW135587   2.425   6.891  11.913
11382SOL    HW235588   2.456   7.000  11.811
11383SOL     OW35589   2.680   5.590  11.674
11383SOL    HW135590   2.722   5.674  11.657
11383SOL    HW235591   2.587   5.610  11.684
11384SOL     OW35592   2.062   6.561  12.363
11384SOL    HW135593   2.142   6.514  12.388
11384SOL    HW235594   1.998   6.537  12.431
11385SOL     OW35595   3.409   6.576  11.383
11385SOL    HW135596   3.340   6.517  11.413
11385SOL    HW235597   3.433   6.627  11.461
11386SOL     OW35598   3.271   7.023  12.082
11386SOL    HW135599   3.248   7.035  12.175
11386SOL    HW235600   3.288   6.930  12.074
11387SOL     OW35601   3.511   7.350  11.752
11387SOL    HW135602   3.492   7.306  11.669
11387SOL    HW235603   3.521   7.278  11.815
11388SOL     OW35604   2.456   6.299  11.443
11388SOL    HW135605   2.459   6.384  11.399
11388SOL    HW235606   2.391   6.310  11.513
11389SOL     OW35607   3.141   5.950  12.105
11389SOL    HW135608   3.052   5.916  12.108
11389SOL    HW235609   3.191   5.893  12.163
11390SOL     OW35610   3.436   7.272  11.486
11390SOL    HW135611   3.530   7.289  11.481
11390SOL    HW235612   3.410   7.251  11.397
11391SOL     OW35613   2.843   5.972  12.407
11391SOL    HW135614   2.752   6.004  12.406
11391SOL    HW235615   2.836   5.881  12.379
11392SOL     OW35616   2.916   6.284  11.595
11392SOL    HW135617   2.935   6.276  11.689
11392SOL    HW235618   2.832   6.239  11.584
11393SOL     OW35619   1.949   6.420  11.950
11393SOL    HW135620   2.032   6.404  11.994
11393SOL    HW235621   1.913   6.497  11.993
11394SOL     OW35622   2.765   5.935  11.367
11394SOL    HW135623   2.803   6.000  11.308
11394SOL    HW235624   2.779   5.851  11.322
11395SOL     OW35625   3.242   6.726  11.705
11395SOL    HW135626   3.326   6.728  11.659
11395SOL    HW235627   3.188   6.790  11.659
11396SOL     OW35628   2.404   5.771  12.058
11396SOL    HW135629   2.414   5.801  12.148
11396SOL    HW235630   2.409   5.851  12.006
11397SOL     OW35631   2.856   7.023  11.644
11397SOL    HW135632   2.818   7.100  11.601
11397SOL    HW235633   2.843   7.039  11.737
11398SOL     OW35634   2.220   7.401  12.034
11398SOL    HW135635   2.262   7.316  12.045
11398SOL    HW235636   2.287   7.465  12.058
11399SOL     OW35637   3.617   6.596  12.003
11399SOL    HW135638   3.616   6.681  11.959
11399SOL    HW235639   3.595   6.616  12.094
11400SOL     OW35640   2.171   6.548  11.428
11400SOL    HW135641   2.255   6.566  11.386
11400SOL    HW235642   2.146   6.462  11.393
11401SOL     OW35643   3.356   6.342  11.898
11401SOL    HW135644   3.329   6.286  11.970
11401SOL    HW235645   3.428   6.394  11.933
11402SOL     OW35646   3.492   6.969  11.263
11402SOL    HW135647   3.450   7.053  11.248
11402SOL    HW235648   3.425   6.904  11.240
11403SOL     OW35649   2.323   7.324  11.488
11403SOL    HW135650   2.372   7.371  11.554
11403SOL    HW235651   2.389   7.285  11.431
11404SOL     OW35652   3.261   5.697  11.613
11404SOL    HW135653   3.252   5.668  11.522
11404SOL    HW235654   3.353   5.680  11.635
11405SOL     OW35655   2.103   7.385  12.377
11405SOL    HW135656   2.145   7.312  12.422
11405SOL    HW235657   2.063   7.346  12.300
11406SOL     OW35658   2.808   7.276  12.070
11406SOL    HW135659   2.892   7.231  12.070
11406SOL    HW235660   2.758   7.234  12.000
11407SOL     OW35661   2.258   6.282  11.644
11407SOL    HW135662   2.273   6.188  11.657
11407SOL    HW235663   2.165   6.294  11.661
11408SOL     OW35664   2.506   5.702  11.275
11408SOL    HW135665   2.569   5.631  11.294
11408SOL    HW235666   2.455   5.669  11.201
11409SOL     OW35667   2.660   6.960  12.109
11409SOL    HW135668   2.750   6.961  12.077
11409SOL    HW235669   2.607   6.973  12.030
11410SOL     OW35670   2.793   6.100  12.069
11410SOL    HW135671   2.768   6.086  11.978
11410SOL    HW235672   2.819   6.014  12.102
11411SOL     OW35673   2.411   5.648  11.664
11411SOL    HW135674   2.335   5.650  11.722
11411SOL    HW235675   2.402   5.726  11.610
11412SOL     OW35676   3.292   6.787  11.210
11412SOL    HW135677   3.313   6.701  11.248
11412SOL    HW235678   3.204   6.806  11.241
11413SOL     OW35679   2.153   5.631  11.360
11413SOL    HW135680   2.212   5.698  11.323
11413SOL    HW235681   2.211   5.569  11.402
11414SOL     OW35682   2.804   5.836  11.626
11414SOL    HW135683   2.783   5.874  11.541
11414SOL    HW235684   2.899   5.850  11.635
11415SOL     OW35685   3.063   7.169  11.976
11415SOL    HW135686   3.094   7.231  11.911
11415SOL    HW235687   3.142   7.129  12.011
11416SOL     OW35688   2.329   6.738  11.900
11416SOL    HW135689   2.264   6.715  11.967
11416SOL    HW235690   2.282   6.724  11.817
11417SOL     OW35691   3.121   7.381  11.783
11417SOL    HW135692   3.164   7.446  11.726
11417SOL    HW235693   3.043   7.426  11.816
11418SOL     OW35694   2.887   6.118  11.200
11418SOL    HW135695   2.842   6.200  11.179
11418SOL    HW235696   2.953   6.143  11.265
11419SOL     OW35697   2.432   5.832  12.323
11419SOL    HW135698   2.498   5.766  12.346
11419SOL    HW235699   2.352   5.801  12.366
11420SOL     OW35700   2.731   6.047  11.807
11420SOL    HW135701   2.688   6.100  11.741
11420SOL    HW235702   2.752   5.964  11.762
11421SOL     OW35703   2.895   5.633  11.904
11421SOL    HW135704   2.824   5.631  11.840
11421SOL    HW235705   2.876   5.560  11.963
11422SOL     OW35706   3.302   6.751  12.035
11422SOL    HW135707   3.237   6.682  12.024
11422SOL    HW235708   3.342   6.761  11.949
11423SOL     OW35709   3.318   6.185  12.126
11423SOL    HW135710   3.259   6.110  12.138
11423SOL    HW235711   3.378   6.180  12.200
11424SOL     OW35712   2.350   7.009  11.322
11424SOL    HW135713   2.273   6.979  11.370
11424SOL    HW235714   2.356   6.952  11.246
11425SOL     OW35715   3.546   6.843  11.843
11425SOL    HW135716   3.641   6.848  11.848
11425SOL    HW235717   3.516   6.933  11.856
11426SOL     OW35718   3.258   6.146  11.248
11426SOL    HW135719   3.191   6.132  11.315
11426SOL    HW235720   3.327   6.082  11.269
11427SOL     OW35721   2.384   5.848  11.480
11427SOL    HW135722   2.437   5.805  11.414
11427SOL    HW235723   2.357   5.931  11.440
11428SOL     OW35724   2.971   6.827  12.289
11428SOL    HW135725   2.887   6.833  12.334
11428SOL    HW235726   2.951   6.852  12.199
11429SOL     OW35727   3.475   6.673  12.245
11429SOL    HW135728   3.463   6.731  12.319
11429SOL    HW235729   3.411   6.703  12.180
11430SOL     OW35730   2.573   6.648  11.544
11430SOL    HW135731   2.558   6.627  11.636
11430SOL    HW235732   2.648   6.594  11.519
11431SOL     OW35733   2.296   6.414  12.445
11431SOL    HW135734   2.349   6.454  12.514
11431SOL    HW235735   2.300   6.320  12.464
11432SOL     OW35736   3.117   5.950  12.430
11432SOL    HW135737   3.153   6.031  12.466
11432SOL    HW235738   3.027   5.973  12.406
11433SOL     OW35739   2.187   6.707  11.664
11433SOL    HW135740   2.201   6.779  11.603
11433SOL    HW235741   2.188   6.629  11.609
11434SOL     OW35742   2.403   6.116  12.032
11434SOL    HW135743   2.421   6.177  11.960
11434SOL    HW235744   2.469   6.137  12.098
11435SOL     OW35745   3.104   6.931  11.565
11435SOL    HW135746   3.157   7.007  11.591
11435SOL    HW235747   3.016   6.952  11.596
11436SOL     OW35748   3.148   7.038  12.331
11436SOL    HW135749   3.210   7.019  12.400
11436SOL    HW235750   3.090   6.962  12.328
11437SOL     OW35751   3.415   6.244  11.641
11437SOL    HW135752   3.388   6.270  11.729
11437SOL    HW235753   3.346   6.277  11.584
11438SOL     OW35754   2.232   7.161  12.459
11438SOL    HW135755   2.216   7.099  12.387
11438SOL    HW235756   2.264   7.107  12.531
11439SOL     OW35757   2.439   6.463  12.205
11439SOL    HW135758   2.478   6.551  12.205
11439SOL    HW235759   2.389   6.460  12.287
11440SOL     OW35760   3.190   6.436  12.171
11440SOL    HW135761   3.102   6.410  12.145
11440SOL    HW235762   3.242   6.355  12.166
11441SOL     OW35763   3.062   6.112  11.436
11441SOL    HW135764   3.067   6.034  11.492
11441SOL    HW235765   3.018   6.177  11.490
11442SOL     OW35766   2.170   5.766  12.414
11442SOL    HW135767   2.161   5.782  12.507
11442SOL    HW235768   2.146   5.675  12.402
11443SOL     OW35769   1.921   6.911  12.454
11443SOL    HW135770   1.912   6.852  12.529
11443SOL    HW235771   1.932   6.998  12.493
11444SOL     OW35772   2.583   6.220  12.221
11444SOL    HW135773   2.656   6.203  12.161
11444SOL    HW235774   2.553   6.308  12.197
11445SOL     OW35775   2.169   5.646  11.797
11445SOL    HW135776   2.147   5.736  11.820
11445SOL    HW235777   2.182   5.602  11.882
11446SOL     OW35778   3.496   5.969  11.537
11446SOL    HW135779   3.522   5.895  11.592
11446SOL    HW235780   3.451   6.029  11.597
11447SOL     OW35781   2.902   6.344  12.129
11447SOL    HW135782   2.880   6.367  12.219
11447SOL    HW235783   2.870   6.255  12.119
11448SOL     OW35784   3.376   5.874  11.304
11448SOL    HW135785   3.322   5.798  11.327
11448SOL    HW235786   3.420   5.898  11.385
11449SOL     OW35787   3.158   6.407  11.212
11449SOL    HW135788   3.199   6.321  11.210
11449SOL    HW235789   3.173   6.443  11.125
11450SOL     OW35790   2.922   6.926  12.032
11450SOL    HW135791   2.931   6.853  11.972
11450SOL    HW235792   2.978   6.995  11.997
11451SOL     OW35793   2.180   6.396  12.099
11451SOL    HW135794   2.273   6.414  12.111
11451SOL    HW235795   2.168   6.307  12.132
11452SOL     OW35796   2.169   6.128  12.165
11452SOL    HW135797   2.143   6.036  12.171
11452SOL    HW235798   2.253   6.126  12.119
11453SOL     OW35799   3.030   5.813   0.157
11453SOL    HW135800   3.013   5.893   0.207
11453SOL    HW235801   3.057   5.845   0.071
11454SOL     OW35802   1.867   6.905  11.365
11454SOL    HW135803   1.779   6.923  11.333
11454SOL    HW235804   1.862   6.815  11.398
11455SOL     OW35805   1.955   7.370  12.106
11455SOL    HW135806   1.929   7.286  12.067
11455SOL    HW235807   2.046   7.382  12.077
11456SOL     OW35808   2.357   7.167  12.072
11456SOL    HW135809   2.430   7.217  12.108
11456SOL    HW235810   2.398   7.102  12.015
11457SOL     OW35811   2.816   6.397  12.383
11457SOL    HW135812   2.883   6.382  12.450
11457SOL    HW235813   2.745   6.338  12.408
11458SOL     OW35814   1.921   6.154  12.288
11458SOL    HW135815   1.999   6.157  12.233
11458SOL    HW235816   1.929   6.073  12.337
11459SOL     OW35817   2.680   6.155  11.538
11459SOL    HW135818   2.687   6.081  11.478
11459SOL    HW235819   2.605   6.205  11.507
11460SOL     OW35820   3.507   6.186  12.324
11460SOL    HW135821   3.505   6.140  12.407
11460SOL    HW235822   3.598   6.179  12.295
11461SOL     OW35823   2.585   6.042  12.425
11461SOL    HW135824   2.525   5.971  12.401
11461SOL    HW235825   2.572   6.109  12.358
11462SOL     OW35826   2.738   7.234   0.034
11462SOL    HW135827   2.766   7.291  -0.037
11462SOL    HW235828   2.786   7.267   0.111
11463SOL     OW35829   2.317   6.077  11.347
11463SOL    HW135830   2.379   6.145  11.372
11463SOL    HW235831   2.233   6.122  11.341
11464SOL     OW35832   3.144   6.619  12.370
11464SOL    HW135833   3.173   6.566  12.296
11464SOL    HW235834   3.097   6.693  12.329
11465SOL     OW35835   3.200   6.413  11.487
11465SOL    HW135836   3.117   6.410  11.535
11465SOL    HW235837   3.174   6.411  11.395
11466SOL     OW35838   3.639   7.340  12.317
11466SOL    HW135839   3.699   7.351  12.244
11466SOL    HW235840   3.614   7.248  12.315
11467SOL     OW35841   3.111   7.309  12.288
11467SOL    HW135842   3.188   7.346  12.245
11467SOL    HW235843   3.123   7.214  12.283
11468SOL     OW35844   1.943   6.884  12.180
11468SOL    HW135845   1.935   6.887  12.275
11468SOL    HW235846   1.892   6.807  12.154
11469SOL     OW35847   3.593   5.746  11.676
11469SOL    HW135848   3.660   5.726  11.610
11469SOL    HW235849   3.572   5.662  11.716
11470SOL     OW35850   3.236   7.158  11.651
11470SOL    HW135851   3.300   7.194  11.589
11470SOL    HW235852   3.189   7.234  11.684
11471SOL     OW35853   3.143   6.514  11.839
11471SOL    HW135854   3.220   6.459  11.854
11471SOL    HW235855   3.176   6.587  11.786
11472SOL     OW35856   2.524   7.216  11.328
11472SOL    HW135857   2.542   7.229  11.235
11472SOL    HW235858   2.471   7.136  11.331
11473SOL     OW35859   3.477   7.389   0.032
11473SOL    HW135860   3.533   7.370  -0.044
11473SOL    HW235861   3.535   7.432   0.095
11474SOL     OW35862   3.711   5.751  12.152
11474SOL    HW135863   3.733   5.661  12.129
11474SOL    HW235864   3.623   5.765  12.116
11475SOL     OW35865   2.119   5.898  11.887
11475SOL    HW135866   2.033   5.936  11.868
11475SOL    HW235867   2.123   5.896  11.983
11476SOL     OW35868   3.098   7.176  11.188
11476SOL    HW135869   3.070   7.093  11.228
11476SOL    HW235870   3.019   7.211  11.148
11477SOL     OW35871   2.674   6.623  12.494
11477SOL    HW135872   2.715   6.567  12.428
11477SOL    HW235873   2.745   6.647  12.554
11478SOL     OW35874   2.781   6.498  11.462
11478SOL    HW135875   2.840   6.530  11.394
11478SOL    HW235876   2.830   6.429  11.507
11479SOL     OW35877   3.362   7.221  11.220
11479SOL    HW135878   3.270   7.203  11.203
11479SOL    HW235879   3.402   7.229  11.133
11480SOL     OW35880   2.929   6.698  11.887
11480SOL    HW135881   2.855   6.648  11.920
11480SOL    HW235882   2.992   6.632  11.859
11481SOL     OW35883   2.890   5.826  12.115
11481SOL    HW135884   2.894   5.767  12.040
11481SOL    HW235885   2.845   5.776  12.182
11482SOL     OW35886   2.460   7.060  11.646
11482SOL    HW135887   2.519   7.014  11.586
11482SOL    HW235888   2.395   7.101  11.590
11483SOL     OW35889   3.604   6.018   0.038
11483SOL    HW135890   3.682   5.964   0.026
11483SOL    HW235891   3.533   5.956   0.053
11484SOL     OW35892   2.123   6.929  11.459
11484SOL    HW135893   2.030   6.924  11.435
11484SOL    HW235894   2.123   6.968  11.546
11485SOL     OW35895   1.944   5.916  11.201
11485SOL    HW135896   1.859   5.899  11.160
11485SOL    HW235897   1.978   5.992  11.154
11486SOL     OW35898   1.921   5.737  11.469
11486SOL    HW135899   1.911   5.816  11.416
11486SOL    HW235900   2.008   5.704  11.446
11487SOL     OW35901   3.042   6.915  11.292
11487SOL    HW135902   2.955   6.875  11.294
11487SOL    HW235903   3.068   6.919  11.384
11488SOL     OW35904   3.350   7.385  12.172
11488SOL    HW135905   3.373   7.411  12.083
11488SOL    HW235906   3.423   7.330  12.200
11489SOL     OW35907   3.554   6.458  12.403
11489SOL    HW135908   3.522   6.376  12.365
11489SOL    HW235909   3.523   6.525  12.343
11490SOL     OW35910   3.080   5.909  11.632
11490SOL    HW135911   3.138   5.833  11.625
11490SOL    HW235912   3.111   5.955  11.710
11491SOL     OW35913   2.449   6.318  11.846
11491SOL    HW135914   2.488   6.404  11.832
11491SOL    HW235915   2.384   6.310  11.776
11492SOL     OW35916   3.676   6.465   0.141
11492SOL    HW135917   3.666   6.555   0.173
11492SOL    HW235918   3.625   6.462   0.060
11493SOL     OW35919   2.703   6.953  11.211
11493SOL    HW135920   2.682   6.977  11.302
11493SOL    HW235921   2.733   7.035  11.172
11494SOL     OW35922   2.534   7.389  12.130
11494SOL    HW135923   2.518   7.470  12.081
11494SOL    HW235924   2.623   7.363  12.105
11495SOL     OW35925   2.734   6.554  12.019
11495SOL    HW135926   2.784   6.483  12.060
11495SOL    HW235927   2.694   6.601  12.092
11496SOL     OW35928   2.941   6.573  11.259
11496SOL    HW135929   2.922   6.623  11.179
11496SOL    HW235930   3.016   6.519  11.235
11497SOL     OW35931   1.960   6.810  11.838
11497SOL    HW135932   1.972   6.769  11.923
11497SOL    HW235933   2.024   6.768  11.781
11498SOL     OW35934   3.761   5.753  12.432
11498SOL    HW135935   3.697   5.698  12.477
11498SOL    HW235936   3.728   5.759  12.342
11499SOL     OW35937   2.284   6.020  11.693
11499SOL    HW135938   2.319   5.949  11.640
11499SOL    HW235939   2.239   5.976  11.765
11500SOL     OW35940   3.558   7.084  12.293
11500SOL    HW135941   3.593   7.070  12.205
11500SOL    HW235942   3.604   7.020  12.348
11501SOL     OW35943   2.687   7.175  11.845
11501SOL    HW135944   2.687   7.230  11.767
11501SOL    HW235945   2.611   7.117  11.834
11502SOL     OW35946   3.295   5.806  12.281
11502SOL    HW135947   3.300   5.717  12.316
11502SOL    HW235948   3.243   5.854  12.346
11503SOL     OW35949   2.640   6.916  11.493
11503SOL    HW135950   2.615   6.824  11.503
11503SOL    HW235951   2.720   6.925  11.544
11504SOL     OW35952   3.232   5.634  11.345
11504SOL    HW135953   3.271   5.560  11.300
11504SOL    HW235954   3.140   5.609  11.359
11505SOL     OW35955   3.174   6.054  11.854
11505SOL    HW135956   3.115   6.130  11.852
11505SOL    HW235957   3.157   6.013  11.938
11506SOL     OW35958   3.457   5.782  12.057
11506SOL    HW135959   3.398   5.800  12.131
11506SOL    HW235960   3.445   5.857  11.999
11507SOL     OW35961   1.902   6.649  11.479
11507SOL    HW135962   1.996   6.643  11.462
11507SOL    HW235963   1.875   6.560  11.500
11508SOL     OW35964   2.727   7.241  11.539
11508SOL    HW135965   2.664   7.232  11.467
11508SOL    HW235966   2.779   7.317  11.515
11509SOL     OW35967   2.091   7.732   0.997
11509SOL    HW135968   2.118   7.700   1.083
11509SOL    HW235969   2.001   7.700   0.987
11510SOL     OW35970   1.846   7.832   0.641
11510SOL    HW135971   1.761   7.864   0.671
11510SOL    HW235972   1.827   7.748   0.600
11511SOL     OW35973   2.294   7.868   1.456
11511SOL    HW135974   2.381   7.828   1.455
11511SOL    HW235975   2.236   7.800   1.490
11512SOL     OW35976   3.462   7.937   0.704
11512SOL    HW135977   3.378   7.916   0.662
11512SOL    HW235978   3.438   7.965   0.793
11513SOL     OW35979   3.449   7.582   1.433
11513SOL    HW135980   3.491   7.657   1.393
11513SOL    HW235981   3.431   7.609   1.523
11514SOL     OW35982   1.929   0.105   0.630
11514SOL    HW135983   1.912   0.011   0.624
11514SOL    HW235984   2.023   0.112   0.647
11515SOL     OW35985   2.680   7.444   0.527
11515SOL    HW135986   2.723   7.525   0.500
11515SOL    HW235987   2.587   7.465   0.529
11516SOL     OW35988   2.200   7.713   1.789
11516SOL    HW135989   2.240   7.799   1.794
11516SOL    HW235990   2.121   7.720   1.843
11517SOL     OW35991   3.128   7.795   0.933
11517SOL    HW135992   3.040   7.759   0.944
11517SOL    HW235993   3.183   7.741   0.991
11518SOL     OW35994   3.254   7.921   1.732
11518SOL    HW135995   3.252   7.937   1.826
11518SOL    HW235996   3.311   7.844   1.722
11519SOL     OW35997   2.778   0.348   1.536
11519SOL    HW135998   2.856   0.388   1.573
11519SOL    HW235999   2.791   0.351   1.441
11520SOL     OW36000   2.856   7.823   1.233
11520SOL    HW136001   2.774   7.846   1.277
11520SOL    HW236002   2.829   7.759   1.166
11521SOL     OW36003   2.747   7.791   0.213
11521SOL    HW136004   2.839   7.798   0.188
11521SOL    HW236005   2.721   7.702   0.186
11522SOL     OW36006   3.570   0.043   1.754
11522SOL    HW136007   3.596   0.046   1.846
11522SOL    HW236008   3.607  -0.039   1.721
11523SOL     OW36009   2.413   7.629   0.892
11523SOL    HW136010   2.410   7.651   0.985
11523SOL    HW236011   2.422   7.713   0.848
11524SOL     OW36012   2.053   7.723   1.510
11524SOL    HW136013   2.012   7.784   1.571
11524SOL    HW236014   2.057   7.640   1.558
11525SOL     OW36015   3.261   7.549   0.437
11525SOL    HW136016   3.256   7.521   0.346
11525SOL    HW236017   3.345   7.595   0.444
11526SOL     OW36018   3.389   7.651   1.688
11526SOL    HW136019   3.397   7.671   1.781
11526SOL    HW236020   3.333   7.573   1.685
11527SOL     OW36021   2.488   7.545   0.116
11527SOL    HW136022   2.584   7.536   0.117
11527SOL    HW236023   2.456   7.463   0.080
11528SOL     OW36024   2.627   7.718   1.753
11528SOL    HW136025   2.700   7.659   1.735
11528SOL    HW236026   2.633   7.736   1.847
11529SOL     OW36027   2.415   7.504   0.501
11529SOL    HW136028   2.334   7.507   0.553
11529SOL    HW236029   2.412   7.583   0.448
11530SOL     OW36030   2.170   7.534   0.207
11530SOL    HW136031   2.254   7.579   0.204
11530SOL    HW236032   2.191   7.444   0.230
11531SOL     OW36033   2.810   7.670   0.460
11531SOL    HW136034   2.777   7.734   0.397
11531SOL    HW236035   2.902   7.694   0.471
11532SOL     OW36036   1.969   0.003   1.393
11532SOL    HW136037   2.039  -0.054   1.424
11532SOL    HW236038   1.969   0.076   1.455
11533SOL     OW36039   2.405   7.672   1.162
11533SOL    HW136040   2.455   7.613   1.218
11533SOL    HW236041   2.317   7.672   1.198
11534SOL     OW36042   2.882   7.497   0.741
11534SOL    HW136043   2.820   7.494   0.669
11534SOL    HW236044   2.858   7.423   0.797
11535SOL     OW36045   3.339   7.976   0.945
11535SOL    HW136046   3.259   7.925   0.956
11535SOL    HW236047   3.375   7.982   1.034
11536SOL     OW36048   2.408   7.710   0.320
11536SOL    HW136049   2.444   7.661   0.246
11536SOL    HW236050   2.447   7.797   0.313
11537SOL     OW36051   2.781   7.555   1.382
11537SOL    HW136052   2.810   7.528   1.296
11537SOL    HW236053   2.860   7.589   1.425
11538SOL     OW36054   3.122   7.815   1.280
11538SOL    HW136055   3.142   7.908   1.290
11538SOL    HW236056   3.028   7.812   1.263
11539SOL     OW36057   2.429   7.922   0.849
11539SOL    HW136058   2.369   7.964   0.788
11539SOL    HW236059   2.448   7.990   0.914
11540SOL     OW36060   2.842   7.565   1.723
11540SOL    HW136061   2.909   7.627   1.750
11540SOL    HW236062   2.891   7.489   1.691
11541SOL     OW36063   2.361   7.503   1.729
11541SOL    HW136064   2.294   7.435   1.718
11541SOL    HW236065   2.310   7.582   1.748
11542SOL     OW36066   2.147   7.638   1.255
11542SOL    HW136067   2.112   7.672   1.337
11542SOL    HW236068   2.129   7.544   1.258
11543SOL     OW36069   2.641   0.056   1.028
11543SOL    HW136070   2.659   0.020   0.941
11543SOL    HW236071   2.582   0.129   1.012
11544SOL     OW36072   2.169   7.504   0.628
11544SOL    HW136073   2.145   7.594   0.647
11544SOL    HW236074   2.180   7.463   0.713
11545SOL     OW36075   3.454   7.773   0.364
11545SOL    HW136076   3.512   7.730   0.427
11545SOL    HW236077   3.500   7.853   0.339
11546SOL     OW36078   3.294   7.754   0.125
11546SOL    HW136079   3.277   7.660   0.132
11546SOL    HW236080   3.368   7.769   0.183
11547SOL     OW36081   2.150   8.000   1.022
11547SOL    HW136082   2.159   7.906   1.009
11547SOL    HW236083   2.185   8.039   0.941
11548SOL     OW36084   2.997   7.826   1.684
11548SOL    HW136085   2.939   7.877   1.742
11548SOL    HW236086   3.085   7.855   1.709
11549SOL     OW36087   3.025   7.644   1.479
11549SOL    HW136088   3.010   7.706   1.550
11549SOL    HW236089   3.076   7.693   1.415
11550SOL     OW36090   1.889   7.941   1.141
11550SOL    HW136091   1.961   7.949   1.079
11550SOL    HW236092   1.930   7.949   1.227
11551SOL     OW36093   2.027   7.977   1.688
11551SOL    HW136094   2.120   7.953   1.691
11551SOL    HW236095   2.023   8.063   1.730
11552SOL     OW36096   2.650   0.033   0.271
11552SOL    HW136097   2.687  -0.055   0.264
11552SOL    HW236098   2.596   0.030   0.350
11553SOL     OW36099   3.463   8.013   1.187
11553SOL    HW136100   3.474   7.951   1.259
11553SOL    HW236101   3.551   8.030   1.155
11554SOL     OW36102   2.581   7.874   1.239
11554SOL    HW136103   2.510   7.820   1.205
11554SOL    HW236104   2.588   7.947   1.177
11555SOL     OW36105   2.763   7.532   0.116
11555SOL    HW136106   2.811   7.547   0.034
11555SOL    HW236107   2.829   7.495   0.175
11556SOL     OW36108   3.606   7.602   0.523
11556SOL    HW136109   3.671   7.579   0.457
11556SOL    HW236110   3.576   7.518   0.558
11557SOL     OW36111   3.706   7.617   0.959
11557SOL    HW136112   3.732   7.527   0.938
11557SOL    HW236113   3.619   7.626   0.921
11558SOL     OW36114   2.109   7.752   0.713
11558SOL    HW136115   2.025   7.796   0.700
11558SOL    HW236116   2.123   7.755   0.808
11559SOL     OW36117   2.888   7.669   0.964
11559SOL    HW136118   2.882   7.625   0.879
11559SOL    HW236119   2.882   7.598   1.028
11560SOL     OW36120   3.590   7.841   1.369
11560SOL    HW136121   3.664   7.900   1.382
11560SOL    HW236122   3.624   7.770   1.315
11561SOL     OW36123   2.537   7.622   1.500
11561SOL    HW136124   2.621   7.626   1.455
11561SOL    HW236125   2.553   7.669   1.582
11562SOL     OW36126   1.925   7.599   0.312
11562SOL    HW136127   1.924   7.694   0.303
11562SOL    HW236128   2.011   7.573   0.278
11563SOL     OW36129   2.633   7.982   1.670
11563SOL    HW136130   2.593   8.023   1.747
11563SOL    HW236131   2.631   7.888   1.690
11564SOL     OW36132   3.077   7.752   0.451
11564SOL    HW136133   3.141   7.681   0.450
11564SOL    HW236134   3.108   7.812   0.519
11565SOL     OW36135   2.497   0.257   0.625
11565SOL    HW136136   2.453   0.342   0.618
11565SOL    HW236137   2.431   0.199   0.664
11566SOL     OW36138   3.628   7.801   1.637
11566SOL    HW136139   3.602   7.809   1.545
11566SOL    HW236140   3.570   7.734   1.672
11567SOL     OW36141   3.672   7.630   1.229
11567SOL    HW136142   3.679   7.536   1.247
11567SOL    HW236143   3.686   7.638   1.135
11568SOL     OW36144   2.197   7.850   0.447
11568SOL    HW136145   2.263   7.784   0.424
11568SOL    HW236146   2.180   7.836   0.540
11569SOL     OW36147   3.291   7.670   1.113
11569SOL    HW136148   3.314   7.583   1.147
11569SOL    HW236149   3.245   7.713   1.185
11570SOL     OW36150   2.868   7.456   1.138
11570SOL    HW136151   2.815   7.389   1.095
11570SOL    HW236152   2.956   7.419   1.138
11571SOL     OW36153   3.204   7.500   0.164
11571SOL    HW136154   3.253   7.434   0.115
11571SOL    HW236155   3.123   7.456   0.188
11572SOL     OW36156   3.167   7.896   0.678
11572SOL    HW136157   3.118   7.978   0.685
11572SOL    HW236158   3.157   7.853   0.763
11573SOL     OW36159   3.447   7.651   0.883
11573SOL    HW136160   3.395   7.666   0.961
11573SOL    HW236161   3.431   7.728   0.828
11574SOL     OW36162   2.091   7.708   2.856
11574SOL    HW136163   2.114   7.689   2.947
11574SOL    HW236164   1.998   7.685   2.850
11575SOL     OW36165   1.846   7.843   2.493
11575SOL    HW136166   1.766   7.859   2.541
11575SOL    HW236167   1.843   7.749   2.473
11576SOL     OW36168   3.591   0.044   2.036
11576SOL    HW136169   3.540  -0.030   2.069
11576SOL    HW236170   3.618   0.091   2.114
11577SOL     OW36171   2.304   7.868   3.386
11577SOL    HW136172   2.357   7.877   3.307
11577SOL    HW236173   2.320   7.778   3.415
11578SOL     OW36174   3.464   7.948   2.562
11578SOL    HW136175   3.382   7.922   2.522
11578SOL    HW236176   3.440   7.983   2.648
11579SOL     OW36177   3.455   7.576   3.327
11579SOL    HW136178   3.484   7.656   3.284
11579SOL    HW236179   3.427   7.605   3.414
11580SOL     OW36180   1.938   0.113   2.456
11580SOL    HW136181   1.929   0.018   2.467
11580SOL    HW236182   2.029   0.131   2.479
11581SOL     OW36183   2.682   7.453   2.350
11581SOL    HW136184   2.722   7.538   2.333
11581SOL    HW236185   2.590   7.473   2.371
11582SOL     OW36186   2.143   7.743   3.647
11582SOL    HW136187   2.218   7.697   3.609
11582SOL    HW236188   2.138   7.710   3.736
11583SOL     OW36189   3.127   7.795   2.793
11583SOL    HW136190   3.039   7.762   2.809
11583SOL    HW236191   3.184   7.738   2.846
11584SOL     OW36192   3.267   7.941   3.565
11584SOL    HW136193   3.253   7.955   3.659
11584SOL    HW236194   3.315   7.858   3.561
11585SOL     OW36195   2.785   0.395   3.375
11585SOL    HW136196   2.854   0.331   3.359
11585SOL    HW236197   2.706   0.353   3.341
11586SOL     OW36198   2.871   7.834   3.102
11586SOL    HW136199   2.798   7.845   3.163
11586SOL    HW236200   2.832   7.794   3.024
11587SOL     OW36201   2.720   7.754   2.016
11587SOL    HW136202   2.733   7.848   2.030
11587SOL    HW236203   2.757   7.713   2.095
11588SOL     OW36204   3.606   0.018   3.695
11588SOL    HW136205   3.549   0.085   3.658
11588SOL    HW236206   3.607  -0.052   3.630
11589SOL     OW36207   2.387   7.648   2.757
11589SOL    HW136208   2.410   7.673   2.847
11589SOL    HW236209   2.396   7.729   2.707
11590SOL     OW36210   2.022   7.725   3.363
11590SOL    HW136211   2.007   7.787   3.434
11590SOL    HW236212   2.052   7.645   3.407
11591SOL     OW36213   3.264   7.570   2.292
11591SOL    HW136214   3.266   7.547   2.199
11591SOL    HW236215   3.332   7.637   2.302
11592SOL     OW36216   3.380   7.672   3.592
11592SOL    HW136217   3.384   7.697   3.684
11592SOL    HW236218   3.326   7.594   3.591
11593SOL     OW36219   2.471   7.562   1.982
11593SOL    HW136220   2.567   7.553   1.987
11593SOL    HW236221   2.450   7.541   1.891
11594SOL     OW36222   2.659   7.747   3.635
11594SOL    HW136223   2.726   7.680   3.620
11594SOL    HW236224   2.578   7.699   3.650
11595SOL     OW36225   3.212   0.021   3.293
11595SOL    HW136226   3.243  -0.003   3.381
11595SOL    HW236227   3.144   0.086   3.309
11596SOL     OW36228   2.407   7.507   2.364
11596SOL    HW136229   2.336   7.513   2.428
11596SOL    HW236230   2.406   7.591   2.319
11597SOL     OW36231   2.165   7.496   2.046
11597SOL    HW136232   2.235   7.558   2.025
11597SOL    HW236233   2.209   7.426   2.094
11598SOL     OW36234   2.793   7.708   2.291
11598SOL    HW136235   2.763   7.777   2.351
11598SOL    HW236236   2.889   7.709   2.299
11599SOL     OW36237   1.962   7.994   3.249
11599SOL    HW136238   2.016   7.922   3.280
11599SOL    HW236239   1.978   8.065   3.310
11600SOL     OW36240   2.404   7.595   3.030
11600SOL    HW136241   2.468   7.583   3.100
11600SOL    HW236242   2.335   7.649   3.068
11601SOL     OW36243   2.833   7.510   2.626
11601SOL    HW136244   2.837   7.487   2.533
11601SOL    HW236245   2.847   7.427   2.672
11602SOL     OW36246   3.345   7.973   2.811
11602SOL    HW136247   3.265   7.923   2.826
11602SOL    HW236248   3.381   7.987   2.899
11603SOL     OW36249   2.417   7.726   2.195
11603SOL    HW136250   2.437   7.670   2.119
11603SOL    HW236251   2.472   7.803   2.184
11604SOL     OW36252   2.786   7.534   3.258
11604SOL    HW136253   2.814   7.516   3.168
11604SOL    HW236254   2.865   7.570   3.300
11605SOL     OW36255   3.138   7.801   3.148
11605SOL    HW136256   3.168   7.882   3.188
11605SOL    HW236257   3.046   7.818   3.126
11606SOL     OW36258   2.415   7.948   2.688
11606SOL    HW136259   2.437   8.028   2.640
11606SOL    HW236260   2.471   7.950   2.765
11607SOL     OW36261   2.864   7.575   3.600
11607SOL    HW136262   2.930   7.644   3.592
11607SOL    HW236263   2.912   7.494   3.582
11608SOL     OW36264   2.133   7.644   3.116
11608SOL    HW136265   2.106   7.675   3.202
11608SOL    HW236266   2.142   7.550   3.126
11609SOL     OW36267   2.160   7.503   2.513
11609SOL    HW136268   2.156   7.598   2.530
11609SOL    HW236269   2.103   7.465   2.580
11610SOL     OW36270   3.372   7.696   1.941
11610SOL    HW136271   3.314   7.627   1.973
11610SOL    HW236272   3.395   7.746   2.020
11611SOL     OW36273   3.129   0.223   1.840
11611SOL    HW136274   3.154   0.156   1.904
11611SOL    HW236275   3.150   0.306   1.883
11612SOL     OW36276   2.155   7.980   2.858
11612SOL    HW136277   2.172   7.886   2.853
11612SOL    HW236278   2.237   8.022   2.834
11613SOL     OW36279   3.011   7.827   3.539
11613SOL    HW136280   2.954   7.897   3.571
11613SOL    HW236281   3.099   7.865   3.541
11614SOL     OW36282   3.027   7.637   3.338
11614SOL    HW136283   3.017   7.702   3.408
11614SOL    HW236284   3.076   7.682   3.270
11615SOL     OW36285   1.908   7.962   2.974
11615SOL    HW136286   1.991   7.962   2.928
11615SOL    HW236287   1.931   7.953   3.067
11616SOL     OW36288   2.034   7.978   3.551
11616SOL    HW136289   2.085   7.902   3.578
11616SOL    HW236290   2.083   8.053   3.585
11617SOL     OW36291   2.644   0.028   2.125
11617SOL    HW136292   2.697  -0.008   2.197
11617SOL    HW236293   2.581   0.085   2.169
11618SOL     OW36294   3.492   8.016   3.053
11618SOL    HW136295   3.476   7.962   3.131
11618SOL    HW236296   3.567   7.975   3.011
11619SOL     OW36297   2.448   7.886   3.152
11619SOL    HW136298   2.505   7.814   3.182
11619SOL    HW236299   2.497   7.928   3.082
11620SOL     OW36300   3.652   7.581   2.418
11620SOL    HW136301   3.649   7.577   2.322
11620SOL    HW236302   3.609   7.500   2.446
11621SOL     OW36303   3.719   7.616   2.829
11621SOL    HW136304   3.730   7.525   2.801
11621SOL    HW236305   3.635   7.643   2.792
11622SOL     OW36306   2.114   7.759   2.584
11622SOL    HW136307   2.036   7.814   2.572
11622SOL    HW236308   2.122   7.750   2.679
11623SOL     OW36309   2.882   7.676   2.840
11623SOL    HW136310   2.869   7.633   2.756
11623SOL    HW236311   2.884   7.604   2.903
11624SOL     OW36312   3.596   7.818   3.251
11624SOL    HW136313   3.657   7.892   3.245
11624SOL    HW236314   3.630   7.754   3.189
11625SOL     OW36315   2.542   7.655   3.290
11625SOL    HW136316   2.631   7.621   3.298
11625SOL    HW236317   2.504   7.641   3.377
11626SOL     OW36318   1.938   7.783   1.892
11626SOL    HW136319   1.881   7.780   1.816
11626SOL    HW236320   1.979   7.869   1.888
11627SOL     OW36321   1.922   7.599   2.157
11627SOL    HW136322   1.920   7.681   2.107
11627SOL    HW236323   2.012   7.567   2.146
11628SOL     OW36324   2.649   8.013   3.578
11628SOL    HW136325   2.554   8.024   3.573
11628SOL    HW236326   2.662   7.919   3.593
11629SOL     OW36327   3.057   7.754   2.331
11629SOL    HW136328   3.129   7.694   2.314
11629SOL    HW236329   3.091   7.813   2.399
11630SOL     OW36330   2.481   0.246   2.537
11630SOL    HW136331   2.541   0.320   2.536
11630SOL    HW236332   2.467   0.225   2.444
11631SOL     OW36333   3.615   7.807   3.524
11631SOL    HW136334   3.603   7.821   3.430
11631SOL    HW236335   3.544   7.747   3.548
11632SOL     OW36336   3.691   7.616   3.102
11632SOL    HW136337   3.673   7.522   3.106
11632SOL    HW236338   3.700   7.635   3.009
11633SOL     OW36339   2.181   7.829   2.298
11633SOL    HW136340   2.266   7.791   2.277
11633SOL    HW236341   2.179   7.829   2.394
11634SOL     OW36342   3.288   7.660   2.963
11634SOL    HW136343   3.302   7.569   2.987
11634SOL    HW236344   3.245   7.699   3.040
11635SOL     OW36345   2.866   7.455   3.006
11635SOL    HW136346   2.811   7.382   2.976
11635SOL    HW236347   2.955   7.419   3.005
11636SOL     OW36348   3.216   7.490   2.019
11636SOL    HW136349   3.252   7.404   1.997
11636SOL    HW236350   3.125   7.472   2.044
11637SOL     OW36351   3.145   7.909   2.544
11637SOL    HW136352   3.089   7.985   2.563
11637SOL    HW236353   3.149   7.862   2.627
11638SOL     OW36354   3.478   7.688   2.741
11638SOL    HW136355   3.406   7.652   2.792
11638SOL    HW236356   3.441   7.764   2.696
11639SOL     OW36357   2.069   7.757   4.744
11639SOL    HW136358   2.114   7.707   4.812
11639SOL    HW236359   1.998   7.699   4.715
11640SOL     OW36360   1.855   7.828   4.359
11640SOL    HW136361   1.769   7.835   4.399
11640SOL    HW236362   1.858   7.739   4.323
11641SOL     OW36363   3.590   0.031   3.983
11641SOL    HW136364   3.601   0.035   3.888
11641SOL    HW236365   3.563  -0.060   4.000
11642SOL     OW36366   2.253   7.866   5.271
11642SOL    HW136367   2.325   7.872   5.208
11642SOL    HW236368   2.202   7.791   5.242
11643SOL     OW36369   3.462   7.942   4.423
11643SOL    HW136370   3.372   7.924   4.396
11643SOL    HW236371   3.455   7.974   4.513
11644SOL     OW36372   3.446   7.578   5.181
11644SOL    HW136373   3.484   7.650   5.130
11644SOL    HW236374   3.427   7.617   5.267
11645SOL     OW36375   1.931   0.103   4.334
11645SOL    HW136376   1.916   0.008   4.342
11645SOL    HW236377   2.025   0.112   4.325
11646SOL     OW36378   2.687   7.466   4.238
11646SOL    HW136379   2.726   7.550   4.214
11646SOL    HW236380   2.594   7.484   4.250
11647SOL     OW36381   2.202   7.710   5.563
11647SOL    HW136382   2.227   7.785   5.510
11647SOL    HW236383   2.112   7.728   5.591
11648SOL     OW36384   3.119   7.807   4.664
11648SOL    HW136385   3.034   7.763   4.671
11648SOL    HW236386   3.179   7.750   4.712
11649SOL     OW36387   3.276   7.939   5.423
11649SOL    HW136388   3.295   7.948   5.517
11649SOL    HW236389   3.321   7.858   5.398
11650SOL     OW36390   2.762   0.371   5.299
11650SOL    HW136391   2.850   0.345   5.272
11650SOL    HW236392   2.709   0.361   5.220
11651SOL     OW36393   2.850   7.816   4.950
11651SOL    HW136394   2.760   7.827   4.981
11651SOL    HW236395   2.843   7.753   4.878
11652SOL     OW36396   2.736   7.775   3.924
11652SOL    HW136397   2.770   7.793   3.836
11652SOL    HW236398   2.683   7.696   3.913
11653SOL     OW36399   3.583   0.029   5.538
11653SOL    HW136400   3.574   0.094   5.468
11653SOL    HW236401   3.603  -0.053   5.493
11654SOL     OW36402   2.396   7.627   4.613
11654SOL    HW136403   2.402   7.715   4.650
11654SOL    HW236404   2.404   7.639   4.519
11655SOL     OW36405   2.041   7.702   5.217
11655SOL    HW136406   1.952   7.726   5.193
11655SOL    HW236407   2.033   7.614   5.255
11656SOL     OW36408   3.263   7.550   4.153
11656SOL    HW136409   3.244   7.526   4.063
11656SOL    HW236410   3.345   7.506   4.174
11657SOL     OW36411   3.381   7.670   5.447
11657SOL    HW136412   3.375   7.693   5.540
11657SOL    HW236413   3.337   7.585   5.440
11658SOL     OW36414   2.523   7.559   3.835
11658SOL    HW136415   2.555   7.473   3.861
11658SOL    HW236416   2.474   7.544   3.755
11659SOL     OW36417   2.633   7.687   5.424
11659SOL    HW136418   2.718   7.649   5.445
11659SOL    HW236419   2.577   7.663   5.498
11660SOL     OW36420   3.201   0.015   5.147
11660SOL    HW136421   3.250  -0.001   5.228
11660SOL    HW236422   3.141   0.086   5.170
11661SOL     OW36423   2.160   7.513   3.908
11661SOL    HW136424   2.225   7.583   3.913
11661SOL    HW236425   2.201   7.438   3.950
11662SOL     OW36426   2.819   7.698   4.180
11662SOL    HW136427   2.793   7.733   4.095
11662SOL    HW236428   2.913   7.718   4.187
11663SOL     OW36429   1.962  -0.004   5.111
11663SOL    HW136430   2.055  -0.025   5.122
11663SOL    HW236431   1.955   0.088   5.138
11664SOL     OW36432   2.447   7.639   4.936
11664SOL    HW136433   2.467   7.572   4.872
11664SOL    HW236434   2.351   7.640   4.941
11665SOL     OW36435   2.867   7.506   4.467
11665SOL    HW136436   2.811   7.497   4.390
11665SOL    HW236437   2.850   7.427   4.518
11666SOL     OW36438   3.353   7.967   4.678
11666SOL    HW136439   3.268   7.924   4.689
11666SOL    HW236440   3.379   7.992   4.766
11667SOL     OW36441   2.336   7.742   3.938
11667SOL    HW136442   2.414   7.692   3.913
11667SOL    HW236443   2.349   7.761   4.031
11668SOL     OW36444   2.786   7.555   5.107
11668SOL    HW136445   2.806   7.517   5.021
11668SOL    HW236446   2.871   7.582   5.141
11669SOL     OW36447   3.124   7.797   5.004
11669SOL    HW136448   3.153   7.878   5.044
11669SOL    HW236449   3.031   7.813   4.984
11670SOL     OW36450   2.405   7.939   4.607
11670SOL    HW136451   2.409   7.973   4.518
11670SOL    HW236452   2.480   7.979   4.652
11671SOL     OW36453   2.874   7.582   5.479
11671SOL    HW136454   2.938   7.649   5.457
11671SOL    HW236455   2.914   7.500   5.452
11672SOL     OW36456   2.364   7.516   5.463
11672SOL    HW136457   2.321   7.450   5.409
11672SOL    HW236458   2.294   7.575   5.489
11673SOL     OW36459   2.173   7.646   4.979
11673SOL    HW136460   2.122   7.664   5.058
11673SOL    HW236461   2.155   7.554   4.960
11674SOL     OW36462   2.618   0.050   4.749
11674SOL    HW136463   2.684   0.044   4.680
11674SOL    HW236464   2.597   0.143   4.754
11675SOL     OW36465   2.099   7.532   4.372
11675SOL    HW136466   2.183   7.551   4.329
11675SOL    HW236467   2.124   7.483   4.451
11676SOL     OW36468   3.474   7.802   4.094
11676SOL    HW136469   3.519   7.731   4.140
11676SOL    HW236470   3.413   7.837   4.159
11677SOL     OW36471   3.353   7.745   3.855
11677SOL    HW136472   3.303   7.664   3.869
11677SOL    HW236473   3.403   7.756   3.935
11678SOL     OW36474   3.162   0.258   3.797
11678SOL    HW136475   3.145   0.163   3.802
11678SOL    HW236476   3.101   0.289   3.730
11679SOL     OW36477   2.180   8.006   4.776
11679SOL    HW136478   2.146   7.918   4.758
11679SOL    HW236479   2.254   8.016   4.716
11680SOL     OW36480   3.015   7.830   5.410
11680SOL    HW136481   2.957   7.903   5.430
11680SOL    HW236482   3.103   7.868   5.408
11681SOL     OW36483   3.025   7.642   5.205
11681SOL    HW136484   3.020   7.711   5.271
11681SOL    HW236485   3.072   7.682   5.132
11682SOL     OW36486   1.877   7.935   4.847
11682SOL    HW136487   1.933   7.875   4.798
11682SOL    HW236488   1.928   7.956   4.926
11683SOL     OW36489   2.049   7.978   5.417
11683SOL    HW136490   2.102   7.925   5.357
11683SOL    HW236491   1.964   7.986   5.373
11684SOL     OW36492   2.645   8.029   3.981
11684SOL    HW136493   2.686   7.943   3.973
11684SOL    HW236494   2.595   8.024   4.063
11685SOL     OW36495   3.491   8.022   4.925
11685SOL    HW136496   3.475   7.967   5.001
11685SOL    HW236497   3.562   7.978   4.878
11686SOL     OW36498   2.578   7.873   4.977
11686SOL    HW136499   2.526   7.796   4.951
11686SOL    HW236500   2.578   7.928   4.899
11687SOL     OW36501   3.607   7.606   4.234
11687SOL    HW136502   3.672   7.588   4.166
11687SOL    HW236503   3.579   7.519   4.263
11688SOL     OW36504   3.711   7.617   4.691
11688SOL    HW136505   3.732   7.527   4.666
11688SOL    HW236506   3.626   7.633   4.649
11689SOL     OW36507   2.120   7.848   4.463
11689SOL    HW136508   2.036   7.820   4.427
11689SOL    HW236509   2.133   7.791   4.540
11690SOL     OW36510   2.884   7.664   4.701
11690SOL    HW136511   2.872   7.629   4.612
11690SOL    HW236512   2.880   7.587   4.758
11691SOL     OW36513   3.606   7.821   5.118
11691SOL    HW136514   3.670   7.891   5.107
11691SOL    HW236515   3.632   7.754   5.055
11692SOL     OW36516   1.877   7.825   3.788
11692SOL    HW136517   1.860   7.786   3.702
11692SOL    HW236518   1.961   7.870   3.777
11693SOL     OW36519   1.919   7.604   4.020
11693SOL    HW136520   1.912   7.684   3.969
11693SOL    HW236521   2.008   7.572   4.002
11694SOL     OW36522   2.552   7.977   5.441
11694SOL    HW136523   2.615   8.046   5.458
11694SOL    HW236524   2.606   7.898   5.429
11695SOL     OW36525   3.091   7.764   4.184
11695SOL    HW136526   3.147   7.688   4.170
11695SOL    HW236527   3.128   7.808   4.260
11696SOL     OW36528   2.475   0.241   4.422
11696SOL    HW136529   2.529   0.314   4.392
11696SOL    HW236530   2.462   0.187   4.344
11697SOL     OW36531   3.615   7.803   5.392
11697SOL    HW136532   3.611   7.819   5.298
11697SOL    HW236533   3.543   7.742   5.410
11698SOL     OW36534   3.680   7.617   4.962
11698SOL    HW136535   3.674   7.522   4.971
11698SOL    HW236536   3.689   7.631   4.868
11699SOL     OW36537   2.282   7.835   4.215
11699SOL    HW136538   2.316   7.746   4.227
11699SOL    HW236539   2.225   7.848   4.291
11700SOL     OW36540   3.291   7.664   4.820
11700SOL    HW136541   3.302   7.569   4.828
11700SOL    HW236542   3.243   7.689   4.899
11701SOL     OW36543   2.863   7.446   4.868
11701SOL    HW136544   2.814   7.384   4.814
11701SOL    HW236545   2.951   7.410   4.872
11702SOL     OW36546   3.224   7.506   3.878
11702SOL    HW136547   3.274   7.426   3.862
11702SOL    HW236548   3.134   7.476   3.894
11703SOL     OW36549   3.190   7.896   4.408
11703SOL    HW136550   3.142   7.979   4.399
11703SOL    HW236551   3.162   7.862   4.493
11704SOL     OW36552   3.463   7.672   4.602
11704SOL    HW136553   3.403   7.674   4.677
11704SOL    HW236554   3.431   7.741   4.544
11705SOL     OW36555   2.078   7.745   6.589
11705SOL    HW136556   2.116   7.702   6.666
11705SOL    HW236557   1.996   7.697   6.574
11706SOL     OW36558   1.850   7.822   6.233
11706SOL    HW136559   1.767   7.858   6.263
11706SOL    HW236560   1.827   7.743   6.186
11707SOL     OW36561   3.541   0.039   5.810
11707SOL    HW136562   3.571   0.036   5.719
11707SOL    HW236563   3.544  -0.052   5.839
11708SOL     OW36564   2.299   7.838   7.151
11708SOL    HW136565   2.384   7.798   7.128
11708SOL    HW236566   2.235   7.782   7.108
11709SOL     OW36567   3.466   7.938   6.313
11709SOL    HW136568   3.391   7.949   6.254
11709SOL    HW236569   3.466   8.018   6.366
11710SOL     OW36570   3.459   7.578   7.045
11710SOL    HW136571   3.483   7.664   7.011
11710SOL    HW236572   3.425   7.595   7.133
11711SOL     OW36573   1.919   0.104   6.197
11711SOL    HW136574   1.923   0.008   6.204
11711SOL    HW236575   2.007   0.133   6.219
11712SOL     OW36576   2.686   7.447   6.109
11712SOL    HW136577   2.725   7.529   6.079
11712SOL    HW236578   2.592   7.465   6.113
11713SOL     OW36579   2.183   7.718   7.448
11713SOL    HW136580   2.219   7.787   7.393
11713SOL    HW236581   2.088   7.733   7.448
11714SOL     OW36582   3.268   7.932   7.278
11714SOL    HW136583   3.258   7.952   7.371
11714SOL    HW236584   3.310   7.847   7.276
11715SOL     OW36585   2.774   0.345   7.157
11715SOL    HW136586   2.802   0.277   7.095
11715SOL    HW236587   2.716   0.402   7.106
11716SOL     OW36588   2.852   7.835   6.850
11716SOL    HW136589   2.778   7.878   6.892
11716SOL    HW236590   2.835   7.741   6.861
11717SOL     OW36591   2.755   7.782   5.782
11717SOL    HW136592   2.815   7.808   5.712
11717SOL    HW236593   2.732   7.691   5.762
11718SOL     OW36594   3.608   0.045   7.360
11718SOL    HW136595   3.540   0.111   7.371
11718SOL    HW236596   3.584  -0.001   7.280
11719SOL     OW36597   2.419   7.636   6.496
11719SOL    HW136598   2.426   7.651   6.590
11719SOL    HW236599   2.414   7.723   6.458
11720SOL     OW36600   2.051   7.717   7.085
11720SOL    HW136601   1.963   7.745   7.058
11720SOL    HW236602   2.039   7.629   7.119
11721SOL     OW36603   3.264   7.552   6.019
11721SOL    HW136604   3.245   7.526   5.929
11721SOL    HW236605   3.352   7.519   6.036
11722SOL     OW36606   3.373   7.668   7.312
11722SOL    HW136607   3.374   7.687   7.405
11722SOL    HW236608   3.310   7.596   7.303
11723SOL     OW36609   2.516   7.557   5.683
11723SOL    HW136610   2.555   7.473   5.706
11723SOL    HW236611   2.460   7.538   5.607
11724SOL     OW36612   2.646   7.716   7.375
11724SOL    HW136613   2.722   7.659   7.363
11724SOL    HW236614   2.588   7.695   7.302
11725SOL     OW36615   3.209   0.009   7.009
11725SOL    HW136616   3.244  -0.013   7.096
11725SOL    HW236617   3.148   0.081   7.026
11726SOL     OW36618   2.422   7.510   6.091
11726SOL    HW136619   2.340   7.510   6.139
11726SOL    HW236620   2.413   7.581   6.027
11727SOL     OW36621   2.151   7.503   5.772
11727SOL    HW136622   2.210   7.557   5.719
11727SOL    HW236623   2.208   7.439   5.813
11728SOL     OW36624   2.807   7.680   6.042
11728SOL    HW136625   2.780   7.734   5.968
11728SOL    HW236626   2.899   7.702   6.056
11729SOL     OW36627   1.982  -0.007   6.961
11729SOL    HW136628   2.069  -0.038   6.987
11729SOL    HW236629   1.974   0.080   7.001
11730SOL     OW36630   2.432   7.662   6.776
11730SOL    HW136631   2.469   7.587   6.823
11730SOL    HW236632   2.338   7.660   6.796
11731SOL     OW36633   2.883   7.495   6.318
11731SOL    HW136634   2.822   7.494   6.245
11731SOL    HW236635   2.857   7.421   6.373
11732SOL     OW36636   3.277   7.949   6.563
11732SOL    HW136637   3.308   7.906   6.643
11732SOL    HW236638   3.299   8.041   6.576
11733SOL     OW36639   2.405   7.705   5.895
11733SOL    HW136640   2.437   7.654   5.821
11733SOL    HW236641   2.450   7.789   5.887
11734SOL     OW36642   2.788   7.601   6.971
11734SOL    HW136643   2.773   7.526   6.913
11734SOL    HW236644   2.864   7.577   7.023
11735SOL     OW36645   3.126   7.815   6.838
11735SOL    HW136646   3.158   7.887   6.892
11735SOL    HW236647   3.031   7.827   6.836
11736SOL     OW36648   2.412   7.925   6.449
11736SOL    HW136649   2.387   7.984   6.379
11736SOL    HW236650   2.476   7.974   6.500
11737SOL     OW36651   2.875   7.574   7.345
11737SOL    HW136652   2.932   7.644   7.313
11737SOL    HW236653   2.917   7.493   7.316
11738SOL     OW36654   2.354   7.515   7.359
11738SOL    HW136655   2.327   7.450   7.294
11738SOL    HW236656   2.291   7.587   7.349
11739SOL     OW36657   2.163   7.642   6.832
11739SOL    HW136658   2.118   7.668   6.913
11739SOL    HW236659   2.150   7.547   6.827
11740SOL     OW36660   2.618   0.072   6.594
11740SOL    HW136661   2.641   0.103   6.506
11740SOL    HW236662   2.550   0.133   6.623
11741SOL     OW36663   2.176   7.517   6.214
11741SOL    HW136664   2.148   7.604   6.243
11741SOL    HW236665   2.185   7.467   6.295
11742SOL     OW36666   3.481   7.797   5.945
11742SOL    HW136667   3.521   7.730   6.000
11742SOL    HW236668   3.418   7.841   6.003
11743SOL     OW36669   3.339   7.741   5.711
11743SOL    HW136670   3.294   7.659   5.730
11743SOL    HW236671   3.399   7.753   5.785
11744SOL     OW36672   3.095   0.222   5.641
11744SOL    HW136673   3.178   0.235   5.686
11744SOL    HW236674   3.087   0.297   5.582
11745SOL     OW36675   2.183   7.994   6.629
11745SOL    HW136676   2.161   7.903   6.610
11745SOL    HW236677   2.256   8.014   6.570
11746SOL     OW36678   3.006   7.830   7.259
11746SOL    HW136679   2.947   7.899   7.288
11746SOL    HW236680   3.092   7.873   7.255
11747SOL     OW36681   3.056   7.638   7.067
11747SOL    HW136682   3.032   7.707   7.129
11747SOL    HW236683   3.079   7.684   6.987
11748SOL     OW36684   1.888   7.950   6.699
11748SOL    HW136685   1.952   7.901   6.649
11748SOL    HW236686   1.927   7.960   6.786
11749SOL     OW36687   2.056   7.941   7.312
11749SOL    HW136688   2.087   7.894   7.235
11749SOL    HW236689   1.990   8.002   7.278
11750SOL     OW36690   2.655   0.035   5.832
11750SOL    HW136691   2.697  -0.050   5.824
11750SOL    HW236692   2.604   0.030   5.913
11751SOL     OW36693   3.495   8.017   6.786
11751SOL    HW136694   3.485   7.975   6.870
11751SOL    HW236695   3.568   7.971   6.744
11752SOL     OW36696   2.556   7.913   6.828
11752SOL    HW136697   2.511   7.829   6.817
11752SOL    HW236698   2.570   7.945   6.738
11753SOL     OW36699   3.605   7.603   6.099
11753SOL    HW136700   3.669   7.585   6.030
11753SOL    HW236701   3.580   7.516   6.131
11754SOL     OW36702   3.706   7.614   6.556
11754SOL    HW136703   3.731   7.525   6.529
11754SOL    HW236704   3.625   7.632   6.509
11755SOL     OW36705   2.109   7.769   6.308
11755SOL    HW136706   2.017   7.787   6.291
11755SOL    HW236707   2.115   7.762   6.404
11756SOL     OW36708   2.911   7.656   6.541
11756SOL    HW136709   2.879   7.610   6.464
11756SOL    HW236710   2.884   7.602   6.615
11757SOL     OW36711   3.614   7.813   6.984
11757SOL    HW136712   3.675   7.887   6.975
11757SOL    HW236713   3.648   7.747   6.923
11758SOL     OW36714   2.538   7.686   7.119
11758SOL    HW136715   2.619   7.692   7.068
11758SOL    HW236716   2.507   7.597   7.105
11759SOL     OW36717   1.946   7.801   5.629
11759SOL    HW136718   1.889   7.752   5.570
11759SOL    HW236719   1.956   7.887   5.588
11760SOL     OW36720   1.924   7.606   5.880
11760SOL    HW136721   1.915   7.679   5.818
11760SOL    HW236722   2.008   7.566   5.857
11761SOL     OW36723   2.659   7.992   7.320
11761SOL    HW136724   2.569   8.021   7.305
11761SOL    HW236725   2.654   7.897   7.326
11762SOL     OW36726   3.072   7.748   6.066
11762SOL    HW136727   3.137   7.682   6.042
11762SOL    HW236728   3.120   7.807   6.125
11763SOL     OW36729   2.507   0.249   6.262
11763SOL    HW136730   2.485   0.333   6.222
11763SOL    HW236731   2.430   0.195   6.247
11764SOL     OW36732   3.625   7.782   7.259
11764SOL    HW136733   3.620   7.796   7.165
11764SOL    HW236734   3.550   7.727   7.279
11765SOL     OW36735   3.707   7.612   6.826
11765SOL    HW136736   3.670   7.525   6.840
11765SOL    HW236737   3.702   7.624   6.731
11766SOL     OW36738   2.245   7.854   6.082
11766SOL    HW136739   2.276   7.784   6.026
11766SOL    HW236740   2.203   7.810   6.156
11767SOL     OW36741   3.264   7.664   6.655
11767SOL    HW136742   3.283   7.573   6.675
11767SOL    HW236743   3.225   7.699   6.735
11768SOL     OW36744   2.865   7.456   6.728
11768SOL    HW136745   2.803   7.385   6.709
11768SOL    HW236746   2.951   7.413   6.729
11769SOL     OW36747   3.224   7.492   5.752
11769SOL    HW136748   3.265   7.419   5.706
11769SOL    HW236749   3.134   7.462   5.769
11770SOL     OW36750   3.141   7.905   6.323
11770SOL    HW136751   3.069   7.961   6.293
11770SOL    HW236752   3.192   7.961   6.382
11771SOL     OW36753   3.463   7.684   6.457
11771SOL    HW136754   3.399   7.687   6.528
11771SOL    HW236755   3.454   7.768   6.412
11772SOL     OW36756   2.087   7.696   8.454
11772SOL    HW136757   2.119   7.689   8.544
11772SOL    HW236758   2.039   7.614   8.440
11773SOL     OW36759   1.834   7.794   8.126
11773SOL    HW136760   1.762   7.856   8.137
11773SOL    HW236761   1.827   7.765   8.035
11774SOL     OW36762   3.621   7.950   7.642
11774SOL    HW136763   3.584   8.038   7.634
11774SOL    HW236764   3.572   7.910   7.713
11775SOL     OW36765   2.300   7.856   8.965
11775SOL    HW136766   2.380   7.809   8.939
11775SOL    HW236767   2.231   7.790   8.959
11776SOL     OW36768   3.465   7.911   8.157
11776SOL    HW136769   3.376   7.904   8.122
11776SOL    HW236770   3.454   7.953   8.242
11777SOL     OW36771   3.450   7.573   8.911
11777SOL    HW136772   3.491   7.644   8.861
11777SOL    HW236773   3.427   7.614   8.995
11778SOL     OW36774   1.977   0.054   8.099
11778SOL    HW136775   1.929  -0.000   8.036
11778SOL    HW236776   1.936   0.140   8.092
11779SOL     OW36777   2.689   7.456   7.960
11779SOL    HW136778   2.739   7.532   7.933
11779SOL    HW236779   2.598   7.483   7.953
11780SOL     OW36780   2.217   7.712   9.268
11780SOL    HW136781   2.255   7.800   9.263
11780SOL    HW236782   2.129   7.726   9.304
11781SOL     OW36783   3.124   7.809   8.384
11781SOL    HW136784   3.038   7.770   8.396
11781SOL    HW236785   3.183   7.756   8.436
11782SOL     OW36786   3.255   7.932   9.157
11782SOL    HW136787   3.250   7.954   9.250
11782SOL    HW236788   3.315   7.858   9.153
11783SOL     OW36789   2.781   0.410   8.950
11783SOL    HW136790   2.847   0.379   9.011
11783SOL    HW236791   2.743   0.330   8.913
11784SOL     OW36792   2.857   7.876   8.636
11784SOL    HW136793   2.771   7.863   8.677
11784SOL    HW236794   2.862   7.808   8.569
11785SOL     OW36795   2.754   7.786   7.640
11785SOL    HW136796   2.783   7.844   7.569
11785SOL    HW236797   2.722   7.708   7.596
11786SOL     OW36798   3.580   0.025   9.245
11786SOL    HW136799   3.642   0.090   9.212
11786SOL    HW236800   3.602  -0.055   9.198
11787SOL     OW36801   2.416   7.641   8.350
11787SOL    HW136802   2.421   7.656   8.444
11787SOL    HW236803   2.421   7.728   8.311
11788SOL     OW36804   2.058   7.709   8.952
11788SOL    HW136805   1.972   7.750   8.948
11788SOL    HW236806   2.042   7.621   8.986
11789SOL     OW36807   3.265   7.546   7.882
11789SOL    HW136808   3.252   7.520   7.791
11789SOL    HW236809   3.356   7.522   7.901
11790SOL     OW36810   3.385   7.671   9.176
11790SOL    HW136811   3.391   7.697   9.268
11790SOL    HW236812   3.335   7.589   9.178
11791SOL     OW36813   2.504   7.520   7.577
11791SOL    HW136814   2.586   7.479   7.551
11791SOL    HW236815   2.452   7.522   7.496
11792SOL     OW36816   2.630   7.721   9.198
11792SOL    HW136817   2.710   7.669   9.196
11792SOL    HW236818   2.588   7.696   9.281
11793SOL     OW36819   3.221  -0.003   8.882
11793SOL    HW136820   3.220  -0.021   8.977
11793SOL    HW236821   3.294   0.057   8.870
11794SOL     OW36822   2.182   7.520   7.633
11794SOL    HW136823   2.188   7.591   7.569
11794SOL    HW236824   2.232   7.448   7.594
11795SOL     OW36825   2.813   7.685   7.895
11795SOL    HW136826   2.793   7.723   7.809
11795SOL    HW236827   2.905   7.706   7.910
11796SOL     OW36828   1.964  -0.009   8.833
11796SOL    HW136829   2.049  -0.029   8.872
11796SOL    HW236830   1.943   0.079   8.863
11797SOL     OW36831   2.426   7.669   8.624
11797SOL    HW136832   2.469   7.597   8.670
11797SOL    HW236833   2.335   7.666   8.655
11798SOL     OW36834   2.864   7.513   8.203
11798SOL    HW136835   2.816   7.504   8.121
11798SOL    HW236836   2.847   7.431   8.250
11799SOL     OW36837   3.350   7.985   8.392
11799SOL    HW136838   3.266   7.940   8.405
11799SOL    HW236839   3.388   7.990   8.480
11800SOL     OW36840   2.438   7.720   7.738
11800SOL    HW136841   2.472   7.658   7.673
11800SOL    HW236842   2.452   7.806   7.698
11801SOL     OW36843   2.779   7.543   8.834
11801SOL    HW136844   2.804   7.517   8.746
11801SOL    HW236845   2.859   7.577   8.873
11802SOL     OW36846   3.120   7.803   8.727
11802SOL    HW136847   3.159   7.875   8.775
11802SOL    HW236848   3.035   7.836   8.698
11803SOL     OW36849   2.402   7.944   8.308
11803SOL    HW136850   2.357   7.961   8.225
11803SOL    HW236851   2.432   8.030   8.336
11804SOL     OW36852   2.862   7.579   9.192
11804SOL    HW136853   2.925   7.648   9.170
11804SOL    HW236854   2.906   7.497   9.169
11805SOL     OW36855   2.357   7.484   9.197
11805SOL    HW136856   2.305   7.430   9.138
11805SOL    HW236857   2.304   7.563   9.209
11806SOL     OW36858   2.167   7.639   8.707
11806SOL    HW136859   2.127   7.667   8.789
11806SOL    HW236860   2.149   7.545   8.702
11807SOL     OW36861   2.651   0.084   8.482
11807SOL    HW136862   2.676   0.043   8.399
11807SOL    HW236863   2.576   0.139   8.460
11808SOL     OW36864   2.190   7.507   8.058
11808SOL    HW136865   2.169   7.597   8.083
11808SOL    HW236866   2.207   7.462   8.141
11809SOL     OW36867   3.467   7.813   7.825
11809SOL    HW136868   3.510   7.741   7.870
11809SOL    HW236869   3.417   7.858   7.893
11810SOL     OW36870   3.349   7.737   7.580
11810SOL    HW136871   3.305   7.654   7.598
11810SOL    HW236872   3.399   7.754   7.660
11811SOL     OW36873   3.182   0.251   7.503
11811SOL    HW136874   3.141   0.166   7.519
11811SOL    HW236875   3.119   0.297   7.447
11812SOL     OW36876   2.157   7.968   8.479
11812SOL    HW136877   2.154   7.873   8.463
11812SOL    HW236878   2.226   7.999   8.421
11813SOL     OW36879   3.005   7.821   9.134
11813SOL    HW136880   2.953   7.877   9.192
11813SOL    HW236881   3.092   7.859   9.135
11814SOL     OW36882   3.021   7.640   8.924
11814SOL    HW136883   3.015   7.707   8.992
11814SOL    HW236884   3.068   7.682   8.853
11815SOL     OW36885   1.894   7.947   8.567
11815SOL    HW136886   1.977   7.945   8.520
11815SOL    HW236887   1.918   7.957   8.659
11816SOL     OW36888   2.013  -0.007   9.164
11816SOL    HW136889   2.081  -0.063   9.127
11816SOL    HW236890   2.057   0.075   9.183
11817SOL     OW36891   2.684   0.038   7.730
11817SOL    HW136892   2.711  -0.053   7.718
11817SOL    HW236893   2.596   0.032   7.768
11818SOL     OW36894   3.475   8.006   8.631
11818SOL    HW136895   3.480   7.970   8.719
11818SOL    HW236896   3.565   8.001   8.598
11819SOL     OW36897   2.585   7.889   8.686
11819SOL    HW136898   2.524   7.818   8.669
11819SOL    HW236899   2.574   7.949   8.613
11820SOL     OW36900   3.592   7.602   7.952
11820SOL    HW136901   3.659   7.579   7.887
11820SOL    HW236902   3.567   7.519   7.992
11821SOL     OW36903   3.705   7.616   8.414
11821SOL    HW136904   3.733   7.528   8.391
11821SOL    HW236905   3.620   7.626   8.371
11822SOL     OW36906   2.108   7.749   8.185
11822SOL    HW136907   2.026   7.797   8.173
11822SOL    HW236908   2.116   7.740   8.280
11823SOL     OW36909   2.886   7.675   8.431
11823SOL    HW136910   2.875   7.636   8.345
11823SOL    HW236911   2.882   7.601   8.492
11824SOL     OW36912   3.600   7.835   8.841
11824SOL    HW136913   3.672   7.898   8.837
11824SOL    HW236914   3.625   7.766   8.779
11825SOL     OW36915   2.538   7.638   8.945
11825SOL    HW136916   2.622   7.618   8.904
11825SOL    HW236917   2.561   7.668   9.033
11826SOL     OW36918   1.913   7.779   7.496
11826SOL    HW136919   1.855   7.750   7.425
11826SOL    HW236920   1.948   7.863   7.466
11827SOL     OW36921   1.927   7.611   7.737
11827SOL    HW136922   1.901   7.677   7.672
11827SOL    HW236923   2.012   7.580   7.707
11828SOL     OW36924   2.645   7.979   9.086
11828SOL    HW136925   2.660   8.032   9.164
11828SOL    HW236926   2.632   7.890   9.119
11829SOL     OW36927   3.078   7.746   7.925
11829SOL    HW136928   3.141   7.677   7.905
11829SOL    HW236929   3.121   7.800   7.991
11830SOL     OW36930   2.472   0.293   8.084
11830SOL    HW136931   2.551   0.346   8.094
11830SOL    HW236932   2.503   0.207   8.059
11831SOL     OW36933   3.623   7.791   9.112
11831SOL    HW136934   3.618   7.806   9.017
11831SOL    HW236935   3.545   7.739   9.132
11832SOL     OW36936   3.661   7.627   8.683
11832SOL    HW136937   3.699   7.541   8.702
11832SOL    HW236938   3.673   7.638   8.589
11833SOL     OW36939   2.250   7.770   7.947
11833SOL    HW136940   2.312   7.837   7.919
11833SOL    HW236941   2.214   7.803   8.029
11834SOL     OW36942   3.291   7.674   8.552
11834SOL    HW136943   3.322   7.592   8.590
11834SOL    HW236944   3.242   7.716   8.624
11835SOL     OW36945   2.870   7.448   8.588
11835SOL    HW136946   2.819   7.383   8.539
11835SOL    HW236947   2.959   7.412   8.590
11836SOL     OW36948   3.227   7.491   7.613
11836SOL    HW136949   3.267   7.416   7.570
11836SOL    HW236950   3.136   7.464   7.629
11837SOL     OW36951   3.190   7.896   8.127
11837SOL    HW136952   3.156   7.985   8.120
11837SOL    HW236953   3.165   7.867   8.214
11838SOL     OW36954   3.450   7.652   8.325
11838SOL    HW136955   3.394   7.672   8.400
11838SOL    HW236956   3.439   7.726   8.265
11839SOL     OW36957   2.090   7.731  10.305
11839SOL    HW136958   2.120   7.696  10.389
11839SOL    HW236959   2.002   7.694  10.294
11840SOL     OW36960   1.847   7.829   9.955
11840SOL    HW136961   1.763   7.861   9.988
11840SOL    HW236962   1.826   7.747   9.909
11841SOL     OW36963   3.507   0.035   9.507
11841SOL    HW136964   3.538   0.016   9.419
11841SOL    HW236965   3.587   0.049   9.558
11842SOL     OW36966   2.282   7.847  10.837
11842SOL    HW136967   2.366   7.813  10.805
11842SOL    HW236968   2.218   7.779  10.816
11843SOL     OW36969   3.444   7.901  10.026
11843SOL    HW136970   3.357   7.901   9.987
11843SOL    HW236971   3.432   7.940  10.112
11844SOL     OW36972   3.457   7.577  10.769
11844SOL    HW136973   3.491   7.660  10.737
11844SOL    HW236974   3.433   7.593  10.860
11845SOL     OW36975   1.938   0.100   9.907
11845SOL    HW136976   1.920   0.007   9.919
11845SOL    HW236977   2.033   0.106   9.908
11846SOL     OW36978   2.685   7.429   9.832
11846SOL    HW136979   2.727   7.509   9.801
11846SOL    HW236980   2.592   7.451   9.836
11847SOL     OW36981   2.218   7.715  11.119
11847SOL    HW136982   2.270   7.796  11.125
11847SOL    HW236983   2.157   7.732  11.046
11848SOL     OW36984   3.118   7.803  10.244
11848SOL    HW136985   3.032   7.766  10.262
11848SOL    HW236986   3.179   7.749  10.295
11849SOL     OW36987   3.257   7.935  11.044
11849SOL    HW136988   3.329   7.901  11.096
11849SOL    HW236989   3.285   7.923  10.953
11850SOL     OW36990   2.797   0.407  10.824
11850SOL    HW136991   2.865   0.342  10.804
11850SOL    HW236992   2.716   0.368  10.791
11851SOL     OW36993   2.834   7.830  10.549
11851SOL    HW136994   2.751   7.845  10.595
11851SOL    HW236995   2.812   7.763  10.483
11852SOL     OW36996   2.754   7.787   9.499
11852SOL    HW136997   2.832   7.794   9.445
11852SOL    HW236998   2.770   7.710   9.554
11853SOL     OW36999   3.575   0.016  11.156
11853SOL    HW137000   3.537   0.086  11.102
11853SOL    HW237001   3.595  -0.054  11.093
11854SOL     OW37002   2.415   7.628  10.211
11854SOL    HW137003   2.419   7.649  10.304
11854SOL    HW237004   2.411   7.713  10.167
11855SOL     OW37005   2.051   7.694  10.807
11855SOL    HW137006   1.964   7.734  10.807
11855SOL    HW237007   2.037   7.604  10.835
11856SOL     OW37008   3.259   7.544   9.755
11856SOL    HW137009   3.258   7.526   9.661
11856SOL    HW237010   3.349   7.570   9.774
11857SOL     OW37011   3.398   7.645  11.040
11857SOL    HW137012   3.392   7.681  11.129
11857SOL    HW237013   3.337   7.571  11.040
11858SOL     OW37014   2.503   7.565   9.411
11858SOL    HW137015   2.562   7.493   9.430
11858SOL    HW237016   2.452   7.535   9.336
11859SOL     OW37017   2.629   7.723  11.070
11859SOL    HW137018   2.707   7.670  11.057
11859SOL    HW237019   2.584   7.681  11.143
11860SOL     OW37020   2.422   7.502   9.810
11860SOL    HW137021   2.342   7.507   9.862
11860SOL    HW237022   2.419   7.580   9.754
11861SOL     OW37023   2.156   7.501   9.497
11861SOL    HW137024   2.222   7.559   9.459
11861SOL    HW237025   2.207   7.433   9.541
11862SOL     OW37026   2.805   7.669   9.764
11862SOL    HW137027   2.767   7.755   9.780
11862SOL    HW237028   2.899   7.683   9.770
11863SOL     OW37029   1.976  -0.004  10.696
11863SOL    HW137030   2.051  -0.050  10.733
11863SOL    HW237031   1.974   0.080  10.742
11864SOL     OW37032   2.424   7.666  10.483
11864SOL    HW137033   2.466   7.600  10.538
11864SOL    HW237034   2.332   7.664  10.509
11865SOL     OW37035   2.885   7.507  10.055
11865SOL    HW137036   2.828   7.506   9.978
11865SOL    HW237037   2.854   7.435  10.109
11866SOL     OW37038   3.356   7.960  10.272
11866SOL    HW137039   3.267   7.937  10.297
11866SOL    HW237040   3.390   8.011  10.345
11867SOL     OW37041   2.417   7.708   9.630
11867SOL    HW137042   2.448   7.663   9.551
11867SOL    HW237043   2.453   7.796   9.624
11868SOL     OW37044   2.781   7.540  10.702
11868SOL    HW137045   2.809   7.517  10.613
11868SOL    HW237046   2.859   7.577  10.743
11869SOL     OW37047   3.110   7.792  10.577
11869SOL    HW137048   3.152   7.868  10.618
11869SOL    HW237049   3.018   7.817  10.570
11870SOL     OW37050   2.412   7.951  10.162
11870SOL    HW137051   2.427   8.015  10.093
11870SOL    HW237052   2.479   7.970  10.228
11871SOL     OW37053   2.853   7.581  11.041
11871SOL    HW137054   2.923   7.642  11.018
11871SOL    HW237055   2.894   7.495  11.039
11872SOL     OW37056   2.362   7.484  11.063
11872SOL    HW137057   2.312   7.428  11.002
11872SOL    HW237058   2.307   7.562  11.074
11873SOL     OW37059   2.164   7.641  10.556
11873SOL    HW137060   2.116   7.667  10.635
11873SOL    HW237061   2.151   7.547  10.550
11874SOL     OW37062   2.608   0.052  10.326
11874SOL    HW137063   2.689   0.064  10.277
11874SOL    HW237064   2.589   0.138  10.363
11875SOL     OW37065   2.177   7.518   9.934
11875SOL    HW137066   2.150   7.606   9.958
11875SOL    HW237067   2.184   7.471  10.017
11876SOL     OW37068   3.445   7.791   9.694
11876SOL    HW137069   3.499   7.729   9.743
11876SOL    HW237070   3.466   7.876   9.732
11877SOL     OW37071   3.365   7.735   9.439
11877SOL    HW137072   3.311   7.659   9.460
11877SOL    HW237073   3.406   7.760   9.521
11878SOL     OW37074   3.101   0.228   9.336
11878SOL    HW137075   3.150   0.156   9.376
11878SOL    HW237076   3.156   0.305   9.349
11879SOL     OW37077   2.168   7.988  10.341
11879SOL    HW137078   2.161   7.895  10.323
11879SOL    HW237079   2.247   8.016  10.294
11880SOL     OW37080   3.005   7.828  10.994
11880SOL    HW137081   2.956   7.862  11.069
11880SOL    HW237082   3.092   7.868  11.003
11881SOL     OW37083   3.022   7.643  10.787
11881SOL    HW137084   3.018   7.712  10.853
11881SOL    HW237085   3.067   7.683  10.713
11882SOL     OW37086   1.895   7.963  10.428
11882SOL    HW137087   1.974   7.945  10.377
11882SOL    HW237088   1.923   7.955  10.519
11883SOL     OW37089   2.040   7.952  11.024
11883SOL    HW137090   2.134   7.942  11.007
11883SOL    HW237091   2.025   8.046  11.020
11884SOL     OW37092   2.642   0.028   9.548
11884SOL    HW137093   2.686  -0.056   9.534
11884SOL    HW237094   2.634   0.035   9.643
11885SOL     OW37095   3.503   8.016  10.506
11885SOL    HW137096   3.442   7.980  10.570
11885SOL    HW237097   3.554   7.940  10.477
11886SOL     OW37098   2.548   7.905  10.551
11886SOL    HW137099   2.499   7.827  10.527
11886SOL    HW237100   2.566   7.949  10.467
11887SOL     OW37101   3.586   7.596   9.819
11887SOL    HW137102   3.661   7.584   9.761
11887SOL    HW237103   3.571   7.510   9.857
11888SOL     OW37104   3.706   7.624  10.275
11888SOL    HW137105   3.735   7.539  10.244
11888SOL    HW237106   3.622   7.639  10.233
11889SOL     OW37107   2.111   7.768  10.026
11889SOL    HW137108   2.021   7.794  10.011
11889SOL    HW237109   2.117   7.757  10.121
11890SOL     OW37110   2.882   7.671  10.282
11890SOL    HW137111   2.883   7.629  10.196
11890SOL    HW237112   2.879   7.599  10.345
11891SOL     OW37113   3.610   7.801  10.704
11891SOL    HW137114   3.661   7.881  10.693
11891SOL    HW237115   3.647   7.741  10.638
11892SOL     OW37116   2.542   7.634  10.808
11892SOL    HW137117   2.627   7.610  10.771
11892SOL    HW237118   2.562   7.668  10.895
11893SOL     OW37119   1.952   7.780   9.329
11893SOL    HW137120   1.881   7.736   9.282
11893SOL    HW237121   1.971   7.858   9.277
11894SOL     OW37122   1.925   7.601   9.608
11894SOL    HW137123   1.920   7.686   9.562
11894SOL    HW237124   2.010   7.565   9.582
11895SOL     OW37125   2.592   7.992  11.030
11895SOL    HW137126   2.680   8.028  11.031
11895SOL    HW237127   2.604   7.897  11.035
11896SOL     OW37128   3.067   7.746   9.782
11896SOL    HW137129   3.136   7.681   9.768
11896SOL    HW237130   3.103   7.807   9.846
11897SOL     OW37131   2.491   0.237  10.012
11897SOL    HW137132   2.546   0.314   9.995
11897SOL    HW237133   2.452   0.216   9.927
11898SOL     OW37134   3.611   7.809  10.981
11898SOL    HW137135   3.612   7.819  10.886
11898SOL    HW237136   3.544   7.743  10.998
11899SOL     OW37137   3.711   7.600  10.543
11899SOL    HW137138   3.669   7.514  10.547
11899SOL    HW237139   3.701   7.627  10.452
11900SOL     OW37140   2.214   7.851   9.765
11900SOL    HW137141   2.271   7.779   9.738
11900SOL    HW237142   2.188   7.829   9.854
11901SOL     OW37143   3.289   7.668  10.417
11901SOL    HW137144   3.311   7.584  10.457
11901SOL    HW237145   3.233   7.711  10.482
11902SOL     OW37146   2.869   7.455  10.453
11902SOL    HW137147   2.812   7.389  10.414
11902SOL    HW237148   2.957   7.417  10.447
11903SOL     OW37149   3.225   7.499   9.480
11903SOL    HW137150   3.267   7.421   9.443
11903SOL    HW237151   3.135   7.472   9.497
11904SOL     OW37152   3.165   7.902   9.991
11904SOL    HW137153   3.140   7.994  10.000
11904SOL    HW237154   3.153   7.865  10.079
11905SOL     OW37155   3.448   7.654  10.189
11905SOL    HW137156   3.394   7.678  10.264
11905SOL    HW237157   3.441   7.728  10.129
11906SOL     OW37158   2.089   7.726  12.166
11906SOL    HW137159   2.120   7.690  12.249
11906SOL    HW237160   2.000   7.693  12.157
11907SOL     OW37161   1.846   7.814  11.819
11907SOL    HW137162   1.766   7.857  11.849
11907SOL    HW237163   1.815   7.732  11.780
11908SOL     OW37164   3.578   0.034  11.441
11908SOL    HW137165   3.583   0.036  11.345
11908SOL    HW237166   3.542  -0.053  11.461
11909SOL     OW37167   3.486   7.950  11.883
11909SOL    HW137168   3.413   7.992  11.837
11909SOL    HW237169   3.483   7.987  11.972
11910SOL     OW37170   1.920   0.093  11.789
11910SOL    HW137171   1.924  -0.002  11.787
11910SOL    HW237172   2.011   0.121  11.787
11911SOL     OW37173   2.679   7.483  11.751
11911SOL    HW137174   2.719   7.551  11.696
11911SOL    HW237175   2.588   7.479  11.722
11912SOL     OW37176   3.098   7.757  12.081
11912SOL    HW137177   3.013   7.722  12.107
11912SOL    HW237178   3.160   7.715  12.141
11913SOL     OW37179   2.824   7.811  12.414
11913SOL    HW137180   2.740   7.837  12.451
11913SOL    HW237181   2.802   7.771  12.330
11914SOL     OW37182   2.763   7.775  11.376
11914SOL    HW137183   2.769   7.784  11.281
11914SOL    HW237184   2.803   7.690  11.395
11915SOL     OW37185   2.405   7.637  12.052
11915SOL    HW137186   2.408   7.658  12.145
11915SOL    HW237187   2.408   7.722  12.008
11916SOL     OW37188   3.271   7.554  11.602
11916SOL    HW137189   3.248   7.527  11.513
11916SOL    HW237190   3.353   7.507  11.621
11917SOL     OW37191   2.509   7.568  11.275
11917SOL    HW137192   2.576   7.504  11.300
11917SOL    HW237193   2.460   7.525  11.205
11918SOL     OW37194   2.417   7.507  11.668
11918SOL    HW137195   2.337   7.512  11.721
11918SOL    HW237196   2.413   7.584  11.611
11919SOL     OW37197   2.154   7.504  11.360
11919SOL    HW137198   2.214   7.560  11.312
11919SOL    HW237199   2.210   7.438  11.401
11920SOL     OW37200   2.840   7.705  11.650
11920SOL    HW137201   2.791   7.763  11.592
11920SOL    HW237202   2.872   7.635  11.593
11921SOL     OW37203   1.957   0.010   0.064
11921SOL    HW137204   2.042   0.006   0.108
11921SOL    HW237205   1.899   0.051   0.127
11922SOL     OW37206   2.420   7.674  12.323
11922SOL    HW137207   2.459   7.588  12.339
11922SOL    HW237208   2.332   7.667  12.362
11923SOL     OW37209   2.880   7.499  11.930
11923SOL    HW137210   2.815   7.501  11.860
11923SOL    HW237211   2.863   7.417  11.976
11924SOL     OW37212   3.292   7.963  12.129
11924SOL    HW137213   3.276   7.886  12.183
11924SOL    HW237214   3.354   8.016  12.180
11925SOL     OW37215   2.409   7.715  11.489
11925SOL    HW137216   2.443   7.665  11.414
11925SOL    HW237217   2.457   7.797  11.486
11926SOL     OW37218   3.103   7.862  12.410
11926SOL    HW137219   3.149   7.850  12.492
11926SOL    HW237220   3.013   7.834  12.428
11927SOL     OW37221   2.411   7.934  12.033
11927SOL    HW137222   2.399   8.006  11.972
11927SOL    HW237223   2.482   7.963  12.091
11928SOL     OW37224   2.166   7.639  12.420
11928SOL    HW137225   2.136   7.656  12.509
11928SOL    HW237226   2.146   7.547  12.405
11929SOL     OW37227   2.602   0.054  12.195
11929SOL    HW137228   2.685   0.080  12.155
11929SOL    HW237229   2.555   0.136  12.208
11930SOL     OW37230   2.171   7.521  11.796
11930SOL    HW137231   2.149   7.609  11.826
11930SOL    HW237232   2.184   7.471  11.877
11931SOL     OW37233   3.463   7.803  11.548
11931SOL    HW137234   3.514   7.736  11.594
11931SOL    HW237235   3.379   7.806  11.595
11932SOL     OW37236   3.355   7.743  11.296
11932SOL    HW137237   3.304   7.664  11.313
11932SOL    HW237238   3.405   7.758  11.376
11933SOL     OW37239   3.178   0.260  11.242
11933SOL    HW137240   3.156   0.171  11.270
11933SOL    HW237241   3.111   0.283  11.178
11934SOL     OW37242   2.173   7.980  12.201
11934SOL    HW137243   2.160   7.887  12.184
11934SOL    HW237244   2.253   8.002  12.152
11935SOL     OW37245   3.013   7.743   0.182
11935SOL    HW137246   3.032   7.751   0.276
11935SOL    HW237247   3.083   7.688   0.148
11936SOL     OW37248   1.906   7.968  12.291
11936SOL    HW137249   1.990   7.956  12.247
11936SOL    HW237250   1.927   7.966  12.384
11937SOL     OW37251   2.654   8.022  11.421
11937SOL    HW137252   2.700   7.938  11.418
11937SOL    HW237253   2.606   8.020  11.504
11938SOL     OW37254   3.489   8.017  12.322
11938SOL    HW137255   3.480   7.961  12.399
11938SOL    HW237256   3.578   8.003  12.291
11939SOL     OW37257   2.525   7.911  12.417
11939SOL    HW137258   2.486   7.829  12.387
11939SOL    HW237259   2.554   7.954  12.337
11940SOL     OW37260   3.606   7.607  11.683
11940SOL    HW137261   3.670   7.584  11.616
11940SOL    HW237262   3.580   7.524  11.721
11941SOL     OW37263   3.712   7.622  12.133
11941SOL    HW137264   3.736   7.532  12.112
11941SOL    HW237265   3.624   7.633  12.096
11942SOL     OW37266   2.112   7.776  11.891
11942SOL    HW137267   2.019   7.789  11.877
11942SOL    HW237268   2.120   7.759  11.985
11943SOL     OW37269   2.856   7.660  12.152
11943SOL    HW137270   2.855   7.617  12.067
11943SOL    HW237271   2.858   7.588  12.215
11944SOL     OW37272   3.559   7.830   0.006
11944SOL    HW137273   3.587   7.872   0.087
11944SOL    HW237274   3.620   7.757  -0.005
11945SOL     OW37275   1.933   7.599  11.493
11945SOL    HW137276   1.964   7.685  11.520
11945SOL    HW237277   2.007   7.560  11.447
11946SOL     OW37278   3.128   7.791  11.651
11946SOL    HW137279   3.170   7.707  11.631
11946SOL    HW237280   3.035   7.771  11.653
11947SOL     OW37281   2.502   0.249  11.825
11947SOL    HW137282   2.471   0.334  11.793
11947SOL    HW237283   2.424   0.193  11.823
11948SOL     OW37284   3.713   7.610  12.412
11948SOL    HW137285   3.703   7.515  12.408
11948SOL    HW237286   3.707   7.639  12.321
11949SOL     OW37287   2.204   7.846  11.632
11949SOL    HW137288   2.270   7.786  11.596
11949SOL    HW237289   2.189   7.814  11.721
11950SOL     OW37290   3.292   7.692  12.265
11950SOL    HW137291   3.331   7.612  12.299
11950SOL    HW237292   3.258   7.736  12.343
11951SOL     OW37293   2.866   7.428  12.310
11951SOL    HW137294   2.826   7.376  12.240
11951SOL    HW237295   2.957   7.400  12.313
11952SOL     OW37296   3.213   7.506  11.333
11952SOL    HW137297   3.229   7.420  11.294
11952SOL    HW237298   3.119   7.506  11.351
11953SOL     OW37299   3.460   7.666  12.043
11953SOL    HW137300   3.397   7.676  12.115
11953SOL    HW237301   3.434   7.732  11.980
11954SOL     OW37302   3.968   0.558   0.046
11954SOL    HW137303   3.938   0.620   0.113
11954SOL    HW237304   3.969   0.610  -0.035
11955SOL     OW37305   3.956   0.293   0.993
11955SOL    HW137306   3.982   0.253   1.076
11955SOL    HW237307   3.877   0.246   0.967
11956SOL     OW37308   3.731   0.395   0.627
11956SOL    HW137309   3.643   0.409   0.661
11956SOL    HW237310   3.722   0.324   0.564
11957SOL     OW37311   4.295   1.287   1.184
11957SOL    HW137312   4.203   1.285   1.160
11957SOL    HW237313   4.309   1.376   1.216
11958SOL     OW37314   5.262   1.527   0.708
11958SOL    HW137315   5.247   1.503   0.800
11958SOL    HW237316   5.175   1.523   0.668
11959SOL     OW37317   5.456   0.617   0.285
11959SOL    HW137318   5.450   0.604   0.191
11959SOL    HW237319   5.462   0.529   0.322
11960SOL     OW37320   4.467   1.131   1.037
11960SOL    HW137321   4.404   1.170   1.098
11960SOL    HW237322   4.508   1.206   0.994
11961SOL     OW37323   4.591   0.767   1.844
11961SOL    HW137324   4.531   0.822   1.894
11961SOL    HW237325   4.608   0.817   1.764
11962SOL     OW37326   4.408   0.991   0.653
11962SOL    HW137327   4.476   0.984   0.720
11962SOL    HW237328   4.341   1.047   0.693
11963SOL     OW37329   4.456   1.160   1.788
11963SOL    HW137330   4.486   1.238   1.835
11963SOL    HW237331   4.365   1.180   1.765
11964SOL     OW37332   4.054   1.414   1.064
11964SOL    HW137333   3.977   1.376   1.022
11964SOL    HW237334   4.097   1.465   0.996
11965SOL     OW37335   5.184   1.496   1.361
11965SOL    HW137336   5.236   1.576   1.366
11965SOL    HW237337   5.121   1.504   1.433
11966SOL     OW37338   4.176   0.365   1.440
11966SOL    HW137339   4.261   0.326   1.462
11966SOL    HW237340   4.119   0.342   1.514
11967SOL     OW37341   5.333   0.476   0.724
11967SOL    HW137342   5.318   0.526   0.644
11967SOL    HW237343   5.372   0.539   0.785
11968SOL     OW37344   3.966   1.673   0.497
11968SOL    HW137345   3.966   1.756   0.546
11968SOL    HW237346   4.032   1.686   0.429
11969SOL     OW37347   4.849   1.346   1.702
11969SOL    HW137348   4.881   1.340   1.792
11969SOL    HW237349   4.801   1.264   1.688
11970SOL     OW37350   3.983   1.086   0.884
11970SOL    HW137351   3.993   0.998   0.919
11970SOL    HW237352   3.937   1.134   0.953
11971SOL     OW37353   4.304   0.981   0.170
11971SOL    HW137354   4.363   0.991   0.096
11971SOL    HW237355   4.352   1.018   0.245
11972SOL     OW37356   5.379   0.129   1.482
11972SOL    HW137357   5.311   0.166   1.426
11972SOL    HW237358   5.345   0.139   1.571
11973SOL     OW37359   3.836   0.655   0.569
11973SOL    HW137360   3.813   0.564   0.587
11973SOL    HW237361   3.827   0.699   0.654
11974SOL     OW37362   5.564   1.753   0.318
11974SOL    HW137363   5.632   1.721   0.377
11974SOL    HW237364   5.587   1.845   0.303
11975SOL     OW37365   3.750   1.500   0.148
11975SOL    HW137366   3.660   1.470   0.135
11975SOL    HW237367   3.741   1.590   0.179
11976SOL     OW37368   5.356   0.882   0.632
11976SOL    HW137369   5.449   0.871   0.652
11976SOL    HW237370   5.353   0.953   0.568
11977SOL     OW37371   5.371   1.108   0.445
11977SOL    HW137372   5.459   1.118   0.407
11977SOL    HW237373   5.371   1.168   0.519
11978SOL     OW37374   3.841   0.769   1.584
11978SOL    HW137375   3.934   0.788   1.601
11978SOL    HW237376   3.795   0.846   1.618
11979SOL     OW37377   4.326   1.383   0.741
11979SOL    HW137378   4.289   1.295   0.749
11979SOL    HW237379   4.326   1.401   0.647
11980SOL     OW37380   5.012   1.236   1.425
11980SOL    HW137381   5.042   1.170   1.362
11980SOL    HW237382   5.073   1.229   1.498
11981SOL     OW37383   4.548   0.035   0.576
11981SOL    HW137384   4.587   0.115   0.542
11981SOL    HW237385   4.533  -0.020   0.499
11982SOL     OW37386   3.906   0.958   1.249
11982SOL    HW137387   3.994   0.919   1.245
11982SOL    HW237388   3.847   0.884   1.258
11983SOL     OW37389   5.222   1.015   0.231
11983SOL    HW137390   5.158   0.954   0.268
11983SOL    HW237391   5.280   1.037   0.304
11984SOL     OW37392   4.968   1.807   1.618
11984SOL    HW137393   4.947   1.880   1.561
11984SOL    HW237394   4.939   1.730   1.569
11985SOL     OW37395   4.048   0.245   1.770
11985SOL    HW137396   4.114   0.283   1.828
11985SOL    HW237397   3.965   0.262   1.813
11986SOL     OW37398   5.199   1.422   0.955
11986SOL    HW137399   5.128   1.440   1.016
11986SOL    HW237400   5.184   1.331   0.928
11987SOL     OW37401   5.364   1.758   0.583
11987SOL    HW137402   5.357   1.711   0.500
11987SOL    HW237403   5.346   1.691   0.649
11988SOL     OW37404   4.298   0.716   0.266
11988SOL    HW137405   4.307   0.801   0.222
11988SOL    HW237406   4.233   0.731   0.334
11989SOL     OW37407   5.013   0.362   0.931
11989SOL    HW137408   4.921   0.335   0.940
11989SOL    HW237409   5.060   0.309   0.995
11990SOL     OW37410   5.307   1.664   0.316
11990SOL    HW137411   5.398   1.694   0.314
11990SOL    HW237412   5.306   1.586   0.260
11991SOL     OW37413   4.496   0.644   1.444
11991SOL    HW137414   4.485   0.615   1.534
11991SOL    HW237415   4.484   0.565   1.392
11992SOL     OW37416   5.137   0.486   1.684
11992SOL    HW137417   5.134   0.532   1.768
11992SOL    HW237418   5.186   0.406   1.703
11993SOL     OW37419   4.682   0.880   1.589
11993SOL    HW137420   4.726   0.803   1.552
11993SOL    HW237421   4.636   0.919   1.514
11994SOL     OW37422   4.735   0.426   1.207
11994SOL    HW137423   4.676   0.450   1.278
11994SOL    HW237424   4.684   0.367   1.152
11995SOL     OW37425   4.762   0.690   0.414
11995SOL    HW137426   4.764   0.673   0.508
11995SOL    HW237427   4.679   0.653   0.384
11996SOL     OW37428   3.805   0.834   0.780
11996SOL    HW137429   3.887   0.817   0.827
11996SOL    HW237430   3.772   0.915   0.818
11997SOL     OW37431   3.829   1.827   1.566
11997SOL    HW137432   3.844   1.805   1.658
11997SOL    HW237433   3.776   1.906   1.569
11998SOL     OW37434   4.611   0.363   0.217
11998SOL    HW137435   4.652   0.432   0.165
11998SOL    HW237436   4.598   0.291   0.155
11999SOL     OW37437   5.436   0.571   1.830
11999SOL    HW137438   5.399   0.645   1.784
11999SOL    HW237439   5.458   0.508   1.761
12000SOL     OW37440   5.090   1.138   0.517
12000SOL    HW137441   5.179   1.137   0.483
12000SOL    HW237442   5.046   1.206   0.467
12001SOL     OW37443   4.280   0.260   0.896
12001SOL    HW137444   4.260   0.248   0.989
12001SOL    HW237445   4.271   0.354   0.880
12002SOL     OW37446   4.722   1.438   0.469
12002SOL    HW137447   4.689   1.521   0.433
12002SOL    HW237448   4.742   1.459   0.561
12003SOL     OW37449   4.073   1.818   0.869
12003SOL    HW137450   4.116   1.733   0.874
12003SOL    HW237451   4.140   1.880   0.896
12004SOL     OW37452   5.549   1.029   0.886
12004SOL    HW137453   5.556   1.099   0.821
12004SOL    HW237454   5.474   1.054   0.939
12005SOL     OW37455   4.955   1.535   1.528
12005SOL    HW137456   4.930   1.464   1.588
12005SOL    HW237457   4.904   1.518   1.449
12006SOL     OW37458   4.038   0.987   0.243
12006SOL    HW137459   4.125   0.991   0.204
12006SOL    HW237460   4.001   0.904   0.212
12007SOL     OW37461   5.155   0.741   0.757
12007SOL    HW137462   5.185   0.691   0.834
12007SOL    HW237463   5.233   0.787   0.727
12008SOL     OW37464   4.210   1.270   1.730
12008SOL    HW137465   4.172   1.286   1.644
12008SOL    HW237466   4.157   1.200   1.768
12009SOL     OW37467   4.818   1.795   0.228
12009SOL    HW137468   4.766   1.754   0.297
12009SOL    HW237469   4.856   1.722   0.180
12010SOL     OW37470   3.896   0.262   1.511
12010SOL    HW137471   3.822   0.316   1.538
12010SOL    HW237472   3.937   0.235   1.594
12011SOL     OW37473   5.362   1.429   0.126
12011SOL    HW137474   5.307   1.476   0.064
12011SOL    HW237475   5.331   1.338   0.121
12012SOL     OW37476   4.172   1.732   0.330
12012SOL    HW137477   4.220   1.790   0.388
12012SOL    HW237478   4.239   1.689   0.277
12013SOL     OW37479   5.131   0.123   0.410
12013SOL    HW137480   5.151   0.130   0.317
12013SOL    HW237481   5.217   0.118   0.453
12014SOL     OW37482   3.986   1.793   1.233
12014SOL    HW137483   4.021   1.725   1.290
12014SOL    HW237484   3.979   1.752   1.147
12015SOL     OW37485   4.095   0.700   0.466
12015SOL    HW137486   4.121   0.608   0.474
12015SOL    HW237487   4.013   0.706   0.515
12016SOL     OW37488   5.278   0.209   1.734
12016SOL    HW137489   5.293   0.239   1.824
12016SOL    HW237490   5.187   0.178   1.735
12017SOL     OW37491   4.376   0.096   0.116
12017SOL    HW137492   4.468   0.112   0.096
12017SOL    HW237493   4.350   0.028   0.053
12018SOL     OW37494   4.475   0.290   1.763
12018SOL    HW137495   4.532   0.214   1.761
12018SOL    HW237496   4.409   0.270   1.830
12019SOL     OW37497   4.608   1.553   1.218
12019SOL    HW137498   4.621   1.581   1.128
12019SOL    HW237499   4.671   1.483   1.232
12020SOL     OW37500   5.067   0.592   1.440
12020SOL    HW137501   5.104   0.561   1.523
12020SOL    HW237502   5.101   0.681   1.431
12021SOL     OW37503   4.540   1.367   0.922
12021SOL    HW137504   4.586   1.451   0.923
12021SOL    HW237505   4.471   1.379   0.856
12022SOL     OW37506   4.657   0.520   0.881
12022SOL    HW137507   4.624   0.504   0.793
12022SOL    HW237508   4.688   0.434   0.911
12023SOL     OW37509   5.191   1.217   0.053
12023SOL    HW137510   5.208   1.141   0.108
12023SOL    HW237511   5.096   1.221   0.045
12024SOL     OW37512   4.058   0.022   0.168
12024SOL    HW137513   4.067   0.110   0.204
12024SOL    HW237514   4.087  -0.035   0.239
12025SOL     OW37515   4.669   0.255   0.461
12025SOL    HW137516   4.641   0.288   0.376
12025SOL    HW237517   4.764   0.262   0.460
12026SOL     OW37518   4.799   0.665   1.458
12026SOL    HW137519   4.742   0.591   1.479
12026SOL    HW237520   4.888   0.628   1.462
12027SOL     OW37521   4.963   1.551   0.763
12027SOL    HW137522   4.962   1.635   0.717
12027SOL    HW237523   4.965   1.575   0.855
12028SOL     OW37524   4.192   1.150   0.727
12028SOL    HW137525   4.127   1.126   0.793
12028SOL    HW237526   4.149   1.133   0.643
12029SOL     OW37527   4.978   1.793   0.608
12029SOL    HW137528   5.033   1.864   0.575
12029SOL    HW237529   4.906   1.836   0.654
12030SOL     OW37530   4.741   0.565   0.087
12030SOL    HW137531   4.736   0.636   0.024
12030SOL    HW237532   4.826   0.577   0.130
12031SOL     OW37533   3.797   0.579   1.392
12031SOL    HW137534   3.889   0.562   1.373
12031SOL    HW237535   3.799   0.644   1.462
12032SOL     OW37536   4.285   0.223   1.181
12032SOL    HW137537   4.326   0.185   1.259
12032SOL    HW237538   4.191   0.226   1.203
12033SOL     OW37539   4.579   0.463   0.620
12033SOL    HW137540   4.543   0.516   0.549
12033SOL    HW237541   4.617   0.387   0.577
12034SOL     OW37542   4.720   0.033   0.790
12034SOL    HW137543   4.657   0.029   0.718
12034SOL    HW237544   4.732  -0.058   0.817
12035SOL     OW37545   5.178   1.161   0.863
12035SOL    HW137546   5.096   1.127   0.827
12035SOL    HW237547   5.230   1.183   0.786
12036SOL     OW37548   5.174   0.600   0.988
12036SOL    HW137549   5.132   0.514   0.986
12036SOL    HW237550   5.240   0.593   1.057
12037SOL     OW37551   5.559   0.841   0.422
12037SOL    HW137552   5.609   0.778   0.474
12037SOL    HW237553   5.513   0.788   0.357
12038SOL     OW37554   4.209   1.394   0.149
12038SOL    HW137555   4.196   1.319   0.208
12038SOL    HW237556   4.233   1.354   0.065
12039SOL     OW37557   5.344   1.264   0.667
12039SOL    HW137558   5.439   1.262   0.676
12039SOL    HW237559   5.321   1.357   0.671
12040SOL     OW37560   5.122   0.539   0.076
12040SOL    HW137561   5.072   0.540   0.158
12040SOL    HW237562   5.182   0.465   0.086
12041SOL     OW37563   4.234   0.220   0.319
12041SOL    HW137564   4.284   0.190   0.243
12041SOL    HW237565   4.206   0.308   0.294
12042SOL     OW37566   5.473   1.246   1.580
12042SOL    HW137567   5.558   1.205   1.566
12042SOL    HW237568   5.492   1.338   1.594
12043SOL     OW37569   4.786   1.359   1.332
12043SOL    HW137570   4.707   1.327   1.376
12043SOL    HW237571   4.858   1.310   1.373
12044SOL     OW37572   5.307   1.633   1.655
12044SOL    HW137573   5.311   1.665   1.565
12044SOL    HW237574   5.390   1.587   1.668
12045SOL     OW37575   4.849   1.194   1.109
12045SOL    HW137576   4.792   1.248   1.164
12045SOL    HW237577   4.845   1.235   1.022
12046SOL     OW37578   5.341   1.087   1.071
12046SOL    HW137579   5.331   1.150   1.142
12046SOL    HW237580   5.278   1.115   1.004
12047SOL     OW37581   4.647   0.115   1.397
12047SOL    HW137582   4.665   0.103   1.304
12047SOL    HW237583   4.733   0.116   1.439
12048SOL     OW37584   4.713   1.110   1.722
12048SOL    HW137585   4.621   1.127   1.745
12048SOL    HW237586   4.710   1.029   1.672
12049SOL     OW37587   4.444   1.071   0.389
12049SOL    HW137588   4.429   1.043   0.479
12049SOL    HW237589   4.521   1.022   0.361
12050SOL     OW37590   4.132   0.810   1.249
12050SOL    HW137591   4.204   0.831   1.309
12050SOL    HW237592   4.101   0.724   1.279
12051SOL     OW37593   4.992   0.385   1.281
12051SOL    HW137594   5.021   0.462   1.330
12051SOL    HW237595   4.905   0.408   1.249
12052SOL     OW37596   3.802   1.577   1.363
12052SOL    HW137597   3.792   1.670   1.384
12052SOL    HW237598   3.896   1.565   1.352
12053SOL     OW37599   4.062   1.123   0.490
12053SOL    HW137600   4.069   1.187   0.418
12053SOL    HW237601   4.060   1.038   0.446
12054SOL     OW37602   4.273   0.527   0.850
12054SOL    HW137603   4.284   0.588   0.777
12054SOL    HW237604   4.334   0.559   0.916
12055SOL     OW37605   4.966   1.345   0.387
12055SOL    HW137606   5.016   1.422   0.416
12055SOL    HW237607   4.878   1.360   0.421
12056SOL     OW37608   5.013   1.469   1.149
12056SOL    HW137609   5.074   1.468   1.223
12056SOL    HW237610   4.950   1.400   1.169
12057SOL     OW37611   5.294   0.637   0.506
12057SOL    HW137612   5.299   0.728   0.536
12057SOL    HW237613   5.338   0.637   0.421
12058SOL     OW37614   4.065   1.532   1.303
12058SOL    HW137615   4.057   1.483   1.221
12058SOL    HW237616   4.160   1.541   1.317
12059SOL     OW37617   4.130   0.698   1.600
12059SOL    HW137618   4.132   0.786   1.638
12059SOL    HW237619   4.217   0.662   1.620
12060SOL     OW37620   5.340   0.785   1.692
12060SOL    HW137621   5.253   0.824   1.685
12060SOL    HW237622   5.390   0.825   1.620
12061SOL     OW37623   4.767   0.079   1.733
12061SOL    HW137624   4.771   0.173   1.718
12061SOL    HW237625   4.674   0.057   1.728
12062SOL     OW37626   4.224   0.022   1.716
12062SOL    HW137627   4.198  -0.024   1.636
12062SOL    HW237628   4.158   0.090   1.726
12063SOL     OW37629   4.304   0.875   1.037
12063SOL    HW137630   4.347   0.960   1.049
12063SOL    HW237631   4.254   0.863   1.118
12064SOL     OW37632   5.044   0.841   1.026
12064SOL    HW137633   4.995   0.841   1.108
12064SOL    HW237634   5.107   0.769   1.035
12065SOL     OW37635   4.945   0.531   0.282
12065SOL    HW137636   4.950   0.453   0.337
12065SOL    HW237637   4.888   0.591   0.331
12066SOL     OW37638   4.012   0.201   1.246
12066SOL    HW137639   3.992   0.244   1.329
12066SOL    HW237640   4.008   0.108   1.265
12067SOL     OW37641   3.768   1.319   1.264
12067SOL    HW137642   3.803   1.258   1.328
12067SOL    HW237643   3.772   1.405   1.306
12068SOL     OW37644   4.432   0.626   1.043
12068SOL    HW137645   4.517   0.626   1.000
12068SOL    HW237646   4.403   0.717   1.040
12069SOL     OW37647   5.469   0.966   1.858
12069SOL    HW137648   5.429   0.894   1.810
12069SOL    HW237649   5.408   0.982   1.931
12070SOL     OW37650   4.117   0.088   0.682
12070SOL    HW137651   4.075   0.173   0.697
12070SOL    HW237652   4.045   0.026   0.672
12071SOL     OW37653   5.405   0.379   0.415
12071SOL    HW137654   5.384   0.286   0.409
12071SOL    HW237655   5.322   0.422   0.436
12072SOL     OW37656   4.754   0.753   0.969
12072SOL    HW137657   4.739   0.763   1.063
12072SOL    HW237658   4.722   0.665   0.949
12073SOL     OW37659   4.689   1.586   1.708
12073SOL    HW137660   4.682   1.615   1.617
12073SOL    HW237661   4.709   1.492   1.701
12074SOL     OW37662   5.560   1.508   1.609
12074SOL    HW137663   5.583   1.532   1.519
12074SOL    HW237664   5.642   1.518   1.658
12075SOL     OW37665   5.032   0.803   0.054
12075SOL    HW137666   5.077   0.720   0.044
12075SOL    HW237667   5.082   0.864   0.000
12076SOL     OW37668   4.853   1.315   0.868
12076SOL    HW137669   4.814   1.259   0.801
12076SOL    HW237670   4.881   1.394   0.821
12077SOL     OW37671   4.038   0.814   0.935
12077SOL    HW137672   4.130   0.836   0.950
12077SOL    HW237673   4.028   0.727   0.973
12078SOL     OW37674   4.048   0.542   1.002
12078SOL    HW137675   4.015   0.452   0.996
12078SOL    HW237676   4.125   0.543   0.945
12079SOL     OW37677   4.875   0.383   1.688
12079SOL    HW137678   4.820   0.440   1.741
12079SOL    HW237679   4.961   0.426   1.688
12080SOL     OW37680   4.895   0.217   1.474
12080SOL    HW137681   4.894   0.271   1.553
12080SOL    HW237682   4.929   0.276   1.406
12081SOL     OW37683   3.811   1.781   0.934
12081SOL    HW137684   3.788   1.698   0.891
12081SOL    HW237685   3.903   1.795   0.912
12082SOL     OW37686   4.203   1.574   0.892
12082SOL    HW137687   4.268   1.636   0.925
12082SOL    HW237688   4.254   1.507   0.846
12083SOL     OW37689   4.691   0.775   1.231
12083SOL    HW137690   4.746   0.744   1.302
12083SOL    HW237691   4.602   0.771   1.265
12084SOL     OW37692   3.768   0.562   1.116
12084SOL    HW137693   3.853   0.552   1.073
12084SOL    HW237694   3.788   0.563   1.209
12085SOL     OW37695   3.895   0.539   1.725
12085SOL    HW137696   3.988   0.536   1.704
12085SOL    HW237697   3.862   0.616   1.679
12086SOL     OW37698   5.108   0.930   1.662
12086SOL    HW137699   5.125   1.024   1.654
12086SOL    HW237700   5.097   0.900   1.571
12087SOL     OW37701   4.519   0.575   0.368
12087SOL    HW137702   4.532   0.500   0.309
12087SOL    HW237703   4.446   0.622   0.330
12088SOL     OW37704   5.365   0.609   1.177
12088SOL    HW137705   5.359   0.553   1.254
12088SOL    HW237706   5.453   0.593   1.142
12089SOL     OW37707   3.980   1.543   1.710
12089SOL    HW137708   3.952   1.609   1.773
12089SOL    HW237709   3.978   1.460   1.758
12090SOL     OW37710   4.445   0.451   1.252
12090SOL    HW137711   4.378   0.384   1.240
12090SOL    HW237712   4.432   0.513   1.181
12091SOL     OW37713   4.645   1.683   1.459
12091SOL    HW137714   4.632   1.637   1.375
12091SOL    HW237715   4.643   1.776   1.435
12092SOL     OW37716   4.181   0.465   0.206
12092SOL    HW137717   4.231   0.547   0.215
12092SOL    HW237718   4.108   0.489   0.149
12093SOL     OW37719   3.888   1.150   1.445
12093SOL    HW137720   3.874   1.108   1.530
12093SOL    HW237721   3.902   1.076   1.384
12094SOL     OW37722   5.043   1.044   1.221
12094SOL    HW137723   5.093   1.020   1.144
12094SOL    HW237724   4.969   1.095   1.187
12095SOL     OW37725   5.023   0.844   0.326
12095SOL    HW137726   4.940   0.812   0.361
12095SOL    HW237727   5.022   0.817   0.234
12096SOL     OW37728   5.517   1.741   1.172
12096SOL    HW137729   5.571   1.764   1.097
12096SOL    HW237730   5.478   1.657   1.149
12097SOL     OW37731   4.985   1.748   1.136
12097SOL    HW137732   5.063   1.767   1.085
12097SOL    HW237733   4.982   1.652   1.141
12098SOL     OW37734   3.813   1.277   1.000
12098SOL    HW137735   3.798   1.290   1.093
12098SOL    HW237736   3.747   1.213   0.973
12099SOL     OW37737   4.426   1.704   1.703
12099SOL    HW137738   4.421   1.766   1.775
12099SOL    HW237739   4.518   1.676   1.701
12100SOL     OW37740   4.644   0.119   0.072
12100SOL    HW137741   4.665   0.161  -0.011
12100SOL    HW237742   4.724   0.126   0.124
12101SOL     OW37743   5.382   0.112   0.514
12101SOL    HW137744   5.477   0.109   0.503
12101SOL    HW237745   5.365   0.065   0.596
12102SOL     OW37746   5.086   1.577   0.465
12102SOL    HW137747   5.163   1.613   0.421
12102SOL    HW237748   5.051   1.651   0.515
12103SOL     OW37749   3.888   1.777   1.829
12103SOL    HW137750   3.830   1.721   1.881
12103SOL    HW237751   3.920   1.843   1.891
12104SOL     OW37752   4.986   0.932   0.648
12104SOL    HW137753   5.060   0.873   0.637
12104SOL    HW237754   5.010   1.010   0.597
12105SOL     OW37755   4.534   1.283   1.418
12105SOL    HW137756   4.502   1.324   1.498
12105SOL    HW237757   4.456   1.278   1.361
12106SOL     OW37758   4.378   1.606   0.197
12106SOL    HW137759   4.433   1.614   0.119
12106SOL    HW237760   4.325   1.528   0.181
12107SOL     OW37761   5.336   1.728   1.396
12107SOL    HW137762   5.395   1.728   1.321
12107SOL    HW237763   5.323   1.820   1.417
12108SOL     OW37764   5.576   0.174   0.953
12108SOL    HW137765   5.570   0.083   0.982
12108SOL    HW237766   5.491   0.191   0.913
12109SOL     OW37767   3.985   0.326   0.721
12109SOL    HW137768   3.896   0.352   0.695
12109SOL    HW237769   3.981   0.320   0.816
12110SOL     OW37770   4.919   1.610   0.066
12110SOL    HW137771   4.916   1.518   0.091
12110SOL    HW237772   4.901   1.611  -0.028
12111SOL     OW37773   4.577   1.018   1.375
12111SOL    HW137774   4.614   1.020   1.287
12111SOL    HW237775   4.567   1.110   1.399
12112SOL     OW37776   4.657   0.932   0.304
12112SOL    HW137777   4.706   0.951   0.224
12112SOL    HW237778   4.696   0.851   0.337
12113SOL     OW37779   5.184   1.587   0.002
12113SOL    HW137780   5.098   1.609   0.038
12113SOL    HW237781   5.233   1.669   0.006
12114SOL     OW37782   4.107   1.312   1.483
12114SOL    HW137783   4.071   1.391   1.442
12114SOL    HW237784   4.037   1.247   1.475
12115SOL     OW37785   5.319   1.267   1.275
12115SOL    HW137786   5.403   1.272   1.320
12115SOL    HW237787   5.268   1.340   1.311
12116SOL     OW37788   4.767   1.123   0.697
12116SOL    HW137789   4.702   1.071   0.745
12116SOL    HW237790   4.823   1.058   0.654
12117SOL     OW37791   4.749   0.260   0.941
12117SOL    HW137792   4.743   0.198   0.869
12117SOL    HW237793   4.752   0.205   1.020
12118SOL     OW37794   4.253   1.447   0.473
12118SOL    HW137795   4.311   1.403   0.411
12118SOL    HW237796   4.301   1.527   0.496
12119SOL     OW37797   5.441   0.428   1.374
12119SOL    HW137798   5.519   0.482   1.387
12119SOL    HW237799   5.473   0.353   1.323
12120SOL     OW37800   3.956   1.379   0.336
12120SOL    HW137801   3.877   1.342   0.298
12120SOL    HW237802   3.990   1.438   0.268
12121SOL     OW37803   3.776   1.051   1.690
12121SOL    HW137804   3.718   1.024   1.761
12121SOL    HW237805   3.864   1.027   1.720
12122SOL     OW37806   4.408   0.227   1.492
12122SOL    HW137807   4.475   0.164   1.467
12122SOL    HW237808   4.416   0.233   1.588
12123SOL     OW37809   5.146   0.858   1.396
12123SOL    HW137810   5.097   0.924   1.346
12123SOL    HW237811   5.234   0.862   1.361
12124SOL     OW37812   3.849   0.219   0.295
12124SOL    HW137813   3.771   0.169   0.271
12124SOL    HW237814   3.873   0.184   0.381
12125SOL     OW37815   4.906   1.345   0.117
12125SOL    HW137816   4.813   1.322   0.112
12125SOL    HW237817   4.930   1.328   0.208
12126SOL     OW37818   4.356   0.859   1.379
12126SOL    HW137819   4.421   0.927   1.394
12126SOL    HW237820   4.396   0.779   1.413
12127SOL     OW37821   5.214   1.794   0.992
12127SOL    HW137822   5.245   1.856   0.926
12127SOL    HW237823   5.287   1.734   1.006
12128SOL     OW37824   4.441   0.563   1.697
12128SOL    HW137825   4.476   0.618   1.767
12128SOL    HW237826   4.454   0.473   1.728
12129SOL     OW37827   5.199   1.194   1.630
12129SOL    HW137828   5.190   1.206   1.725
12129SOL    HW237829   5.292   1.211   1.614
12130SOL     OW37830   4.081   1.724   1.532
12130SOL    HW137831   3.999   1.772   1.532
12130SOL    HW237832   4.064   1.646   1.585
12131SOL     OW37833   5.384   0.881   1.257
12131SOL    HW137834   5.387   0.795   1.215
12131SOL    HW237835   5.380   0.943   1.184
12132SOL     OW37836   4.940   0.309   0.445
12132SOL    HW137837   5.004   0.239   0.439
12132SOL    HW237838   4.961   0.355   0.527
12133SOL     OW37839   4.307   0.728   0.665
12133SOL    HW137840   4.347   0.815   0.658
12133SOL    HW237841   4.242   0.726   0.595
12134SOL     OW37842   5.478   0.378   1.641
12134SOL    HW137843   5.454   0.392   1.549
12134SOL    HW237844   5.418   0.310   1.671
12135SOL     OW37845   5.479   0.934   1.509
12135SOL    HW137846   5.461   1.027   1.521
12135SOL    HW237847   5.457   0.918   1.417
12136SOL     OW37848   4.624   1.351   0.075
12136SOL    HW137849   4.565   1.346   0.150
12136SOL    HW237850   4.611   1.438   0.039
12137SOL     OW37851   4.354   1.796   0.948
12137SOL    HW137852   4.362   1.888   0.919
12137SOL    HW237853   4.444   1.763   0.947
12138SOL     OW37854   4.601   0.969   0.857
12138SOL    HW137855   4.642   0.897   0.905
12138SOL    HW237856   4.557   1.021   0.924
12139SOL     OW37857   4.820   0.973   0.079
12139SOL    HW137858   4.845   1.048   0.024
12139SOL    HW237859   4.897   0.917   0.081
12140SOL     OW37860   5.590   1.541   0.852
12140SOL    HW137861   5.568   1.497   0.770
12140SOL    HW237862   5.615   1.471   0.911
12141SOL     OW37863   3.942   1.315   1.852
12141SOL    HW137864   3.908   1.228   1.830
12141SOL    HW237865   3.924   1.325   1.945
12142SOL     OW37866   3.870   1.259   0.655
12142SOL    HW137867   3.872   1.219   0.742
12142SOL    HW237868   3.894   1.188   0.595
12143SOL     OW37869   4.392   1.439   1.595
12143SOL    HW137870   4.335   1.378   1.642
12143SOL    HW237871   4.390   1.519   1.647
12144SOL     OW37872   5.556   0.233   1.229
12144SOL    HW137873   5.502   0.156   1.247
12144SOL    HW237874   5.569   0.231   1.135
12145SOL     OW37875   4.138   0.444   0.526
12145SOL    HW137876   4.197   0.375   0.494
12145SOL    HW237877   4.090   0.404   0.598
12146SOL     OW37878   5.406   1.506   1.115
12146SOL    HW137879   5.340   1.477   1.052
12146SOL    HW237880   5.436   1.425   1.158
12147SOL     OW37881   4.046   0.549   1.289
12147SOL    HW137882   4.099   0.492   1.344
12147SOL    HW237883   4.074   0.530   1.200
12148SOL     OW37884   4.456   1.594   0.601
12148SOL    HW137885   4.540   1.640   0.594
12148SOL    HW237886   4.450   1.569   0.693
12149SOL     OW37887   5.155   0.230   1.119
12149SOL    HW137888   5.216   0.172   1.164
12149SOL    HW237889   5.109   0.275   1.190
12150SOL     OW37890   4.755   0.070   1.134
12150SOL    HW137891   4.705  -0.011   1.144
12150SOL    HW237892   4.846   0.044   1.145
12151SOL     OW37893   4.494   1.332   0.327
12151SOL    HW137894   4.477   1.239   0.345
12151SOL    HW237895   4.572   1.352   0.379
12152SOL     OW37896   4.345   1.537   1.310
12152SOL    HW137897   4.370   1.512   1.399
12152SOL    HW237898   4.428   1.552   1.264
12153SOL     OW37899   5.049  -0.014   0.121
12153SOL    HW137900   5.127   0.040   0.112
12153SOL    HW237901   4.982   0.046   0.153
12154SOL     OW37902   5.006   0.454   0.671
12154SOL    HW137903   5.085   0.508   0.668
12154SOL    HW237904   5.007   0.415   0.758
12155SOL     OW37905   5.332   0.229   0.856
12155SOL    HW137906   5.256   0.215   0.912
12155SOL    HW237907   5.313   0.310   0.809
12156SOL     OW37908   3.788   1.082   0.342
12156SOL    HW137909   3.874   1.064   0.303
12156SOL    HW237910   3.756   0.996   0.369
12157SOL     OW37911   4.609   1.663   0.349
12157SOL    HW137912   4.528   1.628   0.313
12157SOL    HW237913   4.581   1.736   0.403
12158SOL     OW37914   3.936   0.616   1.999
12158SOL    HW137915   3.853   0.609   2.046
12158SOL    HW237916   3.912   0.604   1.907
12159SOL     OW37917   3.913   0.337   2.906
12159SOL    HW137918   3.955   0.274   2.965
12159SOL    HW237919   3.868   0.282   2.841
12160SOL     OW37920   3.715   0.417   2.446
12160SOL    HW137921   3.643   0.405   2.508
12160SOL    HW237922   3.789   0.374   2.488
12161SOL     OW37923   4.300   1.300   3.047
12161SOL    HW137924   4.212   1.307   3.010
12161SOL    HW237925   4.319   1.388   3.081
12162SOL     OW37926   5.279   1.516   2.583
12162SOL    HW137927   5.249   1.498   2.672
12162SOL    HW237928   5.199   1.529   2.533
12163SOL     OW37929   4.869   0.703   2.552
12163SOL    HW137930   4.932   0.765   2.590
12163SOL    HW237931   4.804   0.691   2.621
12164SOL     OW37932   5.518   0.600   2.085
12164SOL    HW137933   5.484   0.591   1.996
12164SOL    HW237934   5.473   0.531   2.134
12165SOL     OW37935   4.477   1.140   2.915
12165SOL    HW137936   4.408   1.175   2.972
12165SOL    HW237937   4.513   1.217   2.872
12166SOL     OW37938   4.601   0.761   3.676
12166SOL    HW137939   4.550   0.825   3.726
12166SOL    HW237940   4.629   0.807   3.598
12167SOL     OW37941   4.419   1.002   2.507
12167SOL    HW137942   4.479   0.995   2.582
12167SOL    HW237943   4.346   1.054   2.540
12168SOL     OW37944   4.067   1.413   2.934
12168SOL    HW137945   3.985   1.379   2.898
12168SOL    HW237946   4.102   1.469   2.865
12169SOL     OW37947   5.202   1.511   3.270
12169SOL    HW137948   5.192   1.568   3.194
12169SOL    HW237949   5.112   1.498   3.302
12170SOL     OW37950   4.169   0.382   3.334
12170SOL    HW137951   4.246   0.327   3.343
12170SOL    HW237952   4.095   0.324   3.352
12171SOL     OW37953   5.320   0.471   2.588
12171SOL    HW137954   5.236   0.472   2.542
12171SOL    HW237955   5.302   0.515   2.671
12172SOL     OW37956   3.938   1.725   2.327
12172SOL    HW137957   3.958   1.795   2.390
12172SOL    HW237958   4.019   1.715   2.277
12173SOL     OW37959   4.888   1.338   3.554
12173SOL    HW137960   4.909   1.344   3.647
12173SOL    HW237961   4.831   1.261   3.547
12174SOL     OW37962   3.969   1.447   2.397
12174SOL    HW137963   3.934   1.534   2.415
12174SOL    HW237964   3.916   1.388   2.451
12175SOL     OW37965   4.011   1.084   2.754
12175SOL    HW137966   3.981   1.002   2.791
12175SOL    HW237967   3.947   1.149   2.782
12176SOL     OW37968   4.344   1.771   3.320
12176SOL    HW137969   4.255   1.756   3.350
12176SOL    HW237970   4.355   1.866   3.324
12177SOL     OW37971   4.391   0.937   1.993
12177SOL    HW137972   4.356   0.991   1.922
12177SOL    HW237973   4.394   0.995   2.068
12178SOL     OW37974   5.392   0.110   3.347
12178SOL    HW137975   5.317   0.090   3.290
12178SOL    HW237976   5.352   0.147   3.426
12179SOL     OW37977   3.847   0.665   2.407
12179SOL    HW137978   3.811   0.577   2.421
12179SOL    HW237979   3.835   0.709   2.491
12180SOL     OW37980   5.579   1.755   2.196
12180SOL    HW137981   5.648   1.728   2.257
12180SOL    HW237982   5.596   1.848   2.181
12181SOL     OW37983   3.756   1.589   1.970
12181SOL    HW137984   3.744   1.498   1.996
12181SOL    HW237985   3.734   1.640   2.049
12182SOL     OW37986   5.416   0.918   2.510
12182SOL    HW137987   5.499   0.875   2.491
12182SOL    HW237988   5.395   0.967   2.431
12183SOL     OW37989   5.373   1.093   2.290
12183SOL    HW137990   5.462   1.105   2.258
12183SOL    HW237991   5.363   1.159   2.359
12184SOL     OW37992   3.840   0.749   3.445
12184SOL    HW137993   3.927   0.787   3.449
12184SOL    HW237994   3.780   0.824   3.446
12185SOL     OW37995   4.342   1.394   2.594
12185SOL    HW137996   4.297   1.311   2.605
12185SOL    HW237997   4.320   1.421   2.504
12186SOL     OW37998   5.043   1.256   3.258
12186SOL    HW137999   5.051   1.172   3.213
12186SOL    HW238000   5.077   1.239   3.346
12187SOL     OW38001   4.558   0.025   2.417
12187SOL    HW138002   4.599   0.105   2.384
12187SOL    HW238003   4.466   0.047   2.425
12188SOL     OW38004   3.914   0.953   3.153
12188SOL    HW138005   3.998   0.914   3.128
12188SOL    HW238006   3.854   0.926   3.083
12189SOL     OW38007   5.263   1.003   2.054
12189SOL    HW138008   5.205   0.929   2.071
12189SOL    HW238009   5.296   1.028   2.140
12190SOL     OW38010   4.881   1.845   3.501
12190SOL    HW138011   4.911   1.851   3.410
12190SOL    HW238012   4.854   1.754   3.511
12191SOL     OW38013   4.050   0.242   3.666
12191SOL    HW138014   4.095   0.324   3.686
12191SOL    HW238015   3.962   0.253   3.702
12192SOL     OW38016   5.199   1.413   2.828
12192SOL    HW138017   5.133   1.432   2.895
12192SOL    HW238018   5.179   1.323   2.800
12193SOL     OW38019   5.380   1.749   2.447
12193SOL    HW138020   5.358   1.709   2.363
12193SOL    HW238021   5.354   1.684   2.512
12194SOL     OW38022   4.319   0.706   2.135
12194SOL    HW138023   4.333   0.789   2.089
12194SOL    HW238024   4.253   0.726   2.201
12195SOL     OW38025   5.020   0.369   2.794
12195SOL    HW138026   4.929   0.340   2.801
12195SOL    HW238027   5.067   0.317   2.858
12196SOL     OW38028   5.319   1.671   2.178
12196SOL    HW138029   5.406   1.710   2.180
12196SOL    HW238030   5.327   1.598   2.116
12197SOL     OW38031   4.526   0.622   3.318
12197SOL    HW138032   4.487   0.600   3.402
12197SOL    HW238033   4.482   0.565   3.255
12198SOL     OW38034   5.140   0.497   3.543
12198SOL    HW138035   5.135   0.537   3.630
12198SOL    HW238036   5.205   0.427   3.553
12199SOL     OW38037   4.716   0.887   3.437
12199SOL    HW138038   4.751   0.813   3.388
12199SOL    HW238039   4.649   0.925   3.380
12200SOL     OW38040   4.717   0.412   3.081
12200SOL    HW138041   4.631   0.438   3.113
12200SOL    HW238042   4.701   0.374   2.995
12201SOL     OW38043   4.787   0.700   2.285
12201SOL    HW138044   4.803   0.690   2.379
12201SOL    HW238045   4.703   0.657   2.270
12202SOL     OW38046   3.808   0.818   2.629
12202SOL    HW138047   3.883   0.805   2.687
12202SOL    HW238048   3.757   0.888   2.671
12203SOL     OW38049   3.850   1.843   3.437
12203SOL    HW138050   3.854   1.827   3.531
12203SOL    HW238051   3.761   1.875   3.422
12204SOL     OW38052   4.612   0.342   2.076
12204SOL    HW138053   4.643   0.377   1.993
12204SOL    HW238054   4.578   0.255   2.054
12205SOL     OW38055   5.442   0.568   3.686
12205SOL    HW138056   5.400   0.643   3.644
12205SOL    HW238057   5.463   0.509   3.614
12206SOL     OW38058   4.272   0.211   2.796
12206SOL    HW138059   4.256   0.246   2.884
12206SOL    HW238060   4.246   0.281   2.737
12207SOL     OW38061   4.721   1.451   2.321
12207SOL    HW138062   4.696   1.524   2.263
12207SOL    HW238063   4.677   1.471   2.404
12208SOL     OW38064   4.083   1.817   2.726
12208SOL    HW138065   4.128   1.733   2.740
12208SOL    HW238066   4.148   1.883   2.749
12209SOL     OW38067   5.523   1.047   2.732
12209SOL    HW138068   5.467   1.014   2.662
12209SOL    HW238069   5.465   1.056   2.807
12210SOL     OW38070   4.950   1.530   3.360
12210SOL    HW138071   4.929   1.468   3.429
12210SOL    HW238072   4.866   1.567   3.333
12211SOL     OW38073   4.032   0.959   2.092
12211SOL    HW138074   4.057   0.964   2.000
12211SOL    HW238075   4.018   0.865   2.108
12212SOL     OW38076   5.196   0.763   2.590
12212SOL    HW138077   5.191   0.708   2.668
12212SOL    HW238078   5.282   0.804   2.595
12213SOL     OW38079   4.181   1.318   3.613
12213SOL    HW138080   4.169   1.307   3.518
12213SOL    HW238081   4.095   1.300   3.650
12214SOL     OW38082   4.863   1.766   2.089
12214SOL    HW138083   4.784   1.752   2.142
12214SOL    HW238084   4.859   1.696   2.024
12215SOL     OW38085   3.905   0.266   3.366
12215SOL    HW138086   3.851   0.342   3.342
12215SOL    HW238087   3.905   0.266   3.462
12216SOL     OW38088   5.349   1.391   1.965
12216SOL    HW138089   5.375   1.415   1.876
12216SOL    HW238090   5.280   1.327   1.954
12217SOL     OW38091   4.188   1.739   2.189
12217SOL    HW138092   4.225   1.793   2.258
12217SOL    HW238093   4.261   1.686   2.157
12218SOL     OW38094   3.986   1.791   3.085
12218SOL    HW138095   4.026   1.717   3.130
12218SOL    HW238096   3.963   1.757   2.999
12219SOL     OW38097   4.731   1.665   2.770
12219SOL    HW138098   4.754   1.625   2.853
12219SOL    HW238099   4.639   1.691   2.780
12220SOL     OW38100   4.117   0.703   2.330
12220SOL    HW138101   4.142   0.611   2.344
12220SOL    HW238102   4.024   0.706   2.354
12221SOL     OW38103   5.283   0.214   3.586
12221SOL    HW138104   5.301   0.241   3.676
12221SOL    HW238105   5.188   0.203   3.583
12222SOL     OW38106   4.333   0.150   1.947
12222SOL    HW138107   4.397   0.102   2.000
12222SOL    HW238108   4.264   0.086   1.928
12223SOL     OW38109   4.469   0.286   3.652
12223SOL    HW138110   4.505   0.199   3.636
12223SOL    HW238111   4.400   0.273   3.717
12224SOL     OW38112   4.667   1.526   3.026
12224SOL    HW138113   4.595   1.491   2.974
12224SOL    HW238114   4.691   1.453   3.084
12225SOL     OW38115   5.076   0.590   3.294
12225SOL    HW138116   5.108   0.566   3.381
12225SOL    HW238117   5.097   0.683   3.285
12226SOL     OW38118   4.545   1.376   2.798
12226SOL    HW138119   4.617   1.422   2.754
12226SOL    HW238120   4.469   1.395   2.744
12227SOL     OW38121   4.667   0.523   2.751
12227SOL    HW138122   4.632   0.511   2.663
12227SOL    HW238123   4.692   0.435   2.780
12228SOL     OW38124   4.285   0.025   2.287
12228SOL    HW138125   4.228   0.012   2.363
12228SOL    HW238126   4.270   0.115   2.261
12229SOL     OW38127   5.155   1.205   1.903
12229SOL    HW138128   5.189   1.129   1.950
12229SOL    HW238129   5.063   1.211   1.930
12230SOL     OW38130   4.072   0.013   2.028
12230SOL    HW138131   4.012   0.083   2.053
12230SOL    HW238132   4.078  -0.043   2.105
12231SOL     OW38133   4.681   0.258   2.331
12231SOL    HW138134   4.649   0.288   2.246
12231SOL    HW238135   4.776   0.273   2.328
12232SOL     OW38136   4.803   0.671   3.302
12232SOL    HW138137   4.723   0.621   3.319
12232SOL    HW238138   4.874   0.609   3.316
12233SOL     OW38139   4.981   1.547   2.625
12233SOL    HW138140   4.953   1.620   2.570
12233SOL    HW238141   4.982   1.583   2.713
12234SOL     OW38142   4.206   1.154   2.582
12234SOL    HW138143   4.143   1.132   2.650
12234SOL    HW238144   4.158   1.139   2.500
12235SOL     OW38145   4.981   1.789   2.456
12235SOL    HW138146   5.026   1.865   2.419
12235SOL    HW238147   4.907   1.826   2.504
12236SOL     OW38148   4.754   0.537   1.878
12236SOL    HW138149   4.702   0.618   1.873
12236SOL    HW238150   4.803   0.545   1.960
12237SOL     OW38151   3.820   0.548   3.263
12237SOL    HW138152   3.909   0.557   3.228
12237SOL    HW238153   3.812   0.621   3.324
12238SOL     OW38154   4.288   0.232   3.075
12238SOL    HW138155   4.328   0.196   3.154
12238SOL    HW238156   4.194   0.221   3.088
12239SOL     OW38157   4.600   0.475   2.495
12239SOL    HW138158   4.535   0.519   2.441
12239SOL    HW238159   4.612   0.389   2.453
12240SOL     OW38160   4.697   0.034   2.656
12240SOL    HW138161   4.649   0.045   2.574
12240SOL    HW238162   4.719  -0.059   2.659
12241SOL     OW38163   5.175   1.150   2.741
12241SOL    HW138164   5.106   1.084   2.746
12241SOL    HW238165   5.210   1.140   2.652
12242SOL     OW38166   5.189   0.601   2.817
12242SOL    HW138167   5.131   0.525   2.825
12242SOL    HW238168   5.243   0.598   2.896
12243SOL     OW38169   5.566   0.809   2.250
12243SOL    HW138170   5.623   0.761   2.310
12243SOL    HW238171   5.543   0.747   2.182
12244SOL     OW38172   4.210   1.408   2.014
12244SOL    HW138173   4.133   1.388   2.066
12244SOL    HW238174   4.196   1.363   1.931
12245SOL     OW38175   5.366   1.262   2.502
12245SOL    HW138176   5.460   1.259   2.520
12245SOL    HW238177   5.340   1.350   2.529
12246SOL     OW38178   5.121   0.578   1.943
12246SOL    HW138179   5.049   0.553   2.001
12246SOL    HW238180   5.197   0.530   1.975
12247SOL     OW38181   4.246   0.279   2.167
12247SOL    HW138182   4.277   0.228   2.092
12247SOL    HW238183   4.214   0.361   2.128
12248SOL     OW38184   5.480   1.240   3.416
12248SOL    HW138185   5.563   1.200   3.395
12248SOL    HW238186   5.503   1.325   3.455
12249SOL     OW38187   4.766   1.324   3.184
12249SOL    HW138188   4.687   1.305   3.236
12249SOL    HW238189   4.838   1.308   3.244
12250SOL     OW38190   4.864   1.204   2.959
12250SOL    HW138191   4.805   1.236   3.028
12250SOL    HW238192   4.829   1.242   2.878
12251SOL     OW38193   5.357   1.097   2.944
12251SOL    HW138194   5.352   1.160   3.016
12251SOL    HW238195   5.279   1.116   2.891
12252SOL     OW38196   4.663   0.110   3.264
12252SOL    HW138197   4.678   0.086   3.173
12252SOL    HW238198   4.751   0.115   3.302
12253SOL     OW38199   4.736   1.115   3.580
12253SOL    HW138200   4.643   1.122   3.600
12253SOL    HW238201   4.743   1.035   3.529
12254SOL     OW38202   4.445   1.074   2.236
12254SOL    HW138203   4.418   1.051   2.325
12254SOL    HW238204   4.527   1.026   2.223
12255SOL     OW38205   4.151   0.816   3.106
12255SOL    HW138206   4.215   0.827   3.177
12255SOL    HW238207   4.114   0.729   3.121
12256SOL     OW38208   4.979   0.384   3.148
12256SOL    HW138209   5.013   0.464   3.189
12256SOL    HW238210   4.889   0.407   3.123
12257SOL     OW38211   3.802   1.572   3.219
12257SOL    HW138212   3.779   1.656   3.178
12257SOL    HW238213   3.898   1.570   3.215
12258SOL     OW38214   4.083   1.113   2.337
12258SOL    HW138215   4.052   1.188   2.286
12258SOL    HW238216   4.079   1.039   2.276
12259SOL     OW38217   4.300   0.517   2.697
12259SOL    HW138218   4.305   0.586   2.631
12259SOL    HW238219   4.346   0.553   2.773
12260SOL     OW38220   4.961   1.349   2.273
12260SOL    HW138221   5.023   1.419   2.291
12260SOL    HW238222   4.875   1.387   2.290
12261SOL     OW38223   5.012   1.446   3.028
12261SOL    HW138224   5.019   1.414   3.118
12261SOL    HW238225   4.942   1.395   2.989
12262SOL     OW38226   5.283   0.647   2.332
12262SOL    HW138227   5.245   0.673   2.416
12262SOL    HW238228   5.351   0.713   2.315
12263SOL     OW38229   4.073   1.536   3.171
12263SOL    HW138230   4.063   1.486   3.090
12263SOL    HW238231   4.168   1.546   3.181
12264SOL     OW38232   4.143   0.739   3.473
12264SOL    HW138233   4.195   0.793   3.413
12264SOL    HW238234   4.201   0.668   3.497
12265SOL     OW38235   5.339   0.780   3.551
12265SOL    HW138236   5.251   0.818   3.546
12265SOL    HW238237   5.386   0.819   3.478
12266SOL     OW38238   4.769   0.067   3.594
12266SOL    HW138239   4.783   0.160   3.579
12266SOL    HW238240   4.674   0.056   3.591
12267SOL     OW38241   4.230   0.038   3.593
12267SOL    HW138242   4.202  -0.026   3.528
12267SOL    HW238243   4.154   0.096   3.604
12268SOL     OW38244   4.313   0.872   2.894
12268SOL    HW138245   4.330   0.966   2.894
12268SOL    HW238246   4.253   0.858   2.967
12269SOL     OW38247   5.054   0.856   2.867
12269SOL    HW138248   4.961   0.832   2.863
12269SOL    HW238249   5.100   0.772   2.864
12270SOL     OW38250   4.914   0.524   2.114
12270SOL    HW138251   4.929   0.445   2.167
12270SOL    HW238252   4.871   0.585   2.175
12271SOL     OW38253   4.025   0.187   3.116
12271SOL    HW138254   3.967   0.209   3.189
12271SOL    HW238255   3.992   0.104   3.083
12272SOL     OW38256   3.712   1.317   3.175
12272SOL    HW138257   3.777   1.261   3.218
12272SOL    HW238258   3.746   1.406   3.187
12273SOL     OW38259   4.439   0.627   2.909
12273SOL    HW138260   4.520   0.628   2.858
12273SOL    HW238261   4.405   0.716   2.901
12274SOL     OW38262   5.459   0.966   3.716
12274SOL    HW138263   5.415   0.896   3.668
12274SOL    HW238264   5.399   0.986   3.788
12275SOL     OW38265   4.131   0.026   2.522
12275SOL    HW138266   4.087   0.111   2.535
12275SOL    HW238267   4.062  -0.039   2.536
12276SOL     OW38268   5.363   0.408   2.220
12276SOL    HW138269   5.331   0.328   2.262
12276SOL    HW238270   5.324   0.479   2.271
12277SOL     OW38271   4.774   0.761   2.822
12277SOL    HW138272   4.753   0.778   2.914
12277SOL    HW238273   4.739   0.674   2.805
12278SOL     OW38274   4.747   1.600   3.559
12278SOL    HW138275   4.695   1.620   3.481
12278SOL    HW238276   4.723   1.511   3.581
12279SOL     OW38277   5.570   1.507   3.457
12279SOL    HW138278   5.606   1.532   3.372
12279SOL    HW238279   5.642   1.523   3.519
12280SOL     OW38280   4.074   0.908   3.684
12280SOL    HW138281   4.153   0.958   3.704
12280SOL    HW238282   4.101   0.849   3.614
12281SOL     OW38283   5.319   0.270   1.991
12281SOL    HW138284   5.255   0.211   2.032
12281SOL    HW238285   5.351   0.324   2.063
12282SOL     OW38286   5.033   0.839   1.917
12282SOL    HW138287   5.063   0.748   1.921
12282SOL    HW238288   5.056   0.868   1.828
12283SOL     OW38289   4.829   1.332   2.716
12283SOL    HW138290   4.801   1.280   2.640
12283SOL    HW238291   4.870   1.409   2.678
12284SOL     OW38292   4.024   0.797   2.804
12284SOL    HW138293   4.115   0.827   2.803
12284SOL    HW238294   4.028   0.708   2.837
12285SOL     OW38295   4.089   0.534   2.873
12285SOL    HW138296   4.023   0.466   2.865
12285SOL    HW238297   4.147   0.520   2.797
12286SOL     OW38298   4.893   0.368   3.575
12286SOL    HW138299   4.819   0.420   3.606
12286SOL    HW238300   4.960   0.431   3.553
12287SOL     OW38301   4.918   0.207   3.343
12287SOL    HW138302   4.890   0.262   3.416
12287SOL    HW238303   4.931   0.268   3.271
12288SOL     OW38304   3.728   1.317   2.054
12288SOL    HW138305   3.642   1.329   2.014
12288SOL    HW238306   3.726   1.228   2.089
12289SOL     OW38307   3.816   1.785   2.804
12289SOL    HW138308   3.782   1.712   2.753
12289SOL    HW238309   3.906   1.796   2.771
12290SOL     OW38310   4.218   1.580   2.764
12290SOL    HW138311   4.291   1.633   2.797
12290SOL    HW238312   4.259   1.515   2.707
12291SOL     OW38313   4.704   0.786   3.076
12291SOL    HW138314   4.753   0.749   3.149
12291SOL    HW238315   4.621   0.814   3.115
12292SOL     OW38316   3.753   0.546   2.984
12292SOL    HW138317   3.806   0.478   2.943
12292SOL    HW238318   3.791   0.557   3.071
12293SOL     OW38319   3.918   0.526   3.585
12293SOL    HW138320   3.998   0.523   3.532
12293SOL    HW238321   3.868   0.599   3.549
12294SOL     OW38322   5.112   0.928   3.519
12294SOL    HW138323   5.115   1.023   3.518
12294SOL    HW238324   5.100   0.903   3.427
12295SOL     OW38325   4.555   0.585   2.212
12295SOL    HW138326   4.554   0.499   2.169
12295SOL    HW238327   4.470   0.624   2.190
12296SOL     OW38328   5.359   0.614   3.034
12296SOL    HW138329   5.346   0.556   3.109
12296SOL    HW238330   5.447   0.592   3.002
12297SOL     OW38331   3.961   1.549   3.581
12297SOL    HW138332   3.937   1.618   3.644
12297SOL    HW238333   3.963   1.469   3.634
12298SOL     OW38334   4.444   0.457   3.120
12298SOL    HW138335   4.382   0.386   3.104
12298SOL    HW238336   4.430   0.518   3.047
12299SOL     OW38337   4.684   1.672   3.298
12299SOL    HW138338   4.651   1.632   3.218
12299SOL    HW238339   4.652   1.762   3.295
12300SOL     OW38340   4.183   0.498   2.016
12300SOL    HW138341   4.239   0.567   2.053
12300SOL    HW238342   4.095   0.537   2.017
12301SOL     OW38343   3.869   1.145   3.339
12301SOL    HW138344   3.868   1.098   3.423
12301SOL    HW238345   3.884   1.076   3.274
12302SOL     OW38346   5.048   1.040   3.073
12302SOL    HW138347   5.059   0.976   3.003
12302SOL    HW238348   4.980   1.099   3.040
12303SOL     OW38349   4.994   0.869   2.201
12303SOL    HW138350   4.926   0.807   2.227
12303SOL    HW238351   4.998   0.861   2.106
12304SOL     OW38352   5.490   1.734   3.007
12304SOL    HW138353   5.557   1.761   2.945
12304SOL    HW238354   5.474   1.641   2.988
12305SOL     OW38355   4.966   1.725   2.974
12305SOL    HW138356   5.049   1.746   2.931
12305SOL    HW238357   4.976   1.634   3.001
12306SOL     OW38358   4.402   1.686   3.589
12306SOL    HW138359   4.341   1.756   3.611
12306SOL    HW238360   4.414   1.694   3.494
12307SOL     OW38361   5.482   0.161   2.373
12307SOL    HW138362   5.486   0.130   2.282
12307SOL    HW238363   5.396   0.131   2.404
12308SOL     OW38364   5.106   1.574   2.331
12308SOL    HW138365   5.172   1.618   2.278
12308SOL    HW238366   5.057   1.644   2.374
12309SOL     OW38367   3.872   1.790   3.702
12309SOL    HW138368   3.821   1.728   3.753
12309SOL    HW238369   3.914   1.846   3.767
12310SOL     OW38370   5.052   0.948   2.454
12310SOL    HW138371   5.102   0.888   2.510
12310SOL    HW238372   5.044   0.901   2.371
12311SOL     OW38373   4.522   1.281   3.295
12311SOL    HW138374   4.504   1.311   3.384
12311SOL    HW238375   4.440   1.295   3.248
12312SOL     OW38376   4.391   1.610   2.014
12312SOL    HW138377   4.382   1.614   1.919
12312SOL    HW238378   4.339   1.534   2.040
12313SOL     OW38379   5.380   1.748   3.262
12313SOL    HW138380   5.415   1.751   3.174
12313SOL    HW238381   5.356   1.839   3.281
12314SOL     OW38382   5.582   0.168   2.822
12314SOL    HW138383   5.580   0.077   2.790
12314SOL    HW238384   5.499   0.205   2.793
12315SOL     OW38385   4.922   1.590   1.869
12315SOL    HW138386   4.915   1.507   1.915
12315SOL    HW238387   4.841   1.596   1.818
12316SOL     OW38388   4.563   1.011   3.232
12316SOL    HW138389   4.557   1.037   3.140
12316SOL    HW238390   4.544   1.091   3.281
12317SOL     OW38391   4.681   0.951   2.185
12317SOL    HW138392   4.723   0.967   2.101
12317SOL    HW238393   4.694   0.857   2.201
12318SOL     OW38394   4.099   1.305   3.349
12318SOL    HW138395   4.074   1.384   3.300
12318SOL    HW238396   4.023   1.248   3.342
12319SOL     OW38397   5.341   1.287   3.147
12319SOL    HW138398   5.392   1.263   3.224
12319SOL    HW238399   5.266   1.334   3.182
12320SOL     OW38400   4.789   1.085   2.538
12320SOL    HW138401   4.715   1.092   2.599
12320SOL    HW238402   4.803   0.990   2.529
12321SOL     OW38403   4.761   0.262   2.817
12321SOL    HW138404   4.735   0.205   2.744
12321SOL    HW238405   4.764   0.203   2.893
12322SOL     OW38406   4.302   1.479   2.332
12322SOL    HW138407   4.316   1.421   2.258
12322SOL    HW238408   4.209   1.501   2.329
12323SOL     OW38409   5.448   0.423   3.230
12323SOL    HW138410   5.528   0.475   3.235
12323SOL    HW238411   5.473   0.346   3.180
12324SOL     OW38412   3.982   1.347   2.152
12324SOL    HW138413   3.889   1.339   2.131
12324SOL    HW238414   3.983   1.386   2.239
12325SOL     OW38415   3.845   1.026   3.585
12325SOL    HW138416   3.767   1.001   3.633
12325SOL    HW238417   3.917   0.984   3.632
12326SOL     OW38418   4.399   0.216   3.354
12326SOL    HW138419   4.471   0.158   3.331
12326SOL    HW238420   4.418   0.246   3.442
12327SOL     OW38421   3.803   0.315   1.860
12327SOL    HW138422   3.730   0.336   1.918
12327SOL    HW238423   3.820   0.397   1.813
12328SOL     OW38424   5.148   0.859   3.256
12328SOL    HW138425   5.095   0.918   3.201
12328SOL    HW238426   5.235   0.863   3.217
12329SOL     OW38427   3.880   0.169   2.143
12329SOL    HW138428   3.810   0.230   2.121
12329SOL    HW238429   3.869   0.153   2.237
12330SOL     OW38430   4.892   1.340   1.987
12330SOL    HW138431   4.810   1.291   1.987
12330SOL    HW238432   4.919   1.341   2.079
12331SOL     OW38433   4.341   0.831   3.300
12331SOL    HW138434   4.379   0.915   3.327
12331SOL    HW238435   4.412   0.769   3.307
12332SOL     OW38436   5.217   1.780   2.850
12332SOL    HW138437   5.225   1.853   2.788
12332SOL    HW238438   5.302   1.777   2.894
12333SOL     OW38439   4.438   0.557   3.562
12333SOL    HW138440   4.482   0.624   3.615
12333SOL    HW238441   4.459   0.475   3.606
12334SOL     OW38442   5.197   1.198   3.491
12334SOL    HW138443   5.175   1.211   3.584
12334SOL    HW238444   5.293   1.207   3.489
12335SOL     OW38445   4.098   1.732   3.426
12335SOL    HW138446   4.017   1.780   3.409
12335SOL    HW238447   4.069   1.652   3.471
12336SOL     OW38448   5.391   0.880   3.120
12336SOL    HW138449   5.382   0.794   3.077
12336SOL    HW238450   5.380   0.943   3.050
12337SOL     OW38451   4.953   0.325   2.308
12337SOL    HW138452   5.015   0.255   2.289
12337SOL    HW238453   4.987   0.367   2.387
12338SOL     OW38454   4.323   0.735   2.523
12338SOL    HW138455   4.354   0.825   2.515
12338SOL    HW238456   4.248   0.730   2.464
12339SOL     OW38457   5.487   0.378   3.494
12339SOL    HW138458   5.463   0.396   3.404
12339SOL    HW238459   5.424   0.312   3.523
12340SOL     OW38460   5.485   0.927   3.371
12340SOL    HW138461   5.461   1.017   3.390
12340SOL    HW238462   5.459   0.913   3.280
12341SOL     OW38463   4.581   1.378   1.906
12341SOL    HW138464   4.553   1.356   1.995
12341SOL    HW238465   4.589   1.473   1.906
12342SOL     OW38466   4.604   0.990   2.721
12342SOL    HW138467   4.646   0.914   2.761
12342SOL    HW238468   4.558   1.033   2.792
12343SOL     OW38469   4.828   1.023   1.959
12343SOL    HW138470   4.786   1.048   1.877
12343SOL    HW238471   4.890   0.954   1.934
12344SOL     OW38472   5.568   1.542   2.702
12344SOL    HW138473   5.486   1.541   2.653
12344SOL    HW238474   5.548   1.500   2.785
12345SOL     OW38475   3.926   1.300   3.709
12345SOL    HW138476   3.873   1.233   3.665
12345SOL    HW238477   3.881   1.315   3.792
12346SOL     OW38478   3.816   1.237   2.510
12346SOL    HW138479   3.814   1.260   2.603
12346SOL    HW238480   3.870   1.158   2.506
12347SOL     OW38481   4.447   1.401   3.535
12347SOL    HW138482   4.385   1.333   3.564
12347SOL    HW238483   4.401   1.483   3.550
12348SOL     OW38484   5.550   0.211   3.093
12348SOL    HW138485   5.475   0.153   3.099
12348SOL    HW238486   5.571   0.213   2.999
12349SOL     OW38487   4.182   0.447   2.379
12349SOL    HW138488   4.202   0.376   2.318
12349SOL    HW238489   4.118   0.410   2.440
12350SOL     OW38490   5.436   1.472   2.945
12350SOL    HW138491   5.351   1.458   2.902
12350SOL    HW238492   5.437   1.410   3.017
12351SOL     OW38493   4.064   0.560   3.149
12351SOL    HW138494   4.114   0.497   3.201
12351SOL    HW238495   4.082   0.535   3.058
12352SOL     OW38496   4.567   1.542   2.519
12352SOL    HW138497   4.550   1.635   2.534
12352SOL    HW238498   4.487   1.499   2.547
12353SOL     OW38499   5.145   0.235   2.994
12353SOL    HW138500   5.199   0.175   3.045
12353SOL    HW238501   5.092   0.281   3.059
12354SOL     OW38502   4.743   0.048   2.997
12354SOL    HW138503   4.653   0.052   2.967
12354SOL    HW238504   4.786  -0.014   2.938
12355SOL     OW38505   4.516   1.325   2.159
12355SOL    HW138506   4.481   1.240   2.184
12355SOL    HW238507   4.565   1.355   2.236
12356SOL     OW38508   4.354   1.564   3.135
12356SOL    HW138509   4.360   1.630   3.204
12356SOL    HW238510   4.389   1.609   3.057
12357SOL     OW38511   5.087   7.988   1.973
12357SOL    HW138512   5.139   7.909   1.988
12357SOL    HW238513   5.084   8.031   2.058
12358SOL     OW38514   5.038   0.469   2.538
12358SOL    HW138515   4.976   0.542   2.536
12358SOL    HW238516   5.026   0.429   2.624
12359SOL     OW38517   5.342   0.243   2.747
12359SOL    HW138518   5.266   0.188   2.766
12359SOL    HW238519   5.312   0.302   2.678
12360SOL     OW38520   3.769   1.064   2.158
12360SOL    HW138521   3.863   1.055   2.141
12360SOL    HW238522   3.740   0.976   2.180
12361SOL     OW38523   4.618   1.662   2.178
12361SOL    HW138524   4.536   1.638   2.135
12361SOL    HW238525   4.592   1.722   2.248
12362SOL     OW38526   3.935   0.616   3.859
12362SOL    HW138527   3.845   0.615   3.894
12362SOL    HW238528   3.924   0.605   3.765
12363SOL     OW38529   3.961   0.294   4.692
12363SOL    HW138530   3.992   0.251   4.772
12363SOL    HW238531   3.875   0.254   4.676
12364SOL     OW38532   3.726   0.383   4.352
12364SOL    HW138533   3.638   0.400   4.386
12364SOL    HW238534   3.711   0.327   4.275
12365SOL     OW38535   4.267   1.295   4.922
12365SOL    HW138536   4.214   1.322   4.848
12365SOL    HW238537   4.302   1.376   4.958
12366SOL     OW38538   5.294   1.516   4.437
12366SOL    HW138539   5.252   1.491   4.519
12366SOL    HW238540   5.222   1.523   4.374
12367SOL     OW38541   4.874   0.688   4.420
12367SOL    HW138542   4.932   0.763   4.408
12367SOL    HW238543   4.832   0.703   4.504
12368SOL     OW38544   5.528   0.599   3.940
12368SOL    HW138545   5.493   0.591   3.852
12368SOL    HW238546   5.477   0.537   3.992
12369SOL     OW38547   4.473   1.151   4.796
12369SOL    HW138548   4.398   1.184   4.845
12369SOL    HW238549   4.505   1.226   4.746
12370SOL     OW38550   4.599   0.757   5.542
12370SOL    HW138551   4.601   0.825   5.609
12370SOL    HW238552   4.622   0.803   5.461
12371SOL     OW38553   4.406   0.982   4.365
12371SOL    HW138554   4.486   0.995   4.416
12371SOL    HW238555   4.342   1.042   4.403
12372SOL     OW38556   4.440   1.152   5.545
12372SOL    HW138557   4.486   1.229   5.579
12372SOL    HW238558   4.366   1.188   5.497
12373SOL     OW38559   4.061   1.385   4.777
12373SOL    HW138560   3.978   1.373   4.731
12373SOL    HW238561   4.102   1.459   4.733
12374SOL     OW38562   5.185   1.501   5.086
12374SOL    HW138563   5.238   1.580   5.096
12374SOL    HW238564   5.114   1.511   5.148
12375SOL     OW38565   4.163   0.381   5.204
12375SOL    HW138566   4.249   0.337   5.210
12375SOL    HW238567   4.100   0.309   5.204
12376SOL     OW38568   5.328   0.444   4.441
12376SOL    HW138569   5.240   0.439   4.403
12376SOL    HW238570   5.335   0.535   4.472
12377SOL     OW38571   3.944   1.712   4.193
12377SOL    HW138572   3.961   1.788   4.250
12377SOL    HW238573   4.018   1.711   4.132
12378SOL     OW38574   4.862   1.347   5.420
12378SOL    HW138575   4.901   1.344   5.507
12378SOL    HW238576   4.813   1.265   5.412
12379SOL     OW38577   3.953   1.447   4.267
12379SOL    HW138578   3.942   1.542   4.256
12379SOL    HW238579   3.893   1.425   4.338
12380SOL     OW38580   3.982   1.093   4.608
12380SOL    HW138581   3.978   1.002   4.638
12380SOL    HW238582   3.920   1.139   4.665
12381SOL     OW38583   4.345   1.774   5.168
12381SOL    HW138584   4.255   1.766   5.199
12381SOL    HW238585   4.366   1.867   5.177
12382SOL     OW38586   4.301   0.984   3.875
12382SOL    HW138587   4.344   1.008   3.793
12382SOL    HW238588   4.349   1.033   3.942
12383SOL     OW38589   5.394   0.114   5.218
12383SOL    HW138590   5.330   0.128   5.148
12383SOL    HW238591   5.349   0.143   5.297
12384SOL     OW38592   3.843   0.641   4.295
12384SOL    HW138593   3.796   0.560   4.316
12384SOL    HW238594   3.827   0.698   4.370
12385SOL     OW38595   5.567   1.751   4.044
12385SOL    HW138596   5.609   1.728   4.127
12385SOL    HW238597   5.589   1.844   4.032
12386SOL     OW38598   3.765   1.587   3.843
12386SOL    HW138599   3.742   1.497   3.865
12386SOL    HW238600   3.739   1.638   3.919
12387SOL     OW38601   5.414   0.940   4.364
12387SOL    HW138602   5.474   0.876   4.323
12387SOL    HW238603   5.381   0.991   4.290
12388SOL     OW38604   5.381   1.105   4.141
12388SOL    HW138605   5.472   1.112   4.110
12388SOL    HW238606   5.375   1.172   4.209
12389SOL     OW38607   3.843   0.753   5.310
12389SOL    HW138608   3.931   0.790   5.311
12389SOL    HW238609   3.785   0.828   5.299
12390SOL     OW38610   4.340   1.394   4.458
12390SOL    HW138611   4.295   1.309   4.465
12390SOL    HW238612   4.325   1.421   4.367
12391SOL     OW38613   5.009   1.231   5.146
12391SOL    HW138614   5.039   1.164   5.085
12391SOL    HW238615   5.069   1.226   5.220
12392SOL     OW38616   4.561   0.043   4.296
12392SOL    HW138617   4.598   0.117   4.249
12392SOL    HW238618   4.473   0.033   4.260
12393SOL     OW38619   3.910   0.977   5.002
12393SOL    HW138620   3.987   0.923   4.989
12393SOL    HW238621   3.853   0.958   4.928
12394SOL     OW38622   5.263   0.996   3.921
12394SOL    HW138623   5.193   0.940   3.953
12394SOL    HW238624   5.301   1.035   4.000
12395SOL     OW38625   4.924   1.811   5.346
12395SOL    HW138626   4.923   1.877   5.276
12395SOL    HW238627   4.935   1.728   5.301
12396SOL     OW38628   4.041   0.238   5.510
12396SOL    HW138629   4.103   0.307   5.533
12396SOL    HW238630   3.962   0.260   5.560
12397SOL     OW38631   5.200   1.409   4.672
12397SOL    HW138632   5.130   1.431   4.733
12397SOL    HW238633   5.178   1.321   4.641
12398SOL     OW38634   5.399   1.742   4.296
12398SOL    HW138635   5.355   1.716   4.215
12398SOL    HW238636   5.367   1.679   4.361
12399SOL     OW38637   4.328   0.736   3.999
12399SOL    HW138638   4.330   0.806   3.934
12399SOL    HW238639   4.317   0.781   4.083
12400SOL     OW38640   5.021   0.357   4.655
12400SOL    HW138641   4.928   0.336   4.657
12400SOL    HW238642   5.060   0.303   4.724
12401SOL     OW38643   5.302   1.674   4.037
12401SOL    HW138644   5.393   1.704   4.027
12401SOL    HW238645   5.274   1.651   3.948
12402SOL     OW38646   4.514   0.629   5.174
12402SOL    HW138647   4.483   0.602   5.260
12402SOL    HW238648   4.479   0.563   5.114
12403SOL     OW38649   5.137   0.490   5.404
12403SOL    HW138650   5.133   0.537   5.488
12403SOL    HW238651   5.220   0.442   5.408
12404SOL     OW38652   4.669   0.889   5.306
12404SOL    HW138653   4.725   0.822   5.268
12404SOL    HW238654   4.625   0.929   5.231
12405SOL     OW38655   4.719   0.407   4.951
12405SOL    HW138656   4.632   0.438   4.975
12405SOL    HW238657   4.710   0.379   4.860
12406SOL     OW38658   4.784   0.698   4.151
12406SOL    HW138659   4.802   0.701   4.244
12406SOL    HW238660   4.697   0.659   4.145
12407SOL     OW38661   3.806   0.808   4.503
12407SOL    HW138662   3.885   0.815   4.556
12407SOL    HW238663   3.750   0.880   4.532
12408SOL     OW38664   3.832   1.790   5.296
12408SOL    HW138665   3.842   1.806   5.390
12408SOL    HW238666   3.813   1.876   5.259
12409SOL     OW38667   4.615   0.359   3.929
12409SOL    HW138668   4.654   0.411   3.858
12409SOL    HW238669   4.580   0.282   3.884
12410SOL     OW38670   5.443   0.571   5.554
12410SOL    HW138671   5.401   0.645   5.510
12410SOL    HW238672   5.464   0.511   5.483
12411SOL     OW38673   5.112   1.145   4.291
12411SOL    HW138674   5.144   1.167   4.203
12411SOL    HW238675   5.020   1.171   4.291
12412SOL     OW38676   4.305   0.246   4.641
12412SOL    HW138677   4.276   0.259   4.732
12412SOL    HW238678   4.287   0.330   4.598
12413SOL     OW38679   4.724   1.448   4.186
12413SOL    HW138680   4.692   1.524   4.137
12413SOL    HW238681   4.694   1.465   4.276
12414SOL     OW38682   4.075   1.812   4.591
12414SOL    HW138683   4.123   1.732   4.610
12414SOL    HW238684   4.131   1.882   4.623
12415SOL     OW38685   5.528   1.061   4.581
12415SOL    HW138686   5.473   1.031   4.509
12415SOL    HW238687   5.469   1.069   4.656
12416SOL     OW38688   4.952   1.541   5.234
12416SOL    HW138689   4.938   1.466   5.293
12416SOL    HW238690   4.876   1.540   5.176
12417SOL     OW38691   4.051   0.942   3.985
12417SOL    HW138692   4.136   0.966   3.948
12417SOL    HW238693   4.005   0.897   3.915
12418SOL     OW38694   5.268   0.711   4.456
12418SOL    HW138695   5.208   0.697   4.529
12418SOL    HW238696   5.276   0.806   4.448
12419SOL     OW38697   4.189   1.256   5.451
12419SOL    HW138698   4.119   1.274   5.388
12419SOL    HW238699   4.147   1.268   5.537
12420SOL     OW38700   4.843   1.776   3.947
12420SOL    HW138701   4.764   1.749   3.993
12420SOL    HW238702   4.862   1.705   3.886
12421SOL     OW38703   3.897   0.249   5.228
12421SOL    HW138704   3.854   0.329   5.199
12421SOL    HW238705   3.919   0.266   5.320
12422SOL     OW38706   5.354   1.378   3.787
12422SOL    HW138707   5.310   1.462   3.787
12422SOL    HW238708   5.284   1.313   3.783
12423SOL     OW38709   4.183   1.737   4.045
12423SOL    HW138710   4.228   1.794   4.108
12423SOL    HW238711   4.253   1.704   3.989
12424SOL     OW38712   5.137   0.127   4.134
12424SOL    HW138713   5.141   0.097   4.043
12424SOL    HW238714   5.229   0.136   4.160
12425SOL     OW38715   3.979   1.712   4.936
12425SOL    HW138716   4.000   1.800   4.968
12425SOL    HW238717   3.937   1.726   4.852
12426SOL     OW38718   4.668   1.699   4.619
12426SOL    HW138719   4.743   1.644   4.643
12426SOL    HW238720   4.624   1.651   4.549
12427SOL     OW38721   4.097   0.636   4.203
12427SOL    HW138722   4.095   0.677   4.117
12427SOL    HW238723   4.010   0.651   4.239
12428SOL     OW38724   5.278   0.207   5.451
12428SOL    HW138725   5.286   0.237   5.542
12428SOL    HW238726   5.186   0.182   5.442
12429SOL     OW38727   4.309   0.144   3.834
12429SOL    HW138728   4.384   0.097   3.870
12429SOL    HW238729   4.284   0.094   3.756
12430SOL     OW38730   4.444   0.302   5.495
12430SOL    HW138731   4.532   0.266   5.492
12430SOL    HW238732   4.406   0.268   5.576
12431SOL     OW38733   4.606   1.519   4.914
12431SOL    HW138734   4.589   1.484   4.826
12431SOL    HW238735   4.680   1.467   4.946
12432SOL     OW38736   5.063   0.593   5.157
12432SOL    HW138737   5.099   0.569   5.243
12432SOL    HW238738   5.096   0.682   5.142
12433SOL     OW38739   4.540   1.387   4.671
12433SOL    HW138740   4.626   1.377   4.630
12433SOL    HW238741   4.480   1.398   4.597
12434SOL     OW38742   4.647   0.509   4.619
12434SOL    HW138743   4.613   0.503   4.530
12434SOL    HW238744   4.688   0.425   4.636
12435SOL     OW38745   4.318   0.038   4.161
12435SOL    HW138746   4.251  -0.017   4.202
12435SOL    HW238747   4.280   0.126   4.163
12436SOL     OW38748   5.147   1.201   3.763
12436SOL    HW138749   5.169   1.125   3.816
12436SOL    HW238750   5.061   1.229   3.794
12437SOL     OW38751   4.004   0.046   3.916
12437SOL    HW138752   4.052   0.100   3.853
12437SOL    HW238753   4.072   0.005   3.970
12438SOL     OW38754   4.676   0.263   4.180
12438SOL    HW138755   4.648   0.294   4.094
12438SOL    HW238756   4.770   0.278   4.182
12439SOL     OW38757   4.804   0.687   5.184
12439SOL    HW138758   4.742   0.615   5.195
12439SOL    HW238759   4.890   0.643   5.178
12440SOL     OW38760   4.958   1.575   4.520
12440SOL    HW138761   4.961   1.641   4.451
12440SOL    HW238762   5.010   1.613   4.591
12441SOL     OW38763   4.198   1.151   4.447
12441SOL    HW138764   4.130   1.136   4.511
12441SOL    HW238765   4.154   1.143   4.362
12442SOL     OW38766   4.985   1.790   4.337
12442SOL    HW138767   5.032   1.857   4.288
12442SOL    HW238768   4.911   1.837   4.376
12443SOL     OW38769   4.744   0.536   3.750
12443SOL    HW138770   4.699   0.617   3.726
12443SOL    HW238771   4.802   0.561   3.821
12444SOL     OW38772   3.823   0.545   5.136
12444SOL    HW138773   3.911   0.553   5.099
12444SOL    HW238774   3.815   0.621   5.194
12445SOL     OW38775   4.289   0.237   4.922
12445SOL    HW138776   4.328   0.181   4.989
12445SOL    HW238777   4.194   0.228   4.936
12446SOL     OW38778   4.564   0.440   4.362
12446SOL    HW138779   4.538   0.511   4.303
12446SOL    HW238780   4.609   0.377   4.306
12447SOL     OW38781   4.702   8.029   4.523
12447SOL    HW138782   4.656   8.034   4.439
12447SOL    HW238783   4.718   7.935   4.536
12448SOL     OW38784   5.156   1.155   4.575
12448SOL    HW138785   5.080   1.100   4.594
12448SOL    HW238786   5.160   1.159   4.479
12449SOL     OW38787   5.170   0.606   4.699
12449SOL    HW138788   5.117   0.526   4.701
12449SOL    HW238789   5.231   0.597   4.772
12450SOL     OW38790   5.608   0.811   4.093
12450SOL    HW138791   5.642   0.758   4.165
12450SOL    HW238792   5.563   0.749   4.036
12451SOL     OW38793   4.219   1.423   3.876
12451SOL    HW138794   4.141   1.390   3.922
12451SOL    HW238795   4.216   1.379   3.791
12452SOL     OW38796   5.414   1.286   4.335
12452SOL    HW138797   5.502   1.289   4.374
12452SOL    HW238798   5.368   1.360   4.375
12453SOL     OW38799   5.121   0.576   3.802
12453SOL    HW138800   5.050   0.557   3.863
12453SOL    HW238801   5.201   0.563   3.854
12454SOL     OW38802   4.216   0.288   4.047
12454SOL    HW138803   4.250   0.229   3.980
12454SOL    HW238804   4.202   0.371   4.001
12455SOL     OW38805   5.472   1.223   5.270
12455SOL    HW138806   5.559   1.187   5.257
12455SOL    HW238807   5.488   1.313   5.300
12456SOL     OW38808   4.780   1.351   5.055
12456SOL    HW138809   4.706   1.321   5.109
12456SOL    HW238810   4.856   1.311   5.096
12457SOL     OW38811   5.347   1.626   5.384
12457SOL    HW138812   5.335   1.660   5.295
12457SOL    HW238813   5.431   1.581   5.381
12458SOL     OW38814   4.872   1.217   4.827
12458SOL    HW138815   4.804   1.247   4.888
12458SOL    HW238816   4.839   1.242   4.740
12459SOL     OW38817   5.355   1.102   4.794
12459SOL    HW138818   5.347   1.165   4.865
12459SOL    HW238819   5.276   1.115   4.741
12460SOL     OW38820   4.649   0.121   5.127
12460SOL    HW138821   4.657   0.107   5.032
12460SOL    HW238822   4.739   0.119   5.159
12461SOL     OW38823   4.709   1.116   5.450
12461SOL    HW138824   4.618   1.133   5.474
12461SOL    HW238825   4.705   1.039   5.394
12462SOL     OW38826   4.442   1.065   4.100
12462SOL    HW138827   4.428   1.042   4.192
12462SOL    HW238828   4.514   1.008   4.072
12463SOL     OW38829   4.134   0.826   4.990
12463SOL    HW138830   4.209   0.834   5.049
12463SOL    HW238831   4.108   0.734   4.997
12464SOL     OW38832   4.988   0.381   5.002
12464SOL    HW138833   5.020   0.460   5.045
12464SOL    HW238834   4.898   0.402   4.977
12465SOL     OW38835   3.767   1.575   5.054
12465SOL    HW138836   3.704   1.620   4.997
12465SOL    HW238837   3.847   1.628   5.048
12466SOL     OW38838   4.063   1.120   4.206
12466SOL    HW138839   4.058   1.197   4.149
12466SOL    HW238840   4.061   1.046   4.145
12467SOL     OW38841   4.279   0.525   4.583
12467SOL    HW138842   4.290   0.585   4.509
12467SOL    HW238843   4.341   0.557   4.649
12468SOL     OW38844   4.972   1.357   4.107
12468SOL    HW138845   5.027   1.423   4.151
12468SOL    HW238846   4.884   1.373   4.141
12469SOL     OW38847   5.018   1.461   4.868
12469SOL    HW138848   5.069   1.463   4.950
12469SOL    HW238849   4.963   1.383   4.877
12470SOL     OW38850   5.307   0.639   4.192
12470SOL    HW138851   5.290   0.657   4.285
12470SOL    HW238852   5.265   0.711   4.146
12471SOL     OW38853   4.091   1.498   5.062
12471SOL    HW138854   4.049   1.572   5.018
12471SOL    HW238855   4.183   1.524   5.069
12472SOL     OW38856   4.154   0.740   5.336
12472SOL    HW138857   4.205   0.791   5.273
12472SOL    HW238858   4.211   0.667   5.361
12473SOL     OW38859   5.334   0.772   5.407
12473SOL    HW138860   5.249   0.815   5.410
12473SOL    HW238861   5.383   0.818   5.338
12474SOL     OW38862   4.772   0.082   5.478
12474SOL    HW138863   4.786   0.169   5.442
12474SOL    HW238864   4.679   0.064   5.462
12475SOL     OW38865   4.230   0.031   5.458
12475SOL    HW138866   4.205  -0.030   5.388
12475SOL    HW238867   4.159   0.095   5.460
12476SOL     OW38868   4.292   0.861   4.740
12476SOL    HW138869   4.361   0.922   4.712
12476SOL    HW238870   4.262   0.896   4.824
12477SOL     OW38871   5.068   0.858   4.741
12477SOL    HW138872   4.981   0.849   4.703
12477SOL    HW238873   5.108   0.772   4.731
12478SOL     OW38874   4.924   0.529   3.985
12478SOL    HW138875   4.928   0.452   4.041
12478SOL    HW238876   4.883   0.596   4.039
12479SOL     OW38877   4.024   0.198   4.954
12479SOL    HW138878   3.949   0.203   5.014
12479SOL    HW238879   4.014   0.113   4.911
12480SOL     OW38880   3.808   1.315   5.020
12480SOL    HW138881   3.769   1.278   5.100
12480SOL    HW238882   3.790   1.408   5.026
12481SOL     OW38883   4.443   0.629   4.775
12481SOL    HW138884   4.523   0.622   4.722
12481SOL    HW238885   4.410   0.717   4.757
12482SOL     OW38886   5.481   0.946   5.576
12482SOL    HW138887   5.427   0.886   5.524
12482SOL    HW238888   5.428   0.964   5.653
12483SOL     OW38889   4.129   0.082   4.405
12483SOL    HW138890   4.047   0.131   4.411
12483SOL    HW238891   4.107   0.004   4.353
12484SOL     OW38892   5.364   0.395   4.084
12484SOL    HW138893   5.363   0.325   4.149
12484SOL    HW238894   5.336   0.473   4.132
12485SOL     OW38895   4.806   0.726   4.692
12485SOL    HW138896   4.772   0.765   4.773
12485SOL    HW238897   4.746   0.653   4.674
12486SOL     OW38898   4.705   1.571   5.446
12486SOL    HW138899   4.681   1.613   5.363
12486SOL    HW238900   4.752   1.492   5.421
12487SOL     OW38901   4.069   0.911   5.537
12487SOL    HW138902   4.148   0.943   5.580
12487SOL    HW238903   4.101   0.850   5.471
12488SOL     OW38904   5.314   0.280   3.843
12488SOL    HW138905   5.219   0.278   3.838
12488SOL    HW238906   5.333   0.318   3.928
12489SOL     OW38907   5.013   0.826   3.753
12489SOL    HW138908   5.053   0.740   3.758
12489SOL    HW238909   5.043   0.861   3.669
12490SOL     OW38910   4.796   1.352   4.590
12490SOL    HW138911   4.798   1.275   4.535
12490SOL    HW238912   4.857   1.413   4.549
12491SOL     OW38913   4.025   0.812   4.673
12491SOL    HW138914   4.118   0.837   4.677
12491SOL    HW238915   4.023   0.721   4.702
12492SOL     OW38916   4.058   0.537   4.741
12492SOL    HW138917   4.018   0.453   4.719
12492SOL    HW238918   4.134   0.544   4.683
12493SOL     OW38919   4.896   0.363   5.436
12493SOL    HW138920   4.828   0.422   5.468
12493SOL    HW238921   4.972   0.419   5.420
12494SOL     OW38922   4.903   0.214   5.202
12494SOL    HW138923   4.898   0.270   5.280
12494SOL    HW238924   4.927   0.273   5.131
12495SOL     OW38925   3.729   1.315   3.914
12495SOL    HW138926   3.640   1.330   3.881
12495SOL    HW238927   3.725   1.228   3.954
12496SOL     OW38928   3.816   1.773   4.677
12496SOL    HW138929   3.789   1.697   4.627
12496SOL    HW238930   3.902   1.797   4.640
12497SOL     OW38931   4.219   1.569   4.642
12497SOL    HW138932   4.284   1.638   4.657
12497SOL    HW238933   4.259   1.514   4.574
12498SOL     OW38934   4.701   0.781   4.944
12498SOL    HW138935   4.755   0.763   5.021
12498SOL    HW238936   4.611   0.765   4.973
12499SOL     OW38937   3.760   0.535   4.849
12499SOL    HW138938   3.830   0.546   4.784
12499SOL    HW238939   3.804   0.546   4.933
12500SOL     OW38940   3.921   0.529   5.451
12500SOL    HW138941   4.001   0.517   5.399
12500SOL    HW238942   3.877   0.603   5.409
12501SOL     OW38943   5.111   0.928   5.377
12501SOL    HW138944   5.131   1.021   5.378
12501SOL    HW238945   5.106   0.905   5.285
12502SOL     OW38946   4.540   0.573   4.103
12502SOL    HW138947   4.552   0.501   4.040
12502SOL    HW238948   4.474   0.629   4.064
12503SOL     OW38949   5.360   0.601   4.898
12503SOL    HW138950   5.352   0.551   4.979
12503SOL    HW238951   5.447   0.578   4.864
12504SOL     OW38952   4.016   1.550   5.476
12504SOL    HW138953   3.971   1.627   5.511
12504SOL    HW238954   3.968   1.476   5.512
12505SOL     OW38955   4.443   0.456   4.982
12505SOL    HW138956   4.386   0.383   4.959
12505SOL    HW238957   4.434   0.517   4.909
12506SOL     OW38958   4.658   1.671   5.191
12506SOL    HW138959   4.623   1.635   5.109
12506SOL    HW238960   4.651   1.765   5.180
12507SOL     OW38961   4.176   0.519   3.927
12507SOL    HW138962   4.232   0.596   3.939
12507SOL    HW238963   4.092   0.554   3.900
12508SOL     OW38964   3.950   1.144   5.210
12508SOL    HW138965   3.915   1.113   5.293
12508SOL    HW238966   3.924   1.077   5.147
12509SOL     OW38967   5.047   1.042   4.939
12509SOL    HW138968   5.062   0.977   4.870
12509SOL    HW238969   4.984   1.102   4.902
12510SOL     OW38970   5.056   0.850   4.029
12510SOL    HW138971   4.983   0.845   4.090
12510SOL    HW238972   5.015   0.848   3.942
12511SOL     OW38973   5.456   1.747   4.846
12511SOL    HW138974   5.534   1.772   4.796
12511SOL    HW238975   5.452   1.652   4.838
12512SOL     OW38976   4.967   1.729   4.822
12512SOL    HW138977   5.051   1.754   4.785
12512SOL    HW238978   4.977   1.637   4.845
12513SOL     OW38979   3.809   1.241   4.758
12513SOL    HW138980   3.799   1.262   4.850
12513SOL    HW238981   3.732   1.280   4.716
12514SOL     OW38982   4.391   1.671   5.441
12514SOL    HW138983   4.327   1.739   5.461
12514SOL    HW238984   4.424   1.694   5.354
12515SOL     OW38985   5.398   0.145   4.226
12515SOL    HW138986   5.485   0.115   4.198
12515SOL    HW238987   5.381   0.098   4.307
12516SOL     OW38988   5.118   1.571   4.221
12516SOL    HW138989   5.171   1.610   4.152
12516SOL    HW238990   5.062   1.642   4.252
12517SOL     OW38991   3.886   1.776   5.566
12517SOL    HW138992   3.829   1.724   5.622
12517SOL    HW238993   3.935   1.832   5.627
12518SOL     OW38994   5.032   0.906   4.403
12518SOL    HW138995   5.084   0.970   4.355
12518SOL    HW238996   4.952   0.953   4.426
12519SOL     OW38997   4.528   1.285   5.153
12519SOL    HW138998   4.496   1.317   5.237
12519SOL    HW238999   4.484   1.340   5.088
12520SOL     OW39000   4.385   1.638   3.871
12520SOL    HW139001   4.406   1.643   3.777
12520SOL    HW239002   4.334   1.558   3.880
12521SOL     OW39003   5.346   1.731   5.105
12521SOL    HW139004   5.375   1.743   5.015
12521SOL    HW239005   5.331   1.819   5.139
12522SOL     OW39006   5.582   0.164   4.666
12522SOL    HW139007   5.574   0.079   4.710
12522SOL    HW239008   5.492   0.186   4.641
12523SOL     OW39009   3.990   0.355   4.419
12523SOL    HW139010   3.897   0.362   4.398
12523SOL    HW239011   3.992   0.334   4.513
12524SOL     OW39012   4.944   1.596   3.753
12524SOL    HW139013   4.928   1.510   3.791
12524SOL    HW239014   4.875   1.607   3.688
12525SOL     OW39015   4.545   1.017   5.092
12525SOL    HW139016   4.578   1.017   5.002
12525SOL    HW239017   4.539   1.109   5.115
12526SOL     OW39018   4.637   0.901   4.012
12526SOL    HW139019   4.693   0.941   3.945
12526SOL    HW239020   4.696   0.845   4.062
12527SOL     OW39021   5.216   1.620   3.762
12527SOL    HW139022   5.122   1.601   3.765
12527SOL    HW239023   5.221   1.712   3.733
12528SOL     OW39024   5.346   1.291   5.004
12528SOL    HW139025   5.393   1.268   5.084
12528SOL    HW239026   5.281   1.355   5.033
12529SOL     OW39027   4.763   0.259   4.670
12529SOL    HW139028   4.745   0.201   4.597
12529SOL    HW239029   4.765   0.201   4.747
12530SOL     OW39030   4.332   1.484   4.200
12530SOL    HW139031   4.376   1.436   4.130
12530SOL    HW239032   4.255   1.521   4.158
12531SOL     OW39033   5.448   0.419   5.102
12531SOL    HW139034   5.522   0.480   5.108
12531SOL    HW239035   5.480   0.346   5.050
12532SOL     OW39036   3.989   1.335   4.027
12532SOL    HW139037   3.900   1.337   3.993
12532SOL    HW239038   3.984   1.382   4.110
12533SOL     OW39039   3.837   1.050   5.455
12533SOL    HW139040   3.761   1.014   5.502
12533SOL    HW239041   3.912   1.002   5.491
12534SOL     OW39042   4.392   0.220   5.222
12534SOL    HW139043   4.469   0.170   5.194
12534SOL    HW239044   4.411   0.244   5.313
12535SOL     OW39045   3.803   0.326   3.749
12535SOL    HW139046   3.708   0.322   3.745
12535SOL    HW239047   3.826   0.404   3.698
12536SOL     OW39048   5.149   0.855   5.115
12536SOL    HW139049   5.097   0.916   5.061
12536SOL    HW239050   5.238   0.862   5.080
12537SOL     OW39051   3.844   0.243   4.045
12537SOL    HW139052   3.809   0.280   3.964
12537SOL    HW239053   3.885   0.160   4.018
12538SOL     OW39054   4.908   1.338   3.838
12538SOL    HW139055   4.813   1.338   3.832
12538SOL    HW239056   4.926   1.334   3.932
12539SOL     OW39057   4.345   0.840   5.159
12539SOL    HW139058   4.400   0.916   5.142
12539SOL    HW239059   4.407   0.767   5.168
12540SOL     OW39060   5.212   1.786   4.706
12540SOL    HW139061   5.227   1.860   4.648
12540SOL    HW239062   5.294   1.775   4.754
12541SOL     OW39063   4.419   0.573   5.422
12541SOL    HW139064   4.475   0.629   5.476
12541SOL    HW239065   4.434   0.485   5.456
12542SOL     OW39066   5.198   1.189   5.352
12542SOL    HW139067   5.188   1.208   5.446
12542SOL    HW239068   5.291   1.208   5.334
12543SOL     OW39069   4.105   1.735   5.285
12543SOL    HW139070   4.021   1.769   5.255
12543SOL    HW239071   4.082   1.659   5.340
12544SOL     OW39072   5.389   0.882   4.971
12544SOL    HW139073   5.375   0.799   4.925
12544SOL    HW239074   5.377   0.949   4.904
12545SOL     OW39075   4.945   0.320   4.177
12545SOL    HW139076   5.009   0.250   4.169
12545SOL    HW239077   4.973   0.369   4.254
12546SOL     OW39078   4.313   0.714   4.387
12546SOL    HW139079   4.351   0.802   4.386
12546SOL    HW239080   4.240   0.718   4.326
12547SOL     OW39081   5.481   0.376   5.368
12547SOL    HW139082   5.461   0.391   5.275
12547SOL    HW239083   5.419   0.308   5.395
12548SOL     OW39084   5.469   0.928   5.231
12548SOL    HW139085   5.457   1.021   5.251
12548SOL    HW239086   5.451   0.921   5.137
12549SOL     OW39087   4.640   1.396   3.791
12549SOL    HW139088   4.589   1.370   3.867
12549SOL    HW239089   4.575   1.410   3.722
12550SOL     OW39090   4.388   1.780   4.652
12550SOL    HW139091   4.359   1.871   4.641
12550SOL    HW239092   4.484   1.785   4.653
12551SOL     OW39093   4.559   0.939   4.632
12551SOL    HW139094   4.638   0.956   4.582
12551SOL    HW239095   4.549   1.017   4.688
12552SOL     OW39096   4.811   0.997   3.825
12552SOL    HW139097   4.778   1.045   3.750
12552SOL    HW239098   4.876   0.936   3.789
12553SOL     OW39099   5.566   1.543   4.569
12553SOL    HW139100   5.488   1.544   4.513
12553SOL    HW239101   5.535   1.509   4.653
12554SOL     OW39102   3.934   1.305   5.582
12554SOL    HW139103   3.883   1.235   5.542
12554SOL    HW239104   3.892   1.320   5.666
12555SOL     OW39105   3.811   1.217   4.394
12555SOL    HW139106   3.846   1.173   4.471
12555SOL    HW239107   3.874   1.197   4.324
12556SOL     OW39108   4.405   1.403   5.365
12556SOL    HW139109   4.322   1.365   5.392
12556SOL    HW239110   4.399   1.495   5.391
12557SOL     OW39111   5.561   0.221   4.956
12557SOL    HW139112   5.491   0.157   4.954
12557SOL    HW239113   5.574   0.247   4.865
12558SOL     OW39114   5.431   1.475   4.802
12558SOL    HW139115   5.347   1.458   4.758
12558SOL    HW239116   5.431   1.416   4.877
12559SOL     OW39117   4.062   0.561   5.017
12559SOL    HW139118   4.116   0.500   5.067
12559SOL    HW239119   4.078   0.539   4.925
12560SOL     OW39120   4.560   1.583   4.395
12560SOL    HW139121   4.536   1.657   4.339
12560SOL    HW239122   4.482   1.526   4.394
12561SOL     OW39123   5.149   0.212   4.849
12561SOL    HW139124   5.212   0.165   4.904
12561SOL    HW239125   5.097   0.264   4.910
12562SOL     OW39126   4.735   0.068   4.862
12562SOL    HW139127   4.648   0.056   4.825
12562SOL    HW239128   4.763  -0.019   4.888
12563SOL     OW39129   4.510   1.327   4.035
12563SOL    HW139130   4.478   1.238   4.052
12563SOL    HW239131   4.584   1.338   4.095
12564SOL     OW39132   4.364   1.538   5.029
12564SOL    HW139133   4.356   1.622   5.074
12564SOL    HW239134   4.443   1.545   4.977
12565SOL     OW39135   5.063   7.984   3.884
12565SOL    HW139136   5.110   7.900   3.881
12565SOL    HW239137   4.987   7.967   3.940
12566SOL     OW39138   5.031   0.459   4.399
12566SOL    HW139139   4.979   0.540   4.399
12566SOL    HW239140   5.026   0.428   4.489
12567SOL     OW39141   5.329   0.227   4.603
12567SOL    HW139142   5.250   0.234   4.657
12567SOL    HW239143   5.328   0.304   4.547
12568SOL     OW39144   3.764   1.069   4.041
12568SOL    HW139145   3.858   1.064   4.024
12568SOL    HW239146   3.738   0.979   4.059
12569SOL     OW39147   4.613   1.668   4.058
12569SOL    HW139148   4.538   1.651   4.001
12569SOL    HW239149   4.583   1.736   4.117
12570SOL     OW39150   3.939   0.623   5.717
12570SOL    HW139151   3.848   0.624   5.747
12570SOL    HW239152   3.933   0.610   5.622
12571SOL     OW39153   3.965   0.285   6.570
12571SOL    HW139154   3.992   0.253   6.656
12571SOL    HW239155   3.880   0.244   6.554
12572SOL     OW39156   3.723   0.393   6.201
12572SOL    HW139157   3.636   0.407   6.239
12572SOL    HW239158   3.709   0.332   6.129
12573SOL     OW39159   4.278   1.290   6.762
12573SOL    HW139160   4.198   1.309   6.714
12573SOL    HW239161   4.301   1.373   6.803
12574SOL     OW39162   5.271   1.524   6.284
12574SOL    HW139163   5.222   1.580   6.345
12574SOL    HW239164   5.216   1.521   6.206
12575SOL     OW39165   4.858   0.696   6.286
12575SOL    HW139166   4.907   0.775   6.261
12575SOL    HW239167   4.814   0.720   6.367
12576SOL     OW39168   5.525   0.597   5.810
12576SOL    HW139169   5.491   0.599   5.721
12576SOL    HW239170   5.475   0.528   5.853
12577SOL     OW39171   4.465   1.131   6.641
12577SOL    HW139172   4.397   1.173   6.694
12577SOL    HW239173   4.505   1.203   6.592
12578SOL     OW39174   4.403   0.982   6.236
12578SOL    HW139175   4.473   0.986   6.302
12578SOL    HW239176   4.338   1.046   6.266
12579SOL     OW39177   4.444   1.160   7.394
12579SOL    HW139178   4.485   1.242   7.422
12579SOL    HW239179   4.361   1.186   7.355
12580SOL     OW39180   4.048   1.427   6.631
12580SOL    HW139181   3.972   1.460   6.584
12580SOL    HW239182   4.123   1.472   6.591
12581SOL     OW39183   5.204   1.495   6.966
12581SOL    HW139184   5.246   1.581   6.966
12581SOL    HW239185   5.117   1.510   7.003
12582SOL     OW39186   4.173   0.389   7.073
12582SOL    HW139187   4.255   0.339   7.069
12582SOL    HW239188   4.104   0.323   7.077
12583SOL     OW39189   5.328   0.461   6.299
12583SOL    HW139190   5.245   0.469   6.253
12583SOL    HW239191   5.359   0.551   6.309
12584SOL     OW39192   3.949   1.702   6.059
12584SOL    HW139193   3.962   1.780   6.112
12584SOL    HW239194   4.010   1.712   5.986
12585SOL     OW39195   4.900   1.342   7.270
12585SOL    HW139196   4.900   1.387   7.355
12585SOL    HW239197   4.844   1.266   7.283
12586SOL     OW39198   3.950   1.443   6.133
12586SOL    HW139199   3.956   1.536   6.111
12586SOL    HW239200   3.885   1.439   6.204
12587SOL     OW39201   3.978   1.083   6.476
12587SOL    HW139202   4.000   0.991   6.489
12587SOL    HW239203   3.963   1.117   6.564
12588SOL     OW39204   4.345   1.761   7.030
12588SOL    HW139205   4.255   1.772   7.061
12588SOL    HW239206   4.382   1.849   7.032
12589SOL     OW39207   4.300   0.989   5.725
12589SOL    HW139208   4.349   1.034   5.656
12589SOL    HW239209   4.339   1.021   5.806
12590SOL     OW39210   5.385   0.114   7.076
12590SOL    HW139211   5.323   0.116   7.003
12590SOL    HW239212   5.337   0.153   7.149
12591SOL     OW39213   3.851   0.649   6.150
12591SOL    HW139214   3.808   0.566   6.166
12591SOL    HW239215   3.839   0.698   6.232
12592SOL     OW39216   5.565   1.755   5.923
12592SOL    HW139217   5.639   1.732   5.979
12592SOL    HW239218   5.581   1.846   5.898
12593SOL     OW39219   3.761   1.592   5.719
12593SOL    HW139220   3.737   1.503   5.748
12593SOL    HW239221   3.735   1.648   5.791
12594SOL     OW39222   5.419   0.904   6.217
12594SOL    HW139223   5.476   0.861   6.154
12594SOL    HW239224   5.387   0.982   6.171
12595SOL     OW39225   5.356   1.112   6.048
12595SOL    HW139226   5.329   1.061   5.972
12595SOL    HW239227   5.422   1.173   6.014
12596SOL     OW39228   3.838   0.750   7.169
12596SOL    HW139229   3.924   0.792   7.175
12596SOL    HW239230   3.776   0.822   7.172
12597SOL     OW39231   4.335   1.386   6.319
12597SOL    HW139232   4.288   1.303   6.319
12597SOL    HW239233   4.320   1.422   6.231
12598SOL     OW39234   4.993   1.193   7.020
12598SOL    HW139235   5.043   1.151   6.950
12598SOL    HW239236   5.058   1.214   7.087
12599SOL     OW39237   4.567   0.037   6.160
12599SOL    HW139238   4.607   0.112   6.115
12599SOL    HW239239   4.476   0.037   6.130
12600SOL     OW39240   3.905   0.965   6.860
12600SOL    HW139241   3.991   0.926   6.845
12600SOL    HW239242   3.847   0.917   6.800
12601SOL     OW39243   4.928   1.786   7.226
12601SOL    HW139244   4.927   1.874   7.188
12601SOL    HW239245   4.940   1.728   7.151
12602SOL     OW39246   4.033   0.230   7.368
12602SOL    HW139247   4.097   0.298   7.391
12602SOL    HW239248   3.954   0.256   7.416
12603SOL     OW39249   5.192   1.423   6.546
12603SOL    HW139250   5.117   1.469   6.584
12603SOL    HW239251   5.175   1.422   6.452
12604SOL     OW39252   5.391   1.751   6.166
12604SOL    HW139253   5.378   1.731   6.073
12604SOL    HW239254   5.354   1.675   6.212
12605SOL     OW39255   4.321   0.724   5.858
12605SOL    HW139256   4.330   0.806   5.810
12605SOL    HW239257   4.258   0.743   5.927
12606SOL     OW39258   5.020   0.367   6.525
12606SOL    HW139259   4.928   0.343   6.527
12606SOL    HW239260   5.062   0.310   6.589
12607SOL     OW39261   5.303   1.674   5.893
12607SOL    HW139262   5.394   1.700   5.885
12607SOL    HW239263   5.274   1.658   5.803
12608SOL     OW39264   4.496   0.638   7.037
12608SOL    HW139265   4.500   0.605   7.126
12608SOL    HW239266   4.482   0.560   6.983
12609SOL     OW39267   5.135   0.489   7.267
12609SOL    HW139268   5.141   0.531   7.353
12609SOL    HW239269   5.197   0.416   7.272
12610SOL     OW39270   4.645   0.887   7.196
12610SOL    HW139271   4.698   0.813   7.166
12610SOL    HW239272   4.605   0.921   7.116
12611SOL     OW39273   4.723   0.413   6.802
12611SOL    HW139274   4.633   0.433   6.829
12611SOL    HW239275   4.714   0.388   6.710
12612SOL     OW39276   4.753   0.702   6.018
12612SOL    HW139277   4.781   0.690   6.109
12612SOL    HW239278   4.674   0.648   6.010
12613SOL     OW39279   3.812   0.799   6.376
12613SOL    HW139280   3.895   0.813   6.420
12613SOL    HW239281   3.765   0.882   6.385
12614SOL     OW39282   3.832   1.822   7.135
12614SOL    HW139283   3.823   1.810   7.229
12614SOL    HW239284   3.831   1.917   7.122
12615SOL     OW39285   4.619   0.353   5.791
12615SOL    HW139286   4.661   0.413   5.730
12615SOL    HW239287   4.630   0.266   5.752
12616SOL     OW39288   5.429   0.577   7.415
12616SOL    HW139289   5.395   0.651   7.365
12616SOL    HW239290   5.453   0.512   7.349
12617SOL     OW39291   5.093   1.143   6.131
12617SOL    HW139292   5.180   1.135   6.093
12617SOL    HW239293   5.046   1.203   6.073
12618SOL     OW39294   4.724   1.463   6.044
12618SOL    HW139295   4.705   1.534   5.982
12618SOL    HW239296   4.677   1.487   6.124
12619SOL     OW39297   4.082   1.827   6.481
12619SOL    HW139298   4.145   1.756   6.474
12619SOL    HW239299   4.135   1.906   6.488
12620SOL     OW39300   5.507   1.039   6.475
12620SOL    HW139301   5.533   1.072   6.388
12620SOL    HW239302   5.412   1.031   6.471
12621SOL     OW39303   4.954   1.528   7.074
12621SOL    HW139304   4.938   1.462   7.141
12621SOL    HW239305   4.866   1.557   7.048
12622SOL     OW39306   4.040   0.958   5.842
12622SOL    HW139307   4.123   0.985   5.803
12622SOL    HW239308   4.010   0.886   5.787
12623SOL     OW39309   5.207   0.754   6.314
12623SOL    HW139310   5.219   0.714   6.400
12623SOL    HW239311   5.289   0.800   6.297
12624SOL     OW39312   4.180   1.200   7.322
12624SOL    HW139313   4.161   1.227   7.232
12624SOL    HW239314   4.107   1.235   7.373
12625SOL     OW39315   3.908   0.262   7.085
12625SOL    HW139316   3.852   0.336   7.060
12625SOL    HW239317   3.915   0.268   7.180
12626SOL     OW39318   5.357   1.383   5.696
12626SOL    HW139319   5.319   1.466   5.666
12626SOL    HW239320   5.293   1.317   5.670
12627SOL     OW39321   4.225   1.709   5.928
12627SOL    HW139322   4.245   1.774   5.995
12627SOL    HW239323   4.267   1.742   5.849
12628SOL     OW39324   5.139   0.125   5.997
12628SOL    HW139325   5.154   0.119   5.902
12628SOL    HW239326   5.226   0.137   6.034
12629SOL     OW39327   3.964   1.786   6.819
12629SOL    HW139328   4.041   1.746   6.859
12629SOL    HW239329   3.983   1.785   6.725
12630SOL     OW39330   4.650   1.684   6.470
12630SOL    HW139331   4.737   1.646   6.482
12630SOL    HW239332   4.614   1.637   6.395
12631SOL     OW39333   4.127   0.691   6.067
12631SOL    HW139334   4.146   0.598   6.078
12631SOL    HW239335   4.032   0.698   6.076
12632SOL     OW39336   5.269   0.217   7.305
12632SOL    HW139337   5.277   0.245   7.397
12632SOL    HW239338   5.201   0.150   7.307
12633SOL     OW39339   4.318   0.133   5.692
12633SOL    HW139340   4.395   0.089   5.728
12633SOL    HW239341   4.298   0.085   5.612
12634SOL     OW39342   4.477   0.301   7.371
12634SOL    HW139343   4.524   0.223   7.342
12634SOL    HW239344   4.420   0.270   7.441
12635SOL     OW39345   4.586   1.490   6.778
12635SOL    HW139346   4.570   1.481   6.684
12635SOL    HW239347   4.672   1.451   6.792
12636SOL     OW39348   5.055   0.601   7.026
12636SOL    HW139349   5.098   0.571   7.106
12636SOL    HW239350   5.095   0.687   7.008
12637SOL     OW39351   4.543   1.365   6.516
12637SOL    HW139352   4.628   1.371   6.473
12637SOL    HW239353   4.480   1.384   6.446
12638SOL     OW39354   4.642   0.514   6.478
12638SOL    HW139355   4.611   0.506   6.387
12638SOL    HW239356   4.685   0.430   6.496
12639SOL     OW39357   4.318   0.072   6.057
12639SOL    HW139358   4.250   0.005   6.069
12639SOL    HW239359   4.275   0.140   6.005
12640SOL     OW39360   5.157   1.203   5.627
12640SOL    HW139361   5.184   1.125   5.676
12640SOL    HW239362   5.071   1.224   5.662
12641SOL     OW39363   4.012   0.062   5.797
12641SOL    HW139364   4.068   0.115   5.740
12641SOL    HW239365   4.027  -0.028   5.767
12642SOL     OW39366   4.672   0.261   6.046
12642SOL    HW139367   4.643   0.294   5.961
12642SOL    HW239368   4.767   0.274   6.047
12643SOL     OW39369   4.794   0.680   7.072
12643SOL    HW139370   4.737   0.603   7.069
12643SOL    HW239371   4.882   0.646   7.055
12644SOL     OW39372   4.990   1.585   6.393
12644SOL    HW139373   4.970   1.630   6.310
12644SOL    HW239374   5.027   1.654   6.449
12645SOL     OW39375   4.193   1.147   6.309
12645SOL    HW139376   4.121   1.135   6.371
12645SOL    HW239377   4.151   1.140   6.223
12646SOL     OW39378   4.985   1.787   6.196
12646SOL    HW139379   5.030   1.854   6.143
12646SOL    HW239380   4.911   1.834   6.235
12647SOL     OW39381   4.745   0.526   5.617
12647SOL    HW139382   4.706   0.609   5.590
12647SOL    HW239383   4.812   0.551   5.681
12648SOL     OW39384   3.819   0.552   6.986
12648SOL    HW139385   3.909   0.558   6.956
12648SOL    HW239386   3.808   0.624   7.048
12649SOL     OW39387   4.291   0.239   6.753
12649SOL    HW139388   4.325   0.156   6.786
12649SOL    HW239389   4.197   0.237   6.775
12650SOL     OW39390   4.556   0.440   6.221
12650SOL    HW139391   4.525   0.504   6.157
12650SOL    HW239392   4.608   0.378   6.169
12651SOL     OW39393   4.685   0.032   6.399
12651SOL    HW139394   4.641   0.038   6.315
12651SOL    HW239395   4.729  -0.053   6.398
12652SOL     OW39396   5.180   1.130   6.454
12652SOL    HW139397   5.116   1.089   6.396
12652SOL    HW239398   5.241   1.173   6.394
12653SOL     OW39399   5.189   0.610   6.559
12653SOL    HW139400   5.142   0.528   6.549
12653SOL    HW239401   5.248   0.596   6.634
12654SOL     OW39402   5.569   0.813   5.992
12654SOL    HW139403   5.632   0.754   6.034
12654SOL    HW239404   5.542   0.766   5.914
12655SOL     OW39405   4.200   1.422   5.718
12655SOL    HW139406   4.138   1.388   5.783
12655SOL    HW239407   4.145   1.465   5.653
12656SOL     OW39408   5.392   1.273   6.332
12656SOL    HW139409   5.476   1.262   6.287
12656SOL    HW239410   5.358   1.355   6.297
12657SOL     OW39411   5.127   0.579   5.659
12657SOL    HW139412   5.058   0.557   5.722
12657SOL    HW239413   5.203   0.601   5.713
12658SOL     OW39414   4.230   0.279   5.901
12658SOL    HW139415   4.263   0.225   5.829
12658SOL    HW239416   4.210   0.364   5.861
12659SOL     OW39417   5.488   1.231   7.160
12659SOL    HW139418   5.544   1.190   7.226
12659SOL    HW239419   5.506   1.325   7.169
12660SOL     OW39420   4.785   1.322   6.897
12660SOL    HW139421   4.705   1.319   6.950
12660SOL    HW239422   4.854   1.288   6.954
12661SOL     OW39423   5.333   1.597   7.238
12661SOL    HW139424   5.317   1.650   7.160
12661SOL    HW239425   5.423   1.565   7.227
12662SOL     OW39426   4.843   1.171   6.674
12662SOL    HW139427   4.802   1.222   6.743
12662SOL    HW239428   4.826   1.221   6.594
12663SOL     OW39429   4.635   0.123   6.966
12663SOL    HW139430   4.659   0.111   6.874
12663SOL    HW239431   4.719   0.125   7.012
12664SOL     OW39432   4.719   1.131   7.298
12664SOL    HW139433   4.643   1.189   7.287
12664SOL    HW239434   4.708   1.064   7.231
12665SOL     OW39435   4.427   1.056   5.961
12665SOL    HW139436   4.414   1.033   6.053
12665SOL    HW239437   4.504   1.006   5.934
12666SOL     OW39438   4.139   0.824   6.839
12666SOL    HW139439   4.207   0.841   6.904
12666SOL    HW239440   4.110   0.735   6.857
12667SOL     OW39441   4.983   0.382   6.877
12667SOL    HW139442   5.014   0.464   6.915
12667SOL    HW239443   4.896   0.404   6.843
12668SOL     OW39444   3.790   1.559   6.918
12668SOL    HW139445   3.756   1.644   6.891
12668SOL    HW239446   3.884   1.572   6.926
12669SOL     OW39447   4.061   1.122   6.071
12669SOL    HW139448   4.059   1.199   6.014
12669SOL    HW239449   4.060   1.047   6.011
12670SOL     OW39450   4.261   0.507   6.445
12670SOL    HW139451   4.270   0.568   6.373
12670SOL    HW239452   4.328   0.535   6.508
12671SOL     OW39453   4.967   1.351   5.981
12671SOL    HW139454   5.024   1.423   6.005
12671SOL    HW239455   4.880   1.379   6.010
12672SOL     OW39456   5.018   1.397   6.763
12672SOL    HW139457   5.043   1.486   6.786
12672SOL    HW239458   4.931   1.385   6.799
12673SOL     OW39459   5.297   0.639   6.055
12673SOL    HW139460   5.225   0.682   6.103
12673SOL    HW239461   5.327   0.706   5.994
12674SOL     OW39462   4.069   1.498   6.896
12674SOL    HW139463   4.054   1.471   6.805
12674SOL    HW239464   4.161   1.523   6.898
12675SOL     OW39465   4.145   0.744   7.193
12675SOL    HW139466   4.198   0.800   7.136
12675SOL    HW239467   4.186   0.657   7.186
12676SOL     OW39468   5.339   0.791   7.272
12676SOL    HW139469   5.254   0.832   7.262
12676SOL    HW239470   5.392   0.828   7.201
12677SOL     OW39471   4.781   0.099   7.352
12677SOL    HW139472   4.794   0.186   7.315
12677SOL    HW239473   4.691   0.076   7.328
12678SOL     OW39474   4.223   0.027   7.335
12678SOL    HW139475   4.204  -0.026   7.257
12678SOL    HW239476   4.155   0.095   7.334
12679SOL     OW39477   4.317   0.876   6.624
12679SOL    HW139478   4.356   0.963   6.618
12679SOL    HW239479   4.255   0.882   6.696
12680SOL     OW39480   5.068   0.847   6.614
12680SOL    HW139481   5.002   0.855   6.545
12680SOL    HW239482   5.110   0.763   6.596
12681SOL     OW39483   4.925   0.531   5.839
12681SOL    HW139484   4.925   0.460   5.904
12681SOL    HW239485   4.927   0.611   5.892
12682SOL     OW39486   4.027   0.205   6.825
12682SOL    HW139487   3.976   0.219   6.904
12682SOL    HW239488   4.013   0.113   6.803
12683SOL     OW39489   3.785   1.306   6.807
12683SOL    HW139490   3.811   1.250   6.880
12683SOL    HW239491   3.785   1.394   6.844
12684SOL     OW39492   4.430   0.624   6.631
12684SOL    HW139493   4.509   0.616   6.577
12684SOL    HW239494   4.403   0.715   6.621
12685SOL     OW39495   5.473   0.968   7.438
12685SOL    HW139496   5.429   0.898   7.389
12685SOL    HW239497   5.409   0.996   7.503
12686SOL     OW39498   4.096   0.097   6.273
12686SOL    HW139499   4.002   0.104   6.257
12686SOL    HW239500   4.121   0.016   6.229
12687SOL     OW39501   5.359   0.401   5.939
12687SOL    HW139502   5.367   0.330   6.002
12687SOL    HW239503   5.330   0.476   5.991
12688SOL     OW39504   4.748   0.760   6.544
12688SOL    HW139505   4.746   0.771   6.639
12688SOL    HW239506   4.718   0.670   6.530
12689SOL     OW39507   4.692   1.550   7.319
12689SOL    HW139508   4.663   1.634   7.282
12689SOL    HW239509   4.729   1.503   7.244
12690SOL     OW39510   5.588   1.492   7.175
12690SOL    HW139511   5.601   1.533   7.089
12690SOL    HW239512   5.644   1.542   7.234
12691SOL     OW39513   4.082   0.915   7.407
12691SOL    HW139514   4.137   0.989   7.383
12691SOL    HW239515   4.103   0.847   7.342
12692SOL     OW39516   5.292   0.278   5.706
12692SOL    HW139517   5.197   0.286   5.706
12692SOL    HW239518   5.320   0.322   5.786
12693SOL     OW39519   4.981   0.815   5.590
12693SOL    HW139520   5.045   0.753   5.624
12693SOL    HW239521   5.026   0.859   5.518
12694SOL     OW39522   4.817   1.342   6.451
12694SOL    HW139523   4.810   1.272   6.387
12694SOL    HW239524   4.872   1.408   6.409
12695SOL     OW39525   4.047   0.819   6.523
12695SOL    HW139526   4.141   0.832   6.512
12695SOL    HW239527   4.040   0.733   6.564
12696SOL     OW39528   4.045   0.542   6.608
12696SOL    HW139529   4.007   0.455   6.592
12696SOL    HW239530   4.121   0.545   6.550
12697SOL     OW39531   4.892   0.363   7.285
12697SOL    HW139532   4.831   0.418   7.335
12697SOL    HW239533   4.969   0.419   7.271
12698SOL     OW39534   4.886   0.211   7.062
12698SOL    HW139535   4.898   0.262   7.142
12698SOL    HW239536   4.919   0.267   6.992
12699SOL     OW39537   3.735   1.314   5.787
12699SOL    HW139538   3.649   1.332   5.750
12699SOL    HW239539   3.727   1.225   5.823
12700SOL     OW39540   3.822   1.746   6.516
12700SOL    HW139541   3.790   1.751   6.426
12700SOL    HW239542   3.910   1.783   6.512
12701SOL     OW39543   4.237   1.563   6.506
12701SOL    HW139544   4.298   1.637   6.518
12701SOL    HW239545   4.276   1.511   6.436
12702SOL     OW39546   4.701   0.772   6.818
12702SOL    HW139547   4.755   0.759   6.895
12702SOL    HW239548   4.612   0.753   6.848
12703SOL     OW39549   3.761   0.535   6.710
12703SOL    HW139550   3.836   0.561   6.657
12703SOL    HW239551   3.791   0.543   6.801
12704SOL     OW39552   3.914   0.527   7.311
12704SOL    HW139553   3.996   0.521   7.260
12704SOL    HW239554   3.867   0.600   7.271
12705SOL     OW39555   5.115   0.947   7.242
12705SOL    HW139556   5.133   1.041   7.241
12705SOL    HW239557   5.105   0.923   7.150
12706SOL     OW39558   4.522   0.558   5.968
12706SOL    HW139559   4.540   0.495   5.899
12706SOL    HW239560   4.458   0.618   5.929
12707SOL     OW39561   5.364   0.599   6.775
12707SOL    HW139562   5.360   0.536   6.847
12707SOL    HW239563   5.449   0.584   6.735
12708SOL     OW39564   4.000   1.535   7.302
12708SOL    HW139565   3.959   1.608   7.348
12708SOL    HW239566   3.980   1.458   7.355
12709SOL     OW39567   4.447   0.450   6.839
12709SOL    HW139568   4.389   0.377   6.815
12709SOL    HW239569   4.434   0.515   6.770
12710SOL     OW39570   4.697   1.611   7.026
12710SOL    HW139571   4.640   1.587   6.953
12710SOL    HW239572   4.692   1.707   7.030
12711SOL     OW39573   4.179   0.505   5.772
12711SOL    HW139574   4.238   0.578   5.790
12711SOL    HW239575   4.094   0.548   5.756
12712SOL     OW39576   3.856   1.143   7.057
12712SOL    HW139577   3.857   1.095   7.140
12712SOL    HW239578   3.875   1.076   6.991
12713SOL     OW39579   5.053   1.046   6.786
12713SOL    HW139580   5.064   0.970   6.728
12713SOL    HW239581   4.967   1.081   6.762
12714SOL     OW39582   5.038   0.791   5.929
12714SOL    HW139583   4.959   0.840   5.909
12714SOL    HW239584   5.109   0.842   5.890
12715SOL     OW39585   5.495   1.736   6.741
12715SOL    HW139586   5.561   1.770   6.680
12715SOL    HW239587   5.469   1.652   6.703
12716SOL     OW39588   5.021   1.677   6.720
12716SOL    HW139589   5.073   1.738   6.666
12716SOL    HW239590   4.932   1.712   6.718
12717SOL     OW39591   4.415   1.670   7.300
12717SOL    HW139592   4.353   1.738   7.329
12717SOL    HW239593   4.439   1.696   7.211
12718SOL     OW39594   5.404   0.158   6.074
12718SOL    HW139595   5.442   0.123   5.993
12718SOL    HW239596   5.462   0.127   6.143
12719SOL     OW39597   5.114   1.573   6.067
12719SOL    HW139598   5.173   1.607   5.999
12719SOL    HW239599   5.062   1.649   6.094
12720SOL     OW39600   3.863   1.736   7.408
12720SOL    HW139601   3.810   1.731   7.488
12720SOL    HW239602   3.898   1.825   7.408
12721SOL     OW39603   5.004   0.931   6.270
12721SOL    HW139604   5.078   0.870   6.273
12721SOL    HW239605   5.032   0.999   6.208
12722SOL     OW39606   4.534   1.287   7.017
12722SOL    HW139607   4.496   1.325   7.096
12722SOL    HW239608   4.491   1.332   6.945
12723SOL     OW39609   4.425   1.581   5.716
12723SOL    HW139610   4.408   1.620   5.631
12723SOL    HW239611   4.350   1.524   5.732
12724SOL     OW39612   5.347   1.727   6.978
12724SOL    HW139613   5.394   1.738   6.896
12724SOL    HW239614   5.328   1.816   7.008
12725SOL     OW39615   5.573   0.164   6.542
12725SOL    HW139616   5.588   0.098   6.475
12725SOL    HW239617   5.488   0.202   6.520
12726SOL     OW39618   3.965   0.369   6.311
12726SOL    HW139619   3.884   0.381   6.261
12726SOL    HW239620   3.935   0.346   6.399
12727SOL     OW39621   4.876   1.637   5.649
12727SOL    HW139622   4.892   1.548   5.680
12727SOL    HW239623   4.835   1.626   5.563
12728SOL     OW39624   4.549   1.017   6.967
12728SOL    HW139625   4.582   1.012   6.877
12728SOL    HW239626   4.540   1.110   6.985
12729SOL     OW39627   4.635   0.911   5.883
12729SOL    HW139628   4.694   0.942   5.814
12729SOL    HW239629   4.685   0.841   5.927
12730SOL     OW39630   5.215   1.633   5.627
12730SOL    HW139631   5.124   1.622   5.600
12730SOL    HW239632   5.264   1.639   5.545
12731SOL     OW39633   4.094   1.292   7.083
12731SOL    HW139634   4.090   1.370   7.028
12731SOL    HW239635   4.009   1.249   7.070
12732SOL     OW39636   5.314   1.284   6.843
12732SOL    HW139637   5.388   1.264   6.900
12732SOL    HW239638   5.267   1.354   6.888
12733SOL     OW39639   4.783   1.118   6.305
12733SOL    HW139640   4.710   1.066   6.336
12733SOL    HW239641   4.845   1.055   6.268
12734SOL     OW39642   4.752   0.265   6.543
12734SOL    HW139643   4.735   0.210   6.466
12734SOL    HW239644   4.762   0.202   6.615
12735SOL     OW39645   4.328   1.496   6.072
12735SOL    HW139646   4.371   1.441   6.006
12735SOL    HW239647   4.279   1.561   6.022
12736SOL     OW39648   5.453   0.416   6.966
12736SOL    HW139649   5.531   0.471   6.971
12736SOL    HW239650   5.480   0.341   6.913
12737SOL     OW39651   3.992   1.334   5.892
12737SOL    HW139652   3.901   1.338   5.861
12737SOL    HW239653   3.991   1.383   5.975
12738SOL     OW39654   3.839   1.015   7.303
12738SOL    HW139655   3.759   1.001   7.353
12738SOL    HW239656   3.909   0.985   7.361
12739SOL     OW39657   4.389   0.211   7.073
12739SOL    HW139658   4.454   0.161   7.024
12739SOL    HW239659   4.418   0.208   7.164
12740SOL     OW39660   3.804   0.336   5.617
12740SOL    HW139661   3.720   0.321   5.572
12740SOL    HW239662   3.840   0.414   5.574
12741SOL     OW39663   5.149   0.864   6.979
12741SOL    HW139664   5.095   0.918   6.921
12741SOL    HW239665   5.235   0.862   6.937
12742SOL     OW39666   3.795   0.217   5.894
12742SOL    HW139667   3.790   0.267   5.813
12742SOL    HW239668   3.869   0.158   5.881
12743SOL     OW39669   4.897   1.348   5.705
12743SOL    HW139670   4.804   1.325   5.702
12743SOL    HW239671   4.922   1.339   5.797
12744SOL     OW39672   4.336   0.849   7.023
12744SOL    HW139673   4.394   0.923   7.005
12744SOL    HW239674   4.394   0.774   7.028
12745SOL     OW39675   5.206   1.773   6.522
12745SOL    HW139676   5.213   1.852   6.467
12745SOL    HW239677   5.272   1.786   6.589
12746SOL     OW39678   4.465   0.570   7.309
12746SOL    HW139679   4.410   0.585   7.386
12746SOL    HW239680   4.489   0.478   7.313
12747SOL     OW39681   5.202   1.214   7.218
12747SOL    HW139682   5.170   1.302   7.239
12747SOL    HW239683   5.296   1.226   7.202
12748SOL     OW39684   4.092   1.733   7.129
12748SOL    HW139685   4.008   1.777   7.118
12748SOL    HW239686   4.071   1.653   7.178
12749SOL     OW39687   5.391   0.865   6.839
12749SOL    HW139688   5.381   0.772   6.817
12749SOL    HW239689   5.409   0.908   6.755
12750SOL     OW39690   4.938   0.315   6.046
12750SOL    HW139691   5.006   0.249   6.029
12750SOL    HW239692   4.974   0.367   6.119
12751SOL     OW39693   4.297   0.726   6.280
12751SOL    HW139694   4.345   0.808   6.268
12751SOL    HW239695   4.240   0.720   6.203
12752SOL     OW39696   5.478   0.380   7.235
12752SOL    HW139697   5.469   0.393   7.141
12752SOL    HW239698   5.414   0.313   7.257
12753SOL     OW39699   5.483   0.940   7.090
12753SOL    HW139700   5.468   1.034   7.097
12753SOL    HW239701   5.457   0.918   7.000
12754SOL     OW39702   4.599   1.371   5.632
12754SOL    HW139703   4.540   1.415   5.694
12754SOL    HW239704   4.611   1.435   5.562
12755SOL     OW39705   4.385   1.783   6.524
12755SOL    HW139706   4.364   1.875   6.509
12755SOL    HW239707   4.481   1.780   6.526
12756SOL     OW39708   4.591   0.971   6.442
12756SOL    HW139709   4.646   0.902   6.479
12756SOL    HW239710   4.557   1.018   6.518
12757SOL     OW39711   4.792   0.983   5.679
12757SOL    HW139712   4.776   1.041   5.605
12757SOL    HW239713   4.863   0.925   5.650
12758SOL     OW39714   5.577   1.553   6.430
12758SOL    HW139715   5.511   1.554   6.361
12758SOL    HW239716   5.532   1.512   6.505
12759SOL     OW39717   3.959   1.300   7.448
12759SOL    HW139718   3.876   1.264   7.418
12759SOL    HW239719   3.948   1.309   7.543
12760SOL     OW39720   3.817   1.215   6.259
12760SOL    HW139721   3.864   1.164   6.325
12760SOL    HW239722   3.878   1.223   6.186
12761SOL     OW39723   4.408   1.402   7.230
12761SOL    HW139724   4.313   1.394   7.220
12761SOL    HW239725   4.422   1.492   7.258
12762SOL     OW39726   5.555   0.214   6.817
12762SOL    HW139727   5.484   0.150   6.825
12762SOL    HW239728   5.576   0.215   6.724
12763SOL     OW39729   4.171   0.422   6.132
12763SOL    HW139730   4.187   0.372   6.053
12763SOL    HW239731   4.082   0.399   6.158
12764SOL     OW39732   5.431   1.481   6.659
12764SOL    HW139733   5.349   1.468   6.611
12764SOL    HW239734   5.421   1.427   6.737
12765SOL     OW39735   4.066   0.563   6.885
12765SOL    HW139736   4.121   0.502   6.934
12765SOL    HW239737   4.080   0.539   6.793
12766SOL     OW39738   4.558   1.582   6.235
12766SOL    HW139739   4.552   1.670   6.197
12766SOL    HW239740   4.474   1.542   6.213
12767SOL     OW39741   5.127   0.206   6.719
12767SOL    HW139742   5.206   0.172   6.761
12767SOL    HW239743   5.089   0.264   6.786
12768SOL     OW39744   4.781   0.064   6.724
12768SOL    HW139745   4.742  -0.021   6.745
12768SOL    HW239746   4.875   0.046   6.713
12769SOL     OW39747   4.486   1.330   5.924
12769SOL    HW139748   4.463   1.237   5.925
12769SOL    HW239749   4.577   1.333   5.954
12770SOL     OW39750   4.340   1.538   6.880
12770SOL    HW139751   4.341   1.619   6.931
12770SOL    HW239752   4.424   1.538   6.833
12771SOL     OW39753   5.070   7.973   5.697
12771SOL    HW139754   5.127   7.899   5.716
12771SOL    HW239755   5.001   7.968   5.763
12772SOL     OW39756   5.023   0.464   6.262
12772SOL    HW139757   4.973   0.546   6.262
12772SOL    HW239758   5.024   0.436   6.354
12773SOL     OW39759   5.332   0.251   6.473
12773SOL    HW139760   5.242   0.219   6.479
12773SOL    HW239761   5.327   0.322   6.409
12774SOL     OW39762   3.760   1.062   5.903
12774SOL    HW139763   3.853   1.059   5.883
12774SOL    HW239764   3.737   0.971   5.924
12775SOL     OW39765   4.616   1.682   5.888
12775SOL    HW139766   4.537   1.640   5.854
12775SOL    HW239767   4.585   1.734   5.963
12776SOL     OW39768   3.937   0.615   7.582
12776SOL    HW139769   3.848   0.615   7.618
12776SOL    HW239770   3.924   0.607   7.487
12777SOL     OW39771   3.891   0.226   8.459
12777SOL    HW139772   3.920   0.257   8.545
12777SOL    HW239773   3.952   0.155   8.437
12778SOL     OW39774   3.707   0.390   8.099
12778SOL    HW139775   3.617   0.419   8.113
12778SOL    HW239776   3.709   0.358   8.009
12779SOL     OW39777   4.254   1.290   8.671
12779SOL    HW139778   4.313   1.239   8.615
12779SOL    HW239779   4.289   1.379   8.668
12780SOL     OW39780   5.279   1.513   8.155
12780SOL    HW139781   5.236   1.499   8.239
12780SOL    HW239782   5.207   1.528   8.093
12781SOL     OW39783   4.810   0.742   8.125
12781SOL    HW139784   4.877   0.810   8.125
12781SOL    HW239785   4.788   0.730   8.218
12782SOL     OW39786   5.522   0.596   7.667
12782SOL    HW139787   5.487   0.592   7.578
12782SOL    HW239788   5.474   0.529   7.716
12783SOL     OW39789   4.599   0.756   9.270
12783SOL    HW139790   4.587   0.825   9.336
12783SOL    HW239791   4.622   0.803   9.190
12784SOL     OW39792   4.410   0.992   8.095
12784SOL    HW139793   4.478   0.988   8.163
12784SOL    HW239794   4.344   1.051   8.131
12785SOL     OW39795   4.440   1.156   9.274
12785SOL    HW139796   4.490   1.234   9.298
12785SOL    HW239797   4.363   1.190   9.228
12786SOL     OW39798   4.012   1.477   8.505
12786SOL    HW139799   3.972   1.402   8.461
12786SOL    HW239800   4.084   1.503   8.449
12787SOL     OW39801   5.182   1.500   8.814
12787SOL    HW139802   5.233   1.581   8.822
12787SOL    HW239803   5.108   1.513   8.873
12788SOL     OW39804   4.176   0.377   8.918
12788SOL    HW139805   4.268   0.351   8.913
12788SOL    HW239806   4.139   0.322   8.987
12789SOL     OW39807   5.369   0.481   8.183
12789SOL    HW139808   5.285   0.450   8.148
12789SOL    HW239809   5.346   0.531   8.261
12790SOL     OW39810   3.968   1.711   7.911
12790SOL    HW139811   3.986   1.780   7.975
12790SOL    HW239812   4.051   1.697   7.867
12791SOL     OW39813   4.869   1.340   9.143
12791SOL    HW139814   4.900   1.329   9.233
12791SOL    HW239815   4.818   1.261   9.125
12792SOL     OW39816   3.960   1.440   7.979
12792SOL    HW139817   3.944   1.534   7.984
12792SOL    HW239818   3.904   1.402   8.047
12793SOL     OW39819   3.984   1.096   8.325
12793SOL    HW139820   3.990   1.010   8.367
12793SOL    HW239821   3.934   1.149   8.388
12794SOL     OW39822   4.332   1.786   8.894
12794SOL    HW139823   4.244   1.777   8.930
12794SOL    HW239824   4.354   1.878   8.909
12795SOL     OW39825   4.359   0.976   7.583
12795SOL    HW139826   4.336   1.056   7.535
12795SOL    HW239827   4.372   1.005   7.673
12796SOL     OW39828   5.390   0.108   8.947
12796SOL    HW139829   5.331   0.104   8.872
12796SOL    HW239830   5.336   0.142   9.018
12797SOL     OW39831   3.859   0.645   8.026
12797SOL    HW139832   3.802   0.572   8.051
12797SOL    HW239833   3.848   0.708   8.097
12798SOL     OW39834   5.566   1.760   7.766
12798SOL    HW139835   5.605   1.742   7.852
12798SOL    HW239836   5.585   1.853   7.751
12799SOL     OW39837   3.724   1.624   7.638
12799SOL    HW139838   3.750   1.532   7.646
12799SOL    HW239839   3.634   1.620   7.604
12800SOL     OW39840   5.424   0.932   8.085
12800SOL    HW139841   5.494   0.881   8.044
12800SOL    HW239842   5.392   0.988   8.015
12801SOL     OW39843   5.380   1.112   7.869
12801SOL    HW139844   5.469   1.106   7.833
12801SOL    HW239845   5.387   1.178   7.938
12802SOL     OW39846   3.863   0.754   9.032
12802SOL    HW139847   3.957   0.773   9.031
12802SOL    HW239848   3.821   0.839   9.048
12803SOL     OW39849   4.338   1.395   8.176
12803SOL    HW139850   4.296   1.310   8.184
12803SOL    HW239851   4.323   1.421   8.085
12804SOL     OW39852   5.008   1.230   8.870
12804SOL    HW139853   5.034   1.164   8.806
12804SOL    HW239854   5.072   1.222   8.941
12805SOL     OW39855   4.555   0.034   8.013
12805SOL    HW139856   4.593   0.113   7.975
12805SOL    HW239857   4.462   0.040   7.994
12806SOL     OW39858   3.902   0.955   8.725
12806SOL    HW139859   3.991   0.919   8.719
12806SOL    HW239860   3.861   0.932   8.642
12807SOL     OW39861   5.231   1.031   7.656
12807SOL    HW139862   5.204   0.943   7.683
12807SOL    HW239863   5.291   1.059   7.726
12808SOL     OW39864   4.909   1.816   9.082
12808SOL    HW139865   4.909   1.884   9.016
12808SOL    HW239866   4.920   1.734   9.033
12809SOL     OW39867   4.048   0.260   9.215
12809SOL    HW139868   4.125   0.298   9.256
12809SOL    HW239869   3.980   0.265   9.282
12810SOL     OW39870   5.196   1.413   8.403
12810SOL    HW139871   5.124   1.433   8.463
12810SOL    HW239872   5.179   1.323   8.375
12811SOL     OW39873   5.409   1.720   8.017
12811SOL    HW139874   5.366   1.712   7.932
12811SOL    HW239875   5.361   1.660   8.074
12812SOL     OW39876   4.319   0.718   7.717
12812SOL    HW139877   4.321   0.804   7.676
12812SOL    HW239878   4.254   0.727   7.787
12813SOL     OW39879   5.007   0.408   8.423
12813SOL    HW139880   5.010   0.398   8.328
12813SOL    HW239881   5.024   0.320   8.457
12814SOL     OW39882   5.306   1.664   7.754
12814SOL    HW139883   5.391   1.707   7.744
12814SOL    HW239884   5.268   1.664   7.666
12815SOL     OW39885   4.482   0.643   8.902
12815SOL    HW139886   4.475   0.601   8.988
12815SOL    HW239887   4.481   0.570   8.840
12816SOL     OW39888   5.170   0.502   9.132
12816SOL    HW139889   5.145   0.538   9.217
12816SOL    HW239890   5.169   0.407   9.145
12817SOL     OW39891   4.681   0.878   9.033
12817SOL    HW139892   4.724   0.801   8.996
12817SOL    HW239893   4.633   0.916   8.959
12818SOL     OW39894   4.737   0.398   8.655
12818SOL    HW139895   4.657   0.434   8.692
12818SOL    HW239896   4.718   0.390   8.561
12819SOL     OW39897   4.773   0.703   7.862
12819SOL    HW139898   4.786   0.714   7.956
12819SOL    HW239899   4.691   0.653   7.855
12820SOL     OW39900   3.812   0.811   8.234
12820SOL    HW139901   3.893   0.820   8.284
12820SOL    HW239902   3.759   0.886   8.261
12821SOL     OW39903   3.829   1.823   9.013
12821SOL    HW139904   3.831   1.815   9.109
12821SOL    HW239905   3.801   1.913   8.997
12822SOL     OW39906   4.610   0.350   7.652
12822SOL    HW139907   4.656   0.398   7.584
12822SOL    HW239908   4.592   0.264   7.613
12823SOL     OW39909   5.462   0.582   9.244
12823SOL    HW139910   5.422   0.664   9.216
12823SOL    HW239911   5.403   0.514   9.211
12824SOL     OW39912   5.104   1.135   7.962
12824SOL    HW139913   5.195   1.160   7.950
12824SOL    HW239914   5.055   1.217   7.951
12825SOL     OW39915   4.181   0.267   8.376
12825SOL    HW139916   4.235   0.255   8.453
12825SOL    HW239917   4.243   0.269   8.303
12826SOL     OW39918   4.722   1.443   7.912
12826SOL    HW139919   4.693   1.518   7.859
12826SOL    HW239920   4.695   1.465   8.001
12827SOL     OW39921   4.077   1.815   8.329
12827SOL    HW139922   4.131   1.736   8.335
12827SOL    HW239923   4.138   1.887   8.343
12828SOL     OW39924   5.531   1.041   8.315
12828SOL    HW139925   5.476   1.018   8.240
12828SOL    HW239926   5.469   1.055   8.387
12829SOL     OW39927   4.951   1.541   8.963
12829SOL    HW139928   4.942   1.467   9.023
12829SOL    HW239929   4.885   1.525   8.896
12830SOL     OW39930   4.047   0.937   7.708
12830SOL    HW139931   4.082   0.987   7.634
12830SOL    HW239932   4.020   0.854   7.670
12831SOL     OW39933   5.195   0.746   8.154
12831SOL    HW139934   5.169   0.680   8.219
12831SOL    HW239935   5.272   0.788   8.191
12832SOL     OW39936   4.191   1.273   9.192
12832SOL    HW139937   4.165   1.276   9.100
12832SOL    HW239938   4.108   1.268   9.240
12833SOL     OW39939   4.848   1.746   7.666
12833SOL    HW139940   4.779   1.723   7.729
12833SOL    HW239941   4.801   1.789   7.595
12834SOL     OW39942   3.900   0.251   8.961
12834SOL    HW139943   3.853   0.334   8.957
12834SOL    HW239944   3.942   0.252   9.048
12835SOL     OW39945   5.360   1.376   7.540
12835SOL    HW139946   5.343   1.471   7.538
12835SOL    HW239947   5.283   1.337   7.498
12836SOL     OW39948   4.225   1.711   7.796
12836SOL    HW139949   4.250   1.788   7.848
12836SOL    HW239950   4.275   1.720   7.715
12837SOL     OW39951   5.166   0.076   7.850
12837SOL    HW139952   5.186   0.105   7.761
12837SOL    HW239953   5.214   0.137   7.906
12838SOL     OW39954   3.969   1.784   8.671
12838SOL    HW139955   4.021   1.713   8.709
12838SOL    HW239956   3.969   1.767   8.577
12839SOL     OW39957   4.656   1.709   8.343
12839SOL    HW139958   4.711   1.646   8.390
12839SOL    HW239959   4.617   1.658   8.272
12840SOL     OW39960   4.127   0.687   7.916
12840SOL    HW139961   4.136   0.593   7.933
12840SOL    HW239962   4.036   0.706   7.938
12841SOL     OW39963   5.285   0.214   9.179
12841SOL    HW139964   5.305   0.254   9.263
12841SOL    HW239965   5.192   0.193   9.184
12842SOL     OW39966   4.337   0.143   7.547
12842SOL    HW139967   4.399   0.089   7.595
12842SOL    HW239968   4.300   0.085   7.480
12843SOL     OW39969   4.599   1.526   8.651
12843SOL    HW139970   4.582   1.494   8.562
12843SOL    HW239971   4.671   1.471   8.683
12844SOL     OW39972   5.065   0.592   8.888
12844SOL    HW139973   5.116   0.569   8.966
12844SOL    HW239974   5.094   0.680   8.865
12845SOL     OW39975   4.555   1.429   8.397
12845SOL    HW139976   4.632   1.383   8.364
12845SOL    HW239977   4.483   1.399   8.342
12846SOL     OW39978   4.643   0.513   8.339
12846SOL    HW139979   4.608   0.508   8.250
12846SOL    HW239980   4.671   0.424   8.359
12847SOL     OW39981   4.299   0.066   7.917
12847SOL    HW139982   4.220   0.044   7.966
12847SOL    HW239983   4.272   0.134   7.856
12848SOL     OW39984   3.981   0.024   7.644
12848SOL    HW139985   4.052   0.076   7.607
12848SOL    HW239986   4.023  -0.030   7.711
12849SOL     OW39987   4.667   0.261   7.907
12849SOL    HW139988   4.643   0.294   7.821
12849SOL    HW239989   4.762   0.270   7.910
12850SOL     OW39990   4.795   0.654   8.916
12850SOL    HW139991   4.744   0.574   8.928
12850SOL    HW239992   4.884   0.624   8.901
12851SOL     OW39993   4.962   1.563   8.231
12851SOL    HW139994   4.960   1.631   8.164
12851SOL    HW239995   5.000   1.606   8.308
12852SOL     OW39996   4.198   1.154   8.165
12852SOL    HW139997   4.131   1.137   8.231
12852SOL    HW239998   4.153   1.143   8.081
12853SOL     OW39999   4.991   1.788   8.063
12853SOL    HW140000   5.044   1.849   8.011
12853SOL    HW240001   4.922   1.843   8.100
12854SOL     OW40002   4.770   0.512   7.483
12854SOL    HW140003   4.747   0.602   7.459
12854SOL    HW240004   4.827   0.521   7.559
12855SOL     OW40005   3.812   0.559   8.850
12855SOL    HW140006   3.902   0.557   8.817
12855SOL    HW240007   3.811   0.634   8.910
12856SOL     OW40008   4.298   0.229   8.644
12856SOL    HW140009   4.336   0.203   8.729
12856SOL    HW240010   4.204   0.231   8.660
12857SOL     OW40011   4.542   0.435   8.086
12857SOL    HW140012   4.524   0.510   8.029
12857SOL    HW240013   4.597   0.377   8.033
12858SOL     OW40014   4.724   8.023   8.226
12858SOL    HW140015   4.667   8.028   8.149
12858SOL    HW240016   4.723   7.930   8.251
12859SOL     OW40017   5.167   1.152   8.314
12859SOL    HW140018   5.089   1.096   8.315
12859SOL    HW240019   5.188   1.164   8.221
12860SOL     OW40020   5.190   0.612   8.406
12860SOL    HW140021   5.124   0.543   8.415
12860SOL    HW240022   5.242   0.605   8.486
12861SOL     OW40023   5.565   0.804   7.838
12861SOL    HW140024   5.622   0.755   7.896
12861SOL    HW240025   5.544   0.743   7.767
12862SOL     OW40026   4.218   1.411   7.588
12862SOL    HW140027   4.152   1.386   7.653
12862SOL    HW240028   4.170   1.413   7.505
12863SOL     OW40029   5.383   1.271   8.081
12863SOL    HW140030   5.477   1.270   8.102
12863SOL    HW240031   5.354   1.359   8.106
12864SOL     OW40032   5.128   0.581   7.527
12864SOL    HW140033   5.064   0.552   7.592
12864SOL    HW240034   5.212   0.551   7.561
12865SOL     OW40035   4.229   0.273   7.751
12865SOL    HW140036   4.275   0.228   7.681
12865SOL    HW240037   4.207   0.359   7.715
12866SOL     OW40038   5.474   1.242   9.004
12866SOL    HW140039   5.563   1.208   8.989
12866SOL    HW240040   5.488   1.331   9.034
12867SOL     OW40041   4.783   1.377   8.806
12867SOL    HW140042   4.704   1.333   8.839
12867SOL    HW240043   4.854   1.318   8.827
12868SOL     OW40044   5.341   1.625   9.115
12868SOL    HW140045   5.323   1.663   9.029
12868SOL    HW240046   5.422   1.576   9.104
12869SOL     OW40047   4.842   1.206   8.548
12869SOL    HW140048   4.754   1.178   8.572
12869SOL    HW240049   4.831   1.249   8.463
12870SOL     OW40050   5.353   1.098   8.522
12870SOL    HW140051   5.344   1.163   8.591
12870SOL    HW240052   5.278   1.114   8.464
12871SOL     OW40053   4.658   0.115   8.848
12871SOL    HW140054   4.671   0.111   8.753
12871SOL    HW240055   4.741   0.149   8.882
12872SOL     OW40056   4.709   1.111   9.171
12872SOL    HW140057   4.616   1.127   9.188
12872SOL    HW240058   4.710   1.034   9.114
12873SOL     OW40059   4.440   1.054   7.829
12873SOL    HW140060   4.420   1.037   7.921
12873SOL    HW240061   4.514   0.996   7.810
12874SOL     OW40062   4.136   0.816   8.707
12874SOL    HW140063   4.205   0.836   8.770
12874SOL    HW240064   4.112   0.725   8.725
12875SOL     OW40065   4.999   0.367   8.734
12875SOL    HW140066   5.027   0.451   8.772
12875SOL    HW240067   4.915   0.386   8.692
12876SOL     OW40068   3.802   1.565   8.792
12876SOL    HW140069   3.787   1.653   8.757
12876SOL    HW240070   3.897   1.555   8.795
12877SOL     OW40071   4.062   1.115   7.928
12877SOL    HW140072   4.051   1.192   7.873
12877SOL    HW240073   4.062   1.041   7.867
12878SOL     OW40074   4.253   0.562   8.306
12878SOL    HW140075   4.277   0.616   8.230
12878SOL    HW240076   4.323   0.577   8.369
12879SOL     OW40077   4.974   1.347   7.847
12879SOL    HW140078   5.027   1.424   7.868
12879SOL    HW240079   4.886   1.370   7.875
12880SOL     OW40080   5.006   1.451   8.593
12880SOL    HW140081   5.051   1.450   8.678
12880SOL    HW240082   4.939   1.383   8.602
12881SOL     OW40083   5.293   0.648   7.908
12881SOL    HW140084   5.246   0.662   7.990
12881SOL    HW240085   5.356   0.720   7.903
12882SOL     OW40086   4.073   1.533   8.759
12882SOL    HW140087   4.055   1.501   8.671
12882SOL    HW240088   4.168   1.541   8.763
12883SOL     OW40089   4.156   0.735   9.062
12883SOL    HW140090   4.205   0.788   8.999
12883SOL    HW240091   4.217   0.667   9.089
12884SOL     OW40092   5.342   0.796   9.139
12884SOL    HW140093   5.253   0.829   9.130
12884SOL    HW240094   5.388   0.833   9.063
12885SOL     OW40095   4.742   0.052   9.184
12885SOL    HW140096   4.690   0.116   9.233
12885SOL    HW240097   4.720   0.068   9.092
12886SOL     OW40098   4.149  -0.019   9.167
12886SOL    HW140099   4.241  -0.030   9.143
12886SOL    HW240100   4.144   0.068   9.207
12887SOL     OW40101   4.295   0.870   8.481
12887SOL    HW140102   4.354   0.945   8.487
12887SOL    HW240103   4.246   0.871   8.563
12888SOL     OW40104   5.062   0.856   8.465
12888SOL    HW140105   4.972   0.835   8.441
12888SOL    HW240106   5.111   0.775   8.446
12889SOL     OW40107   4.924   0.528   7.710
12889SOL    HW140108   4.935   0.448   7.761
12889SOL    HW240109   4.880   0.589   7.770
12890SOL     OW40110   4.027   0.210   8.704
12890SOL    HW140111   3.998   0.244   8.789
12890SOL    HW240112   4.033   0.115   8.716
12891SOL     OW40113   3.728   1.312   8.726
12891SOL    HW140114   3.779   1.256   8.784
12891SOL    HW240115   3.758   1.401   8.745
12892SOL     OW40116   4.437   0.628   8.497
12892SOL    HW140117   4.518   0.620   8.447
12892SOL    HW240118   4.411   0.720   8.488
12893SOL     OW40119   5.478   0.958   9.313
12893SOL    HW140120   5.429   0.901   9.254
12893SOL    HW240121   5.416   0.981   9.381
12894SOL     OW40122   4.087   0.066   8.092
12894SOL    HW140123   4.059   0.149   8.131
12894SOL    HW240124   4.075   0.001   8.161
12895SOL     OW40125   5.352   0.400   7.804
12895SOL    HW140126   5.373   0.334   7.871
12895SOL    HW240127   5.318   0.474   7.854
12896SOL     OW40128   4.769   0.751   8.407
12896SOL    HW140129   4.755   0.765   8.501
12896SOL    HW240130   4.739   0.661   8.392
12897SOL     OW40131   4.707   1.559   9.168
12897SOL    HW140132   4.684   1.608   9.089
12897SOL    HW240133   4.757   1.485   9.136
12898SOL     OW40134   5.582   1.497   9.052
12898SOL    HW140135   5.594   1.528   8.962
12898SOL    HW240136   5.664   1.519   9.096
12899SOL     OW40137   4.076   0.914   9.259
12899SOL    HW140138   4.154   0.940   9.307
12899SOL    HW240139   4.108   0.851   9.194
12900SOL     OW40140   5.298   0.296   7.559
12900SOL    HW140141   5.203   0.294   7.565
12900SOL    HW240142   5.326   0.324   7.646
12901SOL     OW40143   5.015   0.823   7.465
12901SOL    HW140144   5.061   0.739   7.474
12901SOL    HW240145   5.052   0.862   7.386
12902SOL     OW40146   4.804   1.335   8.306
12902SOL    HW140147   4.800   1.269   8.237
12902SOL    HW240148   4.855   1.407   8.267
12903SOL     OW40149   4.033   0.820   8.398
12903SOL    HW140150   4.125   0.846   8.400
12903SOL    HW240151   4.033   0.730   8.430
12904SOL     OW40152   4.045   0.503   8.461
12904SOL    HW140153   4.053   0.408   8.451
12904SOL    HW240154   4.115   0.539   8.406
12905SOL     OW40155   4.893   0.390   9.154
12905SOL    HW140156   4.827   0.431   9.211
12905SOL    HW240157   4.934   0.463   9.108
12906SOL     OW40158   4.904   0.208   8.935
12906SOL    HW140159   4.885   0.265   9.009
12906SOL    HW240160   4.928   0.269   8.864
12907SOL     OW40161   3.737   1.336   7.641
12907SOL    HW140162   3.650   1.349   7.604
12907SOL    HW240163   3.736   1.246   7.675
12908SOL     OW40164   3.809   1.780   8.389
12908SOL    HW140165   3.785   1.696   8.351
12908SOL    HW240166   3.899   1.795   8.360
12909SOL     OW40167   4.221   1.572   8.357
12909SOL    HW140168   4.289   1.636   8.379
12909SOL    HW240169   4.264   1.512   8.295
12910SOL     OW40170   4.713   0.771   8.673
12910SOL    HW140171   4.742   0.732   8.755
12910SOL    HW240172   4.646   0.834   8.698
12911SOL     OW40173   3.773   0.534   8.564
12911SOL    HW140174   3.855   0.537   8.515
12911SOL    HW240175   3.799   0.546   8.655
12912SOL     OW40176   3.908   0.535   9.186
12912SOL    HW140177   3.995   0.517   9.151
12912SOL    HW240178   3.876   0.610   9.136
12913SOL     OW40179   5.106   0.927   9.100
12913SOL    HW140180   5.126   1.021   9.096
12913SOL    HW240181   5.097   0.901   9.009
12914SOL     OW40182   4.540   0.571   7.816
12914SOL    HW140183   4.545   0.496   7.757
12914SOL    HW240184   4.463   0.620   7.786
12915SOL     OW40185   5.362   0.614   8.622
12915SOL    HW140186   5.347   0.553   8.695
12915SOL    HW240187   5.451   0.593   8.592
12916SOL     OW40188   3.959   1.544   9.172
12916SOL    HW140189   3.939   1.616   9.232
12916SOL    HW240190   3.966   1.467   9.228
12917SOL     OW40191   4.454   0.456   8.704
12917SOL    HW140192   4.396   0.385   8.677
12917SOL    HW240193   4.443   0.522   8.635
12918SOL     OW40194   4.643   1.679   8.925
12918SOL    HW140195   4.627   1.634   8.842
12918SOL    HW240196   4.639   1.772   8.903
12919SOL     OW40197   4.182   0.502   7.618
12919SOL    HW140198   4.236   0.574   7.649
12919SOL    HW240199   4.094   0.540   7.611
12920SOL     OW40200   3.846   1.138   8.915
12920SOL    HW140201   3.859   1.094   8.999
12920SOL    HW240202   3.869   1.073   8.850
12921SOL     OW40203   5.041   1.046   8.661
12921SOL    HW140204   5.057   0.983   8.591
12921SOL    HW240205   4.972   1.103   8.627
12922SOL     OW40206   4.993   0.896   7.744
12922SOL    HW140207   4.962   0.845   7.819
12922SOL    HW240208   4.992   0.835   7.671
12923SOL     OW40209   5.503   1.729   8.617
12923SOL    HW140210   5.564   1.761   8.550
12923SOL    HW240211   5.469   1.647   8.582
12924SOL     OW40212   4.966   1.726   8.551
12924SOL    HW140213   5.048   1.751   8.508
12924SOL    HW240214   4.977   1.633   8.570
12925SOL     OW40215   3.807   1.262   8.459
12925SOL    HW140216   3.777   1.275   8.549
12925SOL    HW240217   3.744   1.200   8.422
12926SOL     OW40218   4.404   1.680   9.188
12926SOL    HW140219   4.337   1.748   9.183
12926SOL    HW240220   4.461   1.697   9.112
12927SOL     OW40221   5.433   0.171   7.951
12927SOL    HW140222   5.467   0.135   7.869
12927SOL    HW240223   5.414   0.095   8.005
12928SOL     OW40224   5.114   1.570   7.929
12928SOL    HW140225   5.175   1.606   7.864
12928SOL    HW240226   5.065   1.646   7.960
12929SOL     OW40227   3.861   1.791   9.286
12929SOL    HW140228   3.812   1.726   9.337
12929SOL    HW240229   3.905   1.844   9.352
12930SOL     OW40230   5.002   0.933   8.112
12930SOL    HW140231   5.072   0.869   8.123
12930SOL    HW240232   5.041   1.001   8.056
12931SOL     OW40233   4.538   1.276   8.890
12931SOL    HW140234   4.499   1.325   8.963
12931SOL    HW240235   4.478   1.290   8.817
12932SOL     OW40236   4.421   1.597   7.592
12932SOL    HW140237   4.421   1.629   7.502
12932SOL    HW240238   4.352   1.530   7.594
12933SOL     OW40239   5.343   1.726   8.848
12933SOL    HW140240   5.393   1.730   8.767
12933SOL    HW240241   5.328   1.817   8.872
12934SOL     OW40242   5.575   0.173   8.408
12934SOL    HW140243   5.570   0.079   8.428
12934SOL    HW240244   5.488   0.194   8.374
12935SOL     OW40245   3.982   0.310   8.181
12935SOL    HW140246   3.952   0.398   8.159
12935SOL    HW240247   4.048   0.324   8.249
12936SOL     OW40248   4.956   1.586   7.436
12936SOL    HW140249   4.880   1.595   7.494
12936SOL    HW240250   4.940   1.650   7.366
12937SOL     OW40251   4.555   1.010   8.830
12937SOL    HW140252   4.540   1.023   8.736
12937SOL    HW240253   4.558   1.098   8.867
12938SOL     OW40254   4.637   0.896   7.708
12938SOL    HW140255   4.714   0.931   7.662
12938SOL    HW240256   4.673   0.832   7.770
12939SOL     OW40257   5.223   1.613   7.491
12939SOL    HW140258   5.128   1.612   7.479
12939SOL    HW240259   5.258   1.626   7.403
12940SOL     OW40260   4.086   1.300   8.948
12940SOL    HW140261   4.109   1.356   8.874
12940SOL    HW240262   4.010   1.250   8.918
12941SOL     OW40263   5.340   1.291   8.728
12941SOL    HW140264   5.385   1.270   8.809
12941SOL    HW240265   5.274   1.356   8.753
12942SOL     OW40266   4.790   1.112   8.147
12942SOL    HW140267   4.716   1.066   8.188
12942SOL    HW240268   4.856   1.043   8.133
12943SOL     OW40269   4.691   0.246   8.395
12943SOL    HW140270   4.714   0.195   8.317
12943SOL    HW240271   4.723   0.195   8.468
12944SOL     OW40272   4.327   1.482   7.918
12944SOL    HW140273   4.368   1.439   7.842
12944SOL    HW240274   4.280   1.557   7.881
12945SOL     OW40275   5.443   0.423   8.811
12945SOL    HW140276   5.521   0.478   8.819
12945SOL    HW240277   5.472   0.348   8.760
12946SOL     OW40278   3.995   1.335   7.739
12946SOL    HW140279   3.901   1.327   7.719
12946SOL    HW240280   3.998   1.380   7.823
12947SOL     OW40281   3.837   1.017   9.165
12947SOL    HW140282   3.765   0.998   9.224
12947SOL    HW240283   3.915   0.984   9.211
12948SOL     OW40284   4.408   0.220   8.919
12948SOL    HW140285   4.478   0.159   8.895
12948SOL    HW240286   4.418   0.232   9.013
12949SOL     OW40287   3.806   0.329   7.478
12949SOL    HW140288   3.712   0.323   7.463
12949SOL    HW240289   3.833   0.409   7.433
12950SOL     OW40290   5.147   0.857   8.837
12950SOL    HW140291   5.093   0.916   8.785
12950SOL    HW240292   5.234   0.863   8.799
12951SOL     OW40293   3.791   0.191   7.781
12951SOL    HW140294   3.796   0.266   7.721
12951SOL    HW240295   3.850   0.126   7.743
12952SOL     OW40296   4.872   1.284   7.588
12952SOL    HW140297   4.785   1.302   7.553
12952SOL    HW240298   4.889   1.357   7.648
12953SOL     OW40299   4.330   0.856   8.887
12953SOL    HW140300   4.389   0.929   8.869
12953SOL    HW240301   4.388   0.780   8.891
12954SOL     OW40302   5.203   1.785   8.418
12954SOL    HW140303   5.196   1.849   8.347
12954SOL    HW240304   5.287   1.805   8.460
12955SOL     OW40305   4.418   0.563   9.159
12955SOL    HW140306   4.475   0.621   9.210
12955SOL    HW240307   4.440   0.475   9.189
12956SOL     OW40308   5.202   1.185   9.076
12956SOL    HW140309   5.188   1.209   9.167
12956SOL    HW240310   5.292   1.212   9.057
12957SOL     OW40311   4.091   1.740   9.015
12957SOL    HW140312   4.006   1.777   8.990
12957SOL    HW240313   4.070   1.653   9.048
12958SOL     OW40314   5.390   0.882   8.702
12958SOL    HW140315   5.380   0.798   8.658
12958SOL    HW240316   5.377   0.948   8.633
12959SOL     OW40317   4.940   0.301   7.881
12959SOL    HW140318   4.989   0.220   7.870
12959SOL    HW240319   4.975   0.340   7.961
12960SOL     OW40320   4.321   0.731   8.107
12960SOL    HW140321   4.355   0.820   8.104
12960SOL    HW240322   4.254   0.729   8.038
12961SOL     OW40323   5.505   0.355   9.062
12961SOL    HW140324   5.466   0.375   8.977
12961SOL    HW240325   5.445   0.292   9.102
12962SOL     OW40326   5.490   0.928   8.953
12962SOL    HW140327   5.469   1.020   8.968
12962SOL    HW240328   5.465   0.913   8.862
12963SOL     OW40329   4.619   1.354   7.498
12963SOL    HW140330   4.569   1.378   7.576
12963SOL    HW240331   4.624   1.435   7.447
12964SOL     OW40332   4.384   1.787   8.387
12964SOL    HW140333   4.363   1.878   8.367
12964SOL    HW240334   4.479   1.782   8.379
12965SOL     OW40335   4.608   0.963   8.288
12965SOL    HW140336   4.657   0.890   8.326
12965SOL    HW240337   4.573   1.010   8.364
12966SOL     OW40338   4.798   0.976   7.505
12966SOL    HW140339   4.801   1.044   7.438
12966SOL    HW240340   4.874   0.921   7.486
12967SOL     OW40341   5.569   1.549   8.294
12967SOL    HW140342   5.499   1.559   8.229
12967SOL    HW240343   5.524   1.513   8.371
12968SOL     OW40344   3.947   1.295   9.309
12968SOL    HW140345   3.884   1.240   9.263
12968SOL    HW240346   3.913   1.304   9.397
12969SOL     OW40347   3.837   1.233   8.127
12969SOL    HW140348   3.882   1.182   8.193
12969SOL    HW240349   3.861   1.192   8.044
12970SOL     OW40350   4.415   1.408   9.097
12970SOL    HW140351   4.328   1.375   9.117
12970SOL    HW240352   4.410   1.501   9.117
12971SOL     OW40353   5.556   0.214   8.685
12971SOL    HW140354   5.486   0.149   8.685
12971SOL    HW240355   5.579   0.224   8.592
12972SOL     OW40356   4.140   0.422   7.964
12972SOL    HW140357   4.173   0.363   7.897
12972SOL    HW240358   4.106   0.363   8.032
12973SOL     OW40359   5.427   1.479   8.528
12973SOL    HW140360   5.344   1.467   8.481
12973SOL    HW240361   5.424   1.415   8.599
12974SOL     OW40362   4.057   0.551   8.741
12974SOL    HW140363   4.110   0.493   8.795
12974SOL    HW240364   4.076   0.524   8.651
12975SOL     OW40365   4.563   1.585   8.112
12975SOL    HW140366   4.539   1.658   8.056
12975SOL    HW240367   4.484   1.532   8.118
12976SOL     OW40368   5.146   0.193   8.570
12976SOL    HW140369   5.213   0.153   8.625
12976SOL    HW240370   5.101   0.254   8.627
12977SOL     OW40371   4.756   0.063   8.583
12977SOL    HW140372   4.714  -0.021   8.598
12977SOL    HW240373   4.850   0.043   8.581
12978SOL     OW40374   4.513   1.317   7.759
12978SOL    HW140375   4.480   1.232   7.789
12978SOL    HW240376   4.579   1.342   7.824
12979SOL     OW40377   4.345   1.558   8.743
12979SOL    HW140378   4.348   1.639   8.793
12979SOL    HW240379   4.432   1.551   8.703
12980SOL     OW40380   5.066   7.989   7.566
12980SOL    HW140381   5.129   7.923   7.593
12980SOL    HW240382   4.992   7.978   7.626
12981SOL     OW40383   5.326   0.229   8.330
12981SOL    HW140384   5.245   0.236   8.382
12981SOL    HW240385   5.310   0.283   8.253
12982SOL     OW40386   3.784   1.084   7.730
12982SOL    HW140387   3.847   1.013   7.746
12982SOL    HW240388   3.708   1.060   7.782
12983SOL     OW40389   4.612   1.658   7.783
12983SOL    HW140390   4.543   1.642   7.720
12983SOL    HW240391   4.580   1.731   7.837
12984SOL     OW40392   3.931   0.636   9.449
12984SOL    HW140393   3.844   0.622   9.485
12984SOL    HW240394   3.922   0.614   9.356
12985SOL     OW40395   3.940   0.307  10.293
12985SOL    HW140396   3.982   0.261  10.366
12985SOL    HW240397   3.858   0.258  10.278
12986SOL     OW40398   3.736   0.397   9.948
12986SOL    HW140399   3.648   0.422   9.976
12986SOL    HW240400   3.730   0.302   9.932
12987SOL     OW40401   4.296   1.304  10.499
12987SOL    HW140402   4.212   1.306  10.454
12987SOL    HW240403   4.310   1.394  10.529
12988SOL     OW40404   5.299   1.521  10.017
12988SOL    HW140405   5.254   1.491  10.096
12988SOL    HW240406   5.231   1.525   9.950
12989SOL     OW40407   4.913   0.686  10.061
12989SOL    HW140408   4.882   0.707   9.973
12989SOL    HW240409   4.845   0.720  10.119
12990SOL     OW40410   5.528   0.586   9.523
12990SOL    HW140411   5.473   0.601   9.446
12990SOL    HW240412   5.475   0.529   9.579
12991SOL     OW40413   4.481   1.150  10.369
12991SOL    HW140414   4.412   1.186  10.425
12991SOL    HW240415   4.514   1.224  10.320
12992SOL     OW40416   4.410   1.002   9.951
12992SOL    HW140417   4.475   0.992  10.021
12992SOL    HW240418   4.342   1.056   9.990
12993SOL     OW40419   4.442   1.146  11.127
12993SOL    HW140420   4.490   1.222  11.161
12993SOL    HW240421   4.364   1.184  11.088
12994SOL     OW40422   4.056   1.413  10.376
12994SOL    HW140423   3.981   1.374  10.330
12994SOL    HW240424   4.099   1.467  10.310
12995SOL     OW40425   5.180   1.499  10.677
12995SOL    HW140426   5.232   1.579  10.685
12995SOL    HW240427   5.107   1.512  10.737
12996SOL     OW40428   4.175   0.400  10.810
12996SOL    HW140429   4.254   0.346  10.805
12996SOL    HW240430   4.103   0.337  10.805
12997SOL     OW40431   5.323   0.453  10.029
12997SOL    HW140432   5.234   0.442   9.995
12997SOL    HW240433   5.329   0.546  10.052
12998SOL     OW40434   3.946   1.713   9.773
12998SOL    HW140435   3.968   1.789   9.828
12998SOL    HW240436   4.018   1.708   9.711
12999SOL     OW40437   4.869   1.347  11.006
12999SOL    HW140438   4.901   1.335  11.096
12999SOL    HW240439   4.819   1.267  10.989
13000SOL     OW40440   3.961   1.449   9.852
13000SOL    HW140441   3.946   1.543   9.840
13000SOL    HW240442   3.896   1.422   9.916
13001SOL     OW40443   3.997   1.092  10.205
13001SOL    HW140444   3.997   1.002  10.236
13001SOL    HW240445   3.934   1.137  10.263
13002SOL     OW40446   4.326   1.791  10.742
13002SOL    HW140447   4.243   1.775  10.787
13002SOL    HW240448   4.350   1.881  10.766
13003SOL     OW40449   4.294   0.991   9.448
13003SOL    HW140450   4.345   1.035   9.380
13003SOL    HW240451   4.334   1.018   9.530
13004SOL     OW40452   5.392   0.133  10.798
13004SOL    HW140453   5.347   0.118  10.715
13004SOL    HW240454   5.324   0.162  10.858
13005SOL     OW40455   3.838   0.659   9.869
13005SOL    HW140456   3.814   0.568   9.887
13005SOL    HW240457   3.834   0.702   9.954
13006SOL     OW40458   5.565   1.756   9.638
13006SOL    HW140459   5.636   1.734   9.699
13006SOL    HW240460   5.579   1.848   9.616
13007SOL     OW40461   3.761   1.589   9.436
13007SOL    HW140462   3.745   1.497   9.459
13007SOL    HW240463   3.735   1.638   9.513
13008SOL     OW40464   5.432   0.945   9.960
13008SOL    HW140465   5.477   0.866   9.929
13008SOL    HW240466   5.397   0.985   9.880
13009SOL     OW40467   5.375   1.107   9.736
13009SOL    HW140468   5.465   1.107   9.701
13009SOL    HW240469   5.377   1.172   9.806
13010SOL     OW40470   3.845   0.747  10.890
13010SOL    HW140471   3.933   0.784  10.895
13010SOL    HW240472   3.787   0.823  10.886
13011SOL     OW40473   4.346   1.396  10.045
13011SOL    HW140474   4.300   1.312  10.051
13011SOL    HW240475   4.329   1.426   9.956
13012SOL     OW40476   5.003   1.232  10.732
13012SOL    HW140477   5.031   1.165  10.669
13012SOL    HW240478   5.066   1.225  10.804
13013SOL     OW40479   4.567   0.037   9.884
13013SOL    HW140480   4.603   0.112   9.835
13013SOL    HW240481   4.474   0.036   9.861
13014SOL     OW40482   3.904   0.960  10.588
13014SOL    HW140483   3.991   0.924  10.576
13014SOL    HW240484   3.849   0.913  10.526
13015SOL     OW40485   5.277   1.006   9.501
13015SOL    HW140486   5.208   0.946   9.530
13015SOL    HW240487   5.312   1.042   9.583
13016SOL     OW40488   4.920   1.816  10.940
13016SOL    HW140489   4.914   1.879  10.868
13016SOL    HW240490   4.926   1.731  10.897
13017SOL     OW40491   4.048   0.241  11.115
13017SOL    HW140492   4.102   0.313  11.149
13017SOL    HW240493   3.962   0.257  11.152
13018SOL     OW40494   5.183   1.424  10.246
13018SOL    HW140495   5.122   1.435  10.319
13018SOL    HW240496   5.175   1.332  10.222
13019SOL     OW40497   5.381   1.759   9.886
13019SOL    HW140498   5.361   1.731   9.797
13019SOL    HW240499   5.362   1.683   9.941
13020SOL     OW40500   4.311   0.719   9.570
13020SOL    HW140501   4.320   0.804   9.528
13020SOL    HW240502   4.250   0.734   9.643
13021SOL     OW40503   5.022   0.362  10.246
13021SOL    HW140504   4.930   0.336  10.251
13021SOL    HW240505   5.065   0.308  10.312
13022SOL     OW40506   5.304   1.666   9.623
13022SOL    HW140507   5.394   1.697   9.611
13022SOL    HW240508   5.270   1.654   9.534
13023SOL     OW40509   4.480   0.632  10.780
13023SOL    HW140510   4.524   0.580  10.848
13023SOL    HW240511   4.470   0.572  10.707
13024SOL     OW40512   5.130   0.484  10.991
13024SOL    HW140513   5.142   0.526  11.077
13024SOL    HW240514   5.192   0.412  10.992
13025SOL     OW40515   4.661   0.863  10.911
13025SOL    HW140516   4.714   0.797  10.866
13025SOL    HW240517   4.613   0.908  10.842
13026SOL     OW40518   4.727   0.420  10.525
13026SOL    HW140519   4.637   0.431  10.554
13026SOL    HW240520   4.720   0.376  10.440
13027SOL     OW40521   3.815   0.814  10.094
13027SOL    HW140522   3.897   0.811  10.144
13027SOL    HW240523   3.771   0.893  10.125
13028SOL     OW40524   3.847   1.877  10.894
13028SOL    HW140525   3.851   1.852  10.987
13028SOL    HW240526   3.763   1.842  10.863
13029SOL     OW40527   4.614   0.357   9.506
13029SOL    HW140528   4.666   0.414   9.449
13029SOL    HW240529   4.564   0.302   9.446
13030SOL     OW40530   5.420   0.572  11.142
13030SOL    HW140531   5.392   0.648  11.092
13030SOL    HW240532   5.447   0.509  11.075
13031SOL     OW40533   5.104   1.147   9.847
13031SOL    HW140534   5.175   1.121   9.788
13031SOL    HW240535   5.046   1.201   9.793
13032SOL     OW40536   4.268   0.210  10.244
13032SOL    HW140537   4.253   0.298  10.279
13032SOL    HW240538   4.284   0.224  10.151
13033SOL     OW40539   4.753   1.492   9.801
13033SOL    HW140540   4.701   1.532   9.731
13033SOL    HW240541   4.692   1.436   9.848
13034SOL     OW40542   4.077   1.817  10.187
13034SOL    HW140543   4.125   1.734  10.190
13034SOL    HW240544   4.144   1.884  10.199
13035SOL     OW40545   5.533   1.071  10.180
13035SOL    HW140546   5.489   1.036  10.102
13035SOL    HW240547   5.467   1.067  10.249
13036SOL     OW40548   4.949   1.543  10.823
13036SOL    HW140549   4.940   1.473  10.888
13036SOL    HW240550   4.885   1.522  10.756
13037SOL     OW40551   4.031   0.959   9.565
13037SOL    HW140552   4.112   0.982   9.521
13037SOL    HW240553   4.007   0.874   9.529
13038SOL     OW40554   5.247   0.719  10.037
13038SOL    HW140555   5.184   0.694  10.104
13038SOL    HW240556   5.249   0.814  10.039
13039SOL     OW40557   4.197   1.268  11.048
13039SOL    HW140558   4.170   1.273  10.956
13039SOL    HW240559   4.115   1.263  11.097
13040SOL     OW40560   4.855   1.746   9.572
13040SOL    HW140561   4.762   1.726   9.581
13040SOL    HW240562   4.882   1.699   9.493
13041SOL     OW40563   3.926   0.270  10.812
13041SOL    HW140564   3.855   0.332  10.796
13041SOL    HW240565   3.919   0.249  10.905
13042SOL     OW40566   5.362   1.383   9.410
13042SOL    HW140567   5.321   1.468   9.391
13042SOL    HW240568   5.295   1.319   9.386
13043SOL     OW40569   4.193   1.728   9.631
13043SOL    HW140570   4.235   1.792   9.688
13043SOL    HW240571   4.259   1.707   9.565
13044SOL     OW40572   5.133   0.134   9.722
13044SOL    HW140573   5.133   0.087   9.638
13044SOL    HW240574   5.224   0.135   9.749
13045SOL     OW40575   3.977   1.788  10.534
13045SOL    HW140576   4.028   1.713  10.564
13045SOL    HW240577   3.962   1.771  10.441
13046SOL     OW40578   4.682   1.722  10.162
13046SOL    HW140579   4.763   1.678  10.188
13046SOL    HW240580   4.622   1.652  10.140
13047SOL     OW40581   4.117   0.701   9.782
13047SOL    HW140582   4.136   0.608   9.792
13047SOL    HW240583   4.023   0.709   9.794
13048SOL     OW40584   5.257   0.218  11.032
13048SOL    HW140585   5.268   0.243  11.124
13048SOL    HW240586   5.193   0.147  11.034
13049SOL     OW40587   4.293   0.113   9.412
13049SOL    HW140588   4.360   0.069   9.465
13049SOL    HW240589   4.343   0.159   9.345
13050SOL     OW40590   4.507   0.306  11.111
13050SOL    HW140591   4.537   0.228  11.064
13050SOL    HW240592   4.436   0.274  11.167
13051SOL     OW40593   4.602   1.532  10.503
13051SOL    HW140594   4.585   1.491  10.418
13051SOL    HW240595   4.671   1.479  10.542
13052SOL     OW40596   5.055   0.602  10.750
13052SOL    HW140597   5.100   0.569  10.828
13052SOL    HW240598   5.099   0.685  10.730
13053SOL     OW40599   4.544   1.403  10.254
13053SOL    HW140600   4.626   1.379  10.211
13053SOL    HW240601   4.478   1.394  10.185
13054SOL     OW40602   4.641   0.518  10.201
13054SOL    HW140603   4.617   0.510  10.109
13054SOL    HW240604   4.685   0.436  10.222
13055SOL     OW40605   4.312   0.072   9.786
13055SOL    HW140606   4.242   0.007   9.783
13055SOL    HW240607   4.281   0.143   9.730
13056SOL     OW40608   5.159   1.208   9.349
13056SOL    HW140609   5.185   1.130   9.398
13056SOL    HW240610   5.069   1.225   9.378
13057SOL     OW40611   4.015   0.044   9.488
13057SOL    HW140612   4.105   0.063   9.462
13057SOL    HW240613   4.024  -0.006   9.569
13058SOL     OW40614   4.674   0.259   9.764
13058SOL    HW140615   4.645   0.286   9.677
13058SOL    HW240616   4.768   0.278   9.765
13059SOL     OW40617   4.792   0.661  10.784
13059SOL    HW140618   4.747   0.577  10.781
13059SOL    HW240619   4.884   0.640  10.769
13060SOL     OW40620   4.933   1.583  10.106
13060SOL    HW140621   4.976   1.615  10.027
13060SOL    HW240622   5.003   1.572  10.169
13061SOL     OW40623   4.198   1.162  10.036
13061SOL    HW140624   4.132   1.138  10.101
13061SOL    HW240625   4.155   1.149   9.951
13062SOL     OW40626   4.943   1.825   9.917
13062SOL    HW140627   4.987   1.865   9.841
13062SOL    HW240628   4.984   1.867   9.993
13063SOL     OW40629   4.757   0.540   9.342
13063SOL    HW140630   4.705   0.616   9.319
13063SOL    HW240631   4.806   0.566   9.420
13064SOL     OW40632   3.829   0.545  10.705
13064SOL    HW140633   3.920   0.552  10.675
13064SOL    HW240634   3.818   0.617  10.767
13065SOL     OW40635   4.298   0.248  10.534
13065SOL    HW140636   4.335   0.160  10.542
13065SOL    HW240637   4.204   0.235  10.529
13066SOL     OW40638   4.577   0.453   9.942
13066SOL    HW140639   4.547   0.512   9.873
13066SOL    HW240640   4.618   0.380   9.896
13067SOL     OW40641   4.687   0.030  10.122
13067SOL    HW140642   4.646   0.036  10.036
13067SOL    HW240643   4.722  -0.059  10.126
13068SOL     OW40644   5.170   1.166  10.159
13068SOL    HW140645   5.112   1.090  10.148
13068SOL    HW240646   5.208   1.179  10.072
13069SOL     OW40647   5.165   0.610  10.295
13069SOL    HW140648   5.123   0.525  10.285
13069SOL    HW240649   5.234   0.594  10.360
13070SOL     OW40650   5.577   0.810   9.693
13070SOL    HW140651   5.628   0.759   9.755
13070SOL    HW240652   5.540   0.746   9.632
13071SOL     OW40653   4.217   1.416   9.458
13071SOL    HW140654   4.140   1.389   9.508
13071SOL    HW240655   4.209   1.370   9.374
13072SOL     OW40656   5.401   1.274   9.945
13072SOL    HW140657   5.496   1.271   9.960
13072SOL    HW240658   5.376   1.364   9.965
13073SOL     OW40659   5.116   0.571   9.392
13073SOL    HW140660   5.042   0.564   9.453
13073SOL    HW240661   5.185   0.519   9.433
13074SOL     OW40662   4.231   0.275   9.622
13074SOL    HW140663   4.253   0.217   9.549
13074SOL    HW240664   4.212   0.360   9.581
13075SOL     OW40665   5.469   1.246  10.871
13075SOL    HW140666   5.553   1.200  10.871
13075SOL    HW240667   5.490   1.335  10.896
13076SOL     OW40668   4.777   1.375  10.660
13076SOL    HW140669   4.700   1.333  10.698
13076SOL    HW240670   4.850   1.320  10.688
13077SOL     OW40671   5.340   1.629  10.977
13077SOL    HW140672   5.320   1.662  10.890
13077SOL    HW240673   5.421   1.578  10.966
13078SOL     OW40674   4.865   1.227  10.411
13078SOL    HW140675   4.782   1.227  10.459
13078SOL    HW240676   4.841   1.244  10.320
13079SOL     OW40677   5.347   1.094  10.383
13079SOL    HW140678   5.335   1.157  10.454
13079SOL    HW240679   5.270   1.106  10.327
13080SOL     OW40680   4.636   0.128  10.704
13080SOL    HW140681   4.649   0.104  10.612
13080SOL    HW240682   4.725   0.134  10.740
13081SOL     OW40683   4.711   1.121  11.015
13081SOL    HW140684   4.620   1.143  11.036
13081SOL    HW240685   4.705   1.043  10.959
13082SOL     OW40686   4.428   1.057   9.680
13082SOL    HW140687   4.419   1.035   9.772
13082SOL    HW240688   4.502   1.005   9.649
13083SOL     OW40689   4.142   0.829  10.564
13083SOL    HW140690   4.209   0.843  10.630
13083SOL    HW240691   4.116   0.738  10.574
13084SOL     OW40692   4.985   0.379  10.604
13084SOL    HW140693   5.018   0.462  10.638
13084SOL    HW240694   4.901   0.400  10.565
13085SOL     OW40695   3.800   1.569  10.663
13085SOL    HW140696   3.770   1.641  10.608
13085SOL    HW240697   3.895   1.571  10.656
13086SOL     OW40698   4.057   1.123   9.800
13086SOL    HW140699   4.059   1.193   9.735
13086SOL    HW240700   4.057   1.043   9.749
13087SOL     OW40701   4.272   0.546  10.181
13087SOL    HW140702   4.277   0.601  10.104
13087SOL    HW240703   4.356   0.557  10.225
13088SOL     OW40704   4.971   1.353   9.698
13088SOL    HW140705   5.038   1.417   9.723
13088SOL    HW240706   4.890   1.388   9.736
13089SOL     OW40707   5.014   1.461  10.454
13089SOL    HW140708   5.063   1.458  10.536
13089SOL    HW240709   4.958   1.383  10.457
13090SOL     OW40710   5.302   0.643   9.773
13090SOL    HW140711   5.280   0.662   9.864
13090SOL    HW240712   5.254   0.709   9.723
13091SOL     OW40713   4.071   1.530  10.616
13091SOL    HW140714   4.061   1.484  10.533
13091SOL    HW240715   4.166   1.544  10.625
13092SOL     OW40716   4.139   0.741  10.912
13092SOL    HW140717   4.201   0.791  10.859
13092SOL    HW240718   4.158   0.649  10.890
13093SOL     OW40719   5.335   0.786  10.999
13093SOL    HW140720   5.250   0.826  10.987
13093SOL    HW240721   5.389   0.821  10.928
13094SOL     OW40722   4.770   0.079  11.063
13094SOL    HW140723   4.789   0.167  11.028
13094SOL    HW240724   4.677   0.065  11.043
13095SOL     OW40725   4.222   0.030  11.060
13095SOL    HW140726   4.199  -0.030  10.988
13095SOL    HW240727   4.152   0.095  11.060
13096SOL     OW40728   4.321   0.871  10.351
13096SOL    HW140729   4.341   0.965  10.342
13096SOL    HW240730   4.251   0.868  10.417
13097SOL     OW40731   5.071   0.863  10.330
13097SOL    HW140732   5.024   0.873  10.247
13097SOL    HW240733   5.105   0.773  10.327
13098SOL     OW40734   4.917   0.545   9.581
13098SOL    HW140735   4.916   0.466   9.636
13098SOL    HW240736   4.891   0.615   9.640
13099SOL     OW40737   4.030   0.201  10.537
13099SOL    HW140738   3.970   0.212  10.610
13099SOL    HW240739   4.013   0.113  10.504
13100SOL     OW40740   3.735   1.311  10.589
13100SOL    HW140741   3.781   1.255  10.652
13100SOL    HW240742   3.759   1.400  10.615
13101SOL     OW40743   4.463   0.637  10.379
13101SOL    HW140744   4.526   0.619  10.309
13101SOL    HW240745   4.423   0.721  10.354
13102SOL     OW40746   5.459   0.973  11.162
13102SOL    HW140747   5.419   0.900  11.116
13102SOL    HW240748   5.409   0.981  11.243
13103SOL     OW40749   4.077   0.041  10.030
13103SOL    HW140750   4.071   0.135  10.014
13103SOL    HW240751   4.074   0.001   9.943
13104SOL     OW40752   5.368   0.394   9.677
13104SOL    HW140753   5.365   0.322   9.740
13104SOL    HW240754   5.338   0.470   9.726
13105SOL     OW40755   4.732   0.770  10.268
13105SOL    HW140756   4.739   0.778  10.364
13105SOL    HW240757   4.712   0.677  10.254
13106SOL     OW40758   4.711   1.570  11.036
13106SOL    HW140759   4.688   1.613  10.954
13106SOL    HW240760   4.753   1.488  11.009
13107SOL     OW40761   5.574   1.502  10.917
13107SOL    HW140762   5.596   1.527  10.827
13107SOL    HW240763   5.657   1.509  10.965
13108SOL     OW40764   4.077   0.919  11.115
13108SOL    HW140765   4.157   0.935  11.164
13108SOL    HW240766   4.100   0.851  11.051
13109SOL     OW40767   5.303   0.317   9.425
13109SOL    HW140768   5.213   0.285   9.430
13109SOL    HW240769   5.330   0.329   9.516
13110SOL     OW40770   5.012   0.829   9.337
13110SOL    HW140771   5.051   0.742   9.342
13110SOL    HW240772   5.041   0.863   9.252
13111SOL     OW40773   4.787   1.333  10.160
13111SOL    HW140774   4.790   1.257  10.102
13111SOL    HW240775   4.845   1.397  10.119
13112SOL     OW40776   4.038   0.814  10.253
13112SOL    HW140777   4.127   0.820  10.219
13112SOL    HW240778   4.033   0.726  10.292
13113SOL     OW40779   4.055   0.543  10.333
13113SOL    HW140780   4.013   0.460  10.309
13113SOL    HW240781   4.133   0.547  10.277
13114SOL     OW40782   4.887   0.363  11.018
13114SOL    HW140783   4.824   0.428  11.049
13114SOL    HW240784   4.968   0.413  11.004
13115SOL     OW40785   4.885   0.212  10.791
13115SOL    HW140786   4.899   0.266  10.869
13115SOL    HW240787   4.921   0.264  10.719
13116SOL     OW40788   3.734   1.315   9.512
13116SOL    HW140789   3.646   1.332   9.477
13116SOL    HW240790   3.729   1.225   9.544
13117SOL     OW40791   3.817   1.778  10.262
13117SOL    HW140792   3.785   1.702  10.212
13117SOL    HW240793   3.903   1.797  10.225
13118SOL     OW40794   4.219   1.578  10.219
13118SOL    HW140795   4.290   1.639  10.239
13118SOL    HW240796   4.257   1.517  10.155
13119SOL     OW40797   4.691   0.791  10.549
13119SOL    HW140798   4.741   0.756  10.622
13119SOL    HW240799   4.614   0.734  10.543
13120SOL     OW40800   3.756   0.549  10.428
13120SOL    HW140801   3.824   0.526  10.365
13120SOL    HW240802   3.799   0.543  10.513
13121SOL     OW40803   3.914   0.527  11.041
13121SOL    HW140804   3.981   0.494  10.982
13121SOL    HW240805   3.874   0.600  10.994
13122SOL     OW40806   5.103   0.932  10.965
13122SOL    HW140807   5.126   1.025  10.961
13122SOL    HW240808   5.102   0.904  10.873
13123SOL     OW40809   4.495   0.538   9.692
13123SOL    HW140810   4.530   0.482   9.623
13123SOL    HW240811   4.444   0.604   9.645
13124SOL     OW40812   5.366   0.608  10.490
13124SOL    HW140813   5.362   0.548  10.565
13124SOL    HW240814   5.452   0.592  10.451
13125SOL     OW40815   3.959   1.547  11.031
13125SOL    HW140816   3.938   1.612  11.098
13125SOL    HW240817   3.967   1.464  11.079
13126SOL     OW40818   4.459   0.458  10.578
13126SOL    HW140819   4.400   0.384  10.563
13126SOL    HW240820   4.446   0.515  10.502
13127SOL     OW40821   4.640   1.683  10.791
13127SOL    HW140822   4.623   1.637  10.709
13127SOL    HW240823   4.634   1.776  10.768
13128SOL     OW40824   4.170   0.499   9.481
13128SOL    HW140825   4.234   0.567   9.502
13128SOL    HW240826   4.086   0.545   9.479
13129SOL     OW40827   3.860   1.146  10.781
13129SOL    HW140828   3.867   1.102  10.865
13129SOL    HW240829   3.878   1.077  10.716
13130SOL     OW40830   5.040   1.045  10.526
13130SOL    HW140831   5.056   0.978  10.460
13130SOL    HW240832   4.980   1.106  10.484
13131SOL     OW40833   5.080   0.858   9.605
13131SOL    HW140834   5.011   0.842   9.670
13131SOL    HW240835   5.036   0.850   9.521
13132SOL     OW40836   5.512   1.728  10.482
13132SOL    HW140837   5.567   1.755  10.409
13132SOL    HW240838   5.472   1.646  10.454
13133SOL     OW40839   4.965   1.735  10.416
13133SOL    HW140840   5.046   1.758  10.372
13133SOL    HW240841   4.974   1.641  10.435
13134SOL     OW40842   3.804   1.270  10.320
13134SOL    HW140843   3.776   1.276  10.411
13134SOL    HW240844   3.745   1.204  10.282
13135SOL     OW40845   4.404   1.674  11.048
13135SOL    HW140846   4.340   1.746  11.043
13135SOL    HW240847   4.468   1.694  10.980
13136SOL     OW40848   5.389   0.146   9.824
13136SOL    HW140849   5.479   0.119   9.803
13136SOL    HW240850   5.368   0.097   9.904
13137SOL     OW40851   5.119   1.577   9.803
13137SOL    HW140852   5.186   1.597   9.738
13137SOL    HW240853   5.048   1.639   9.783
13138SOL     OW40854   3.863   1.792  11.152
13138SOL    HW140855   3.813   1.725  11.198
13138SOL    HW240856   3.909   1.840  11.221
13139SOL     OW40857   5.049   0.948  10.033
13139SOL    HW140858   5.003   0.872   9.996
13139SOL    HW240859   5.057   1.009   9.960
13140SOL     OW40860   4.523   1.281  10.727
13140SOL    HW140861   4.495   1.323  10.808
13140SOL    HW240862   4.451   1.295  10.666
13141SOL     OW40863   4.407   1.608   9.459
13141SOL    HW140864   4.411   1.636   9.368
13141SOL    HW240865   4.339   1.540   9.461
13142SOL     OW40866   5.341   1.726  10.711
13142SOL    HW140867   5.394   1.724  10.631
13142SOL    HW240868   5.328   1.819  10.728
13143SOL     OW40869   5.582   0.180  10.252
13143SOL    HW140870   5.580   0.092  10.291
13143SOL    HW240871   5.494   0.193  10.217
13144SOL     OW40872   3.992   0.309  10.019
13144SOL    HW140873   3.911   0.351   9.989
13144SOL    HW240874   3.987   0.312  10.115
13145SOL     OW40875   4.933   1.607   9.349
13145SOL    HW140876   4.921   1.513   9.361
13145SOL    HW240877   4.878   1.629   9.274
13146SOL     OW40878   4.554   1.006  10.705
13146SOL    HW140879   4.595   0.982  10.622
13146SOL    HW240880   4.549   1.101  10.703
13147SOL     OW40881   4.635   0.913   9.589
13147SOL    HW140882   4.700   0.948   9.529
13147SOL    HW240883   4.685   0.863   9.653
13148SOL     OW40884   5.217   1.622   9.360
13148SOL    HW140885   5.122   1.619   9.344
13148SOL    HW240886   5.255   1.632   9.273
13149SOL     OW40887   4.090   1.307  10.804
13149SOL    HW140888   4.080   1.383  10.746
13149SOL    HW240889   4.013   1.253  10.786
13150SOL     OW40890   5.331   1.285  10.591
13150SOL    HW140891   5.384   1.261  10.667
13150SOL    HW240892   5.269   1.350  10.624
13151SOL     OW40893   4.774   1.109  10.013
13151SOL    HW140894   4.705   1.058  10.056
13151SOL    HW240895   4.815   1.048   9.952
13152SOL     OW40896   4.758   0.269  10.262
13152SOL    HW140897   4.735   0.216  10.186
13152SOL    HW240898   4.764   0.206  10.334
13153SOL     OW40899   4.333   1.501   9.790
13153SOL    HW140900   4.380   1.441   9.732
13153SOL    HW240901   4.262   1.536   9.735
13154SOL     OW40902   5.443   0.432  10.693
13154SOL    HW140903   5.525   0.481  10.697
13154SOL    HW240904   5.462   0.356  10.639
13155SOL     OW40905   3.991   1.339   9.610
13155SOL    HW140906   3.899   1.339   9.584
13155SOL    HW240907   3.992   1.383   9.695
13156SOL     OW40908   3.841   1.047  11.040
13156SOL    HW140909   3.764   1.015  11.087
13156SOL    HW240910   3.914   0.997  11.077
13157SOL     OW40911   4.402   0.225  10.821
13157SOL    HW140912   4.463   0.182  10.760
13157SOL    HW240913   4.408   0.174  10.901
13158SOL     OW40914   3.802   0.330   9.339
13158SOL    HW140915   3.709   0.333   9.316
13158SOL    HW240916   3.840   0.405   9.294
13159SOL     OW40917   5.149   0.863  10.705
13159SOL    HW140918   5.098   0.920  10.648
13159SOL    HW240919   5.236   0.860  10.665
13160SOL     OW40920   3.764   0.162   9.592
13160SOL    HW140921   3.780   0.238   9.537
13160SOL    HW240922   3.845   0.112   9.588
13161SOL     OW40923   4.900   1.333   9.422
13161SOL    HW140924   4.807   1.312   9.418
13161SOL    HW240925   4.923   1.327   9.514
13162SOL     OW40926   4.333   0.850  10.754
13162SOL    HW140927   4.397   0.920  10.737
13162SOL    HW240928   4.386   0.771  10.762
13163SOL     OW40929   5.204   1.796  10.290
13163SOL    HW140930   5.234   1.869  10.237
13163SOL    HW240931   5.281   1.741  10.302
13164SOL     OW40932   4.482   0.581  11.090
13164SOL    HW140933   4.390   0.571  11.116
13164SOL    HW240934   4.513   0.492  11.075
13165SOL     OW40935   5.199   1.192  10.941
13165SOL    HW140936   5.191   1.205  11.036
13165SOL    HW240937   5.291   1.209  10.922
13166SOL     OW40938   4.092   1.742  10.878
13166SOL    HW140939   4.012   1.790  10.859
13166SOL    HW240940   4.063   1.660  10.916
13167SOL     OW40941   5.386   0.877  10.564
13167SOL    HW140942   5.382   0.790  10.524
13167SOL    HW240943   5.376   0.937  10.490
13168SOL     OW40944   4.943   0.325   9.767
13168SOL    HW140945   5.006   0.254   9.753
13168SOL    HW240946   4.976   0.372   9.843
13169SOL     OW40947   4.288   0.748   9.996
13169SOL    HW140948   4.345   0.820   9.969
13169SOL    HW240949   4.233   0.732   9.919
13170SOL     OW40950   5.472   0.380  10.959
13170SOL    HW140951   5.463   0.396  10.865
13170SOL    HW240952   5.411   0.308  10.977
13171SOL     OW40953   5.479   0.928  10.816
13171SOL    HW140954   5.462   1.022  10.825
13171SOL    HW240955   5.458   0.909  10.724
13172SOL     OW40956   4.604   1.385   9.370
13172SOL    HW140957   4.534   1.434   9.412
13172SOL    HW240958   4.628   1.438   9.294
13173SOL     OW40959   4.400   1.786  10.245
13173SOL    HW140960   4.363   1.872  10.229
13173SOL    HW240961   4.492   1.795  10.222
13174SOL     OW40962   4.585   0.980  10.167
13174SOL    HW140963   4.633   0.902  10.196
13174SOL    HW240964   4.551   1.019  10.248
13175SOL     OW40965   4.811   1.005   9.403
13175SOL    HW140966   4.783   1.046   9.321
13175SOL    HW240967   4.878   0.943   9.377
13176SOL     OW40968   5.572   1.554  10.156
13176SOL    HW140969   5.494   1.541  10.101
13176SOL    HW240970   5.582   1.471  10.202
13177SOL     OW40971   3.948   1.294  11.159
13177SOL    HW140972   3.898   1.223  11.120
13177SOL    HW240973   3.909   1.306  11.246
13178SOL     OW40974   3.808   1.229   9.973
13178SOL    HW140975   3.829   1.178  10.051
13178SOL    HW240976   3.873   1.202   9.908
13179SOL     OW40977   4.414   1.408  10.946
13179SOL    HW140978   4.333   1.367  10.977
13179SOL    HW240979   4.410   1.498  10.978
13180SOL     OW40980   5.540   0.241  10.533
13180SOL    HW140981   5.529   0.147  10.541
13180SOL    HW240982   5.564   0.255  10.441
13181SOL     OW40983   4.146   0.440   9.831
13181SOL    HW140984   4.178   0.375   9.768
13181SOL    HW240985   4.107   0.388   9.901
13182SOL     OW40986   5.401   1.493  10.412
13182SOL    HW140987   5.332   1.471  10.349
13182SOL    HW240988   5.405   1.418  10.471
13183SOL     OW40989   4.077   0.566  10.605
13183SOL    HW140990   4.130   0.501  10.650
13183SOL    HW240991   4.083   0.542  10.512
13184SOL     OW40992   4.535   1.588   9.962
13184SOL    HW140993   4.488   1.598   9.879
13184SOL    HW240994   4.484   1.523  10.011
13185SOL     OW40995   5.154   0.225  10.437
13185SOL    HW140996   5.214   0.162  10.478
13185SOL    HW240997   5.107   0.265  10.510
13186SOL     OW40998   4.753   0.076  10.449
13186SOL    HW140999   4.671   0.043  10.412
13186SOL    HW241000   4.807  -0.002  10.461
13187SOL     OW41001   4.500   1.324   9.662
13187SOL    HW141002   4.457   1.239   9.665
13187SOL    HW241003   4.577   1.310   9.608
13188SOL     OW41004   4.346   1.559  10.599
13188SOL    HW141005   4.345   1.640  10.649
13188SOL    HW241006   4.433   1.555  10.560
13189SOL     OW41007   5.069   7.990   9.483
13189SOL    HW141008   5.111   7.905   9.471
13189SOL    HW241009   4.985   7.970   9.524
13190SOL     OW41010   5.046   0.453   9.991
13190SOL    HW141011   5.003   0.538   9.997
13190SOL    HW241012   5.036   0.415  10.078
13191SOL     OW41013   5.333   0.218  10.169
13191SOL    HW141014   5.254   0.206  10.222
13191SOL    HW241015   5.321   0.302  10.125
13192SOL     OW41016   3.765   1.060   9.624
13192SOL    HW141017   3.857   1.050   9.601
13192SOL    HW241018   3.735   0.971   9.643
13193SOL     OW41019   4.594   1.667   9.657
13193SOL    HW141020   4.534   1.636   9.589
13193SOL    HW241021   4.556   1.749   9.687
13194SOL     OW41022   3.940   0.632  11.300
13194SOL    HW141023   3.854   0.619  11.340
13194SOL    HW241024   3.929   0.604  11.209
13195SOL     OW41025   3.932   0.311  12.164
13195SOL    HW141026   3.974   0.258  12.231
13195SOL    HW241027   3.852   0.264  12.142
13196SOL     OW41028   3.724   0.387  11.802
13196SOL    HW141029   3.642   0.408  11.847
13196SOL    HW241030   3.710   0.300  11.765
13197SOL     OW41031   4.263   1.315  12.401
13197SOL    HW141032   4.194   1.309  12.334
13197SOL    HW241033   4.344   1.306  12.351
13198SOL     OW41034   5.288   1.517  11.884
13198SOL    HW141035   5.254   1.497  11.972
13198SOL    HW241036   5.210   1.521  11.829
13199SOL     OW41037   4.856   0.700  11.863
13199SOL    HW141038   4.904   0.783  11.858
13199SOL    HW241039   4.810   0.705  11.947
13200SOL     OW41040   5.518   0.591  11.392
13200SOL    HW141041   5.482   0.586  11.303
13200SOL    HW241042   5.476   0.520  11.439
13201SOL     OW41043   4.521   1.164  12.266
13201SOL    HW141044   4.455   1.101  12.237
13201SOL    HW241045   4.514   1.237  12.205
13202SOL     OW41046   4.408   0.998  11.816
13202SOL    HW141047   4.475   0.988  11.884
13202SOL    HW241048   4.339   1.050  11.858
13203SOL     OW41049   4.051   1.415  12.227
13203SOL    HW141050   3.972   1.387  12.182
13203SOL    HW241051   4.096   1.471  12.164
13204SOL     OW41052   5.326   0.454  11.900
13204SOL    HW141053   5.245   0.470  11.851
13204SOL    HW241054   5.330   0.525  11.964
13205SOL     OW41055   3.942   1.719  11.638
13205SOL    HW141056   3.965   1.792  11.695
13205SOL    HW241057   4.017   1.711  11.579
13206SOL     OW41058   3.958   1.447  11.709
13206SOL    HW141059   3.936   1.540  11.713
13206SOL    HW241060   3.903   1.406  11.776
13207SOL     OW41061   3.982   1.090  12.052
13207SOL    HW141062   4.002   1.001  12.080
13207SOL    HW241063   3.947   1.133  12.130
13208SOL     OW41064   4.308   0.982  11.311
13208SOL    HW141065   4.355   1.032  11.244
13208SOL    HW241066   4.344   1.015  11.394
13209SOL     OW41067   3.841   0.662  11.732
13209SOL    HW141068   3.818   0.571  11.754
13209SOL    HW241069   3.837   0.708  11.816
13210SOL     OW41070   5.530   1.757  11.503
13210SOL    HW141071   5.597   1.729  11.565
13210SOL    HW241072   5.556   1.846  11.479
13211SOL     OW41073   3.761   1.586  11.292
13211SOL    HW141074   3.746   1.495  11.315
13211SOL    HW241075   3.737   1.635  11.371
13212SOL     OW41076   5.416   0.902  11.816
13212SOL    HW141077   5.507   0.878  11.833
13212SOL    HW241078   5.419   0.954  11.735
13213SOL     OW41079   5.377   1.113  11.605
13213SOL    HW141080   5.467   1.119  11.574
13213SOL    HW241081   5.375   1.164  11.686
13214SOL     OW41082   3.905   0.740   0.239
13214SOL    HW141083   3.956   0.709   0.315
13214SOL    HW241084   3.823   0.772   0.277
13215SOL     OW41085   4.340   1.395  11.894
13215SOL    HW141086   4.293   1.312  11.903
13215SOL    HW241087   4.323   1.423  11.804
13216SOL     OW41088   4.554   0.029  11.716
13216SOL    HW141089   4.589   0.116  11.696
13216SOL    HW241090   4.459   0.042  11.723
13217SOL     OW41091   3.893   0.989  12.442
13217SOL    HW141092   3.980   0.949  12.449
13217SOL    HW241093   3.841   0.923  12.396
13218SOL     OW41094   5.255   1.005  11.379
13218SOL    HW141095   5.183   0.952  11.413
13218SOL    HW241096   5.304   1.032  11.456
13219SOL     OW41097   5.163   1.427  12.108
13219SOL    HW141098   5.112   1.436  12.188
13219SOL    HW241099   5.159   1.333  12.088
13220SOL     OW41100   5.375   1.767  11.767
13220SOL    HW141101   5.344   1.707  11.699
13220SOL    HW241102   5.378   1.714  11.846
13221SOL     OW41103   4.317   0.718  11.444
13221SOL    HW141104   4.319   0.806  11.406
13221SOL    HW241105   4.254   0.724  11.516
13222SOL     OW41106   5.011   0.366  12.100
13222SOL    HW141107   4.921   0.336  12.110
13222SOL    HW241108   5.061   0.314  12.163
13223SOL     OW41109   4.688   0.340  12.394
13223SOL    HW141110   4.614   0.392  12.425
13223SOL    HW241111   4.682   0.345  12.299
13224SOL     OW41112   4.780   0.702  11.597
13224SOL    HW141113   4.801   0.698  11.690
13224SOL    HW241114   4.696   0.656  11.589
13225SOL     OW41115   3.815   0.830  11.951
13225SOL    HW141116   3.896   0.817  12.000
13225SOL    HW241117   3.776   0.909  11.990
13226SOL     OW41118   4.610   0.352  11.380
13226SOL    HW141119   4.639   0.394  11.299
13226SOL    HW241120   4.574   0.268  11.353
13227SOL     OW41121   5.101   1.130  11.695
13227SOL    HW141122   5.187   1.124  11.653
13227SOL    HW241123   5.051   1.189  11.638
13228SOL     OW41124   4.205   0.220  12.079
13228SOL    HW141125   4.231   0.266  12.159
13228SOL    HW241126   4.256   0.261  12.009
13229SOL     OW41127   4.723   1.448  11.640
13229SOL    HW141128   4.691   1.525  11.593
13229SOL    HW241129   4.698   1.464  11.731
13230SOL     OW41130   4.079   1.814  12.038
13230SOL    HW141131   4.121   1.728  12.048
13230SOL    HW241132   4.146   1.877  12.066
13231SOL     OW41133   5.536   1.061  12.065
13231SOL    HW141134   5.490   1.080  11.983
13231SOL    HW241135   5.468   1.066  12.132
13232SOL     OW41136   4.030   0.959  11.426
13232SOL    HW141137   4.111   0.977  11.378
13232SOL    HW241138   4.005   0.872  11.396
13233SOL     OW41139   5.202   0.752  11.891
13233SOL    HW141140   5.203   0.713  11.978
13233SOL    HW241141   5.282   0.804  11.886
13234SOL     OW41142   4.867   1.757  11.418
13234SOL    HW141143   4.781   1.734  11.452
13234SOL    HW241144   4.878   1.704  11.339
13235SOL     OW41145   5.324   1.411  11.274
13235SOL    HW141146   5.300   1.452  11.191
13235SOL    HW241147   5.274   1.329  11.276
13236SOL     OW41148   4.186   1.740  11.487
13236SOL    HW141149   4.231   1.793  11.553
13236SOL    HW241150   4.256   1.702  11.434
13237SOL     OW41151   5.129   0.135  11.573
13237SOL    HW141152   5.146   0.093  11.489
13237SOL    HW241153   5.215   0.141  11.615
13238SOL     OW41154   3.961   1.799  12.389
13238SOL    HW141155   3.999   1.722  12.430
13238SOL    HW241156   3.923   1.766  12.307
13239SOL     OW41157   4.662   1.699  12.073
13239SOL    HW141158   4.735   1.642  12.098
13239SOL    HW241159   4.618   1.651  12.003
13240SOL     OW41160   4.120   0.699  11.639
13240SOL    HW141161   4.136   0.606  11.657
13240SOL    HW241162   4.027   0.711  11.660
13241SOL     OW41163   4.343   0.156  11.268
13241SOL    HW141164   4.396   0.097  11.322
13241SOL    HW241165   4.299   0.099  11.205
13242SOL     OW41166   4.518   1.380  12.106
13242SOL    HW141167   4.608   1.375  12.072
13242SOL    HW241168   4.463   1.381  12.027
13243SOL     OW41169   4.653   0.517  12.061
13243SOL    HW141170   4.614   0.507  11.974
13243SOL    HW241171   4.686   0.430  12.083
13244SOL     OW41172   4.279   0.066  11.653
13244SOL    HW141173   4.208   0.002  11.656
13244SOL    HW241174   4.251   0.129  11.587
13245SOL     OW41175   5.158   1.203  11.218
13245SOL    HW141176   5.189   1.126  11.267
13245SOL    HW241177   5.069   1.217  11.249
13246SOL     OW41178   4.045   0.044  11.364
13246SOL    HW141179   4.063   0.073  11.275
13246SOL    HW241180   4.069  -0.049  11.363
13247SOL     OW41181   4.671   0.265  11.635
13247SOL    HW141182   4.649   0.295  11.547
13247SOL    HW241183   4.766   0.275  11.640
13248SOL     OW41184   4.947   1.565  11.961
13248SOL    HW141185   4.967   1.644  11.911
13248SOL    HW241186   5.023   1.552  12.018
13249SOL     OW41187   4.194   1.162  11.891
13249SOL    HW141188   4.133   1.136  11.960
13249SOL    HW241189   4.146   1.147  11.810
13250SOL     OW41190   4.992   1.794  11.792
13250SOL    HW141191   5.039   1.862  11.742
13250SOL    HW241192   4.915   1.839  11.827
13251SOL     OW41193   4.788   0.590  11.194
13251SOL    HW141194   4.866   0.640  11.167
13251SOL    HW241195   4.813   0.550  11.277
13252SOL     OW41196   4.281   0.247  12.347
13252SOL    HW141197   4.307   0.157  12.368
13252SOL    HW241198   4.190   0.253  12.375
13253SOL     OW41199   4.564   0.454  11.806
13253SOL    HW141200   4.538   0.518  11.739
13253SOL    HW241201   4.607   0.384  11.756
13254SOL     OW41202   4.700   0.034  11.954
13254SOL    HW141203   4.651   0.028  11.872
13254SOL    HW241204   4.730  -0.055  11.971
13255SOL     OW41205   5.159   1.162  12.033
13255SOL    HW141206   5.099   1.090  12.013
13255SOL    HW241207   5.214   1.170  11.956
13256SOL     OW41208   5.191   0.611  12.134
13256SOL    HW141209   5.136   0.532  12.142
13256SOL    HW241210   5.253   0.604  12.206
13257SOL     OW41211   5.558   0.808  11.549
13257SOL    HW141212   5.617   0.768  11.613
13257SOL    HW241213   5.543   0.739  11.484
13258SOL     OW41214   4.214   1.422  11.323
13258SOL    HW141215   4.138   1.394  11.374
13258SOL    HW241216   4.208   1.373  11.241
13259SOL     OW41217   5.371   1.253  11.849
13259SOL    HW141218   5.462   1.256  11.821
13259SOL    HW241219   5.345   1.344  11.861
13260SOL     OW41220   5.127   0.577  11.252
13260SOL    HW141221   5.068   0.542  11.319
13260SOL    HW241222   5.214   0.551  11.281
13261SOL     OW41223   4.234   0.280  11.482
13261SOL    HW141224   4.272   0.231  11.409
13261SOL    HW241225   4.208   0.364  11.444
13262SOL     OW41226   4.819   1.234  12.278
13262SOL    HW141227   4.731   1.215  12.311
13262SOL    HW241228   4.806   1.263  12.188
13263SOL     OW41229   5.335   1.108  12.250
13263SOL    HW141230   5.307   1.133  12.337
13263SOL    HW241231   5.259   1.123  12.194
13264SOL     OW41232   4.435   1.062  11.545
13264SOL    HW141233   4.419   1.043  11.638
13264SOL    HW241234   4.509   1.005  11.522
13265SOL     OW41235   4.122   0.816  12.434
13265SOL    HW141236   4.183   0.861  12.375
13265SOL    HW241237   4.166   0.735  12.458
13266SOL     OW41238   4.965   0.360  12.429
13266SOL    HW141239   5.003   0.439  12.469
13266SOL    HW241240   4.871   0.377  12.427
13267SOL     OW41241   4.049   1.123  11.659
13267SOL    HW141242   4.052   1.194  11.595
13267SOL    HW241243   4.050   1.043  11.606
13268SOL     OW41244   4.271   0.538  12.031
13268SOL    HW141245   4.292   0.595  11.957
13268SOL    HW241246   4.332   0.565  12.099
13269SOL     OW41247   4.968   1.352  11.556
13269SOL    HW141248   5.028   1.410  11.604
13269SOL    HW241249   4.882   1.371  11.593
13270SOL     OW41250   4.997   1.447  12.324
13270SOL    HW141251   5.054   1.432  12.399
13270SOL    HW241252   4.937   1.373  12.325
13271SOL     OW41253   5.295   0.637  11.646
13271SOL    HW141254   5.249   0.674  11.722
13271SOL    HW241255   5.360   0.703  11.623
13272SOL     OW41256   4.069   1.561  12.463
13272SOL    HW141257   4.062   1.504  12.387
13272SOL    HW241258   4.124   1.513  12.525
13273SOL     OW41259   5.051   0.855  12.178
13273SOL    HW141260   4.964   0.825  12.150
13273SOL    HW241261   5.106   0.776  12.173
13274SOL     OW41262   4.915   0.525  11.433
13274SOL    HW141263   4.928   0.446  11.485
13274SOL    HW241264   4.877   0.588  11.494
13275SOL     OW41265   4.020   0.218  12.417
13275SOL    HW141266   3.978   0.272  12.484
13275SOL    HW241267   3.990   0.129  12.436
13276SOL     OW41268   3.772   1.315  12.429
13276SOL    HW141269   3.817   1.240  12.468
13276SOL    HW241270   3.781   1.385  12.494
13277SOL     OW41271   4.439   0.630  12.228
13277SOL    HW141272   4.517   0.624  12.172
13277SOL    HW241273   4.413   0.722  12.222
13278SOL     OW41274   4.013   0.075  11.847
13278SOL    HW141275   4.018   0.169  11.867
13278SOL    HW241276   4.069   0.034  11.912
13279SOL     OW41277   5.360   0.396  11.532
13279SOL    HW141278   5.361   0.324  11.595
13279SOL    HW241279   5.329   0.471  11.582
13280SOL     OW41280   4.765   0.754  12.139
13280SOL    HW141281   4.751   0.768  12.232
13280SOL    HW241282   4.729   0.667  12.121
13281SOL     OW41283   5.293   0.284  11.291
13281SOL    HW141284   5.199   0.278  11.304
13281SOL    HW241285   5.328   0.314  11.375
13282SOL     OW41286   5.000   0.806  11.186
13282SOL    HW141287   5.061   0.734  11.205
13282SOL    HW241288   5.041   0.852  11.112
13283SOL     OW41289   4.778   1.347  12.022
13283SOL    HW141290   4.787   1.271  11.965
13283SOL    HW241291   4.842   1.410  11.989
13284SOL     OW41292   4.040   0.828  12.120
13284SOL    HW141293   4.130   0.854  12.140
13284SOL    HW241294   4.035   0.736  12.146
13285SOL     OW41295   4.038   0.555  12.168
13285SOL    HW141296   4.006   0.465  12.169
13285SOL    HW241297   4.120   0.551  12.120
13286SOL     OW41298   4.888   0.204   0.164
13286SOL    HW141299   4.908   0.257   0.241
13286SOL    HW241300   4.934   0.248   0.092
13287SOL     OW41301   3.734   1.313  11.362
13287SOL    HW141302   3.645   1.329  11.329
13287SOL    HW241303   3.730   1.225  11.399
13288SOL     OW41304   3.817   1.780  12.115
13288SOL    HW141305   3.787   1.701  12.071
13288SOL    HW241306   3.906   1.794  12.082
13289SOL     OW41307   4.218   1.579  12.071
13289SOL    HW141308   4.288   1.633  12.106
13289SOL    HW241309   4.263   1.515  12.016
13290SOL     OW41310   4.699   0.788  12.410
13290SOL    HW141311   4.740   0.854  12.466
13290SOL    HW241312   4.605   0.804  12.418
13291SOL     OW41313   3.781   0.562  12.293
13291SOL    HW141314   3.859   0.567  12.239
13291SOL    HW241315   3.796   0.488  12.351
13292SOL     OW41316   4.544   0.575  11.543
13292SOL    HW141317   4.550   0.497  11.487
13292SOL    HW241318   4.465   0.620  11.513
13293SOL     OW41319   5.384   0.612  12.333
13293SOL    HW141320   5.373   0.564  12.415
13293SOL    HW241321   5.477   0.605  12.313
13294SOL     OW41322   4.446   0.453  12.436
13294SOL    HW141323   4.378   0.388  12.417
13294SOL    HW241324   4.433   0.522  12.371
13295SOL     OW41325   4.604   1.635   0.033
13295SOL    HW141326   4.635   1.699  -0.032
13295SOL    HW241327   4.645   1.664   0.115
13296SOL     OW41328   4.183   0.506  11.332
13296SOL    HW141329   4.238   0.574  11.371
13296SOL    HW241330   4.096   0.545  11.328
13297SOL     OW41331   5.010   1.049  12.368
13297SOL    HW141332   5.031   0.985  12.300
13297SOL    HW241333   4.951   1.111  12.324
13298SOL     OW41334   5.028   0.873  11.465
13298SOL    HW141335   4.974   0.828  11.530
13298SOL    HW241336   5.004   0.833  11.381
13299SOL     OW41337   5.466   1.753  12.293
13299SOL    HW141338   5.543   1.764  12.237
13299SOL    HW241339   5.456   1.658  12.302
13300SOL     OW41340   4.969   1.720  12.278
13300SOL    HW141341   5.049   1.755  12.239
13300SOL    HW241342   4.984   1.625  12.283
13301SOL     OW41343   3.793   1.297  12.158
13301SOL    HW141344   3.785   1.301  12.253
13301SOL    HW241345   3.747   1.217  12.133
13302SOL     OW41346   5.380   0.148  11.677
13302SOL    HW141347   5.464   0.120  11.641
13302SOL    HW241348   5.377   0.107  11.764
13303SOL     OW41349   5.110   1.601  11.631
13303SOL    HW141350   5.057   1.616  11.553
13303SOL    HW241351   5.075   1.663  11.696
13304SOL     OW41352   5.001   0.932  11.846
13304SOL    HW141353   5.074   0.872  11.860
13304SOL    HW241354   5.036   0.999  11.788
13305SOL     OW41355   4.393   1.629  11.326
13305SOL    HW141356   4.406   1.643  11.232
13305SOL    HW241357   4.337   1.551  11.331
13306SOL     OW41358   5.339   1.812   0.031
13306SOL    HW141359   5.386   1.794  -0.051
13306SOL    HW241360   5.405   1.800   0.099
13307SOL     OW41361   5.581   0.166  12.111
13307SOL    HW141362   5.580   0.077  12.146
13307SOL    HW241363   5.491   0.180  12.079
13308SOL     OW41364   3.986   0.341  11.889
13308SOL    HW141365   3.896   0.366  11.871
13308SOL    HW241366   3.991   0.338  11.985
13309SOL     OW41367   4.942   1.600  11.204
13309SOL    HW141368   4.927   1.508  11.228
13309SOL    HW241369   4.876   1.617  11.136
13310SOL     OW41370   4.519   1.036  12.508
13310SOL    HW141371   4.507   1.056  12.415
13310SOL    HW241372   4.570   1.109  12.542
13311SOL     OW41373   4.636   0.903  11.458
13311SOL    HW141374   4.692   0.921  11.383
13311SOL    HW241375   4.687   0.841  11.512
13312SOL     OW41376   5.213   1.672  11.214
13312SOL    HW141377   5.121   1.646  11.206
13312SOL    HW241378   5.247   1.667  11.125
13313SOL     OW41379   4.785   1.113  11.885
13313SOL    HW141380   4.714   1.062  11.925
13313SOL    HW241381   4.852   1.048  11.865
13314SOL     OW41382   4.745   0.257  12.116
13314SOL    HW141383   4.730   0.201  12.040
13314SOL    HW241384   4.759   0.195  12.188
13315SOL     OW41385   4.331   1.495  11.640
13315SOL    HW141386   4.379   1.441  11.577
13315SOL    HW241387   4.250   1.518  11.595
13316SOL     OW41388   5.447   0.454   0.059
13316SOL    HW141389   5.534   0.414   0.059
13316SOL    HW241390   5.387   0.382   0.077
13317SOL     OW41391   3.990   1.342  11.467
13317SOL    HW141392   3.898   1.337  11.440
13317SOL    HW241393   3.987   1.383  11.553
13318SOL     OW41394   3.804   0.329  11.205
13318SOL    HW141395   3.710   0.315  11.196
13318SOL    HW241396   3.823   0.405  11.150
13319SOL     OW41397   3.863   0.172  11.511
13319SOL    HW141398   3.810   0.230  11.455
13319SOL    HW241399   3.932   0.141  11.453
13320SOL     OW41400   4.897   1.333  11.287
13320SOL    HW141401   4.802   1.319  11.285
13320SOL    HW241402   4.920   1.333  11.380
13321SOL     OW41403   5.212   1.798  12.168
13321SOL    HW141404   5.242   1.858  12.100
13321SOL    HW241405   5.293   1.765  12.208
13322SOL     OW41406   5.376   0.878  12.414
13322SOL    HW141407   5.373   0.791  12.376
13322SOL    HW241408   5.374   0.937  12.338
13323SOL     OW41409   4.940   0.324  11.626
13323SOL    HW141410   5.004   0.255  11.609
13323SOL    HW241411   4.973   0.370  11.702
13324SOL     OW41412   4.324   0.726  11.831
13324SOL    HW141413   4.355   0.817  11.831
13324SOL    HW241414   4.252   0.725  11.769
13325SOL     OW41415   5.545   0.886   0.126
13325SOL    HW141416   5.535   0.971   0.169
13325SOL    HW241417   5.475   0.883   0.061
13326SOL     OW41418   4.602   1.359  11.224
13326SOL    HW141419   4.556   1.380  11.305
13326SOL    HW241420   4.604   1.441  11.175
13327SOL     OW41421   4.389   1.797  12.126
13327SOL    HW141422   4.373   1.884  12.091
13327SOL    HW241423   4.482   1.781  12.108
13328SOL     OW41424   4.597   0.959  12.024
13328SOL    HW141425   4.656   0.893  12.060
13328SOL    HW241426   4.522   0.960  12.084
13329SOL     OW41427   4.761   0.928  11.212
13329SOL    HW141428   4.762   1.010  11.163
13329SOL    HW241429   4.852   0.898  11.208
13330SOL     OW41430   5.593   1.538  12.025
13330SOL    HW141431   5.545   1.502  11.950
13330SOL    HW241432   5.621   1.462  12.074
13331SOL     OW41433   3.820   1.225  11.835
13331SOL    HW141434   3.840   1.187  11.921
13331SOL    HW241435   3.885   1.186  11.776
13332SOL     OW41436   5.576   0.260  12.379
13332SOL    HW141437   5.508   0.208  12.422
13332SOL    HW241438   5.576   0.229  12.288
13333SOL     OW41439   4.153   0.441  11.695
13333SOL    HW141440   4.172   0.366  11.638
13333SOL    HW241441   4.104   0.404  11.768
13334SOL     OW41442   5.424   1.489  12.304
13334SOL    HW141443   5.366   1.433  12.252
13334SOL    HW241444   5.481   1.428  12.350
13335SOL     OW41445   4.548   1.585  11.849
13335SOL    HW141446   4.516   1.640  11.778
13335SOL    HW241447   4.480   1.518  11.861
13336SOL     OW41448   5.161   0.229  12.284
13336SOL    HW141449   5.228   0.184  12.335
13336SOL    HW241450   5.103   0.268  12.350
13337SOL     OW41451   4.777   0.052  12.291
13337SOL    HW141452   4.735  -0.020  12.338
13337SOL    HW241453   4.871   0.039  12.305
13338SOL     OW41454   4.502   1.330  11.492
13338SOL    HW141455   4.474   1.240  11.505
13338SOL    HW241456   4.580   1.339  11.547
13339SOL     OW41457   5.074   7.989  11.305
13339SOL    HW141458   5.129   7.911  11.311
13339SOL    HW241459   5.000   7.971  11.362
13340SOL     OW41460   5.024   0.466  11.846
13340SOL    HW141461   4.971   0.546  11.852
13340SOL    HW241462   5.021   0.429  11.934
13341SOL     OW41463   5.328   0.215  12.037
13341SOL    HW141464   5.262   0.218  12.106
13341SOL    HW241465   5.316   0.297  11.989
13342SOL     OW41466   3.765   1.063  11.479
13342SOL    HW141467   3.859   1.053  11.461
13342SOL    HW241468   3.736   0.974  11.501
13343SOL     OW41469   4.615   1.667  11.508
13343SOL    HW141470   4.539   1.650  11.452
13343SOL    HW241471   4.587   1.738  11.566
13344SOL     OW41472   3.980   2.413   0.054
13344SOL    HW141473   3.949   2.482   0.111
13344SOL    HW241474   3.947   2.436  -0.033
13345SOL     OW41475   3.957   2.139   0.987
13345SOL    HW141476   3.981   2.111   1.075
13345SOL    HW241477   3.868   2.104   0.975
13346SOL     OW41478   4.295   3.161   1.183
13346SOL    HW141479   4.208   3.167   1.146
13346SOL    HW241480   4.311   3.247   1.222
13347SOL     OW41481   5.290   3.378   0.718
13347SOL    HW141482   5.251   3.360   0.804
13347SOL    HW241483   5.215   3.387   0.660
13348SOL     OW41484   4.855   2.561   0.689
13348SOL    HW141485   4.904   2.643   0.678
13348SOL    HW241486   4.811   2.570   0.774
13349SOL     OW41487   5.458   2.473   0.244
13349SOL    HW141488   5.452   2.452   0.151
13349SOL    HW241489   5.424   2.396   0.289
13350SOL     OW41490   4.465   2.997   1.045
13350SOL    HW141491   4.399   3.034   1.103
13350SOL    HW241492   4.509   3.073   1.007
13351SOL     OW41493   4.597   2.616   1.835
13351SOL    HW141494   4.571   2.672   1.908
13351SOL    HW241495   4.611   2.676   1.763
13352SOL     OW41496   4.407   2.849   0.647
13352SOL    HW141497   4.476   2.849   0.714
13352SOL    HW241498   4.340   2.907   0.682
13353SOL     OW41499   4.440   3.014   1.816
13353SOL    HW141500   4.481   3.092   1.853
13353SOL    HW241501   4.357   3.045   1.780
13354SOL     OW41502   4.062   3.269   1.066
13354SOL    HW141503   3.981   3.237   1.027
13354SOL    HW241504   4.099   3.328   1.000
13355SOL     OW41505   5.184   3.367   1.361
13355SOL    HW141506   5.238   3.445   1.373
13355SOL    HW241507   5.113   3.378   1.425
13356SOL     OW41508   4.170   2.235   1.451
13356SOL    HW141509   4.237   2.227   1.519
13356SOL    HW241510   4.088   2.216   1.496
13357SOL     OW41511   5.328   2.308   0.752
13357SOL    HW141512   5.260   2.335   0.691
13357SOL    HW241513   5.321   2.369   0.825
13358SOL     OW41514   3.941   3.578   0.471
13358SOL    HW141515   3.957   3.653   0.529
13358SOL    HW241516   4.020   3.571   0.418
13359SOL     OW41517   4.862   3.205   1.693
13359SOL    HW141518   4.893   3.207   1.784
13359SOL    HW241519   4.805   3.128   1.689
13360SOL     OW41520   3.948   3.311   0.547
13360SOL    HW141521   3.932   3.405   0.545
13360SOL    HW241522   3.892   3.278   0.617
13361SOL     OW41523   3.991   2.956   0.891
13361SOL    HW141524   3.984   2.869   0.931
13361SOL    HW241525   3.934   3.011   0.944
13362SOL     OW41526   4.329   3.647   1.430
13362SOL    HW141527   4.248   3.630   1.477
13362SOL    HW241528   4.352   3.737   1.455
13363SOL     OW41529   4.301   2.830   0.142
13363SOL    HW141530   4.363   2.856   0.074
13363SOL    HW241531   4.333   2.872   0.222
13364SOL     OW41532   5.316   1.988   1.468
13364SOL    HW141533   5.348   2.062   1.415
13364SOL    HW241534   5.301   2.026   1.555
13365SOL     OW41535   3.835   2.515   0.571
13365SOL    HW141536   3.755   2.463   0.582
13365SOL    HW241537   3.836   2.574   0.646
13366SOL     OW41538   5.582   3.600   0.312
13366SOL    HW141539   5.648   3.576   0.376
13366SOL    HW241540   5.594   3.694   0.299
13367SOL     OW41541   3.751   3.409   0.112
13367SOL    HW141542   3.665   3.367   0.108
13367SOL    HW241543   3.743   3.474   0.181
13368SOL     OW41544   5.404   2.782   0.646
13368SOL    HW141545   5.494   2.750   0.655
13368SOL    HW241546   5.406   2.837   0.568
13369SOL     OW41547   5.391   2.978   0.429
13369SOL    HW141548   5.477   2.980   0.385
13369SOL    HW241549   5.401   3.039   0.502
13370SOL     OW41550   3.844   2.612   1.574
13370SOL    HW141551   3.938   2.630   1.577
13370SOL    HW241552   3.804   2.692   1.608
13371SOL     OW41553   4.348   3.252   0.733
13371SOL    HW141554   4.302   3.170   0.747
13371SOL    HW241555   4.327   3.277   0.643
13372SOL     OW41556   5.010   3.093   1.418
13372SOL    HW141557   5.047   3.027   1.360
13372SOL    HW241558   5.065   3.091   1.496
13373SOL     OW41559   4.546   1.879   0.502
13373SOL    HW141560   4.576   1.969   0.489
13373SOL    HW241561   4.451   1.887   0.514
13374SOL     OW41562   3.914   2.826   1.278
13374SOL    HW141563   3.996   2.780   1.261
13374SOL    HW241564   3.846   2.765   1.250
13375SOL     OW41565   4.917   3.687   1.628
13375SOL    HW141566   4.919   3.746   1.552
13375SOL    HW241567   4.939   3.601   1.591
13376SOL     OW41568   4.115   2.146   1.798
13376SOL    HW141569   4.142   2.228   1.839
13376SOL    HW241570   4.021   2.140   1.815
13377SOL     OW41571   5.192   3.278   0.959
13377SOL    HW141572   5.125   3.299   1.025
13377SOL    HW241573   5.177   3.186   0.937
13378SOL     OW41574   5.375   3.621   0.580
13378SOL    HW141575   5.354   3.578   0.497
13378SOL    HW241576   5.359   3.553   0.646
13379SOL     OW41577   4.306   2.581   0.280
13379SOL    HW141578   4.315   2.668   0.239
13379SOL    HW241579   4.240   2.593   0.347
13380SOL     OW41580   5.003   2.226   0.925
13380SOL    HW141581   4.914   2.193   0.937
13380SOL    HW241582   5.057   2.174   0.985
13381SOL     OW41583   5.317   3.533   0.321
13381SOL    HW141584   5.412   3.547   0.318
13381SOL    HW241585   5.285   3.563   0.236
13382SOL     OW41586   4.534   2.474   1.444
13382SOL    HW141587   4.506   2.451   1.533
13382SOL    HW241588   4.492   2.410   1.388
13383SOL     OW41589   5.115   2.347   1.690
13383SOL    HW141590   5.119   2.398   1.771
13383SOL    HW241591   5.187   2.284   1.699
13384SOL     OW41592   4.670   2.750   1.588
13384SOL    HW141593   4.726   2.682   1.550
13384SOL    HW241594   4.627   2.790   1.513
13385SOL     OW41595   4.723   2.265   1.234
13385SOL    HW141596   4.637   2.292   1.266
13385SOL    HW241597   4.705   2.224   1.149
13386SOL     OW41598   4.778   2.558   0.422
13386SOL    HW141599   4.796   2.558   0.516
13386SOL    HW241600   4.692   2.518   0.413
13387SOL     OW41601   3.814   2.681   0.778
13387SOL    HW141602   3.893   2.683   0.833
13387SOL    HW241603   3.761   2.754   0.811
13388SOL     OW41604   3.851   3.736   1.584
13388SOL    HW141605   3.852   3.711   1.677
13388SOL    HW241606   3.764   3.712   1.554
13389SOL     OW41607   4.691   2.194   0.201
13389SOL    HW141608   4.682   2.273   0.149
13389SOL    HW241609   4.640   2.128   0.154
13390SOL     OW41610   5.405   2.424   1.828
13390SOL    HW141611   5.382   2.504   1.779
13390SOL    HW241612   5.451   2.370   1.764
13391SOL     OW41613   5.109   2.998   0.495
13391SOL    HW141614   5.181   3.048   0.532
13391SOL    HW241615   5.043   3.064   0.472
13392SOL     OW41616   4.271   2.069   0.888
13392SOL    HW141617   4.267   2.081   0.982
13392SOL    HW241618   4.285   2.157   0.853
13393SOL     OW41619   4.713   3.302   0.471
13393SOL    HW141620   4.683   3.379   0.422
13393SOL    HW241621   4.688   3.320   0.561
13394SOL     OW41622   4.075   3.674   0.863
13394SOL    HW141623   4.119   3.590   0.877
13394SOL    HW241624   4.136   3.738   0.898
13395SOL     OW41625   5.519   2.903   0.882
13395SOL    HW141626   5.458   2.902   0.808
13395SOL    HW241627   5.463   2.916   0.958
13396SOL     OW41628   4.948   3.405   1.507
13396SOL    HW141629   4.935   3.335   1.570
13396SOL    HW241630   4.861   3.427   1.476
13397SOL     OW41631   4.044   2.852   0.259
13397SOL    HW141632   4.123   2.863   0.206
13397SOL    HW241633   4.005   2.770   0.227
13398SOL     OW41634   5.201   2.611   0.721
13398SOL    HW141635   5.198   2.573   0.809
13398SOL    HW241636   5.277   2.669   0.723
13399SOL     OW41637   4.200   3.121   1.725
13399SOL    HW141638   4.170   3.130   1.634
13399SOL    HW241639   4.119   3.116   1.776
13400SOL     OW41640   4.831   3.650   0.249
13400SOL    HW141641   4.766   3.603   0.302
13400SOL    HW241642   4.876   3.581   0.201
13401SOL     OW41643   3.914   2.127   1.508
13401SOL    HW141644   3.828   2.170   1.507
13401SOL    HW241645   3.929   2.105   1.600
13402SOL     OW41646   5.357   3.231   0.032
13402SOL    HW141647   5.293   3.302   0.031
13402SOL    HW241648   5.315   3.161   0.082
13403SOL     OW41649   4.181   3.591   0.332
13403SOL    HW141650   4.224   3.653   0.391
13403SOL    HW241651   4.252   3.560   0.276
13404SOL     OW41652   5.148   1.965   0.445
13404SOL    HW141653   5.158   1.901   0.374
13404SOL    HW241654   5.236   1.975   0.482
13405SOL     OW41655   3.998   3.659   1.220
13405SOL    HW141656   4.033   3.579   1.260
13405SOL    HW241657   3.939   3.628   1.152
13406SOL     OW41658   4.662   3.567   0.896
13406SOL    HW141659   4.724   3.511   0.944
13406SOL    HW241660   4.628   3.510   0.827
13407SOL     OW41661   4.101   2.539   0.476
13407SOL    HW141662   4.115   2.445   0.486
13407SOL    HW241663   4.014   2.554   0.513
13408SOL     OW41664   5.254   2.093   1.724
13408SOL    HW141665   5.267   2.108   1.817
13408SOL    HW241666   5.169   2.050   1.717
13409SOL     OW41667   4.351   1.986   0.122
13409SOL    HW141668   4.442   1.956   0.120
13409SOL    HW241669   4.336   2.022   0.034
13410SOL     OW41670   4.485   2.134   1.754
13410SOL    HW141671   4.569   2.087   1.755
13410SOL    HW241672   4.439   2.102   1.832
13411SOL     OW41673   4.604   3.386   1.186
13411SOL    HW141674   4.579   3.341   1.106
13411SOL    HW241675   4.669   3.328   1.227
13412SOL     OW41676   5.064   2.446   1.435
13412SOL    HW141677   5.093   2.419   1.522
13412SOL    HW241678   5.095   2.535   1.425
13413SOL     OW41679   4.548   3.246   0.947
13413SOL    HW141680   4.633   3.236   0.903
13413SOL    HW241681   4.485   3.255   0.877
13414SOL     OW41682   4.660   2.368   0.900
13414SOL    HW141683   4.628   2.359   0.810
13414SOL    HW241684   4.686   2.280   0.925
13415SOL     OW41685   4.268   1.920   0.505
13415SOL    HW141686   4.188   1.922   0.557
13415SOL    HW241687   4.264   1.999   0.452
13416SOL     OW41688   5.138   3.036   0.112
13416SOL    HW141689   5.124   2.995   0.027
13416SOL    HW241690   5.066   3.098   0.122
13417SOL     OW41691   4.026   1.939   0.214
13417SOL    HW141692   4.100   1.982   0.171
13417SOL    HW241693   4.062   1.855   0.243
13418SOL     OW41694   4.669   2.126   0.466
13418SOL    HW141695   4.664   2.155   0.375
13418SOL    HW241696   4.763   2.126   0.486
13419SOL     OW41697   4.806   2.553   1.456
13419SOL    HW141698   4.732   2.493   1.460
13419SOL    HW241699   4.883   2.496   1.452
13420SOL     OW41700   4.961   3.421   0.783
13420SOL    HW141701   4.963   3.496   0.723
13420SOL    HW241702   5.001   3.454   0.863
13421SOL     OW41703   4.202   3.014   0.729
13421SOL    HW141704   4.136   2.997   0.796
13421SOL    HW241705   4.155   3.007   0.646
13422SOL     OW41706   4.983   3.649   0.610
13422SOL    HW141707   5.030   3.717   0.562
13422SOL    HW241708   4.911   3.696   0.653
13423SOL     OW41709   4.747   2.423   0.059
13423SOL    HW141710   4.721   2.499   0.006
13423SOL    HW241711   4.805   2.459   0.126
13424SOL     OW41712   3.792   2.423   1.378
13424SOL    HW141713   3.887   2.418   1.364
13424SOL    HW241714   3.782   2.489   1.447
13425SOL     OW41715   4.268   2.097   1.162
13425SOL    HW141716   4.316   2.027   1.207
13425SOL    HW241717   4.182   2.098   1.203
13426SOL     OW41718   4.581   2.325   0.642
13426SOL    HW141719   4.541   2.386   0.580
13426SOL    HW241720   4.604   2.249   0.589
13427SOL     OW41721   4.748   1.895   0.737
13427SOL    HW141722   4.677   1.893   0.673
13427SOL    HW241723   4.725   1.827   0.800
13428SOL     OW41724   5.164   3.015   0.880
13428SOL    HW141725   5.093   2.952   0.889
13428SOL    HW241726   5.187   3.014   0.787
13429SOL     OW41727   5.190   2.467   0.961
13429SOL    HW141728   5.129   2.394   0.973
13429SOL    HW241729   5.246   2.463   1.039
13430SOL     OW41730   5.565   2.672   0.393
13430SOL    HW141731   5.606   2.618   0.461
13430SOL    HW241732   5.521   2.610   0.336
13431SOL     OW41733   4.221   3.256   0.187
13431SOL    HW141734   4.146   3.219   0.234
13431SOL    HW241735   4.182   3.294   0.108
13432SOL     OW41736   5.393   3.128   0.649
13432SOL    HW141737   5.487   3.122   0.667
13432SOL    HW241738   5.370   3.217   0.676
13433SOL     OW41739   5.122   2.426   0.083
13433SOL    HW141740   5.069   2.430   0.162
13433SOL    HW241741   5.175   2.347   0.093
13434SOL     OW41742   4.262   2.129   0.334
13434SOL    HW141743   4.298   2.071   0.267
13434SOL    HW241744   4.238   2.208   0.287
13435SOL     OW41745   5.468   3.096   1.555
13435SOL    HW141746   5.558   3.065   1.542
13435SOL    HW241747   5.478   3.187   1.583
13436SOL     OW41748   4.778   3.199   1.313
13436SOL    HW141749   4.701   3.179   1.366
13436SOL    HW241750   4.852   3.171   1.367
13437SOL     OW41751   5.324   3.493   1.653
13437SOL    HW141752   5.319   3.533   1.566
13437SOL    HW241753   5.404   3.440   1.652
13438SOL     OW41754   4.848   3.048   1.093
13438SOL    HW141755   4.810   3.097   1.166
13438SOL    HW241756   4.829   3.101   1.016
13439SOL     OW41757   5.347   2.958   1.084
13439SOL    HW141758   5.343   3.021   1.156
13439SOL    HW241759   5.273   2.980   1.028
13440SOL     OW41760   4.652   1.951   1.384
13440SOL    HW141761   4.677   1.937   1.293
13440SOL    HW241762   4.729   1.991   1.425
13441SOL     OW41763   4.705   2.983   1.718
13441SOL    HW141764   4.617   3.005   1.750
13441SOL    HW241765   4.693   2.901   1.670
13442SOL     OW41766   4.429   2.915   0.372
13442SOL    HW141767   4.413   2.898   0.465
13442SOL    HW241768   4.509   2.867   0.352
13443SOL     OW41769   4.146   2.674   1.251
13443SOL    HW141770   4.209   2.688   1.321
13443SOL    HW241771   4.107   2.589   1.272
13444SOL     OW41772   4.989   2.228   1.286
13444SOL    HW141773   5.021   2.306   1.331
13444SOL    HW241774   4.898   2.248   1.264
13445SOL     OW41775   3.794   3.435   1.364
13445SOL    HW141776   3.754   3.498   1.305
13445SOL    HW241777   3.888   3.447   1.351
13446SOL     OW41778   4.067   2.988   0.495
13446SOL    HW141779   4.053   3.070   0.447
13446SOL    HW241780   4.067   2.920   0.428
13447SOL     OW41781   4.274   2.376   0.836
13447SOL    HW141782   4.287   2.445   0.772
13447SOL    HW241783   4.331   2.400   0.909
13448SOL     OW41784   4.963   3.213   0.403
13448SOL    HW141785   5.017   3.287   0.431
13448SOL    HW241786   4.875   3.234   0.436
13449SOL     OW41787   5.009   3.325   1.159
13449SOL    HW141788   5.073   3.335   1.230
13449SOL    HW241789   4.938   3.275   1.198
13450SOL     OW41790   5.285   2.479   0.495
13450SOL    HW141791   5.243   2.524   0.569
13450SOL    HW241792   5.333   2.548   0.450
13451SOL     OW41793   4.067   3.401   1.304
13451SOL    HW141794   4.057   3.347   1.225
13451SOL    HW241795   4.162   3.407   1.315
13452SOL     OW41796   4.126   2.622   1.593
13452SOL    HW141797   4.208   2.637   1.547
13452SOL    HW241798   4.132   2.532   1.625
13453SOL     OW41799   5.324   2.649   1.694
13453SOL    HW141800   5.238   2.685   1.673
13453SOL    HW241801   5.383   2.687   1.630
13454SOL     OW41802   4.722   1.998   1.749
13454SOL    HW141803   4.778   2.073   1.729
13454SOL    HW241804   4.777   1.922   1.729
13455SOL     OW41805   4.192   1.897   1.756
13455SOL    HW141806   4.128   1.851   1.811
13455SOL    HW241807   4.169   1.990   1.765
13456SOL     OW41808   4.308   2.735   1.036
13456SOL    HW141809   4.341   2.824   1.038
13456SOL    HW241810   4.253   2.727   1.114
13457SOL     OW41811   5.063   2.721   1.002
13457SOL    HW141812   4.970   2.699   0.990
13457SOL    HW241813   5.108   2.637   1.001
13458SOL     OW41814   4.941   2.390   0.287
13458SOL    HW141815   4.967   2.332   0.358
13458SOL    HW241816   4.886   2.456   0.328
13459SOL     OW41817   4.003   2.061   1.247
13459SOL    HW141818   3.980   2.093   1.334
13459SOL    HW241819   3.996   1.966   1.253
13460SOL     OW41820   3.800   3.177   1.274
13460SOL    HW141821   3.816   3.120   1.349
13460SOL    HW241822   3.785   3.263   1.312
13461SOL     OW41823   4.426   2.482   1.038
13461SOL    HW141824   4.513   2.482   0.999
13461SOL    HW241825   4.398   2.573   1.035
13462SOL     OW41826   5.476   2.825   1.856
13462SOL    HW141827   5.421   2.764   1.807
13462SOL    HW241828   5.428   2.841   1.937
13463SOL     OW41829   4.010   1.920   0.626
13463SOL    HW141830   3.976   2.008   0.639
13463SOL    HW241831   4.030   1.888   0.714
13464SOL     OW41832   5.355   2.247   0.373
13464SOL    HW141833   5.380   2.175   0.432
13464SOL    HW241834   5.325   2.316   0.431
13465SOL     OW41835   4.762   2.615   0.957
13465SOL    HW141836   4.747   2.634   1.049
13465SOL    HW241837   4.732   2.525   0.945
13466SOL     OW41838   4.717   3.443   1.720
13466SOL    HW141839   4.697   3.479   1.633
13466SOL    HW241840   4.738   3.351   1.703
13467SOL     OW41841   5.552   3.353   1.592
13467SOL    HW141842   5.581   3.390   1.509
13467SOL    HW241843   5.628   3.362   1.650
13468SOL     OW41844   4.075   2.799   1.800
13468SOL    HW141845   4.150   2.804   1.859
13468SOL    HW241846   4.101   2.737   1.732
13469SOL     OW41847   5.183   2.174   0.179
13469SOL    HW141848   5.196   2.081   0.160
13469SOL    HW241849   5.250   2.195   0.244
13470SOL     OW41850   5.040   2.680   0.036
13470SOL    HW141851   5.079   2.592   0.040
13470SOL    HW241852   5.071   2.717  -0.046
13471SOL     OW41853   4.799   3.203   0.852
13471SOL    HW141854   4.806   3.131   0.789
13471SOL    HW241855   4.859   3.270   0.819
13472SOL     OW41856   4.039   2.669   0.938
13472SOL    HW141857   4.130   2.698   0.948
13472SOL    HW241858   4.037   2.583   0.981
13473SOL     OW41859   4.056   2.389   1.009
13473SOL    HW141860   4.021   2.300   1.000
13473SOL    HW241861   4.131   2.391   0.949
13474SOL     OW41862   4.866   2.229   1.693
13474SOL    HW141863   4.813   2.284   1.751
13474SOL    HW241864   4.950   2.275   1.687
13475SOL     OW41865   4.893   2.050   1.484
13475SOL    HW141866   4.878   2.118   1.549
13475SOL    HW241867   4.933   2.096   1.410
13476SOL     OW41868   3.814   3.640   0.942
13476SOL    HW141869   3.783   3.562   0.896
13476SOL    HW241870   3.902   3.654   0.908
13477SOL     OW41871   4.214   3.436   0.901
13477SOL    HW141872   4.281   3.501   0.923
13477SOL    HW241873   4.260   3.372   0.847
13478SOL     OW41874   4.697   2.643   1.217
13478SOL    HW141875   4.758   2.625   1.289
13478SOL    HW241876   4.611   2.638   1.258
13479SOL     OW41877   3.768   2.395   1.106
13479SOL    HW141878   3.857   2.417   1.077
13479SOL    HW241879   3.773   2.401   1.201
13480SOL     OW41880   3.966   2.393   1.698
13480SOL    HW141881   3.914   2.322   1.737
13480SOL    HW241882   3.901   2.454   1.664
13481SOL     OW41883   5.085   2.795   1.697
13481SOL    HW141884   5.119   2.884   1.683
13481SOL    HW241885   5.054   2.768   1.610
13482SOL     OW41886   4.535   2.440   0.368
13482SOL    HW141887   4.525   2.364   0.311
13482SOL    HW241888   4.462   2.498   0.345
13483SOL     OW41889   5.363   2.460   1.171
13483SOL    HW141890   5.355   2.408   1.251
13483SOL    HW241891   5.453   2.445   1.142
13484SOL     OW41892   3.963   3.410   1.723
13484SOL    HW141893   3.939   3.476   1.788
13484SOL    HW241894   3.972   3.329   1.773
13485SOL     OW41895   4.441   2.308   1.248
13485SOL    HW141896   4.374   2.242   1.234
13485SOL    HW241897   4.428   2.371   1.178
13486SOL     OW41898   4.675   3.531   1.456
13486SOL    HW141899   4.624   3.498   1.383
13486SOL    HW241900   4.661   3.626   1.454
13487SOL     OW41901   4.200   2.343   0.196
13487SOL    HW141902   4.238   2.429   0.215
13487SOL    HW241903   4.121   2.362   0.145
13488SOL     OW41904   3.870   3.003   1.477
13488SOL    HW141905   3.865   2.951   1.557
13488SOL    HW241906   3.888   2.940   1.408
13489SOL     OW41907   5.043   2.893   1.219
13489SOL    HW141908   5.067   2.836   1.146
13489SOL    HW241909   4.974   2.949   1.183
13490SOL     OW41910   5.048   2.737   0.310
13490SOL    HW141911   4.976   2.704   0.363
13490SOL    HW241912   5.030   2.703   0.222
13491SOL     OW41913   5.467   3.605   1.125
13491SOL    HW141914   5.545   3.629   1.076
13491SOL    HW241915   5.464   3.510   1.121
13492SOL     OW41916   4.962   3.588   1.080
13492SOL    HW141917   5.050   3.615   1.054
13492SOL    HW241918   4.974   3.501   1.119
13493SOL     OW41919   3.819   3.124   1.014
13493SOL    HW141920   3.816   3.140   1.108
13493SOL    HW241921   3.727   3.119   0.988
13494SOL     OW41922   4.394   3.534   1.733
13494SOL    HW141923   4.336   3.609   1.745
13494SOL    HW241924   4.464   3.566   1.676
13495SOL     OW41925   4.629   1.947   0.090
13495SOL    HW141926   4.660   1.928   0.001
13495SOL    HW241927   4.690   1.899   0.147
13496SOL     OW41928   5.437   2.012   0.504
13496SOL    HW141929   5.508   1.993   0.443
13496SOL    HW241930   5.422   1.930   0.551
13497SOL     OW41931   5.112   3.429   0.486
13497SOL    HW141932   5.176   3.467   0.425
13497SOL    HW241933   5.064   3.505   0.520
13498SOL     OW41934   3.867   3.655   1.844
13498SOL    HW141935   3.815   3.588   1.887
13498SOL    HW241936   3.903   3.707   1.915
13499SOL     OW41937   5.002   2.787   0.648
13499SOL    HW141938   5.076   2.732   0.673
13499SOL    HW241939   5.041   2.854   0.591
13500SOL     OW41940   4.525   3.142   1.421
13500SOL    HW141941   4.502   3.183   1.504
13500SOL    HW241942   4.449   3.159   1.364
13501SOL     OW41943   4.387   3.468   0.186
13501SOL    HW141944   4.395   3.489   0.093
13501SOL    HW241945   4.338   3.386   0.189
13502SOL     OW41946   5.337   3.595   1.384
13502SOL    HW141947   5.390   3.601   1.305
13502SOL    HW241948   5.326   3.686   1.413
13503SOL     OW41949   5.567   2.033   0.960
13503SOL    HW141950   5.596   1.943   0.943
13503SOL    HW241951   5.479   2.037   0.924
13504SOL     OW41952   3.909   2.186   0.713
13504SOL    HW141953   3.971   2.236   0.661
13504SOL    HW241954   3.948   2.181   0.800
13505SOL     OW41955   4.918   3.458   0.068
13505SOL    HW141956   4.913   3.365   0.090
13505SOL    HW241957   4.832   3.479   0.033
13506SOL     OW41958   4.552   2.873   1.371
13506SOL    HW141959   4.586   2.882   1.282
13506SOL    HW241960   4.541   2.964   1.401
13507SOL     OW41961   4.651   2.778   0.298
13507SOL    HW141962   4.708   2.800   0.224
13507SOL    HW241963   4.698   2.709   0.345
13508SOL     OW41964   5.182   3.433   0.013
13508SOL    HW141965   5.096   3.463   0.041
13508SOL    HW241966   5.238   3.510   0.019
13509SOL     OW41967   4.095   3.166   1.480
13509SOL    HW141968   4.070   3.248   1.437
13509SOL    HW241969   4.016   3.112   1.475
13510SOL     OW41970   5.329   3.147   1.281
13510SOL    HW141971   5.392   3.134   1.352
13510SOL    HW241972   5.271   3.216   1.313
13511SOL     OW41973   4.796   2.971   0.707
13511SOL    HW141974   4.721   2.928   0.749
13511SOL    HW241975   4.856   2.899   0.686
13512SOL     OW41976   4.752   2.100   0.957
13512SOL    HW141977   4.746   2.048   0.877
13512SOL    HW241978   4.750   2.036   1.028
13513SOL     OW41979   4.317   3.343   0.476
13513SOL    HW141980   4.330   3.297   0.393
13513SOL    HW241981   4.243   3.402   0.459
13514SOL     OW41982   5.453   2.254   1.377
13514SOL    HW141983   5.526   2.316   1.379
13514SOL    HW241984   5.482   2.183   1.320
13515SOL     OW41985   3.991   3.188   0.316
13515SOL    HW141986   3.904   3.184   0.277
13515SOL    HW241987   3.978   3.239   0.396
13516SOL     OW41988   3.825   2.865   1.706
13516SOL    HW141989   3.752   2.857   1.767
13516SOL    HW241990   3.903   2.849   1.759
13517SOL     OW41991   4.413   2.017   1.512
13517SOL    HW141992   4.496   2.013   1.464
13517SOL    HW241993   4.432   2.075   1.587
13518SOL     OW41994   5.144   2.714   1.412
13518SOL    HW141995   5.096   2.776   1.358
13518SOL    HW241996   5.235   2.723   1.383
13519SOL     OW41997   3.786   2.012   0.323
13519SOL    HW141998   3.762   2.091   0.274
13519SOL    HW241999   3.873   1.989   0.291
13520SOL     OW42000   4.910   3.188   0.132
13520SOL    HW142001   4.816   3.189   0.113
13520SOL    HW242002   4.916   3.193   0.227
13521SOL     OW42003   4.352   2.683   1.432
13521SOL    HW142004   4.402   2.764   1.424
13521SOL    HW242005   4.418   2.615   1.444
13522SOL     OW42006   5.219   3.647   0.989
13522SOL    HW142007   5.241   3.720   0.931
13522SOL    HW242008   5.299   3.630   1.038
13523SOL     OW42009   4.454   2.414   1.691
13523SOL    HW142010   4.483   2.477   1.757
13523SOL    HW242011   4.458   2.329   1.735
13524SOL     OW42012   5.196   3.040   1.634
13524SOL    HW142013   5.182   3.073   1.723
13524SOL    HW242014   5.286   3.064   1.614
13525SOL     OW42015   4.097   3.605   1.571
13525SOL    HW142016   4.015   3.653   1.554
13525SOL    HW242017   4.068   3.523   1.613
13526SOL     OW42018   5.384   2.741   1.258
13526SOL    HW142019   5.380   2.658   1.209
13526SOL    HW242020   5.375   2.809   1.191
13527SOL     OW42021   4.962   2.163   0.442
13527SOL    HW142022   5.026   2.092   0.450
13527SOL    HW242023   4.971   2.213   0.523
13528SOL     OW42024   4.312   2.583   0.657
13528SOL    HW142025   4.350   2.671   0.659
13528SOL    HW242026   4.238   2.590   0.597
13529SOL     OW42027   5.483   2.226   1.649
13529SOL    HW142028   5.469   2.241   1.555
13529SOL    HW242029   5.409   2.171   1.675
13530SOL     OW42030   5.457   2.795   1.516
13530SOL    HW142031   5.463   2.890   1.530
13530SOL    HW242032   5.448   2.786   1.421
13531SOL     OW42033   4.650   3.226   0.050
13531SOL    HW142034   4.597   3.208   0.128
13531SOL    HW242035   4.632   3.317   0.029
13532SOL     OW42036   4.386   3.644   0.921
13532SOL    HW142037   4.363   3.737   0.914
13532SOL    HW242038   4.482   3.644   0.928
13533SOL     OW42039   4.599   2.837   0.853
13533SOL    HW142040   4.648   2.767   0.895
13533SOL    HW242041   4.555   2.883   0.925
13534SOL     OW42042   4.822   2.834   0.083
13534SOL    HW142043   4.835   2.924   0.052
13534SOL    HW242044   4.906   2.791   0.069
13535SOL     OW42045   5.567   3.403   0.839
13535SOL    HW142046   5.482   3.404   0.795
13535SOL    HW242047   5.550   3.366   0.925
13536SOL     OW42048   3.966   3.166   1.860
13536SOL    HW142049   3.881   3.123   1.851
13536SOL    HW242050   3.975   3.182   1.954
13537SOL     OW42051   3.815   3.088   0.677
13537SOL    HW142052   3.836   3.052   0.763
13537SOL    HW242053   3.880   3.049   0.619
13538SOL     OW42054   4.412   3.274   1.631
13538SOL    HW142055   4.336   3.227   1.664
13538SOL    HW242056   4.404   3.362   1.668
13539SOL     OW42057   5.526   2.038   1.233
13539SOL    HW142058   5.535   1.944   1.244
13539SOL    HW242059   5.542   2.054   1.140
13540SOL     OW42060   4.136   2.268   0.550
13540SOL    HW142061   4.172   2.220   0.475
13540SOL    HW242062   4.209   2.274   0.612
13541SOL     OW42063   5.438   3.336   1.078
13541SOL    HW142064   5.349   3.318   1.047
13541SOL    HW242065   5.449   3.278   1.154
13542SOL     OW42066   4.053   2.418   1.288
13542SOL    HW142067   4.102   2.356   1.341
13542SOL    HW242068   4.072   2.393   1.197
13543SOL     OW42069   4.561   3.434   0.675
13543SOL    HW142070   4.530   3.508   0.623
13543SOL    HW242071   4.484   3.378   0.685
13544SOL     OW42072   5.152   2.091   1.109
13544SOL    HW142073   5.166   2.003   1.144
13544SOL    HW242074   5.105   2.137   1.179
13545SOL     OW42075   4.749   1.885   1.133
13545SOL    HW142076   4.703   1.822   1.078
13545SOL    HW242077   4.836   1.847   1.145
13546SOL     OW42078   4.536   3.164   0.288
13546SOL    HW142079   4.485   3.089   0.320
13546SOL    HW242080   4.584   3.194   0.365
13547SOL     OW42081   4.347   3.415   1.287
13547SOL    HW142082   4.344   3.495   1.338
13547SOL    HW242083   4.435   3.414   1.248
13548SOL     OW42084   5.040   1.932   0.152
13548SOL    HW142085   5.097   1.873   0.102
13548SOL    HW242086   4.968   1.876   0.182
13549SOL     OW42087   4.997   2.316   0.664
13549SOL    HW142088   4.952   2.400   0.674
13549SOL    HW242089   5.004   2.282   0.753
13550SOL     OW42090   5.308   2.055   0.880
13550SOL    HW142091   5.254   2.076   0.957
13550SOL    HW242092   5.308   2.136   0.828
13551SOL     OW42093   3.773   2.960   0.334
13551SOL    HW142094   3.866   2.953   0.310
13551SOL    HW242095   3.754   2.879   0.380
13552SOL     OW42096   4.606   3.521   0.345
13552SOL    HW142097   4.524   3.498   0.300
13552SOL    HW242098   4.582   3.592   0.405
13553SOL     OW42099   3.946   2.476   1.997
13553SOL    HW142100   3.861   2.470   2.040
13553SOL    HW242101   3.929   2.451   1.906
13554SOL     OW42102   3.949   2.144   2.851
13554SOL    HW142103   3.976   2.111   2.936
13554SOL    HW242104   3.858   2.115   2.842
13555SOL     OW42105   3.715   2.251   2.497
13555SOL    HW142106   3.640   2.285   2.547
13555SOL    HW242107   3.682   2.170   2.458
13556SOL     OW42108   5.280   3.375   2.573
13556SOL    HW142109   5.248   3.358   2.662
13556SOL    HW242110   5.200   3.385   2.520
13557SOL     OW42111   4.860   2.551   2.549
13557SOL    HW142112   4.906   2.634   2.536
13557SOL    HW242113   4.815   2.562   2.632
13558SOL     OW42114   5.516   2.452   2.074
13558SOL    HW142115   5.477   2.444   1.988
13558SOL    HW242116   5.469   2.389   2.128
13559SOL     OW42117   4.434   2.978   2.885
13559SOL    HW142118   4.363   3.017   2.937
13559SOL    HW242119   4.455   3.045   2.820
13560SOL     OW42120   4.602   2.628   3.694
13560SOL    HW142121   4.571   2.684   3.764
13560SOL    HW242122   4.619   2.687   3.621
13561SOL     OW42123   4.399   2.887   2.507
13561SOL    HW142124   4.462   2.880   2.579
13561SOL    HW242125   4.348   2.965   2.528
13562SOL     OW42126   4.442   3.018   3.666
13562SOL    HW142127   4.487   3.097   3.698
13562SOL    HW242128   4.356   3.049   3.638
13563SOL     OW42129   5.184   3.366   3.223
13563SOL    HW142130   5.234   3.445   3.242
13563SOL    HW242131   5.110   3.369   3.283
13564SOL     OW42132   4.181   2.245   3.318
13564SOL    HW142133   4.249   2.181   3.339
13564SOL    HW242134   4.100   2.205   3.349
13565SOL     OW42135   5.317   2.305   2.608
13565SOL    HW142136   5.234   2.318   2.561
13565SOL    HW242137   5.315   2.368   2.679
13566SOL     OW42138   3.940   3.570   2.329
13566SOL    HW142139   3.954   3.645   2.387
13566SOL    HW242140   4.020   3.566   2.276
13567SOL     OW42141   4.877   3.188   3.562
13567SOL    HW142142   4.905   3.192   3.654
13567SOL    HW242143   4.818   3.112   3.559
13568SOL     OW42144   3.964   3.292   2.384
13568SOL    HW142145   3.952   3.387   2.393
13568SOL    HW242146   3.977   3.261   2.474
13569SOL     OW42147   4.299   2.845   1.999
13569SOL    HW142148   4.349   2.894   1.934
13569SOL    HW242149   4.332   2.877   2.083
13570SOL     OW42150   5.312   1.999   3.329
13570SOL    HW142151   5.340   2.080   3.287
13570SOL    HW242152   5.290   2.024   3.419
13571SOL     OW42153   3.844   2.516   2.416
13571SOL    HW142154   3.809   2.431   2.442
13571SOL    HW242155   3.839   2.569   2.495
13572SOL     OW42156   5.569   3.616   2.193
13572SOL    HW142157   5.635   3.591   2.257
13572SOL    HW242158   5.587   3.708   2.174
13573SOL     OW42159   3.761   3.447   1.974
13573SOL    HW142160   3.744   3.355   1.996
13573SOL    HW242161   3.737   3.495   2.053
13574SOL     OW42162   5.409   2.768   2.491
13574SOL    HW142163   5.502   2.750   2.502
13574SOL    HW242164   5.405   2.827   2.416
13575SOL     OW42165   5.389   2.966   2.273
13575SOL    HW142166   5.479   2.964   2.239
13575SOL    HW242167   5.391   3.031   2.343
13576SOL     OW42168   3.853   2.607   3.446
13576SOL    HW142169   3.946   2.628   3.456
13576SOL    HW242170   3.807   2.686   3.477
13577SOL     OW42171   5.013   3.087   3.284
13577SOL    HW142172   5.053   3.025   3.224
13577SOL    HW242173   5.068   3.084   3.362
13578SOL     OW42174   4.544   1.856   2.355
13578SOL    HW142175   4.586   1.942   2.348
13578SOL    HW242176   4.453   1.876   2.375
13579SOL     OW42177   3.920   2.826   3.133
13579SOL    HW142178   4.000   2.776   3.117
13579SOL    HW242179   3.853   2.782   3.080
13580SOL     OW42180   5.235   2.848   2.073
13580SOL    HW142181   5.169   2.812   2.132
13580SOL    HW242182   5.299   2.890   2.130
13581SOL     OW42183   5.014   3.672   3.496
13581SOL    HW142184   4.930   3.709   3.522
13581SOL    HW242185   4.997   3.579   3.481
13582SOL     OW42186   4.056   2.097   3.651
13582SOL    HW142187   4.121   2.160   3.680
13582SOL    HW242188   3.974   2.125   3.693
13583SOL     OW42189   5.210   3.273   2.821
13583SOL    HW142190   5.136   3.297   2.878
13583SOL    HW242191   5.190   3.184   2.793
13584SOL     OW42192   5.384   3.611   2.443
13584SOL    HW142193   5.359   3.578   2.356
13584SOL    HW242194   5.351   3.546   2.504
13585SOL     OW42195   4.317   2.579   2.133
13585SOL    HW142196   4.315   2.667   2.096
13585SOL    HW242197   4.253   2.582   2.204
13586SOL     OW42198   5.004   2.218   2.789
13586SOL    HW142199   4.913   2.191   2.801
13586SOL    HW242200   5.053   2.165   2.851
13587SOL     OW42201   5.302   3.546   2.172
13587SOL    HW142202   5.394   3.569   2.166
13587SOL    HW242203   5.276   3.525   2.083
13588SOL     OW42204   4.540   2.466   3.306
13588SOL    HW142205   4.507   2.452   3.395
13588SOL    HW242206   4.489   2.405   3.252
13589SOL     OW42207   5.110   2.332   3.547
13589SOL    HW142208   5.104   2.380   3.630
13589SOL    HW242209   5.197   2.292   3.549
13590SOL     OW42210   4.669   2.754   3.445
13590SOL    HW142211   4.727   2.688   3.407
13590SOL    HW242212   4.625   2.794   3.370
13591SOL     OW42213   4.723   2.262   3.101
13591SOL    HW142214   4.641   2.295   3.136
13591SOL    HW242215   4.700   2.221   3.018
13592SOL     OW42216   4.777   2.559   2.282
13592SOL    HW142217   4.794   2.554   2.376
13592SOL    HW242218   4.693   2.514   2.270
13593SOL     OW42219   3.820   2.677   2.630
13593SOL    HW142220   3.902   2.671   2.678
13593SOL    HW242221   3.765   2.734   2.683
13594SOL     OW42222   4.614   2.209   2.055
13594SOL    HW142223   4.655   2.266   1.990
13594SOL    HW242224   4.625   2.121   2.018
13595SOL     OW42225   5.431   2.429   3.692
13595SOL    HW142226   5.396   2.504   3.645
13595SOL    HW242227   5.457   2.368   3.623
13596SOL     OW42228   5.101   2.997   2.381
13596SOL    HW142229   5.189   3.030   2.363
13596SOL    HW242230   5.042   3.066   2.350
13597SOL     OW42231   4.252   2.088   2.725
13597SOL    HW142232   4.275   2.082   2.818
13597SOL    HW242233   4.257   2.182   2.705
13598SOL     OW42234   4.716   3.306   2.327
13598SOL    HW142235   4.695   3.385   2.276
13598SOL    HW242236   4.677   3.322   2.413
13599SOL     OW42237   4.145   3.637   2.651
13599SOL    HW142238   4.193   3.554   2.655
13599SOL    HW242239   4.132   3.662   2.742
13600SOL     OW42240   5.514   2.909   2.728
13600SOL    HW142241   5.446   2.907   2.660
13600SOL    HW242242   5.465   2.922   2.809
13601SOL     OW42243   4.956   3.390   3.372
13601SOL    HW142244   4.944   3.320   3.437
13601SOL    HW242245   4.868   3.407   3.338
13602SOL     OW42246   4.026   2.834   2.105
13602SOL    HW142247   4.113   2.844   2.066
13602SOL    HW242248   4.006   2.741   2.094
13603SOL     OW42249   5.205   2.604   2.575
13603SOL    HW142250   5.201   2.571   2.665
13603SOL    HW242251   5.281   2.663   2.575
13604SOL     OW42252   4.197   3.134   3.610
13604SOL    HW142253   4.151   3.145   3.527
13604SOL    HW242254   4.128   3.113   3.674
13605SOL     OW42255   4.850   3.651   2.079
13605SOL    HW142256   4.775   3.617   2.128
13605SOL    HW242257   4.872   3.581   2.018
13606SOL     OW42258   3.929   2.144   3.367
13606SOL    HW142259   3.863   2.208   3.390
13606SOL    HW242260   3.935   2.087   3.444
13607SOL     OW42261   5.347   3.235   1.947
13607SOL    HW142262   5.315   3.324   1.939
13607SOL    HW242263   5.271   3.180   1.928
13608SOL     OW42264   4.204   3.631   2.174
13608SOL    HW142265   4.239   3.643   2.262
13608SOL    HW242266   4.246   3.551   2.142
13609SOL     OW42267   5.140   1.976   2.291
13609SOL    HW142268   5.155   1.910   2.223
13609SOL    HW242269   5.227   1.991   2.329
13610SOL     OW42270   4.122   2.550   2.324
13610SOL    HW142271   4.133   2.458   2.347
13610SOL    HW242272   4.033   2.571   2.350
13611SOL     OW42273   5.254   2.078   3.588
13611SOL    HW142274   5.272   2.090   3.681
13611SOL    HW242275   5.158   2.075   3.583
13612SOL     OW42276   4.382   1.972   1.959
13612SOL    HW142277   4.393   1.908   2.030
13612SOL    HW242278   4.296   1.952   1.923
13613SOL     OW42279   4.529   2.064   3.628
13613SOL    HW142280   4.500   2.006   3.698
13613SOL    HW242281   4.477   2.143   3.640
13614SOL     OW42282   5.065   2.444   3.294
13614SOL    HW142283   5.089   2.423   3.384
13614SOL    HW242284   5.092   2.535   3.282
13615SOL     OW42285   4.672   2.373   2.763
13615SOL    HW142286   4.642   2.363   2.672
13615SOL    HW242287   4.686   2.283   2.793
13616SOL     OW42288   4.279   1.928   2.359
13616SOL    HW142289   4.212   1.930   2.427
13616SOL    HW242290   4.262   2.006   2.306
13617SOL     OW42291   5.131   3.062   1.908
13617SOL    HW142292   5.159   3.008   1.981
13617SOL    HW242293   5.050   3.103   1.939
13618SOL     OW42294   4.069   1.903   2.008
13618SOL    HW142295   4.070   1.989   2.051
13618SOL    HW242296   4.093   1.841   2.076
13619SOL     OW42297   4.661   2.106   2.315
13619SOL    HW142298   4.638   2.157   2.237
13619SOL    HW242299   4.753   2.128   2.331
13620SOL     OW42300   4.802   2.555   3.313
13620SOL    HW142301   4.724   2.501   3.320
13620SOL    HW242302   4.875   2.493   3.316
13621SOL     OW42303   4.949   3.421   2.656
13621SOL    HW142304   4.957   3.495   2.595
13621SOL    HW242305   4.894   3.453   2.727
13622SOL     OW42306   4.985   3.647   2.462
13622SOL    HW142307   5.019   3.726   2.420
13622SOL    HW242308   4.908   3.676   2.510
13623SOL     OW42309   4.751   2.391   1.886
13623SOL    HW142310   4.701   2.471   1.872
13623SOL    HW242311   4.803   2.408   1.965
13624SOL     OW42312   3.803   2.422   3.251
13624SOL    HW142313   3.896   2.419   3.229
13624SOL    HW242314   3.797   2.490   3.319
13625SOL     OW42315   4.284   2.085   3.012
13625SOL    HW142316   4.315   1.995   3.020
13625SOL    HW242317   4.196   2.084   3.051
13626SOL     OW42318   4.592   2.329   2.506
13626SOL    HW142319   4.523   2.386   2.473
13626SOL    HW242320   4.582   2.247   2.457
13627SOL     OW42321   4.762   1.885   2.602
13627SOL    HW142322   4.674   1.895   2.566
13627SOL    HW242323   4.754   1.814   2.665
13628SOL     OW42324   5.163   3.015   2.729
13628SOL    HW142325   5.079   2.981   2.759
13628SOL    HW242326   5.151   3.029   2.635
13629SOL     OW42327   5.191   2.464   2.821
13629SOL    HW142328   5.127   2.394   2.836
13629SOL    HW242329   5.246   2.463   2.899
13630SOL     OW42330   5.565   2.669   2.235
13630SOL    HW142331   5.619   2.626   2.301
13630SOL    HW242332   5.547   2.600   2.170
13631SOL     OW42333   4.221   3.279   2.002
13631SOL    HW142334   4.152   3.260   2.065
13631SOL    HW242335   4.194   3.233   1.922
13632SOL     OW42336   5.399   3.134   2.481
13632SOL    HW142337   5.490   3.134   2.510
13632SOL    HW242338   5.362   3.215   2.516
13633SOL     OW42339   5.117   2.474   1.942
13633SOL    HW142340   5.053   2.442   2.005
13633SOL    HW242341   5.199   2.432   1.968
13634SOL     OW42342   4.233   2.119   2.161
13634SOL    HW142343   4.303   2.095   2.101
13634SOL    HW242344   4.206   2.207   2.133
13635SOL     OW42345   5.471   3.101   3.411
13635SOL    HW142346   5.559   3.066   3.401
13635SOL    HW242347   5.484   3.188   3.449
13636SOL     OW42348   4.785   3.195   3.182
13636SOL    HW142349   4.709   3.174   3.236
13636SOL    HW242350   4.860   3.163   3.232
13637SOL     OW42351   5.336   3.481   3.520
13637SOL    HW142352   5.332   3.522   3.434
13637SOL    HW242353   5.417   3.430   3.519
13638SOL     OW42354   4.838   3.027   2.969
13638SOL    HW142355   4.810   3.088   3.036
13638SOL    HW242356   4.829   3.075   2.887
13639SOL     OW42357   5.355   2.965   2.943
13639SOL    HW142358   5.350   3.028   3.016
13639SOL    HW242359   5.277   2.982   2.891
13640SOL     OW42360   4.657   1.963   3.274
13640SOL    HW142361   4.646   1.943   3.181
13640SOL    HW242362   4.738   2.013   3.279
13641SOL     OW42363   4.710   2.972   3.594
13641SOL    HW142364   4.620   2.995   3.619
13641SOL    HW242365   4.701   2.896   3.537
13642SOL     OW42366   4.424   2.920   2.230
13642SOL    HW142367   4.396   2.914   2.322
13642SOL    HW242368   4.499   2.860   2.224
13643SOL     OW42369   4.150   2.675   3.111
13643SOL    HW142370   4.214   2.686   3.181
13643SOL    HW242371   4.110   2.589   3.127
13644SOL     OW42372   4.993   2.243   3.129
13644SOL    HW142373   5.022   2.319   3.179
13644SOL    HW242374   4.900   2.260   3.111
13645SOL     OW42375   4.098   2.923   2.357
13645SOL    HW142376   4.092   3.019   2.364
13645SOL    HW242377   4.063   2.903   2.270
13646SOL     OW42378   4.279   2.382   2.705
13646SOL    HW142379   4.289   2.450   2.639
13646SOL    HW242380   4.336   2.410   2.777
13647SOL     OW42381   4.964   3.215   2.254
13647SOL    HW142382   5.019   3.287   2.285
13647SOL    HW242383   4.878   3.234   2.290
13648SOL     OW42384   5.018   3.293   3.014
13648SOL    HW142385   5.071   3.316   3.089
13648SOL    HW242386   4.931   3.275   3.051
13649SOL     OW42387   5.301   2.502   2.332
13649SOL    HW142388   5.252   2.524   2.411
13649SOL    HW242389   5.368   2.570   2.326
13650SOL     OW42390   4.146   2.591   3.474
13650SOL    HW142391   4.203   2.637   3.413
13650SOL    HW242392   4.200   2.520   3.508
13651SOL     OW42393   5.336   2.636   3.546
13651SOL    HW142394   5.251   2.679   3.542
13651SOL    HW242395   5.389   2.682   3.480
13652SOL     OW42396   4.222   1.890   3.616
13652SOL    HW142397   4.171   1.838   3.553
13652SOL    HW242398   4.169   1.968   3.629
13653SOL     OW42399   4.310   2.725   2.894
13653SOL    HW142400   4.343   2.815   2.892
13653SOL    HW242401   4.253   2.723   2.971
13654SOL     OW42402   5.060   2.716   2.868
13654SOL    HW142403   4.967   2.699   2.852
13654SOL    HW242404   5.101   2.630   2.861
13655SOL     OW42405   4.919   2.391   2.118
13655SOL    HW142406   4.932   2.314   2.173
13655SOL    HW242407   4.876   2.454   2.175
13656SOL     OW42408   4.020   2.060   3.106
13656SOL    HW142409   3.984   2.093   3.188
13656SOL    HW242410   4.004   1.965   3.109
13657SOL     OW42411   3.746   3.156   3.187
13657SOL    HW142412   3.789   3.089   3.240
13657SOL    HW242413   3.818   3.213   3.159
13658SOL     OW42414   4.435   2.483   2.906
13658SOL    HW142415   4.520   2.490   2.864
13658SOL    HW242416   4.399   2.572   2.901
13659SOL     OW42417   5.467   2.817   3.722
13659SOL    HW142418   5.416   2.753   3.672
13659SOL    HW242419   5.409   2.842   3.794
13660SOL     OW42420   4.031   1.929   2.486
13660SOL    HW142421   4.008   2.019   2.510
13660SOL    HW242422   4.043   1.885   2.570
13661SOL     OW42423   5.348   2.258   2.214
13661SOL    HW142424   5.367   2.192   2.280
13661SOL    HW242425   5.321   2.335   2.264
13662SOL     OW42426   4.774   2.617   2.819
13662SOL    HW142427   4.754   2.638   2.910
13662SOL    HW242428   4.741   2.528   2.808
13663SOL     OW42429   4.737   3.430   3.572
13663SOL    HW142430   4.698   3.440   3.485
13663SOL    HW242431   4.743   3.336   3.585
13664SOL     OW42432   5.577   3.351   3.470
13664SOL    HW142433   5.597   3.384   3.382
13664SOL    HW242434   5.656   3.372   3.521
13665SOL     OW42435   4.094   2.806   3.654
13665SOL    HW142436   4.167   2.816   3.715
13665SOL    HW242437   4.113   2.724   3.608
13666SOL     OW42438   5.249   2.132   1.990
13666SOL    HW142439   5.204   2.058   2.032
13666SOL    HW242440   5.286   2.181   2.062
13667SOL     OW42441   4.817   3.161   2.733
13667SOL    HW142442   4.797   3.114   2.652
13667SOL    HW242443   4.843   3.248   2.704
13668SOL     OW42444   4.044   2.651   2.785
13668SOL    HW142445   4.131   2.688   2.801
13668SOL    HW242446   4.044   2.567   2.831
13669SOL     OW42447   4.062   2.385   2.875
13669SOL    HW142448   4.021   2.299   2.864
13669SOL    HW242449   4.135   2.384   2.813
13670SOL     OW42450   4.856   2.228   3.569
13670SOL    HW142451   4.805   2.285   3.627
13670SOL    HW242452   4.942   2.269   3.565
13671SOL     OW42453   4.888   2.090   3.334
13671SOL    HW142454   4.891   2.161   3.399
13671SOL    HW242455   4.929   2.127   3.256
13672SOL     OW42456   3.725   3.175   2.042
13672SOL    HW142457   3.637   3.190   2.009
13672SOL    HW242458   3.721   3.087   2.081
13673SOL     OW42459   4.698   2.645   3.076
13673SOL    HW142460   4.754   2.627   3.151
13673SOL    HW242461   4.609   2.639   3.111
13674SOL     OW42462   3.762   2.405   2.979
13674SOL    HW142463   3.847   2.411   2.934
13674SOL    HW242464   3.783   2.413   3.072
13675SOL     OW42465   3.912   2.374   3.581
13675SOL    HW142466   4.001   2.378   3.546
13675SOL    HW242467   3.870   2.454   3.549
13676SOL     OW42468   5.112   2.786   3.515
13676SOL    HW142469   5.129   2.880   3.516
13676SOL    HW242470   5.098   2.765   3.423
13677SOL     OW42471   4.547   2.443   2.204
13677SOL    HW142472   4.537   2.361   2.155
13677SOL    HW242473   4.466   2.491   2.187
13678SOL     OW42474   5.364   2.463   3.032
13678SOL    HW142475   5.351   2.414   3.114
13678SOL    HW242476   5.454   2.443   3.006
13679SOL     OW42477   4.443   2.300   3.110
13679SOL    HW142478   4.382   2.229   3.090
13679SOL    HW242479   4.428   2.364   3.041
13680SOL     OW42480   4.189   2.356   2.030
13680SOL    HW142481   4.244   2.427   2.064
13680SOL    HW242482   4.101   2.393   2.026
13681SOL     OW42483   3.875   2.985   3.347
13681SOL    HW142484   3.865   2.934   3.427
13681SOL    HW242485   3.893   2.920   3.279
13682SOL     OW42486   5.054   2.897   3.074
13682SOL    HW142487   5.068   2.837   3.001
13682SOL    HW242488   4.977   2.949   3.048
13683SOL     OW42489   5.010   2.702   2.149
13683SOL    HW142490   5.027   2.686   2.242
13683SOL    HW242491   4.915   2.693   2.140
13684SOL     OW42492   5.497   3.592   2.999
13684SOL    HW142493   5.422   3.626   2.950
13684SOL    HW242494   5.486   3.497   2.997
13685SOL     OW42495   5.029   3.609   2.953
13685SOL    HW142496   4.957   3.590   2.893
13685SOL    HW242497   4.995   3.583   3.039
13686SOL     OW42498   5.426   2.011   2.353
13686SOL    HW142499   5.506   2.002   2.301
13686SOL    HW242500   5.421   1.931   2.404
13687SOL     OW42501   5.109   3.432   2.341
13687SOL    HW142502   5.169   3.476   2.281
13687SOL    HW242503   5.058   3.503   2.381
13688SOL     OW42504   5.001   2.775   2.498
13688SOL    HW142505   5.077   2.728   2.532
13688SOL    HW242506   5.037   2.856   2.461
13689SOL     OW42507   4.530   3.148   3.295
13689SOL    HW142508   4.509   3.177   3.384
13689SOL    HW242509   4.472   3.200   3.240
13690SOL     OW42510   4.411   3.472   2.006
13690SOL    HW142511   4.405   3.492   1.912
13690SOL    HW242512   4.350   3.399   2.018
13691SOL     OW42513   5.356   3.592   3.259
13691SOL    HW142514   5.392   3.598   3.170
13691SOL    HW242515   5.336   3.683   3.283
13692SOL     OW42516   5.565   2.031   2.825
13692SOL    HW142517   5.592   1.942   2.803
13692SOL    HW242518   5.477   2.039   2.789
13693SOL     OW42519   3.975   2.181   2.572
13693SOL    HW142520   3.887   2.216   2.558
13693SOL    HW242521   3.982   2.171   2.667
13694SOL     OW42522   4.938   3.460   1.893
13694SOL    HW142523   4.920   3.374   1.930
13694SOL    HW242524   4.867   3.475   1.831
13695SOL     OW42525   4.549   2.879   3.231
13695SOL    HW142526   4.588   2.888   3.144
13695SOL    HW242527   4.537   2.969   3.262
13696SOL     OW42528   4.645   2.756   2.120
13696SOL    HW142529   4.722   2.814   2.117
13696SOL    HW242530   4.665   2.694   2.190
13697SOL     OW42531   5.215   3.486   1.908
13697SOL    HW142532   5.121   3.478   1.896
13697SOL    HW242533   5.250   3.495   1.819
13698SOL     OW42534   4.068   3.176   3.374
13698SOL    HW142535   4.024   3.254   3.341
13698SOL    HW242536   4.002   3.107   3.368
13699SOL     OW42537   5.345   3.152   3.152
13699SOL    HW142538   5.384   3.130   3.237
13699SOL    HW242539   5.278   3.217   3.173
13700SOL     OW42540   4.781   2.957   2.541
13700SOL    HW142541   4.711   2.920   2.594
13700SOL    HW242542   4.845   2.887   2.533
13701SOL     OW42543   4.750   2.101   2.827
13701SOL    HW142544   4.741   2.051   2.746
13701SOL    HW242545   4.733   2.038   2.897
13702SOL     OW42546   4.311   3.406   2.342
13702SOL    HW142547   4.328   3.315   2.317
13702SOL    HW242548   4.285   3.401   2.434
13703SOL     OW42549   5.450   2.252   3.244
13703SOL    HW142550   5.524   2.314   3.245
13703SOL    HW242551   5.478   2.183   3.184
13704SOL     OW42552   3.981   3.217   2.129
13704SOL    HW142553   3.887   3.208   2.113
13704SOL    HW242554   3.987   3.242   2.221
13705SOL     OW42555   3.829   2.859   3.577
13705SOL    HW142556   3.755   2.855   3.638
13705SOL    HW242557   3.906   2.848   3.633
13706SOL     OW42558   4.387   2.044   3.363
13706SOL    HW142559   4.476   2.047   3.327
13706SOL    HW242560   4.399   2.059   3.457
13707SOL     OW42561   5.147   2.709   3.251
13707SOL    HW142562   5.097   2.772   3.199
13707SOL    HW242563   5.237   2.719   3.221
13708SOL     OW42564   3.766   2.015   2.156
13708SOL    HW142565   3.752   2.065   2.076
13708SOL    HW242566   3.849   2.048   2.191
13709SOL     OW42567   4.894   3.196   1.985
13709SOL    HW142568   4.799   3.191   1.982
13709SOL    HW242569   4.916   3.202   2.078
13710SOL     OW42570   4.350   2.685   3.296
13710SOL    HW142571   4.402   2.766   3.287
13710SOL    HW242572   4.415   2.617   3.312
13711SOL     OW42573   5.280   3.656   2.857
13711SOL    HW142574   5.260   3.728   2.797
13711SOL    HW242575   5.195   3.627   2.891
13712SOL     OW42576   4.450   2.443   3.555
13712SOL    HW142577   4.494   2.504   3.614
13712SOL    HW242578   4.401   2.385   3.613
13713SOL     OW42579   5.198   3.047   3.494
13713SOL    HW142580   5.178   3.069   3.585
13713SOL    HW242581   5.289   3.076   3.481
13714SOL     OW42582   5.391   2.744   3.115
13714SOL    HW142583   5.382   2.663   3.065
13714SOL    HW242584   5.379   2.814   3.050
13715SOL     OW42585   4.948   2.185   2.307
13715SOL    HW142586   5.009   2.112   2.307
13715SOL    HW242587   4.968   2.234   2.387
13716SOL     OW42588   4.325   2.599   2.518
13716SOL    HW142589   4.346   2.692   2.526
13716SOL    HW242590   4.249   2.596   2.460
13717SOL     OW42591   5.476   2.224   3.516
13717SOL    HW142592   5.465   2.237   3.421
13717SOL    HW242593   5.407   2.163   3.540
13718SOL     OW42594   5.474   2.793   3.373
13718SOL    HW142595   5.458   2.886   3.391
13718SOL    HW242596   5.454   2.784   3.279
13719SOL     OW42597   4.609   3.226   1.907
13719SOL    HW142598   4.576   3.214   1.996
13719SOL    HW242599   4.590   3.317   1.886
13720SOL     OW42600   4.603   2.831   2.711
13720SOL    HW142601   4.655   2.763   2.753
13720SOL    HW242602   4.554   2.871   2.783
13721SOL     OW42603   4.866   2.842   1.914
13721SOL    HW142604   4.781   2.881   1.936
13721SOL    HW242605   4.885   2.875   1.826
13722SOL     OW42606   5.590   3.459   2.748
13722SOL    HW142607   5.527   3.457   2.676
13722SOL    HW242608   5.555   3.397   2.812
13723SOL     OW42609   4.400   3.291   3.494
13723SOL    HW142610   4.327   3.250   3.540
13723SOL    HW242611   4.378   3.385   3.493
13724SOL     OW42612   5.529   2.043   3.096
13724SOL    HW142613   5.565   1.957   3.115
13724SOL    HW242614   5.540   2.054   3.002
13725SOL     OW42615   4.153   2.291   2.388
13725SOL    HW142616   4.175   2.210   2.342
13725SOL    HW242617   4.101   2.261   2.463
13726SOL     OW42618   5.443   3.330   2.951
13726SOL    HW142619   5.359   3.320   2.906
13726SOL    HW242620   5.437   3.271   3.026
13727SOL     OW42621   4.057   2.421   3.152
13727SOL    HW142622   4.109   2.362   3.207
13727SOL    HW242623   4.073   2.391   3.063
13728SOL     OW42624   4.540   3.412   2.512
13728SOL    HW142625   4.481   3.445   2.445
13728SOL    HW242626   4.484   3.394   2.588
13729SOL     OW42627   5.158   2.090   2.979
13729SOL    HW142628   5.178   2.014   3.034
13729SOL    HW242629   5.105   2.146   3.036
13730SOL     OW42630   4.709   1.888   3.004
13730SOL    HW142631   4.634   1.843   2.964
13730SOL    HW242632   4.781   1.826   2.995
13731SOL     OW42633   4.541   3.165   2.157
13731SOL    HW142634   4.489   3.092   2.192
13731SOL    HW242635   4.587   3.201   2.232
13732SOL     OW42636   5.068   1.890   1.969
13732SOL    HW142637   5.021   1.972   1.955
13732SOL    HW242638   5.012   1.841   2.030
13733SOL     OW42639   5.024   2.322   2.536
13733SOL    HW142640   4.971   2.401   2.539
13733SOL    HW242641   5.014   2.283   2.623
13734SOL     OW42642   5.305   2.054   2.747
13734SOL    HW142643   5.253   2.077   2.824
13734SOL    HW242644   5.302   2.132   2.692
13735SOL     OW42645   3.764   2.927   2.162
13735SOL    HW142646   3.858   2.921   2.147
13735SOL    HW242647   3.739   2.838   2.186
13736SOL     OW42648   4.622   3.522   2.182
13736SOL    HW142649   4.546   3.500   2.128
13736SOL    HW242650   4.590   3.590   2.241
13737SOL     OW42651   3.929   2.538   3.829
13737SOL    HW142652   3.849   2.508   3.874
13737SOL    HW242653   3.955   2.464   3.774
13738SOL     OW42654   3.946   2.128   4.703
13738SOL    HW142655   3.974   2.095   4.788
13738SOL    HW242656   3.852   2.110   4.700
13739SOL     OW42657   3.716   2.235   4.360
13739SOL    HW142658   3.643   2.278   4.405
13739SOL    HW242659   3.677   2.158   4.319
13740SOL     OW42660   4.292   3.163   4.902
13740SOL    HW142661   4.208   3.171   4.858
13740SOL    HW242662   4.304   3.246   4.947
13741SOL     OW42663   5.299   3.377   4.432
13741SOL    HW142664   5.256   3.372   4.518
13741SOL    HW242665   5.227   3.381   4.370
13742SOL     OW42666   4.850   2.564   4.452
13742SOL    HW142667   4.896   2.645   4.432
13742SOL    HW242668   4.757   2.585   4.441
13743SOL     OW42669   5.527   2.450   3.942
13743SOL    HW142670   5.489   2.448   3.854
13743SOL    HW242671   5.471   2.392   3.993
13744SOL     OW42672   4.469   2.977   4.830
13744SOL    HW142673   4.399   3.029   4.870
13744SOL    HW242674   4.506   3.034   4.763
13745SOL     OW42675   4.552   2.659   5.541
13745SOL    HW142676   4.487   2.718   5.579
13745SOL    HW242677   4.576   2.701   5.458
13746SOL     OW42678   4.408   2.858   4.367
13746SOL    HW142679   4.475   2.871   4.435
13746SOL    HW242680   4.338   2.918   4.392
13747SOL     OW42681   4.060   3.266   4.787
13747SOL    HW142682   3.987   3.231   4.736
13747SOL    HW242683   4.106   3.324   4.726
13748SOL     OW42684   5.186   3.361   5.091
13748SOL    HW142685   5.206   3.454   5.076
13748SOL    HW242686   5.105   3.362   5.142
13749SOL     OW42687   4.179   2.242   5.209
13749SOL    HW142688   4.237   2.167   5.193
13749SOL    HW242689   4.097   2.203   5.238
13750SOL     OW42690   5.320   2.304   4.470
13750SOL    HW142691   5.241   2.318   4.418
13750SOL    HW242692   5.314   2.369   4.541
13751SOL     OW42693   4.911   3.169   5.431
13751SOL    HW142694   4.887   3.254   5.467
13751SOL    HW242695   4.830   3.117   5.436
13752SOL     OW42696   3.951   2.901   4.644
13752SOL    HW142697   3.941   2.861   4.731
13752SOL    HW242698   3.915   2.989   4.654
13753SOL     OW42699   4.332   3.652   5.156
13753SOL    HW142700   4.246   3.642   5.196
13753SOL    HW242701   4.352   3.745   5.165
13754SOL     OW42702   4.303   2.845   3.844
13754SOL    HW142703   4.357   2.897   3.784
13754SOL    HW242704   4.329   2.874   3.931
13755SOL     OW42705   5.322   1.991   5.184
13755SOL    HW142706   5.341   2.076   5.143
13755SOL    HW242707   5.302   2.012   5.275
13756SOL     OW42708   3.869   2.502   4.294
13756SOL    HW142709   3.808   2.429   4.305
13756SOL    HW242710   3.844   2.564   4.362
13757SOL     OW42711   5.568   3.611   4.040
13757SOL    HW142712   5.586   3.588   4.131
13757SOL    HW242713   5.591   3.704   4.034
13758SOL     OW42714   5.402   2.766   4.347
13758SOL    HW142715   5.494   2.747   4.335
13758SOL    HW242716   5.382   2.832   4.280
13759SOL     OW42717   5.377   2.968   4.153
13759SOL    HW142718   5.464   2.972   4.113
13759SOL    HW242719   5.381   3.032   4.224
13760SOL     OW42720   3.852   2.601   5.304
13760SOL    HW142721   3.945   2.617   5.289
13760SOL    HW242722   3.822   2.678   5.352
13761SOL     OW42723   5.009   3.093   5.142
13761SOL    HW142724   5.056   3.026   5.093
13761SOL    HW242725   5.049   3.091   5.229
13762SOL     OW42726   4.545   1.865   4.243
13762SOL    HW142727   4.585   1.947   4.216
13762SOL    HW242728   4.451   1.883   4.247
13763SOL     OW42729   3.898   2.785   4.948
13763SOL    HW142730   3.974   2.816   4.997
13763SOL    HW242731   3.830   2.850   4.967
13764SOL     OW42732   5.263   2.858   3.925
13764SOL    HW142733   5.192   2.802   3.957
13764SOL    HW242734   5.299   2.898   4.004
13765SOL     OW42735   4.958   3.678   5.364
13765SOL    HW142736   4.936   3.756   5.314
13765SOL    HW242737   4.924   3.605   5.312
13766SOL     OW42738   4.090   2.119   5.579
13766SOL    HW142739   4.125   2.205   5.604
13766SOL    HW242740   3.995   2.134   5.571
13767SOL     OW42741   5.225   3.255   4.689
13767SOL    HW142742   5.153   3.280   4.748
13767SOL    HW242743   5.191   3.181   4.639
13768SOL     OW42744   5.402   3.607   4.287
13768SOL    HW142745   5.352   3.576   4.211
13768SOL    HW242746   5.372   3.553   4.360
13769SOL     OW42747   4.329   2.601   4.016
13769SOL    HW142748   4.304   2.675   3.961
13769SOL    HW242749   4.255   2.589   4.076
13770SOL     OW42750   5.010   2.223   4.659
13770SOL    HW142751   4.919   2.197   4.667
13770SOL    HW242752   5.056   2.167   4.722
13771SOL     OW42753   5.303   3.532   4.028
13771SOL    HW142754   5.393   3.563   4.016
13771SOL    HW242755   5.269   3.522   3.939
13772SOL     OW42756   4.551   2.468   5.167
13772SOL    HW142757   4.519   2.448   5.255
13772SOL    HW242758   4.496   2.415   5.109
13773SOL     OW42759   5.111   2.336   5.400
13773SOL    HW142760   5.114   2.379   5.485
13773SOL    HW242761   5.180   2.270   5.404
13774SOL     OW42762   4.655   2.763   5.307
13774SOL    HW142763   4.719   2.696   5.281
13774SOL    HW242764   4.627   2.803   5.224
13775SOL     OW42765   4.726   2.269   4.957
13775SOL    HW142766   4.648   2.308   4.998
13775SOL    HW242767   4.694   2.234   4.874
13776SOL     OW42768   4.777   2.550   4.136
13776SOL    HW142769   4.784   2.536   4.230
13776SOL    HW242770   4.691   2.513   4.113
13777SOL     OW42771   3.804   2.664   4.505
13777SOL    HW142772   3.889   2.690   4.540
13777SOL    HW242773   3.745   2.734   4.533
13778SOL     OW42774   3.870   3.739   5.291
13778SOL    HW142775   3.831   3.652   5.298
13778SOL    HW242776   3.844   3.769   5.204
13779SOL     OW42777   4.608   2.190   3.915
13779SOL    HW142778   4.649   2.264   3.869
13779SOL    HW242779   4.521   2.182   3.875
13780SOL     OW42780   5.430   2.434   5.554
13780SOL    HW142781   5.394   2.509   5.506
13780SOL    HW242782   5.455   2.372   5.486
13781SOL     OW42783   5.103   2.996   4.262
13781SOL    HW142784   5.185   3.000   4.214
13781SOL    HW242785   5.048   3.062   4.221
13782SOL     OW42786   4.280   2.032   4.625
13782SOL    HW142787   4.283   2.062   4.716
13782SOL    HW242788   4.268   2.111   4.573
13783SOL     OW42789   4.068   3.661   4.611
13783SOL    HW142790   4.123   3.583   4.622
13783SOL    HW242791   4.127   3.735   4.626
13784SOL     OW42792   5.517   2.898   4.586
13784SOL    HW142793   5.450   2.909   4.518
13784SOL    HW242794   5.472   2.921   4.667
13785SOL     OW42795   4.940   3.396   5.205
13785SOL    HW142796   4.919   3.337   5.277
13785SOL    HW242797   4.858   3.440   5.185
13786SOL     OW42798   4.046   2.754   3.962
13786SOL    HW142799   4.113   2.790   3.904
13786SOL    HW242800   4.006   2.683   3.911
13787SOL     OW42801   5.203   2.602   4.434
13787SOL    HW142802   5.208   2.566   4.523
13787SOL    HW242803   5.278   2.660   4.428
13788SOL     OW42804   4.207   3.081   5.381
13788SOL    HW142805   4.178   3.085   5.289
13788SOL    HW242806   4.149   3.142   5.426
13789SOL     OW42807   4.870   3.660   3.966
13789SOL    HW142808   4.781   3.687   3.988
13789SOL    HW242809   4.858   3.586   3.905
13790SOL     OW42810   3.913   2.174   5.286
13790SOL    HW142811   3.903   2.165   5.192
13790SOL    HW242812   3.823   2.176   5.320
13791SOL     OW42813   5.357   3.239   3.806
13791SOL    HW142814   5.316   3.326   3.800
13791SOL    HW242815   5.285   3.178   3.792
13792SOL     OW42816   5.129   1.967   4.173
13792SOL    HW142817   5.119   1.947   4.080
13792SOL    HW242818   5.222   1.987   4.183
13793SOL     OW42819   3.972   3.652   4.962
13793SOL    HW142820   4.019   3.572   4.986
13793SOL    HW242821   3.955   3.642   4.868
13794SOL     OW42822   4.136   2.539   4.204
13794SOL    HW142823   4.144   2.445   4.224
13794SOL    HW242824   4.044   2.559   4.218
13795SOL     OW42825   5.255   2.086   5.444
13795SOL    HW142826   5.271   2.101   5.537
13795SOL    HW242827   5.171   2.041   5.440
13796SOL     OW42828   4.398   1.921   3.831
13796SOL    HW142829   4.396   1.829   3.856
13796SOL    HW242830   4.327   1.930   3.767
13797SOL     OW42831   4.464   2.132   5.487
13797SOL    HW142832   4.529   2.083   5.537
13797SOL    HW242833   4.388   2.138   5.545
13798SOL     OW42834   4.593   3.380   4.948
13798SOL    HW142835   4.580   3.397   4.854
13798SOL    HW242836   4.670   3.323   4.951
13799SOL     OW42837   5.070   2.444   5.144
13799SOL    HW142838   5.090   2.422   5.236
13799SOL    HW242839   5.096   2.536   5.135
13800SOL     OW42840   4.526   3.147   4.636
13800SOL    HW142841   4.543   3.238   4.658
13800SOL    HW242842   4.439   3.147   4.598
13801SOL     OW42843   4.690   2.368   4.620
13801SOL    HW142844   4.656   2.364   4.530
13801SOL    HW242845   4.701   2.276   4.645
13802SOL     OW42846   4.279   1.922   4.221
13802SOL    HW142847   4.200   1.925   4.276
13802SOL    HW242848   4.272   1.999   4.165
13803SOL     OW42849   5.147   3.063   3.765
13803SOL    HW142850   5.172   2.989   3.820
13803SOL    HW242851   5.063   3.092   3.801
13804SOL     OW42852   4.011   1.915   3.912
13804SOL    HW142853   4.067   1.989   3.889
13804SOL    HW242854   4.069   1.853   3.955
13805SOL     OW42855   4.669   2.105   4.176
13805SOL    HW142856   4.645   2.133   4.088
13805SOL    HW242857   4.761   2.132   4.185
13806SOL     OW42858   4.806   2.548   5.214
13806SOL    HW142859   4.721   2.512   5.191
13806SOL    HW242860   4.870   2.491   5.171
13807SOL     OW42861   5.023   3.373   4.498
13807SOL    HW142862   4.985   3.443   4.445
13807SOL    HW242863   4.964   3.365   4.573
13808SOL     OW42864   4.998   3.646   4.276
13808SOL    HW142865   5.050   3.715   4.237
13808SOL    HW242866   4.918   3.690   4.306
13809SOL     OW42867   4.747   2.397   3.749
13809SOL    HW142868   4.695   2.476   3.731
13809SOL    HW242869   4.800   2.419   3.825
13810SOL     OW42870   3.801   2.418   5.113
13810SOL    HW142871   3.893   2.412   5.086
13810SOL    HW242872   3.799   2.490   5.176
13811SOL     OW42873   4.293   2.082   4.897
13811SOL    HW142874   4.335   2.022   4.958
13811SOL    HW242875   4.200   2.078   4.920
13812SOL     OW42876   4.606   2.342   4.359
13812SOL    HW142877   4.529   2.391   4.330
13812SOL    HW242878   4.608   2.266   4.302
13813SOL     OW42879   4.755   1.906   4.461
13813SOL    HW142880   4.687   1.914   4.394
13813SOL    HW242881   4.724   1.837   4.519
13814SOL     OW42882   5.134   3.016   4.576
13814SOL    HW142883   5.045   3.046   4.594
13814SOL    HW242884   5.143   3.024   4.481
13815SOL     OW42885   5.195   2.462   4.677
13815SOL    HW142886   5.128   2.395   4.691
13815SOL    HW242887   5.245   2.463   4.759
13816SOL     OW42888   5.585   2.669   4.098
13816SOL    HW142889   5.635   2.620   4.163
13816SOL    HW242890   5.558   2.603   4.034
13817SOL     OW42891   5.402   3.129   4.363
13817SOL    HW142892   5.496   3.139   4.383
13817SOL    HW242893   5.363   3.211   4.392
13818SOL     OW42894   5.114   2.435   3.795
13818SOL    HW142895   5.048   2.415   3.861
13818SOL    HW242896   5.196   2.439   3.844
13819SOL     OW42897   4.253   2.112   4.025
13819SOL    HW142898   4.311   2.070   3.962
13819SOL    HW242899   4.237   2.199   3.989
13820SOL     OW42900   5.477   3.097   5.273
13820SOL    HW142901   5.566   3.064   5.263
13820SOL    HW242902   5.487   3.186   5.308
13821SOL     OW42903   4.783   3.186   5.021
13821SOL    HW142904   4.707   3.173   5.078
13821SOL    HW242905   4.859   3.168   5.077
13822SOL     OW42906   5.353   3.484   5.390
13822SOL    HW142907   5.336   3.526   5.306
13822SOL    HW242908   5.427   3.426   5.373
13823SOL     OW42909   4.833   2.999   4.830
13823SOL    HW142910   4.803   3.064   4.893
13823SOL    HW242911   4.844   3.048   4.748
13824SOL     OW42912   5.351   2.967   4.801
13824SOL    HW142913   5.349   3.032   4.871
13824SOL    HW242914   5.271   2.983   4.750
13825SOL     OW42915   4.659   1.942   5.118
13825SOL    HW142916   4.672   1.933   5.023
13825SOL    HW242917   4.738   1.987   5.148
13826SOL     OW42918   4.694   2.996   5.481
13826SOL    HW142919   4.613   3.031   5.518
13826SOL    HW242920   4.665   2.943   5.407
13827SOL     OW42921   4.427   2.923   4.080
13827SOL    HW142922   4.396   2.908   4.169
13827SOL    HW242923   4.500   2.863   4.069
13828SOL     OW42924   4.171   2.652   4.947
13828SOL    HW142925   4.223   2.674   5.024
13828SOL    HW242926   4.106   2.589   4.979
13829SOL     OW42927   4.989   2.229   5.003
13829SOL    HW142928   5.022   2.308   5.046
13829SOL    HW242929   4.898   2.249   4.982
13830SOL     OW42930   3.782   3.402   5.029
13830SOL    HW142931   3.737   3.486   5.025
13830SOL    HW242932   3.875   3.425   5.035
13831SOL     OW42933   4.325   2.423   4.580
13831SOL    HW142934   4.331   2.476   4.501
13831SOL    HW242935   4.243   2.452   4.621
13832SOL     OW42936   4.964   3.206   4.122
13832SOL    HW142937   5.021   3.279   4.146
13832SOL    HW242938   4.890   3.212   4.182
13833SOL     OW42939   5.025   3.281   4.865
13833SOL    HW142940   5.044   3.290   4.959
13833SOL    HW242941   4.929   3.288   4.860
13834SOL     OW42942   5.303   2.490   4.196
13834SOL    HW142943   5.253   2.514   4.273
13834SOL    HW242944   5.333   2.573   4.159
13835SOL     OW42945   4.065   3.394   5.025
13835SOL    HW142946   4.054   3.344   4.944
13835SOL    HW242947   4.160   3.403   5.035
13836SOL     OW42948   4.123   2.601   5.298
13836SOL    HW142949   4.193   2.653   5.257
13836SOL    HW242950   4.165   2.519   5.322
13837SOL     OW42951   5.336   2.642   5.407
13837SOL    HW142952   5.249   2.682   5.402
13837SOL    HW242953   5.387   2.687   5.339
13838SOL     OW42954   4.767   1.935   5.531
13838SOL    HW142955   4.773   2.028   5.510
13838SOL    HW242956   4.819   1.892   5.463
13839SOL     OW42957   4.226   1.895   5.481
13839SOL    HW142958   4.176   1.860   5.407
13839SOL    HW242959   4.178   1.975   5.506
13840SOL     OW42960   4.338   2.748   4.753
13840SOL    HW142961   4.349   2.842   4.767
13840SOL    HW242962   4.267   2.723   4.813
13841SOL     OW42963   5.074   2.709   4.745
13841SOL    HW142964   5.056   2.758   4.664
13841SOL    HW242965   5.109   2.625   4.715
13842SOL     OW42966   4.926   2.381   3.982
13842SOL    HW142967   4.930   2.306   4.041
13842SOL    HW242968   4.883   2.450   4.033
13843SOL     OW42969   3.768   3.125   5.032
13843SOL    HW142970   3.788   3.105   5.123
13843SOL    HW242971   3.757   3.220   5.030
13844SOL     OW42972   4.473   2.519   4.778
13844SOL    HW142973   4.431   2.470   4.708
13844SOL    HW242974   4.422   2.600   4.784
13845SOL     OW42975   5.471   2.813   5.587
13845SOL    HW142976   5.419   2.758   5.530
13845SOL    HW242977   5.411   2.839   5.657
13846SOL     OW42978   4.033   1.922   4.346
13846SOL    HW142979   4.005   2.011   4.364
13846SOL    HW242980   4.041   1.881   4.432
13847SOL     OW42981   5.349   2.248   4.080
13847SOL    HW142982   5.371   2.187   4.150
13847SOL    HW242983   5.322   2.328   4.126
13848SOL     OW42984   4.716   3.403   5.438
13848SOL    HW142985   4.685   3.455   5.363
13848SOL    HW242986   4.637   3.384   5.488
13849SOL     OW42987   5.587   3.347   5.328
13849SOL    HW142988   5.598   3.382   5.239
13849SOL    HW242989   5.663   3.381   5.376
13850SOL     OW42990   4.130   2.765   5.563
13850SOL    HW142991   4.169   2.840   5.518
13850SOL    HW242992   4.063   2.734   5.503
13851SOL     OW42993   5.266   2.113   3.853
13851SOL    HW142994   5.190   2.065   3.886
13851SOL    HW242995   5.294   2.167   3.927
13852SOL     OW42996   5.005   2.685   3.744
13852SOL    HW142997   5.047   2.599   3.751
13852SOL    HW242998   5.041   2.723   3.664
13853SOL     OW42999   4.874   3.121   4.591
13853SOL    HW143000   4.816   3.107   4.516
13853SOL    HW243001   4.853   3.210   4.621
13854SOL     OW43002   4.071   2.619   4.663
13854SOL    HW143003   4.094   2.701   4.619
13854SOL    HW243004   4.067   2.643   4.756
13855SOL     OW43005   4.088   2.355   4.756
13855SOL    HW143006   4.036   2.281   4.726
13855SOL    HW243007   4.062   2.428   4.699
13856SOL     OW43008   4.857   2.220   5.402
13856SOL    HW143009   4.789   2.287   5.405
13856SOL    HW243010   4.939   2.270   5.405
13857SOL     OW43011   4.901   2.047   5.196
13857SOL    HW143012   4.883   2.108   5.268
13857SOL    HW243013   4.936   2.103   5.126
13858SOL     OW43014   3.803   3.648   4.649
13858SOL    HW143015   3.782   3.565   4.607
13858SOL    HW243016   3.895   3.663   4.626
13859SOL     OW43017   4.214   3.429   4.633
13859SOL    HW143018   4.300   3.472   4.633
13859SOL    HW243019   4.214   3.376   4.553
13860SOL     OW43020   4.720   2.644   4.944
13860SOL    HW143021   4.787   2.660   5.009
13860SOL    HW243022   4.641   2.685   4.980
13861SOL     OW43023   3.754   2.396   4.840
13861SOL    HW143024   3.824   2.431   4.785
13861SOL    HW243025   3.784   2.411   4.929
13862SOL     OW43026   3.909   2.392   5.463
13862SOL    HW143027   3.936   2.328   5.397
13862SOL    HW243028   3.887   2.470   5.413
13863SOL     OW43029   5.105   2.784   5.386
13863SOL    HW143030   5.126   2.877   5.386
13863SOL    HW243031   5.085   2.764   5.295
13864SOL     OW43032   4.540   2.442   4.069
13864SOL    HW143033   4.503   2.362   4.032
13864SOL    HW243034   4.471   2.508   4.058
13865SOL     OW43035   5.358   2.461   4.895
13865SOL    HW143036   5.343   2.414   4.977
13865SOL    HW243037   5.447   2.437   4.870
13866SOL     OW43038   4.443   2.313   4.969
13866SOL    HW143039   4.380   2.246   4.943
13866SOL    HW243040   4.430   2.384   4.906
13867SOL     OW43041   4.704   3.532   5.168
13867SOL    HW143042   4.648   3.491   5.102
13867SOL    HW243043   4.675   3.623   5.170
13868SOL     OW43044   5.053   2.889   4.947
13868SOL    HW143045   5.065   2.827   4.875
13868SOL    HW243046   4.978   2.942   4.921
13869SOL     OW43047   5.053   2.710   4.021
13869SOL    HW143048   4.981   2.708   4.084
13869SOL    HW243049   5.010   2.708   3.935
13870SOL     OW43050   5.511   3.591   4.889
13870SOL    HW143051   5.550   3.632   4.812
13870SOL    HW243052   5.460   3.518   4.854
13871SOL     OW43053   5.068   3.613   4.852
13871SOL    HW143054   5.015   3.691   4.864
13871SOL    HW243055   5.010   3.540   4.874
13872SOL     OW43056   3.805   3.111   4.757
13872SOL    HW143057   3.798   3.118   4.852
13872SOL    HW243058   3.747   3.179   4.723
13873SOL     OW43059   4.432   3.546   5.394
13873SOL    HW143060   4.374   3.596   5.452
13873SOL    HW243061   4.414   3.579   5.306
13874SOL     OW43062   5.444   2.017   4.228
13874SOL    HW143063   5.515   2.003   4.165
13874SOL    HW243064   5.432   1.932   4.270
13875SOL     OW43065   5.119   3.418   4.195
13875SOL    HW143066   5.181   3.455   4.131
13875SOL    HW243067   5.069   3.494   4.226
13876SOL     OW43068   4.995   2.779   4.383
13876SOL    HW143069   5.071   2.721   4.390
13876SOL    HW243070   5.029   2.858   4.341
13877SOL     OW43071   4.542   3.130   5.140
13877SOL    HW143072   4.511   3.172   5.220
13877SOL    HW243073   4.491   3.170   5.070
13878SOL     OW43074   5.400   3.607   5.140
13878SOL    HW143075   5.418   3.608   5.046
13878SOL    HW243076   5.359   3.692   5.157
13879SOL     OW43077   5.567   2.033   4.686
13879SOL    HW143078   5.591   1.943   4.663
13879SOL    HW243079   5.478   2.044   4.652
13880SOL     OW43080   3.975   2.172   4.431
13880SOL    HW143081   3.890   2.209   4.407
13880SOL    HW243082   3.971   2.165   4.526
13881SOL     OW43083   4.935   3.458   3.758
13881SOL    HW143084   4.925   3.371   3.795
13881SOL    HW243085   4.867   3.464   3.692
13882SOL     OW43086   4.563   2.870   5.067
13882SOL    HW143087   4.538   2.889   4.977
13882SOL    HW243088   4.561   2.955   5.111
13883SOL     OW43089   4.643   2.771   4.012
13883SOL    HW143090   4.706   2.813   3.953
13883SOL    HW243091   4.694   2.704   4.057
13884SOL     OW43092   5.215   3.480   3.769
13884SOL    HW143093   5.119   3.479   3.761
13884SOL    HW243094   5.246   3.490   3.679
13885SOL     OW43095   4.079   3.102   5.139
13885SOL    HW143096   4.074   3.197   5.123
13885SOL    HW243097   3.997   3.081   5.183
13886SOL     OW43098   5.352   3.154   5.016
13886SOL    HW143099   5.383   3.130   5.103
13886SOL    HW243100   5.282   3.218   5.032
13887SOL     OW43101   4.764   2.955   4.384
13887SOL    HW143102   4.698   2.921   4.444
13887SOL    HW243103   4.837   2.894   4.392
13888SOL     OW43104   4.758   2.100   4.682
13888SOL    HW143105   4.754   2.050   4.600
13888SOL    HW243106   4.745   2.034   4.751
13889SOL     OW43107   5.457   2.248   5.107
13889SOL    HW143108   5.524   2.317   5.105
13889SOL    HW243109   5.489   2.181   5.047
13890SOL     OW43110   3.834   2.807   5.480
13890SOL    HW143111   3.753   2.820   5.531
13890SOL    HW243112   3.861   2.895   5.455
13891SOL     OW43113   4.410   2.039   5.218
13891SOL    HW143114   4.499   2.029   5.184
13891SOL    HW243115   4.420   2.085   5.301
13892SOL     OW43116   3.815   2.182   3.750
13892SOL    HW143117   3.719   2.183   3.752
13892SOL    HW243118   3.838   2.257   3.695
13893SOL     OW43119   5.153   2.706   5.118
13893SOL    HW143120   5.102   2.770   5.068
13893SOL    HW243121   5.243   2.719   5.089
13894SOL     OW43122   3.779   2.014   4.026
13894SOL    HW143123   3.769   2.102   3.990
13894SOL    HW243124   3.863   1.983   3.992
13895SOL     OW43125   4.902   3.193   3.849
13895SOL    HW143126   4.809   3.169   3.846
13895SOL    HW243127   4.924   3.194   3.942
13896SOL     OW43128   4.344   2.696   5.161
13896SOL    HW143129   4.375   2.786   5.154
13896SOL    HW243130   4.423   2.644   5.170
13897SOL     OW43131   5.288   3.628   4.677
13897SOL    HW143132   5.272   3.714   4.638
13897SOL    HW243133   5.211   3.613   4.733
13898SOL     OW43134   4.476   2.411   5.416
13898SOL    HW143135   4.456   2.479   5.479
13898SOL    HW243136   4.448   2.330   5.458
13899SOL     OW43137   5.196   3.039   5.357
13899SOL    HW143138   5.159   3.079   5.435
13899SOL    HW243139   5.282   3.081   5.346
13900SOL     OW43140   4.104   3.597   5.293
13900SOL    HW143141   4.025   3.650   5.285
13900SOL    HW243142   4.074   3.507   5.287
13901SOL     OW43143   5.396   2.748   4.975
13901SOL    HW143144   5.377   2.668   4.926
13901SOL    HW243145   5.377   2.819   4.914
13902SOL     OW43146   4.944   2.184   4.185
13902SOL    HW143147   5.004   2.109   4.189
13902SOL    HW243148   4.967   2.237   4.261
13903SOL     OW43149   4.347   2.591   4.370
13903SOL    HW143150   4.363   2.686   4.369
13903SOL    HW243151   4.271   2.580   4.312
13904SOL     OW43152   5.483   2.224   5.378
13904SOL    HW143153   5.470   2.241   5.285
13904SOL    HW243154   5.409   2.169   5.403
13905SOL     OW43155   5.482   2.796   5.234
13905SOL    HW143156   5.459   2.886   5.254
13905SOL    HW243157   5.460   2.786   5.141
13906SOL     OW43158   4.604   3.231   3.744
13906SOL    HW143159   4.580   3.211   3.835
13906SOL    HW243160   4.559   3.314   3.726
13907SOL     OW43161   4.392   3.650   4.681
13907SOL    HW143162   4.380   3.715   4.750
13907SOL    HW243163   4.461   3.592   4.714
13908SOL     OW43164   4.602   2.785   4.633
13908SOL    HW143165   4.508   2.776   4.647
13908SOL    HW243166   4.625   2.867   4.676
13909SOL     OW43167   4.816   2.862   3.823
13909SOL    HW143168   4.783   2.910   3.747
13909SOL    HW243169   4.880   2.800   3.787
13910SOL     OW43170   5.559   3.410   4.572
13910SOL    HW143171   5.480   3.414   4.519
13910SOL    HW243172   5.529   3.380   4.658
13911SOL     OW43173   3.813   3.059   4.431
13911SOL    HW143174   3.888   3.013   4.468
13911SOL    HW243175   3.848   3.144   4.403
13912SOL     OW43176   4.423   3.263   5.333
13912SOL    HW143177   4.357   3.210   5.378
13912SOL    HW243178   4.428   3.343   5.385
13913SOL     OW43179   5.550   2.044   4.959
13913SOL    HW143180   5.518   1.954   4.969
13913SOL    HW243181   5.557   2.056   4.864
13914SOL     OW43182   4.170   2.274   4.262
13914SOL    HW143183   4.171   2.207   4.194
13914SOL    HW243184   4.102   2.246   4.324
13915SOL     OW43185   5.448   3.326   4.811
13915SOL    HW143186   5.366   3.314   4.764
13915SOL    HW243187   5.437   3.276   4.892
13916SOL     OW43188   4.053   2.405   5.022
13916SOL    HW143189   4.108   2.351   5.078
13916SOL    HW243190   4.076   2.378   4.933
13917SOL     OW43191   5.155   2.083   4.847
13917SOL    HW143192   5.160   1.999   4.893
13917SOL    HW243193   5.104   2.139   4.906
13918SOL     OW43194   4.735   1.876   4.853
13918SOL    HW143195   4.680   1.814   4.806
13918SOL    HW243196   4.822   1.835   4.854
13919SOL     OW43197   4.536   3.162   3.989
13919SOL    HW143198   4.498   3.081   4.022
13919SOL    HW243199   4.504   3.230   4.049
13920SOL     OW43200   4.337   3.415   5.021
13920SOL    HW143201   4.334   3.498   5.068
13920SOL    HW243202   4.428   3.404   4.995
13921SOL     OW43203   5.068   1.920   3.903
13921SOL    HW143204   5.073   1.866   3.824
13921SOL    HW243205   4.982   1.900   3.940
13922SOL     OW43206   5.022   2.329   4.408
13922SOL    HW143207   4.972   2.410   4.417
13922SOL    HW243208   5.016   2.287   4.494
13923SOL     OW43209   5.307   2.057   4.613
13923SOL    HW143210   5.253   2.080   4.688
13923SOL    HW243211   5.302   2.134   4.556
13924SOL     OW43212   3.943   2.467   5.724
13924SOL    HW143213   3.864   2.509   5.756
13924SOL    HW243214   3.932   2.462   5.629
13925SOL     OW43215   3.948   2.135   6.574
13925SOL    HW143216   3.974   2.112   6.663
13925SOL    HW243217   3.853   2.123   6.573
13926SOL     OW43218   3.733   2.251   6.231
13926SOL    HW143219   3.647   2.278   6.262
13926SOL    HW243220   3.715   2.180   6.169
13927SOL     OW43221   5.275   3.376   6.283
13927SOL    HW143222   5.211   3.393   6.352
13927SOL    HW243223   5.227   3.389   6.202
13928SOL     OW43224   4.864   2.545   6.287
13928SOL    HW143225   4.905   2.627   6.263
13928SOL    HW243226   4.819   2.564   6.370
13929SOL     OW43227   5.524   2.457   5.805
13929SOL    HW143228   5.490   2.458   5.715
13929SOL    HW243229   5.472   2.391   5.850
13930SOL     OW43230   4.469   3.010   6.627
13930SOL    HW143231   4.386   3.039   6.667
13930SOL    HW243232   4.498   3.085   6.576
13931SOL     OW43233   4.580   2.632   7.410
13931SOL    HW143234   4.548   2.698   7.472
13931SOL    HW243235   4.610   2.682   7.335
13932SOL     OW43236   4.414   2.846   6.242
13932SOL    HW143237   4.480   2.858   6.311
13932SOL    HW243238   4.341   2.901   6.269
13933SOL     OW43239   5.214   3.354   6.938
13933SOL    HW143240   5.255   3.440   6.948
13933SOL    HW243241   5.134   3.360   6.991
13934SOL     OW43242   4.175   2.224   7.034
13934SOL    HW143243   4.257   2.180   7.056
13934SOL    HW243244   4.112   2.188   7.095
13935SOL     OW43245   5.321   2.301   6.335
13935SOL    HW143246   5.249   2.315   6.274
13935SOL    HW243247   5.311   2.369   6.401
13936SOL     OW43248   3.948   3.194   6.160
13936SOL    HW143249   4.027   3.247   6.173
13936SOL    HW243250   3.876   3.258   6.159
13937SOL     OW43251   3.948   2.952   6.496
13937SOL    HW143252   3.967   2.859   6.508
13937SOL    HW243253   3.936   2.985   6.585
13938SOL     OW43254   4.408   2.820   5.698
13938SOL    HW143255   4.423   2.902   5.652
13938SOL    HW243256   4.391   2.846   5.789
13939SOL     OW43257   5.311   1.986   7.042
13939SOL    HW143258   5.322   2.071   7.000
13939SOL    HW243259   5.299   2.006   7.134
13940SOL     OW43260   3.848   2.509   6.155
13940SOL    HW143261   3.809   2.424   6.178
13940SOL    HW243262   3.831   2.564   6.232
13941SOL     OW43263   5.580   3.618   5.902
13941SOL    HW143264   5.568   3.603   5.996
13941SOL    HW243265   5.598   3.711   5.895
13942SOL     OW43266   5.421   2.815   6.261
13942SOL    HW143267   5.484   2.751   6.229
13942SOL    HW243268   5.394   2.863   6.182
13943SOL     OW43269   5.378   2.971   6.028
13943SOL    HW143270   5.462   2.971   5.983
13943SOL    HW243271   5.381   3.048   6.086
13944SOL     OW43272   3.863   2.612   7.164
13944SOL    HW143273   3.956   2.634   7.159
13944SOL    HW243274   3.822   2.690   7.202
13945SOL     OW43275   4.994   3.071   7.015
13945SOL    HW143276   5.040   3.022   6.947
13945SOL    HW243277   5.058   3.081   7.085
13946SOL     OW43278   4.544   1.833   6.116
13946SOL    HW143279   4.582   1.916   6.088
13946SOL    HW243280   4.451   1.851   6.126
13947SOL     OW43281   3.889   2.803   6.780
13947SOL    HW143282   3.976   2.773   6.805
13947SOL    HW243283   3.858   2.852   6.856
13948SOL     OW43284   5.275   2.850   5.794
13948SOL    HW143285   5.202   2.796   5.825
13948SOL    HW243286   5.305   2.896   5.872
13949SOL     OW43287   5.204   3.239   6.567
13949SOL    HW143288   5.140   3.271   6.630
13949SOL    HW243289   5.155   3.235   6.484
13950SOL     OW43290   5.409   3.586   6.137
13950SOL    HW143291   5.362   3.568   6.055
13950SOL    HW243292   5.358   3.541   6.204
13951SOL     OW43293   4.324   2.584   5.849
13951SOL    HW143294   4.322   2.664   5.797
13951SOL    HW243295   4.258   2.599   5.917
13952SOL     OW43296   5.012   2.217   6.516
13952SOL    HW143297   4.918   2.200   6.523
13952SOL    HW243298   5.050   2.165   6.587
13953SOL     OW43299   5.312   3.526   5.881
13953SOL    HW143300   5.392   3.571   5.856
13953SOL    HW243301   5.265   3.514   5.799
13954SOL     OW43302   4.535   2.463   7.034
13954SOL    HW143303   4.494   2.449   7.119
13954SOL    HW243304   4.486   2.406   6.974
13955SOL     OW43305   5.116   2.340   7.271
13955SOL    HW143306   5.120   2.382   7.357
13955SOL    HW243307   5.189   2.278   7.271
13956SOL     OW43308   4.658   2.743   7.161
13956SOL    HW143309   4.720   2.681   7.123
13956SOL    HW243310   4.624   2.792   7.086
13957SOL     OW43311   4.729   2.272   6.825
13957SOL    HW143312   4.650   2.305   6.869
13957SOL    HW243313   4.696   2.233   6.744
13958SOL     OW43314   4.786   2.531   6.019
13958SOL    HW143315   4.800   2.530   6.113
13958SOL    HW243316   4.693   2.510   6.007
13959SOL     OW43317   3.791   2.668   6.375
13959SOL    HW143318   3.878   2.677   6.414
13959SOL    HW243319   3.739   2.735   6.418
13960SOL     OW43320   3.840   3.754   7.166
13960SOL    HW143321   3.831   3.723   7.256
13960SOL    HW243322   3.800   3.685   7.113
13961SOL     OW43323   4.635   2.151   5.765
13961SOL    HW143324   4.636   2.247   5.770
13961SOL    HW243325   4.549   2.127   5.797
13962SOL     OW43326   5.499   2.428   7.345
13962SOL    HW143327   5.460   2.508   7.380
13962SOL    HW243328   5.445   2.406   7.269
13963SOL     OW43329   5.113   2.992   6.136
13963SOL    HW143330   5.188   2.985   6.076
13963SOL    HW243331   5.062   3.065   6.102
13964SOL     OW43332   4.269   2.036   6.489
13964SOL    HW143333   4.275   2.068   6.579
13964SOL    HW243334   4.267   2.116   6.436
13965SOL     OW43335   4.979   3.378   7.066
13965SOL    HW143336   4.980   3.373   7.162
13965SOL    HW243337   4.890   3.406   7.044
13966SOL     OW43338   4.084   2.775   5.836
13966SOL    HW143339   4.115   2.783   5.746
13966SOL    HW243340   4.011   2.713   5.831
13967SOL     OW43341   5.215   2.608   6.302
13967SOL    HW143342   5.195   2.567   6.386
13967SOL    HW243343   5.279   2.676   6.323
13968SOL     OW43344   3.908   2.118   7.104
13968SOL    HW143345   3.855   2.197   7.109
13968SOL    HW243346   3.924   2.094   7.196
13969SOL     OW43347   5.365   3.237   5.675
13969SOL    HW143348   5.323   3.323   5.664
13969SOL    HW243349   5.294   3.174   5.658
13970SOL     OW43350   5.123   1.959   6.025
13970SOL    HW143351   5.112   1.942   5.931
13970SOL    HW243352   5.215   1.985   6.034
13971SOL     OW43353   4.136   2.546   6.069
13971SOL    HW143354   4.144   2.452   6.081
13971SOL    HW243355   4.043   2.565   6.080
13972SOL     OW43356   5.258   2.090   7.299
13972SOL    HW143357   5.273   2.097   7.393
13972SOL    HW243358   5.164   2.074   7.291
13973SOL     OW43359   4.439   1.882   5.659
13973SOL    HW143360   4.414   1.938   5.733
13973SOL    HW243361   4.367   1.890   5.597
13974SOL     OW43362   4.472   2.093   7.355
13974SOL    HW143363   4.563   2.065   7.357
13974SOL    HW243364   4.467   2.162   7.421
13975SOL     OW43365   4.689   3.359   6.738
13975SOL    HW143366   4.598   3.390   6.732
13975SOL    HW243367   4.688   3.296   6.811
13976SOL     OW43368   5.069   2.446   7.016
13976SOL    HW143369   5.092   2.424   7.106
13976SOL    HW243370   5.094   2.537   7.006
13977SOL     OW43371   4.532   3.244   6.499
13977SOL    HW143372   4.627   3.256   6.505
13977SOL    HW243373   4.500   3.328   6.467
13978SOL     OW43374   4.665   2.376   6.485
13978SOL    HW143375   4.637   2.369   6.394
13978SOL    HW243376   4.686   2.286   6.511
13979SOL     OW43377   4.276   1.886   6.128
13979SOL    HW143378   4.189   1.907   6.162
13979SOL    HW243379   4.298   1.958   6.069
13980SOL     OW43380   5.154   3.067   5.637
13980SOL    HW143381   5.166   2.990   5.692
13980SOL    HW243382   5.069   3.103   5.664
13981SOL     OW43383   4.048   1.910   5.748
13981SOL    HW143384   4.066   1.988   5.695
13981SOL    HW243385   4.108   1.918   5.822
13982SOL     OW43386   4.680   2.073   6.064
13982SOL    HW143387   4.631   2.096   5.984
13982SOL    HW243388   4.765   2.115   6.053
13983SOL     OW43389   4.803   2.546   7.038
13983SOL    HW143390   4.726   2.489   7.042
13983SOL    HW243391   4.877   2.486   7.031
13984SOL     OW43392   5.019   3.404   6.399
13984SOL    HW143393   4.948   3.429   6.340
13984SOL    HW243394   5.023   3.475   6.464
13985SOL     OW43395   4.187   2.970   6.336
13985SOL    HW143396   4.109   2.992   6.387
13985SOL    HW243397   4.156   2.968   6.245
13986SOL     OW43398   3.807   2.412   6.991
13986SOL    HW143399   3.897   2.413   6.957
13986SOL    HW243400   3.802   2.489   7.046
13987SOL     OW43401   4.278   2.086   6.763
13987SOL    HW143402   4.325   2.053   6.839
13987SOL    HW243403   4.186   2.090   6.791
13988SOL     OW43404   4.584   2.323   6.230
13988SOL    HW143405   4.504   2.370   6.206
13988SOL    HW243406   4.586   2.247   6.171
13989SOL     OW43407   4.759   1.898   6.326
13989SOL    HW143408   4.699   1.921   6.255
13989SOL    HW243409   4.708   1.840   6.383
13990SOL     OW43410   5.150   2.987   6.404
13990SOL    HW143411   5.065   2.986   6.449
13990SOL    HW243412   5.128   3.000   6.312
13991SOL     OW43413   5.186   2.463   6.543
13991SOL    HW143414   5.122   2.393   6.558
13991SOL    HW243415   5.240   2.464   6.622
13992SOL     OW43416   5.570   2.668   5.977
13992SOL    HW143417   5.626   2.615   6.034
13992SOL    HW243418   5.546   2.610   5.906
13993SOL     OW43419   5.406   3.139   6.252
13993SOL    HW143420   5.499   3.158   6.244
13993SOL    HW243421   5.364   3.225   6.255
13994SOL     OW43422   5.120   2.422   5.656
13994SOL    HW143423   5.055   2.407   5.725
13994SOL    HW243424   5.204   2.412   5.699
13995SOL     OW43425   5.475   3.101   7.136
13995SOL    HW143426   5.564   3.068   7.128
13995SOL    HW243427   5.484   3.189   7.171
13996SOL     OW43428   4.749   3.175   6.938
13996SOL    HW143429   4.714   3.228   7.010
13996SOL    HW243430   4.832   3.140   6.971
13997SOL     OW43431   5.329   3.480   7.239
13997SOL    HW143432   5.325   3.522   7.153
13997SOL    HW243433   5.412   3.433   7.239
13998SOL     OW43434   4.848   3.042   6.699
13998SOL    HW143435   4.793   3.089   6.762
13998SOL    HW243436   4.835   3.089   6.616
13999SOL     OW43437   5.336   2.966   6.663
13999SOL    HW143438   5.364   3.027   6.731
13999SOL    HW243439   5.240   2.970   6.664
14000SOL     OW43440   4.682   2.924   7.362
14000SOL    HW143441   4.595   2.962   7.375
14000SOL    HW243442   4.674   2.873   7.281
14001SOL     OW43443   4.402   2.871   5.960
14001SOL    HW143444   4.381   2.882   6.053
14001SOL    HW243445   4.486   2.824   5.960
14002SOL     OW43446   4.140   2.682   6.840
14002SOL    HW143447   4.211   2.690   6.904
14002SOL    HW243448   4.100   2.597   6.861
14003SOL     OW43449   5.002   2.260   6.828
14003SOL    HW143450   5.030   2.326   6.892
14003SOL    HW243451   4.906   2.266   6.827
14004SOL     OW43452   3.808   3.576   6.950
14004SOL    HW143453   3.775   3.598   6.863
14004SOL    HW243454   3.903   3.575   6.940
14005SOL     OW43455   4.085   2.938   6.083
14005SOL    HW143456   4.057   3.026   6.058
14005SOL    HW243457   4.086   2.889   6.001
14006SOL     OW43458   4.278   2.384   6.442
14006SOL    HW143459   4.287   2.443   6.367
14006SOL    HW243460   4.339   2.418   6.508
14007SOL     OW43461   5.004   3.200   6.017
14007SOL    HW143462   5.035   3.290   6.027
14007SOL    HW243463   4.963   3.199   5.930
14008SOL     OW43464   5.002   3.328   6.731
14008SOL    HW143465   5.031   3.317   6.821
14008SOL    HW243466   4.909   3.309   6.733
14009SOL     OW43467   5.303   2.485   6.065
14009SOL    HW143468   5.259   2.521   6.142
14009SOL    HW243469   5.317   2.561   6.008
14010SOL     OW43470   4.141   2.604   7.172
14010SOL    HW143471   4.207   2.649   7.119
14010SOL    HW243472   4.192   2.552   7.233
14011SOL     OW43473   5.330   2.643   7.269
14011SOL    HW143474   5.244   2.685   7.263
14011SOL    HW243475   5.383   2.688   7.202
14012SOL     OW43476   4.735   2.005   7.369
14012SOL    HW143477   4.782   2.083   7.341
14012SOL    HW243478   4.742   1.945   7.295
14013SOL     OW43479   4.226   1.861   7.337
14013SOL    HW143480   4.188   1.820   7.259
14013SOL    HW243481   4.166   1.931   7.359
14014SOL     OW43482   4.316   2.729   6.624
14014SOL    HW143483   4.327   2.820   6.596
14014SOL    HW243484   4.249   2.732   6.692
14015SOL     OW43485   5.062   2.713   6.597
14015SOL    HW143486   4.971   2.704   6.570
14015SOL    HW243487   5.100   2.626   6.585
14016SOL     OW43488   4.935   2.382   5.851
14016SOL    HW143489   4.935   2.301   5.901
14016SOL    HW243490   4.891   2.445   5.907
14017SOL     OW43491   4.008   2.060   6.835
14017SOL    HW143492   3.987   2.102   6.918
14017SOL    HW243493   3.981   1.969   6.848
14018SOL     OW43494   4.442   2.490   6.634
14018SOL    HW143495   4.523   2.493   6.583
14018SOL    HW243496   4.407   2.579   6.628
14019SOL     OW43497   5.465   2.815   7.446
14019SOL    HW143498   5.409   2.760   7.390
14019SOL    HW243499   5.408   2.841   7.518
14020SOL     OW43500   4.019   1.910   6.220
14020SOL    HW143501   3.992   2.001   6.223
14020SOL    HW243502   4.031   1.885   6.312
14021SOL     OW43503   5.344   2.243   5.948
14021SOL    HW143504   5.375   2.184   6.016
14021SOL    HW243505   5.320   2.324   5.994
14022SOL     OW43506   4.778   2.616   6.548
14022SOL    HW143507   4.760   2.636   6.640
14022SOL    HW243508   4.740   2.529   6.534
14023SOL     OW43509   5.577   3.355   7.189
14023SOL    HW143510   5.593   3.388   7.100
14023SOL    HW243511   5.656   3.377   7.238
14024SOL     OW43512   4.116   2.718   7.441
14024SOL    HW143513   4.190   2.776   7.459
14024SOL    HW243514   4.094   2.735   7.349
14025SOL     OW43515   5.273   2.123   5.710
14025SOL    HW143516   5.204   2.063   5.739
14025SOL    HW243517   5.298   2.171   5.789
14026SOL     OW43518   5.014   2.672   5.617
14026SOL    HW143519   5.058   2.587   5.616
14026SOL    HW243520   5.041   2.714   5.536
14027SOL     OW43521   4.827   3.172   6.458
14027SOL    HW143522   4.807   3.115   6.384
14027SOL    HW243523   4.863   3.251   6.418
14028SOL     OW43524   4.036   2.680   6.508
14028SOL    HW143525   4.126   2.695   6.480
14028SOL    HW243526   4.042   2.609   6.572
14029SOL     OW43527   4.063   2.382   6.607
14029SOL    HW143528   4.021   2.299   6.585
14029SOL    HW243529   4.134   2.390   6.544
14030SOL     OW43530   4.860   2.239   7.294
14030SOL    HW143531   4.809   2.301   7.345
14030SOL    HW243532   4.944   2.282   7.280
14031SOL     OW43533   4.935   2.040   7.106
14031SOL    HW143534   4.913   2.122   7.151
14031SOL    HW243535   4.862   2.024   7.047
14032SOL     OW43536   4.705   2.648   6.803
14032SOL    HW143537   4.755   2.622   6.881
14032SOL    HW243538   4.616   2.662   6.835
14033SOL     OW43539   3.767   2.389   6.703
14033SOL    HW143540   3.833   2.422   6.641
14033SOL    HW243541   3.799   2.414   6.789
14034SOL     OW43542   3.880   2.400   7.323
14034SOL    HW143543   3.960   2.355   7.296
14034SOL    HW243544   3.874   2.476   7.265
14035SOL     OW43545   5.106   2.792   7.239
14035SOL    HW143546   5.120   2.887   7.242
14035SOL    HW243547   5.088   2.773   7.147
14036SOL     OW43548   4.539   2.425   5.879
14036SOL    HW143549   4.488   2.347   5.903
14036SOL    HW243550   4.474   2.495   5.871
14037SOL     OW43551   5.360   2.466   6.755
14037SOL    HW143552   5.343   2.415   6.835
14037SOL    HW243553   5.448   2.441   6.729
14038SOL     OW43554   3.990   3.368   7.338
14038SOL    HW143555   3.937   3.405   7.408
14038SOL    HW243556   4.067   3.332   7.383
14039SOL     OW43557   4.435   2.311   6.834
14039SOL    HW143558   4.371   2.245   6.805
14039SOL    HW243559   4.432   2.378   6.766
14040SOL     OW43560   4.199   2.371   5.707
14040SOL    HW143561   4.252   2.437   5.752
14040SOL    HW243562   4.109   2.401   5.718
14041SOL     OW43563   5.062   2.905   6.788
14041SOL    HW143564   5.065   2.836   6.721
14041SOL    HW243565   4.986   2.958   6.765
14042SOL     OW43566   5.061   2.709   5.888
14042SOL    HW143567   4.983   2.702   5.943
14042SOL    HW243568   5.027   2.700   5.799
14043SOL     OW43569   5.506   3.590   6.750
14043SOL    HW143570   5.559   3.627   6.680
14043SOL    HW243571   5.469   3.510   6.712
14044SOL     OW43572   5.046   3.613   6.740
14044SOL    HW143573   5.057   3.636   6.648
14044SOL    HW243574   5.012   3.523   6.739
14045SOL     OW43575   5.455   2.023   6.097
14045SOL    HW143576   5.519   2.009   6.027
14045SOL    HW243577   5.439   1.935   6.133
14046SOL     OW43578   5.132   3.444   6.068
14046SOL    HW143579   5.182   3.467   5.990
14046SOL    HW243580   5.050   3.492   6.059
14047SOL     OW43581   3.840   3.671   7.426
14047SOL    HW143582   3.809   3.591   7.470
14047SOL    HW243583   3.899   3.711   7.490
14048SOL     OW43584   4.995   2.769   6.226
14048SOL    HW143585   5.074   2.718   6.246
14048SOL    HW243586   5.028   2.850   6.188
14049SOL     OW43587   5.355   3.592   6.983
14049SOL    HW143588   5.400   3.601   6.900
14049SOL    HW243589   5.332   3.681   7.009
14050SOL     OW43590   5.563   2.029   6.554
14050SOL    HW143591   5.589   1.944   6.518
14050SOL    HW243592   5.477   2.046   6.517
14051SOL     OW43593   3.984   2.169   6.293
14051SOL    HW143594   3.901   2.209   6.268
14051SOL    HW243595   3.984   2.171   6.389
14052SOL     OW43596   4.951   3.423   5.593
14052SOL    HW143597   4.935   3.457   5.681
14052SOL    HW243598   4.873   3.449   5.543
14053SOL     OW43599   4.544   2.887   6.953
14053SOL    HW143600   4.573   2.912   6.865
14053SOL    HW243601   4.528   2.969   6.998
14054SOL     OW43602   4.655   2.768   5.904
14054SOL    HW143603   4.671   2.848   5.854
14054SOL    HW243604   4.700   2.782   5.987
14055SOL     OW43605   5.221   3.467   5.629
14055SOL    HW143606   5.127   3.456   5.614
14055SOL    HW243607   5.257   3.487   5.542
14056SOL     OW43608   5.364   3.140   6.875
14056SOL    HW143609   5.401   3.121   6.962
14056SOL    HW243610   5.300   3.210   6.891
14057SOL     OW43611   4.787   2.962   6.283
14057SOL    HW143612   4.712   2.926   6.330
14057SOL    HW243613   4.840   2.886   6.261
14058SOL     OW43614   4.753   2.107   6.535
14058SOL    HW143615   4.750   2.065   6.450
14058SOL    HW243616   4.749   2.035   6.598
14059SOL     OW43617   5.444   2.255   6.958
14059SOL    HW143618   5.513   2.320   6.965
14059SOL    HW243619   5.482   2.186   6.903
14060SOL     OW43620   3.812   2.818   7.361
14060SOL    HW143621   3.794   2.874   7.285
14060SOL    HW243622   3.863   2.873   7.420
14061SOL     OW43623   4.393   2.046   7.084
14061SOL    HW143624   4.481   2.028   7.052
14061SOL    HW243625   4.405   2.066   7.177
14062SOL     OW43626   3.818   2.177   5.609
14062SOL    HW143627   3.736   2.165   5.560
14062SOL    HW243628   3.846   2.265   5.587
14063SOL     OW43629   5.146   2.713   6.972
14063SOL    HW143630   5.098   2.776   6.919
14063SOL    HW243631   5.238   2.725   6.948
14064SOL     OW43632   3.790   1.997   5.872
14064SOL    HW143633   3.728   2.070   5.880
14064SOL    HW243634   3.856   2.030   5.811
14065SOL     OW43635   4.919   3.177   5.748
14065SOL    HW143636   4.838   3.162   5.700
14065SOL    HW243637   4.938   3.270   5.735
14066SOL     OW43638   4.353   2.689   7.015
14066SOL    HW143639   4.403   2.770   7.007
14066SOL    HW243640   4.420   2.621   7.028
14067SOL     OW43641   5.234   3.650   6.525
14067SOL    HW143642   5.252   3.733   6.482
14067SOL    HW243643   5.255   3.665   6.617
14068SOL     OW43644   4.438   2.436   7.284
14068SOL    HW143645   4.463   2.516   7.330
14068SOL    HW243646   4.485   2.366   7.330
14069SOL     OW43647   5.196   3.055   7.211
14069SOL    HW143648   5.181   3.066   7.305
14069SOL    HW243649   5.287   3.082   7.198
14070SOL     OW43650   4.077   3.590   7.204
14070SOL    HW143651   4.009   3.641   7.160
14070SOL    HW243652   4.032   3.511   7.234
14071SOL     OW43653   5.396   2.746   6.834
14071SOL    HW143654   5.379   2.663   6.789
14071SOL    HW243655   5.377   2.813   6.769
14072SOL     OW43656   4.941   2.176   6.043
14072SOL    HW143657   5.005   2.105   6.041
14072SOL    HW243658   4.969   2.232   6.116
14073SOL     OW43659   4.334   2.582   6.254
14073SOL    HW143660   4.364   2.673   6.252
14073SOL    HW243661   4.264   2.578   6.188
14074SOL     OW43662   5.525   2.137   7.195
14074SOL    HW143663   5.485   2.184   7.123
14074SOL    HW243664   5.458   2.136   7.264
14075SOL     OW43665   5.471   2.796   7.094
14075SOL    HW143666   5.459   2.889   7.113
14075SOL    HW243667   5.455   2.789   7.000
14076SOL     OW43668   4.604   2.841   6.449
14076SOL    HW143669   4.653   2.774   6.497
14076SOL    HW243670   4.563   2.893   6.517
14077SOL     OW43671   4.798   2.838   5.671
14077SOL    HW143672   4.759   2.903   5.613
14077SOL    HW243673   4.887   2.827   5.639
14078SOL     OW43674   5.561   3.395   6.420
14078SOL    HW143675   5.488   3.422   6.363
14078SOL    HW243676   5.520   3.378   6.505
14079SOL     OW43677   3.940   3.061   7.441
14079SOL    HW143678   3.884   3.119   7.388
14079SOL    HW243679   4.022   3.110   7.451
14080SOL     OW43680   3.772   3.020   6.287
14080SOL    HW143681   3.837   3.001   6.355
14080SOL    HW243682   3.823   3.052   6.212
14081SOL     OW43683   5.554   2.045   6.825
14081SOL    HW143684   5.526   1.954   6.839
14081SOL    HW243685   5.557   2.055   6.730
14082SOL     OW43686   4.179   2.281   6.116
14082SOL    HW143687   4.194   2.221   6.043
14082SOL    HW243688   4.113   2.239   6.170
14083SOL     OW43689   5.444   3.323   6.659
14083SOL    HW143690   5.356   3.305   6.626
14083SOL    HW243691   5.445   3.282   6.745
14084SOL     OW43692   4.051   2.417   6.878
14084SOL    HW143693   4.108   2.356   6.925
14084SOL    HW243694   4.068   2.399   6.786
14085SOL     OW43695   5.150   2.070   6.718
14085SOL    HW143696   5.169   2.010   6.790
14085SOL    HW243697   5.102   2.142   6.759
14086SOL     OW43698   4.771   1.884   6.710
14086SOL    HW143699   4.693   1.884   6.765
14086SOL    HW243700   4.841   1.913   6.769
14087SOL     OW43701   5.085   1.920   5.750
14087SOL    HW143702   5.112   1.837   5.709
14087SOL    HW243703   4.998   1.937   5.714
14088SOL     OW43704   5.028   2.321   6.262
14088SOL    HW143705   4.974   2.399   6.264
14088SOL    HW243706   5.021   2.284   6.350
14089SOL     OW43707   5.303   2.053   6.475
14089SOL    HW143708   5.246   2.077   6.548
14089SOL    HW243709   5.301   2.129   6.417
14090SOL     OW43710   3.744   2.929   5.966
14090SOL    HW143711   3.771   2.974   5.886
14090SOL    HW243712   3.759   2.837   5.948
14091SOL     OW43713   3.937   2.445   7.585
14091SOL    HW143714   3.944   2.538   7.606
14091SOL    HW243715   3.921   2.443   7.491
14092SOL     OW43716   3.949   2.129   8.434
14092SOL    HW143717   3.975   2.108   8.524
14092SOL    HW243718   3.854   2.114   8.433
14093SOL     OW43719   3.731   2.254   8.094
14093SOL    HW143720   3.650   2.282   8.136
14093SOL    HW243721   3.702   2.211   8.013
14094SOL     OW43722   5.280   3.364   8.157
14094SOL    HW143723   5.224   3.362   8.235
14094SOL    HW243724   5.220   3.382   8.085
14095SOL     OW43725   4.853   2.556   8.147
14095SOL    HW143726   4.903   2.633   8.120
14095SOL    HW243727   4.814   2.581   8.231
14096SOL     OW43728   4.588   2.627   9.262
14096SOL    HW143729   4.569   2.700   9.320
14096SOL    HW243730   4.618   2.667   9.181
14097SOL     OW43731   4.403   2.870   8.122
14097SOL    HW143732   4.447   2.882   8.206
14097SOL    HW243733   4.353   2.951   8.109
14098SOL     OW43734   4.398   3.013   9.281
14098SOL    HW143735   4.459   3.080   9.250
14098SOL    HW243736   4.317   3.030   9.231
14099SOL     OW43737   5.205   3.321   8.864
14099SOL    HW143738   5.170   3.403   8.830
14099SOL    HW243739   5.132   3.260   8.860
14100SOL     OW43740   4.158   2.238   9.005
14100SOL    HW143741   4.241   2.207   8.969
14100SOL    HW243742   4.091   2.199   8.949
14101SOL     OW43743   5.326   2.313   8.186
14101SOL    HW143744   5.297   2.334   8.097
14101SOL    HW243745   5.305   2.392   8.237
14102SOL     OW43746   3.950   3.569   7.925
14102SOL    HW143747   3.973   3.649   7.971
14102SOL    HW243748   4.022   3.554   7.863
14103SOL     OW43749   4.969   3.129   9.204
14103SOL    HW143750   4.928   3.167   9.282
14103SOL    HW243751   4.896   3.097   9.151
14104SOL     OW43752   3.887   3.297   7.993
14104SOL    HW143753   3.912   3.389   7.983
14104SOL    HW243754   3.798   3.299   8.026
14105SOL     OW43755   4.352   2.829   7.565
14105SOL    HW143756   4.375   2.897   7.501
14105SOL    HW243757   4.369   2.870   7.650
14106SOL     OW43758   5.326   1.986   8.916
14106SOL    HW143759   5.347   2.067   8.869
14106SOL    HW243760   5.296   2.016   9.002
14107SOL     OW43761   3.848   2.509   8.011
14107SOL    HW143762   3.816   2.425   8.043
14107SOL    HW243763   3.839   2.569   8.086
14108SOL     OW43764   5.572   3.618   7.775
14108SOL    HW143765   5.558   3.604   7.868
14108SOL    HW243766   5.592   3.711   7.767
14109SOL     OW43767   3.779   3.455   7.581
14109SOL    HW143768   3.760   3.363   7.599
14109SOL    HW243769   3.741   3.503   7.654
14110SOL     OW43770   5.418   2.774   8.066
14110SOL    HW143771   5.479   2.732   8.006
14110SOL    HW243772   5.379   2.845   8.015
14111SOL     OW43773   5.370   2.976   7.880
14111SOL    HW143774   5.457   2.977   7.840
14111SOL    HW243775   5.376   3.040   7.951
14112SOL     OW43776   3.852   2.595   9.041
14112SOL    HW143777   3.939   2.631   9.020
14112SOL    HW243778   3.796   2.673   9.047
14113SOL     OW43779   4.330   3.146   8.142
14113SOL    HW143780   4.252   3.153   8.197
14113SOL    HW243781   4.317   3.212   8.073
14114SOL     OW43782   5.032   3.096   8.889
14114SOL    HW143783   5.032   3.047   8.807
14114SOL    HW243784   5.103   3.057   8.941
14115SOL     OW43785   4.539   1.860   7.958
14115SOL    HW143786   4.583   1.941   7.933
14115SOL    HW243787   4.446   1.885   7.966
14116SOL     OW43788   3.867   2.750   8.732
14116SOL    HW143789   3.962   2.741   8.734
14116SOL    HW243790   3.848   2.792   8.649
14117SOL     OW43791   5.270   2.848   7.653
14117SOL    HW143792   5.199   2.794   7.685
14117SOL    HW243793   5.300   2.897   7.730
14118SOL     OW43794   4.060   2.104   9.287
14118SOL    HW143795   4.098   2.182   9.246
14118SOL    HW243796   3.969   2.128   9.305
14119SOL     OW43797   5.207   3.256   8.420
14119SOL    HW143798   5.138   3.277   8.483
14119SOL    HW243799   5.174   3.181   8.371
14120SOL     OW43800   5.411   3.569   8.010
14120SOL    HW143801   5.357   3.567   7.930
14120SOL    HW243802   5.363   3.515   8.072
14121SOL     OW43803   4.322   2.589   7.716
14121SOL    HW143804   4.330   2.668   7.662
14121SOL    HW243805   4.257   2.613   7.783
14122SOL     OW43806   5.018   2.234   8.395
14122SOL    HW143807   4.926   2.208   8.391
14122SOL    HW243808   5.058   2.172   8.455
14123SOL     OW43809   5.308   3.537   7.751
14123SOL    HW143810   5.396   3.571   7.737
14123SOL    HW243811   5.279   3.510   7.664
14124SOL     OW43812   4.524   2.467   8.897
14124SOL    HW143813   4.485   2.449   8.983
14124SOL    HW243814   4.474   2.413   8.836
14125SOL     OW43815   5.107   2.341   9.122
14125SOL    HW143816   5.108   2.385   9.206
14125SOL    HW243817   5.186   2.287   9.122
14126SOL     OW43818   4.684   2.744   9.033
14126SOL    HW143819   4.735   2.667   9.010
14126SOL    HW243820   4.659   2.783   8.949
14127SOL     OW43821   4.719   2.259   8.679
14127SOL    HW143822   4.652   2.320   8.710
14127SOL    HW243823   4.703   2.253   8.584
14128SOL     OW43824   4.776   2.532   7.877
14128SOL    HW143825   4.791   2.541   7.971
14128SOL    HW243826   4.687   2.499   7.869
14129SOL     OW43827   3.795   2.638   8.246
14129SOL    HW143828   3.875   2.663   8.291
14129SOL    HW243829   3.736   2.713   8.259
14130SOL     OW43830   4.624   2.189   7.614
14130SOL    HW143831   4.652   2.275   7.582
14130SOL    HW243832   4.685   2.127   7.573
14131SOL     OW43833   5.425   2.436   9.279
14131SOL    HW143834   5.394   2.511   9.229
14131SOL    HW243835   5.455   2.374   9.212
14132SOL     OW43836   5.113   2.996   8.005
14132SOL    HW143837   5.185   2.995   7.940
14132SOL    HW243838   5.056   3.067   7.976
14133SOL     OW43839   4.272   2.038   8.341
14133SOL    HW143840   4.275   2.074   8.429
14133SOL    HW243841   4.276   2.114   8.283
14134SOL     OW43842   4.720   3.305   7.913
14134SOL    HW143843   4.714   3.350   7.828
14134SOL    HW243844   4.670   3.361   7.973
14135SOL     OW43845   4.086   3.684   8.304
14135SOL    HW143846   4.129   3.600   8.321
14135SOL    HW243847   4.155   3.749   8.318
14136SOL     OW43848   5.529   2.898   8.309
14136SOL    HW143849   5.476   2.908   8.230
14136SOL    HW243850   5.469   2.915   8.381
14137SOL     OW43851   4.050   2.808   7.691
14137SOL    HW143852   4.088   2.895   7.682
14137SOL    HW243853   4.057   2.769   7.604
14138SOL     OW43854   5.225   2.605   8.167
14138SOL    HW143855   5.218   2.586   8.260
14138SOL    HW243856   5.297   2.667   8.160
14139SOL     OW43857   4.172   3.088   9.154
14139SOL    HW143858   4.184   3.103   9.061
14139SOL    HW243859   4.177   3.176   9.193
14140SOL     OW43860   3.896   2.143   8.937
14140SOL    HW143861   3.865   2.226   8.900
14140SOL    HW243862   3.887   2.154   9.031
14141SOL     OW43863   5.363   3.217   7.527
14141SOL    HW143864   5.326   3.305   7.524
14141SOL    HW243865   5.288   3.159   7.513
14142SOL     OW43866   4.189   3.583   7.786
14142SOL    HW143867   4.245   3.651   7.824
14142SOL    HW243868   4.243   3.544   7.717
14143SOL     OW43869   5.137   1.949   7.896
14143SOL    HW143870   5.122   1.931   7.803
14143SOL    HW243871   5.194   2.025   7.897
14144SOL     OW43872   4.632   3.541   8.353
14144SOL    HW143873   4.635   3.468   8.415
14144SOL    HW243874   4.605   3.501   8.270
14145SOL     OW43875   4.135   2.552   7.926
14145SOL    HW143876   4.140   2.458   7.944
14145SOL    HW243877   4.043   2.574   7.936
14146SOL     OW43878   5.250   2.086   9.168
14146SOL    HW143879   5.261   2.097   9.262
14146SOL    HW243880   5.158   2.061   9.157
14147SOL     OW43881   4.339   1.929   7.583
14147SOL    HW143882   4.419   1.978   7.565
14147SOL    HW243883   4.301   1.912   7.497
14148SOL     OW43884   4.493   2.140   9.196
14148SOL    HW143885   4.572   2.087   9.203
14148SOL    HW243886   4.449   2.130   9.280
14149SOL     OW43887   5.068   2.451   8.863
14149SOL    HW143888   5.084   2.434   8.956
14149SOL    HW243889   5.097   2.542   8.851
14150SOL     OW43890   4.459   3.302   8.331
14150SOL    HW143891   4.540   3.262   8.360
14150SOL    HW243892   4.425   3.244   8.263
14151SOL     OW43893   4.652   2.358   8.354
14151SOL    HW143894   4.623   2.360   8.263
14151SOL    HW243895   4.690   2.270   8.365
14152SOL     OW43896   4.273   1.926   7.953
14152SOL    HW143897   4.194   1.932   8.008
14152SOL    HW243898   4.268   2.003   7.896
14153SOL     OW43899   5.160   3.041   7.480
14153SOL    HW143900   5.184   2.972   7.541
14153SOL    HW243901   5.074   3.071   7.511
14154SOL     OW43902   4.006   1.886   7.660
14154SOL    HW143903   3.996   1.938   7.580
14154SOL    HW243904   4.101   1.882   7.674
14155SOL     OW43905   4.665   2.098   7.893
14155SOL    HW143906   4.635   2.143   7.814
14155SOL    HW243907   4.757   2.123   7.902
14156SOL     OW43908   4.798   2.507   8.961
14156SOL    HW143909   4.717   2.491   8.913
14156SOL    HW243910   4.867   2.495   8.896
14157SOL     OW43911   4.979   3.431   8.256
14157SOL    HW143912   4.977   3.492   8.182
14157SOL    HW243913   4.955   3.484   8.332
14158SOL     OW43914   4.964   3.652   8.083
14158SOL    HW143915   4.975   3.717   8.014
14158SOL    HW243916   4.894   3.687   8.138
14159SOL     OW43917   4.731   2.408   7.478
14159SOL    HW143918   4.685   2.489   7.457
14159SOL    HW243919   4.799   2.434   7.540
14160SOL     OW43920   3.820   2.396   8.860
14160SOL    HW143921   3.904   2.407   8.816
14160SOL    HW243922   3.811   2.475   8.913
14161SOL     OW43923   4.280   2.086   8.616
14161SOL    HW143924   4.318   2.012   8.663
14161SOL    HW243925   4.187   2.086   8.641
14162SOL     OW43926   4.579   2.312   8.093
14162SOL    HW143927   4.531   2.379   8.045
14162SOL    HW243928   4.606   2.249   8.026
14163SOL     OW43929   4.762   1.913   8.192
14163SOL    HW143930   4.700   1.934   8.122
14163SOL    HW243931   4.721   1.842   8.241
14164SOL     OW43932   5.157   3.007   8.299
14164SOL    HW143933   5.062   3.021   8.301
14164SOL    HW243934   5.180   3.017   8.207
14165SOL     OW43935   5.189   2.471   8.413
14165SOL    HW143936   5.129   2.397   8.413
14165SOL    HW243937   5.241   2.460   8.493
14166SOL     OW43938   5.575   2.665   7.849
14166SOL    HW143939   5.668   2.649   7.865
14166SOL    HW243940   5.551   2.602   7.780
14167SOL     OW43941   5.408   3.121   8.105
14167SOL    HW143942   5.500   3.145   8.104
14167SOL    HW243943   5.362   3.203   8.123
14168SOL     OW43944   5.130   2.429   7.527
14168SOL    HW143945   5.059   2.414   7.588
14168SOL    HW243946   5.207   2.447   7.582
14169SOL     OW43947   4.234   2.116   7.767
14169SOL    HW143948   4.269   2.063   7.695
14169SOL    HW243949   4.220   2.202   7.729
14170SOL     OW43950   5.489   3.101   9.036
14170SOL    HW143951   5.569   3.077   8.989
14170SOL    HW243952   5.496   3.195   9.049
14171SOL     OW43953   5.341   3.483   9.128
14171SOL    HW143954   5.294   3.506   9.048
14171SOL    HW243955   5.424   3.445   9.097
14172SOL     OW43956   4.874   3.043   8.538
14172SOL    HW143957   4.780   3.043   8.552
14172SOL    HW243958   4.886   3.091   8.456
14173SOL     OW43959   5.341   2.947   8.513
14173SOL    HW143960   5.331   3.015   8.580
14173SOL    HW243961   5.272   2.965   8.450
14174SOL     OW43962   4.648   1.948   8.839
14174SOL    HW143963   4.664   1.935   8.746
14174SOL    HW243964   4.726   1.995   8.870
14175SOL     OW43965   4.700   2.981   9.170
14175SOL    HW143966   4.628   3.028   9.128
14175SOL    HW243967   4.705   2.898   9.123
14176SOL     OW43968   4.431   2.918   7.811
14176SOL    HW143969   4.396   2.911   7.900
14176SOL    HW243970   4.510   2.864   7.812
14177SOL     OW43971   4.129   2.687   8.741
14177SOL    HW143972   4.222   2.689   8.764
14177SOL    HW243973   4.113   2.598   8.712
14178SOL     OW43974   4.984   2.226   8.738
14178SOL    HW143975   5.016   2.310   8.771
14178SOL    HW243976   4.895   2.245   8.708
14179SOL     OW43977   4.111   2.941   7.931
14179SOL    HW143978   4.078   3.025   7.899
14179SOL    HW243979   4.077   2.877   7.868
14180SOL     OW43980   4.279   2.394   8.306
14180SOL    HW143981   4.285   2.453   8.231
14180SOL    HW243982   4.345   2.426   8.367
14181SOL     OW43983   4.970   3.199   7.907
14181SOL    HW143984   5.015   3.275   7.871
14181SOL    HW243985   4.878   3.223   7.907
14182SOL     OW43986   5.027   3.296   8.618
14182SOL    HW143987   5.018   3.381   8.661
14182SOL    HW243988   4.937   3.272   8.593
14183SOL     OW43989   5.289   2.441   7.937
14183SOL    HW143990   5.250   2.516   7.981
14183SOL    HW243991   5.362   2.477   7.887
14184SOL     OW43992   4.152   2.605   9.056
14184SOL    HW143993   4.196   2.656   8.988
14184SOL    HW243994   4.210   2.529   9.070
14185SOL     OW43995   5.337   2.645   9.132
14185SOL    HW143996   5.249   2.683   9.125
14185SOL    HW243997   5.387   2.686   9.061
14186SOL     OW43998   4.729   1.996   9.231
14186SOL    HW143999   4.779   2.072   9.202
14186SOL    HW244000   4.771   1.922   9.188
14187SOL     OW44001   4.212   1.889   9.209
14187SOL    HW144002   4.167   1.843   9.138
14187SOL    HW244003   4.160   1.969   9.222
14188SOL     OW44004   4.325   2.734   8.502
14188SOL    HW144005   4.378   2.789   8.444
14188SOL    HW244006   4.244   2.784   8.515
14189SOL     OW44007   5.070   2.711   8.492
14189SOL    HW144008   5.009   2.740   8.425
14189SOL    HW244009   5.104   2.628   8.459
14190SOL     OW44010   4.926   2.381   7.705
14190SOL    HW144011   4.932   2.307   7.766
14190SOL    HW244012   4.888   2.452   7.756
14191SOL     OW44013   4.018   2.051   8.699
14191SOL    HW144014   3.971   2.083   8.776
14191SOL    HW244015   3.999   1.957   8.696
14192SOL     OW44016   4.448   2.493   8.513
14192SOL    HW144017   4.521   2.491   8.450
14192SOL    HW244018   4.411   2.580   8.504
14193SOL     OW44019   5.478   2.805   9.318
14193SOL    HW144020   5.429   2.758   9.250
14193SOL    HW244021   5.415   2.818   9.388
14194SOL     OW44022   4.024   1.910   8.079
14194SOL    HW144023   4.002   2.003   8.094
14194SOL    HW244024   4.037   1.874   8.167
14195SOL     OW44025   5.276   2.178   7.862
14195SOL    HW144026   5.369   2.165   7.880
14195SOL    HW244027   5.263   2.272   7.875
14196SOL     OW44028   4.768   2.599   8.406
14196SOL    HW144029   4.763   2.613   8.501
14196SOL    HW244030   4.728   2.514   8.392
14197SOL     OW44031   5.586   3.368   9.046
14197SOL    HW144032   5.588   3.393   8.954
14197SOL    HW244033   5.670   3.399   9.080
14198SOL     OW44034   4.077   2.742   9.283
14198SOL    HW144035   4.147   2.807   9.288
14198SOL    HW244036   4.098   2.691   9.204
14199SOL     OW44037   5.271   2.113   7.567
14199SOL    HW144038   5.205   2.070   7.623
14199SOL    HW244039   5.318   2.171   7.626
14200SOL     OW44040   5.021   2.681   7.471
14200SOL    HW144041   5.071   2.599   7.470
14200SOL    HW244042   5.048   2.725   7.390
14201SOL     OW44043   4.901   3.165   8.300
14201SOL    HW144044   4.837   3.131   8.238
14201SOL    HW244045   4.914   3.256   8.273
14202SOL     OW44046   4.018   2.697   8.399
14202SOL    HW144047   4.015   2.787   8.368
14202SOL    HW244048   4.106   2.667   8.378
14203SOL     OW44049   4.082   2.360   8.487
14203SOL    HW144050   4.033   2.287   8.450
14203SOL    HW244051   4.146   2.384   8.419
14204SOL     OW44052   4.857   2.226   9.147
14204SOL    HW144053   4.798   2.294   9.180
14204SOL    HW244054   4.939   2.272   9.128
14205SOL     OW44055   4.890   2.054   8.931
14205SOL    HW144056   4.872   2.120   8.998
14205SOL    HW244057   4.925   2.103   8.857
14206SOL     OW44058   3.723   3.194   7.646
14206SOL    HW144059   3.636   3.206   7.608
14206SOL    HW244060   3.725   3.103   7.673
14207SOL     OW44061   3.846   3.520   8.264
14207SOL    HW144062   3.818   3.541   8.175
14207SOL    HW244063   3.911   3.588   8.284
14208SOL     OW44064   4.214   3.434   8.372
14208SOL    HW144065   4.307   3.412   8.370
14208SOL    HW244066   4.169   3.354   8.344
14209SOL     OW44067   4.721   2.621   8.682
14209SOL    HW144068   4.765   2.702   8.708
14209SOL    HW244069   4.629   2.644   8.675
14210SOL     OW44070   3.767   2.406   8.560
14210SOL    HW144071   3.809   2.435   8.479
14210SOL    HW244072   3.817   2.448   8.629
14211SOL     OW44073   3.948   2.369   9.158
14211SOL    HW144074   4.024   2.354   9.102
14211SOL    HW244075   3.904   2.445   9.119
14212SOL     OW44076   5.103   2.786   9.106
14212SOL    HW144077   5.134   2.877   9.105
14212SOL    HW244078   5.096   2.762   9.013
14213SOL     OW44079   4.526   2.427   7.819
14213SOL    HW144080   4.510   2.365   7.748
14213SOL    HW244081   4.466   2.499   7.803
14214SOL     OW44082   5.357   2.447   8.631
14214SOL    HW144083   5.340   2.394   8.708
14214SOL    HW244084   5.444   2.420   8.602
14215SOL     OW44085   4.388   2.323   8.713
14215SOL    HW144086   4.358   2.243   8.670
14215SOL    HW244087   4.406   2.383   8.640
14216SOL     OW44088   4.193   2.354   7.654
14216SOL    HW144089   4.240   2.435   7.671
14216SOL    HW244090   4.105   2.382   7.629
14217SOL     OW44091   3.794   2.989   8.949
14217SOL    HW144092   3.858   2.941   9.002
14217SOL    HW244093   3.841   3.012   8.869
14218SOL     OW44094   5.037   2.897   8.685
14218SOL    HW144095   5.061   2.835   8.616
14218SOL    HW244096   4.980   2.961   8.641
14219SOL     OW44097   5.056   2.703   7.748
14219SOL    HW144098   4.985   2.730   7.806
14219SOL    HW244099   5.018   2.705   7.660
14220SOL     OW44100   5.496   3.597   8.604
14220SOL    HW144101   5.556   3.624   8.534
14220SOL    HW244102   5.454   3.518   8.571
14221SOL     OW44103   4.977   3.596   8.532
14221SOL    HW144104   5.061   3.607   8.487
14221SOL    HW244105   5.000   3.578   8.623
14222SOL     OW44106   5.484   2.000   7.987
14222SOL    HW144107   5.533   2.001   7.904
14222SOL    HW244108   5.450   1.911   7.995
14223SOL     OW44109   5.129   3.448   7.948
14223SOL    HW144110   5.164   3.476   7.863
14223SOL    HW244111   5.059   3.511   7.967
14224SOL     OW44112   5.010   2.762   8.087
14224SOL    HW144113   5.090   2.712   8.106
14224SOL    HW244114   5.041   2.848   8.058
14225SOL     OW44115   4.342   3.468   7.598
14225SOL    HW144116   4.339   3.488   7.505
14225SOL    HW244117   4.367   3.376   7.602
14226SOL     OW44118   5.438   3.624   8.874
14226SOL    HW144119   5.424   3.611   8.781
14226SOL    HW244120   5.385   3.701   8.897
14227SOL     OW44121   5.562   2.028   8.419
14227SOL    HW144122   5.587   1.956   8.363
14227SOL    HW244123   5.479   2.060   8.383
14228SOL     OW44124   3.978   2.160   8.159
14228SOL    HW144125   3.897   2.207   8.138
14228SOL    HW244126   3.983   2.162   8.254
14229SOL     OW44127   4.617   2.877   8.803
14229SOL    HW144128   4.608   2.895   8.709
14229SOL    HW244129   4.644   2.961   8.841
14230SOL     OW44130   4.651   2.762   7.780
14230SOL    HW144131   4.698   2.795   7.704
14230SOL    HW244132   4.704   2.687   7.810
14231SOL     OW44133   5.242   3.456   7.500
14231SOL    HW144134   5.147   3.441   7.506
14231SOL    HW244135   5.257   3.474   7.407
14232SOL     OW44136   5.346   3.127   8.723
14232SOL    HW144137   5.434   3.143   8.757
14232SOL    HW244138   5.292   3.194   8.764
14233SOL     OW44139   4.757   2.939   8.171
14233SOL    HW144140   4.677   2.961   8.123
14233SOL    HW244141   4.820   2.917   8.103
14234SOL     OW44142   4.764   2.104   8.408
14234SOL    HW144143   4.766   2.054   8.326
14234SOL    HW244144   4.749   2.038   8.476
14235SOL     OW44145   4.332   3.364   7.954
14235SOL    HW144146   4.372   3.311   7.885
14235SOL    HW244147   4.267   3.417   7.909
14236SOL     OW44148   5.463   2.237   8.840
14236SOL    HW144149   5.524   2.310   8.831
14236SOL    HW244150   5.492   2.172   8.776
14237SOL     OW44151   3.963   3.136   7.789
14237SOL    HW144152   3.912   3.174   7.717
14237SOL    HW244153   3.949   3.195   7.862
14238SOL     OW44154   3.839   2.843   9.190
14238SOL    HW144155   3.769   2.838   9.255
14238SOL    HW244156   3.917   2.815   9.237
14239SOL     OW44157   4.401   2.050   8.946
14239SOL    HW144158   4.483   2.038   8.899
14239SOL    HW244159   4.426   2.091   9.028
14240SOL     OW44160   3.732   2.214   7.544
14240SOL    HW144161   3.706   2.196   7.453
14240SOL    HW244162   3.817   2.258   7.536
14241SOL     OW44163   5.152   2.715   8.845
14241SOL    HW144164   5.098   2.777   8.797
14241SOL    HW244165   5.238   2.721   8.804
14242SOL     OW44166   3.773   2.035   7.749
14242SOL    HW144167   3.734   2.089   7.680
14242SOL    HW244168   3.865   2.062   7.752
14243SOL     OW44169   4.926   3.125   7.571
14243SOL    HW144170   4.834   3.130   7.547
14243SOL    HW244171   4.944   3.209   7.614
14244SOL     OW44172   4.368   2.696   8.880
14244SOL    HW144173   4.421   2.773   8.857
14244SOL    HW244174   4.431   2.624   8.884
14245SOL     OW44175   5.226   3.647   8.422
14245SOL    HW144176   5.211   3.684   8.335
14245SOL    HW244177   5.287   3.707   8.463
14246SOL     OW44178   4.426   2.428   9.148
14246SOL    HW144179   4.474   2.494   9.198
14246SOL    HW244180   4.462   2.345   9.178
14247SOL     OW44181   5.217   3.029   9.089
14247SOL    HW144182   5.161   3.098   9.125
14247SOL    HW244183   5.301   3.072   9.073
14248SOL     OW44184   5.389   2.742   8.701
14248SOL    HW144185   5.376   2.662   8.650
14248SOL    HW244186   5.373   2.813   8.639
14249SOL     OW44187   4.931   2.172   7.904
14249SOL    HW144188   5.009   2.116   7.899
14249SOL    HW244189   4.947   2.228   7.980
14250SOL     OW44190   4.318   2.602   8.127
14250SOL    HW144191   4.349   2.693   8.123
14250SOL    HW244192   4.257   2.595   8.053
14251SOL     OW44193   5.486   2.211   9.113
14251SOL    HW144194   5.481   2.230   9.019
14251SOL    HW244195   5.406   2.162   9.132
14252SOL     OW44196   5.486   2.794   8.957
14252SOL    HW144197   5.465   2.885   8.976
14252SOL    HW244198   5.462   2.782   8.865
14253SOL     OW44199   4.431   3.712   8.461
14253SOL    HW144200   4.380   3.754   8.392
14253SOL    HW244201   4.481   3.644   8.416
14254SOL     OW44202   4.551   2.855   8.377
14254SOL    HW144203   4.633   2.831   8.334
14254SOL    HW244204   4.573   2.931   8.430
14255SOL     OW44205   4.807   2.811   7.569
14255SOL    HW144206   4.767   2.869   7.504
14255SOL    HW244207   4.884   2.775   7.524
14256SOL     OW44208   5.563   3.416   8.297
14256SOL    HW144209   5.497   3.419   8.228
14256SOL    HW244210   5.517   3.381   8.373
14257SOL     OW44211   3.802   2.979   8.109
14257SOL    HW144212   3.885   2.971   8.156
14257SOL    HW244213   3.808   3.062   8.062
14258SOL     OW44214   5.553   2.029   8.691
14258SOL    HW144215   5.531   1.936   8.691
14258SOL    HW244216   5.558   2.052   8.598
14259SOL     OW44217   4.157   2.287   7.985
14259SOL    HW144218   4.178   2.225   7.916
14259SOL    HW244219   4.100   2.238   8.044
14260SOL     OW44220   5.434   3.336   8.529
14260SOL    HW144221   5.351   3.324   8.482
14260SOL    HW244222   5.428   3.276   8.603
14261SOL     OW44223   4.064   2.403   8.746
14261SOL    HW144224   4.153   2.381   8.774
14261SOL    HW244225   4.066   2.393   8.651
14262SOL     OW44226   4.560   3.467   8.086
14262SOL    HW144227   4.557   3.556   8.051
14262SOL    HW244228   4.478   3.427   8.057
14263SOL     OW44229   5.148   2.079   8.581
14263SOL    HW144230   5.151   1.995   8.628
14263SOL    HW244231   5.097   2.136   8.638
14264SOL     OW44232   4.733   1.875   8.580
14264SOL    HW144233   4.680   1.819   8.523
14264SOL    HW244234   4.819   1.833   8.581
14265SOL     OW44235   4.454   3.207   7.773
14265SOL    HW144236   4.452   3.111   7.770
14265SOL    HW244237   4.545   3.229   7.753
14266SOL     OW44238   5.073   1.903   7.635
14266SOL    HW144239   5.071   1.909   7.539
14266SOL    HW244240   4.997   1.849   7.657
14267SOL     OW44241   4.987   2.315   8.126
14267SOL    HW144242   4.946   2.401   8.127
14267SOL    HW244243   5.012   2.298   8.217
14268SOL     OW44244   5.308   2.072   8.333
14268SOL    HW144245   5.245   2.100   8.400
14268SOL    HW244246   5.308   2.143   8.269
14269SOL     OW44247   3.744   2.936   7.754
14269SOL    HW144248   3.836   2.963   7.756
14269SOL    HW244249   3.747   2.843   7.776
14270SOL     OW44250   3.939   2.439   9.429
14270SOL    HW144251   3.885   2.515   9.455
14270SOL    HW244252   3.954   2.452   9.336
14271SOL     OW44253   3.947   2.147  10.303
14271SOL    HW144254   3.974   2.112  10.388
14271SOL    HW244255   3.857   2.117  10.291
14272SOL     OW44256   3.721   2.241   9.953
14272SOL    HW144257   3.640   2.273   9.993
14272SOL    HW244258   3.695   2.165   9.901
14273SOL     OW44259   4.287   3.157  10.494
14273SOL    HW144260   4.206   3.169  10.444
14273SOL    HW244261   4.308   3.245  10.526
14274SOL     OW44262   5.297   3.377  10.017
14274SOL    HW144263   5.249   3.356  10.097
14274SOL    HW244264   5.230   3.385   9.950
14275SOL     OW44265   4.864   2.555  10.011
14275SOL    HW144266   4.911   2.635   9.988
14275SOL    HW244267   4.815   2.578  10.090
14276SOL     OW44268   5.509   2.462   9.534
14276SOL    HW144269   5.481   2.467   9.442
14276SOL    HW244270   5.465   2.384   9.567
14277SOL     OW44271   4.472   3.000  10.368
14277SOL    HW144272   4.403   3.040  10.421
14277SOL    HW244273   4.510   3.073  10.319
14278SOL     OW44274   4.601   2.629  11.134
14278SOL    HW144275   4.541   2.692  11.173
14278SOL    HW244276   4.624   2.668  11.049
14279SOL     OW44277   4.409   2.849   9.963
14279SOL    HW144278   4.475   2.852  10.032
14279SOL    HW244279   4.342   2.912   9.989
14280SOL     OW44280   4.439   3.018  11.140
14280SOL    HW144281   4.487   3.096  11.168
14280SOL    HW244282   4.363   3.051  11.094
14281SOL     OW44283   4.052   3.276  10.380
14281SOL    HW144284   3.979   3.240  10.328
14281SOL    HW244285   4.101   3.330  10.318
14282SOL     OW44286   5.185   3.361  10.679
14282SOL    HW144287   5.237   3.441  10.686
14282SOL    HW244288   5.110   3.376  10.737
14283SOL     OW44289   4.177   2.256  10.794
14283SOL    HW144290   4.250   2.195  10.797
14283SOL    HW244291   4.099   2.201  10.806
14284SOL     OW44292   5.323   2.305  10.052
14284SOL    HW144293   5.252   2.313   9.988
14284SOL    HW244294   5.330   2.392  10.091
14285SOL     OW44295   4.865   3.198  11.004
14285SOL    HW144296   4.897   3.191  11.094
14285SOL    HW244297   4.811   3.119  10.992
14286SOL     OW44298   4.020   2.958  10.223
14286SOL    HW144299   3.995   2.867  10.240
14286SOL    HW244300   3.947   3.010  10.257
14287SOL     OW44301   4.336   3.640  10.760
14287SOL    HW144302   4.247   3.636  10.793
14287SOL    HW244303   4.358   3.734  10.762
14288SOL     OW44304   4.322   2.836   9.465
14288SOL    HW144305   4.351   2.893   9.394
14288SOL    HW244306   4.362   2.873   9.543
14289SOL     OW44307   5.330   1.993  10.769
14289SOL    HW144308   5.341   2.078  10.728
14289SOL    HW244309   5.302   2.013  10.859
14290SOL     OW44310   3.847   2.512   9.872
14290SOL    HW144311   3.809   2.426   9.890
14290SOL    HW244312   3.835   2.561   9.954
14291SOL     OW44313   5.554   3.629   9.639
14291SOL    HW144314   5.619   3.606   9.705
14291SOL    HW244315   5.577   3.719   9.614
14292SOL     OW44316   5.418   2.780   9.940
14292SOL    HW144317   5.480   2.732   9.885
14292SOL    HW244318   5.380   2.845   9.882
14293SOL     OW44319   5.365   2.971   9.746
14293SOL    HW144320   5.448   2.974   9.699
14293SOL    HW244321   5.374   3.038   9.814
14294SOL     OW44322   3.845   2.609  10.897
14294SOL    HW144323   3.933   2.647  10.892
14294SOL    HW244324   3.786   2.684  10.883
14295SOL     OW44325   4.335   3.244  10.051
14295SOL    HW144326   4.290   3.160  10.042
14295SOL    HW244327   4.337   3.281   9.963
14296SOL     OW44328   5.002   3.083  10.740
14296SOL    HW144329   5.031   3.021  10.673
14296SOL    HW244330   5.072   3.081  10.806
14297SOL     OW44331   4.551   1.884   9.830
14297SOL    HW144332   4.585   1.970   9.804
14297SOL    HW244333   4.456   1.896   9.833
14298SOL     OW44334   3.903   2.817  10.595
14298SOL    HW144335   3.991   2.781  10.582
14298SOL    HW244336   3.858   2.800  10.512
14299SOL     OW44337   5.284   2.813   9.523
14299SOL    HW144338   5.200   2.775   9.549
14299SOL    HW244339   5.297   2.886   9.584
14300SOL     OW44340   4.913   3.636  10.971
14300SOL    HW144341   4.943   3.715  10.927
14300SOL    HW244342   4.927   3.566  10.907
14301SOL     OW44343   4.068   2.107  11.153
14301SOL    HW144344   4.107   2.194  11.161
14301SOL    HW244345   3.974   2.121  11.166
14302SOL     OW44346   5.195   3.277  10.258
14302SOL    HW144347   5.125   3.296  10.319
14302SOL    HW244348   5.178   3.187  10.229
14303SOL     OW44349   5.385   3.618   9.887
14303SOL    HW144350   5.360   3.595   9.798
14303SOL    HW244351   5.356   3.544   9.940
14304SOL     OW44352   4.320   2.583   9.587
14304SOL    HW144353   4.324   2.662   9.532
14304SOL    HW244354   4.250   2.602   9.650
14305SOL     OW44355   5.005   2.229  10.251
14305SOL    HW144356   4.915   2.198  10.260
14305SOL    HW244357   5.055   2.175  10.311
14306SOL     OW44358   5.292   3.540   9.620
14306SOL    HW144359   5.381   3.574   9.605
14306SOL    HW244360   5.261   3.515   9.533
14307SOL     OW44361   4.524   2.476  10.756
14307SOL    HW144362   4.494   2.450  10.843
14307SOL    HW244363   4.487   2.411  10.697
14308SOL     OW44364   5.115   2.341  10.987
14308SOL    HW144365   5.121   2.383  11.073
14308SOL    HW244366   5.174   2.266  10.993
14309SOL     OW44367   4.670   2.751  10.895
14309SOL    HW144368   4.725   2.682  10.856
14309SOL    HW244369   4.627   2.792  10.819
14310SOL     OW44370   4.719   2.265  10.547
14310SOL    HW144371   4.629   2.286  10.571
14310SOL    HW244372   4.713   2.237  10.455
14311SOL     OW44373   4.778   2.544   9.734
14311SOL    HW144374   4.791   2.543   9.829
14311SOL    HW244375   4.691   2.506   9.721
14312SOL     OW44376   3.808   2.660  10.101
14312SOL    HW144377   3.890   2.667  10.149
14312SOL    HW244378   3.762   2.742  10.121
14313SOL     OW44379   3.818   3.679  10.877
14313SOL    HW144380   3.827   3.679  10.973
14313SOL    HW244381   3.815   3.772  10.854
14314SOL     OW44382   4.637   2.204   9.498
14314SOL    HW144383   4.666   2.282   9.451
14314SOL    HW244384   4.660   2.132   9.439
14315SOL     OW44385   5.424   2.433  11.140
14315SOL    HW144386   5.391   2.507  11.090
14315SOL    HW244387   5.451   2.369  11.074
14316SOL     OW44388   5.103   3.002   9.855
14316SOL    HW144389   5.176   2.991   9.794
14316SOL    HW244390   5.047   3.069   9.815
14317SOL     OW44391   4.277   2.031  10.208
14317SOL    HW144392   4.278   2.073  10.294
14317SOL    HW244393   4.272   2.103  10.146
14318SOL     OW44394   4.728   3.335   9.782
14318SOL    HW144395   4.684   3.381   9.710
14318SOL    HW244396   4.683   3.367   9.861
14319SOL     OW44397   4.075   3.679  10.187
14319SOL    HW144398   4.131   3.602  10.180
14319SOL    HW244399   4.137   3.752  10.200
14320SOL     OW44400   5.528   2.899  10.180
14320SOL    HW144401   5.479   2.893  10.098
14320SOL    HW244402   5.461   2.913  10.247
14321SOL     OW44403   4.950   3.395  10.819
14321SOL    HW144404   4.931   3.317  10.871
14321SOL    HW244405   4.872   3.408  10.766
14322SOL     OW44406   4.063   2.783   9.558
14322SOL    HW144407   4.150   2.821   9.545
14322SOL    HW244408   4.035   2.756   9.471
14323SOL     OW44409   5.223   2.602  10.025
14323SOL    HW144410   5.213   2.581  10.118
14323SOL    HW244411   5.294   2.666  10.023
14324SOL     OW44412   4.191   3.123  11.053
14324SOL    HW144413   4.167   3.128  10.961
14324SOL    HW244414   4.107   3.123  11.100
14325SOL     OW44415   3.929   2.133  10.810
14325SOL    HW144416   3.853   2.191  10.807
14325SOL    HW244417   3.896   2.052  10.848
14326SOL     OW44418   5.370   3.241   9.425
14326SOL    HW144419   5.325   3.322   9.399
14326SOL    HW244420   5.304   3.173   9.416
14327SOL     OW44421   5.120   1.960   9.747
14327SOL    HW144422   5.107   1.940   9.654
14327SOL    HW244423   5.212   1.982   9.754
14328SOL     OW44424   3.970   3.649  10.524
14328SOL    HW144425   4.051   3.599  10.534
14328SOL    HW244426   3.950   3.645  10.431
14329SOL     OW44427   4.675   3.552  10.202
14329SOL    HW144428   4.761   3.508  10.203
14329SOL    HW244429   4.628   3.511  10.129
14330SOL     OW44430   4.131   2.548   9.802
14330SOL    HW144431   4.144   2.453   9.811
14330SOL    HW244432   4.036   2.559   9.799
14331SOL     OW44433   5.246   2.085  11.029
14331SOL    HW144434   5.257   2.102  11.122
14331SOL    HW244435   5.167   2.031  11.023
14332SOL     OW44436   4.365   1.954   9.425
14332SOL    HW144437   4.448   1.914   9.402
14332SOL    HW244438   4.307   1.936   9.351
14333SOL     OW44439   4.491   2.140  11.069
14333SOL    HW144440   4.571   2.088  11.064
14333SOL    HW244441   4.440   2.100  11.140
14334SOL     OW44442   4.589   3.370  10.504
14334SOL    HW144443   4.575   3.347  10.412
14334SOL    HW244444   4.670   3.327  10.528
14335SOL     OW44445   5.062   2.449  10.736
14335SOL    HW144446   5.091   2.425  10.824
14335SOL    HW244447   5.093   2.539  10.725
14336SOL     OW44448   4.543   3.241  10.251
14336SOL    HW144449   4.629   3.239  10.208
14336SOL    HW244450   4.481   3.257  10.180
14337SOL     OW44451   4.653   2.382  10.209
14337SOL    HW144452   4.626   2.370  10.118
14337SOL    HW244453   4.694   2.299  10.233
14338SOL     OW44454   4.280   1.921   9.808
14338SOL    HW144455   4.198   1.921   9.856
14338SOL    HW244456   4.274   1.997   9.750
14339SOL     OW44457   5.167   3.064   9.407
14339SOL    HW144458   5.171   2.973   9.380
14339SOL    HW244459   5.086   3.097   9.367
14340SOL     OW44460   4.008   1.915   9.492
14340SOL    HW144461   4.048   1.982   9.436
14340SOL    HW244462   4.083   1.863   9.523
14341SOL     OW44463   4.669   2.118   9.759
14341SOL    HW144464   4.644   2.152   9.673
14341SOL    HW244465   4.763   2.136   9.765
14342SOL     OW44466   4.802   2.545  10.779
14342SOL    HW144467   4.729   2.485  10.767
14342SOL    HW244468   4.880   2.493  10.758
14343SOL     OW44469   4.940   3.446  10.112
14343SOL    HW144470   4.948   3.501  10.033
14343SOL    HW244471   5.007   3.481  10.171
14344SOL     OW44472   4.192   3.009  10.022
14344SOL    HW144473   4.137   2.990  10.098
14344SOL    HW244474   4.136   2.990   9.947
14345SOL     OW44475   4.983   3.657   9.920
14345SOL    HW144476   5.026   3.715   9.857
14345SOL    HW244477   4.911   3.708   9.955
14346SOL     OW44478   4.731   2.408   9.344
14346SOL    HW144479   4.683   2.485   9.313
14346SOL    HW244480   4.814   2.444   9.376
14347SOL     OW44481   3.815   2.407  10.715
14347SOL    HW144482   3.904   2.413  10.681
14347SOL    HW244483   3.807   2.482  10.774
14348SOL     OW44484   4.281   2.092  10.483
14348SOL    HW144485   4.318   2.016  10.527
14348SOL    HW244486   4.188   2.089  10.506
14349SOL     OW44487   4.587   2.311   9.952
14349SOL    HW144488   4.536   2.374   9.901
14349SOL    HW244489   4.612   2.244   9.889
14350SOL     OW44490   5.170   3.018  10.163
14350SOL    HW144491   5.084   2.977  10.148
14350SOL    HW244492   5.205   3.032  10.075
14351SOL     OW44493   5.187   2.476  10.277
14351SOL    HW144494   5.131   2.398  10.275
14351SOL    HW244495   5.244   2.463  10.353
14352SOL     OW44496   5.565   2.667   9.712
14352SOL    HW144497   5.630   2.613   9.757
14352SOL    HW244498   5.539   2.615   9.636
14353SOL     OW44499   5.400   3.122   9.970
14353SOL    HW144500   5.496   3.128   9.973
14353SOL    HW244501   5.370   3.213   9.979
14354SOL     OW44502   5.115   2.435   9.376
14354SOL    HW144503   5.061   2.413   9.452
14354SOL    HW244504   5.205   2.428   9.408
14355SOL     OW44505   4.253   2.116   9.625
14355SOL    HW144506   4.295   2.069   9.553
14355SOL    HW244507   4.228   2.200   9.587
14356SOL     OW44508   5.476   3.099  10.885
14356SOL    HW144509   5.563   3.069  10.858
14356SOL    HW244510   5.490   3.191  10.907
14357SOL     OW44511   4.781   3.205  10.634
14357SOL    HW144512   4.703   3.182  10.685
14357SOL    HW244513   4.853   3.165  10.682
14358SOL     OW44514   5.338   3.479  10.974
14358SOL    HW144515   5.322   3.520  10.890
14358SOL    HW244516   5.422   3.434  10.963
14359SOL     OW44517   4.859   3.063  10.410
14359SOL    HW144518   4.801   3.107  10.472
14359SOL    HW244519   4.839   3.104  10.325
14360SOL     OW44520   5.343   2.954  10.382
14360SOL    HW144521   5.331   3.021  10.450
14360SOL    HW244522   5.272   2.971  10.320
14361SOL     OW44523   4.644   1.953  10.703
14361SOL    HW144524   4.664   1.940  10.610
14361SOL    HW244525   4.723   1.994  10.739
14362SOL     OW44526   4.705   2.972  11.047
14362SOL    HW144527   4.614   2.997  11.063
14362SOL    HW244528   4.699   2.899  10.985
14363SOL     OW44529   4.440   2.913   9.695
14363SOL    HW144530   4.424   2.887   9.786
14363SOL    HW244531   4.519   2.864   9.671
14364SOL     OW44532   4.141   2.686  10.570
14364SOL    HW144533   4.215   2.693  10.631
14364SOL    HW244534   4.110   2.596  10.580
14365SOL     OW44535   4.985   2.229  10.596
14365SOL    HW144536   5.018   2.310  10.635
14365SOL    HW244537   4.895   2.249  10.572
14366SOL     OW44538   3.798   3.434  10.651
14366SOL    HW144539   3.771   3.510  10.598
14366SOL    HW244540   3.894   3.436  10.648
14367SOL     OW44541   4.275   2.387  10.178
14367SOL    HW144542   4.283   2.441  10.100
14367SOL    HW244543   4.342   2.420  10.238
14368SOL     OW44544   4.968   3.214   9.739
14368SOL    HW144545   5.027   3.287   9.754
14368SOL    HW244546   4.881   3.248   9.759
14369SOL     OW44547   5.017   3.322  10.460
14369SOL    HW144548   5.071   3.328  10.540
14369SOL    HW244549   4.952   3.255  10.480
14370SOL     OW44550   5.308   2.475   9.790
14370SOL    HW144551   5.261   2.521   9.859
14370SOL    HW244552   5.331   2.543   9.727
14371SOL     OW44553   4.072   3.373  10.628
14371SOL    HW144554   4.060   3.338  10.539
14371SOL    HW244555   4.164   3.396  10.633
14372SOL     OW44556   4.144   2.609  10.914
14372SOL    HW144557   4.207   2.654  10.856
14372SOL    HW244558   4.176   2.519  10.919
14373SOL     OW44559   5.336   2.647  10.997
14373SOL    HW144560   5.248   2.684  10.986
14373SOL    HW244561   5.387   2.686  10.926
14374SOL     OW44562   4.723   1.995  11.067
14374SOL    HW144563   4.780   2.069  11.046
14374SOL    HW244564   4.773   1.918  11.040
14375SOL     OW44565   4.218   1.894  11.066
14375SOL    HW144566   4.171   1.845  10.999
14375SOL    HW244567   4.162   1.970  11.083
14376SOL     OW44568   4.319   2.736  10.354
14376SOL    HW144569   4.345   2.827  10.339
14376SOL    HW244570   4.249   2.741  10.418
14377SOL     OW44571   5.068   2.716  10.339
14377SOL    HW144572   4.991   2.721  10.283
14377SOL    HW244573   5.109   2.632  10.317
14378SOL     OW44574   4.947   2.381   9.585
14378SOL    HW144575   4.936   2.304   9.640
14378SOL    HW244576   4.897   2.450   9.629
14379SOL     OW44577   4.020   2.056  10.556
14379SOL    HW144578   3.984   2.088  10.639
14379SOL    HW244579   4.001   1.962  10.556
14380SOL     OW44580   3.731   3.173  10.589
14380SOL    HW144581   3.782   3.116  10.648
14380SOL    HW244582   3.768   3.260  10.603
14381SOL     OW44583   4.446   2.494  10.369
14381SOL    HW144584   4.520   2.488  10.309
14381SOL    HW244585   4.411   2.583  10.356
14382SOL     OW44586   5.458   2.818  11.178
14382SOL    HW144587   5.421   2.752  11.121
14382SOL    HW244588   5.412   2.899  11.154
14383SOL     OW44589   4.035   1.916   9.934
14383SOL    HW144590   4.008   2.007   9.949
14383SOL    HW244591   4.039   1.877  10.021
14384SOL     OW44592   5.335   2.229   9.676
14384SOL    HW144593   5.376   2.176   9.744
14384SOL    HW244594   5.317   2.313   9.719
14385SOL     OW44595   4.756   2.626  10.266
14385SOL    HW144596   4.749   2.640  10.361
14385SOL    HW244597   4.723   2.538  10.252
14386SOL     OW44598   4.691   3.409  11.030
14386SOL    HW144599   4.680   3.467  10.954
14386SOL    HW244600   4.748   3.339  10.999
14387SOL     OW44601   5.580   3.356  10.911
14387SOL    HW144602   5.596   3.388  10.823
14387SOL    HW244603   5.661   3.374  10.959
14388SOL     OW44604   4.073   2.769  11.126
14388SOL    HW144605   4.156   2.800  11.162
14388SOL    HW244606   4.098   2.709  11.055
14389SOL     OW44607   5.258   2.115   9.437
14389SOL    HW144608   5.183   2.062   9.465
14389SOL    HW244609   5.284   2.163   9.516
14390SOL     OW44610   5.015   2.691   9.341
14390SOL    HW144611   5.054   2.603   9.339
14390SOL    HW244612   5.040   2.730   9.257
14391SOL     OW44613   4.807   3.204  10.176
14391SOL    HW144614   4.807   3.135  10.110
14391SOL    HW244615   4.857   3.276  10.137
14392SOL     OW44616   4.034   2.670  10.257
14392SOL    HW144617   4.123   2.689  10.230
14392SOL    HW244618   4.037   2.579  10.288
14393SOL     OW44619   4.055   2.392  10.330
14393SOL    HW144620   4.015   2.306  10.313
14393SOL    HW244621   4.132   2.394  10.273
14394SOL     OW44622   4.860   2.230  11.001
14394SOL    HW144623   4.808   2.286  11.058
14394SOL    HW244624   4.944   2.276  10.991
14395SOL     OW44625   4.888   2.055  10.787
14395SOL    HW144626   4.874   2.119  10.857
14395SOL    HW244627   4.926   2.105  10.715
14396SOL     OW44628   3.821   3.631  10.263
14396SOL    HW144629   3.782   3.566  10.205
14396SOL    HW244630   3.906   3.651  10.222
14397SOL     OW44631   4.216   3.424  10.223
14397SOL    HW144632   4.283   3.488  10.247
14397SOL    HW244633   4.259   3.368  10.159
14398SOL     OW44634   4.703   2.638  10.532
14398SOL    HW144635   4.757   2.629  10.611
14398SOL    HW244636   4.615   2.615  10.561
14399SOL     OW44637   3.758   2.398  10.432
14399SOL    HW144638   3.828   2.409  10.367
14399SOL    HW244639   3.801   2.410  10.516
14400SOL     OW44640   3.921   2.387  11.039
14400SOL    HW144641   3.972   2.344  10.971
14400SOL    HW244642   3.884   2.464  10.997
14401SOL     OW44643   5.101   2.789  10.976
14401SOL    HW144644   5.125   2.881  10.970
14401SOL    HW244645   5.088   2.762  10.885
14402SOL     OW44646   4.533   2.431   9.682
14402SOL    HW144647   4.535   2.363   9.614
14402SOL    HW244648   4.462   2.489   9.656
14403SOL     OW44649   5.364   2.453  10.487
14403SOL    HW144650   5.349   2.400  10.565
14403SOL    HW244651   5.451   2.426  10.456
14404SOL     OW44652   3.968   3.409  11.045
14404SOL    HW144653   3.950   3.478  11.108
14404SOL    HW244654   3.973   3.329  11.097
14405SOL     OW44655   4.440   2.306  10.562
14405SOL    HW144656   4.381   2.236  10.535
14405SOL    HW244657   4.433   2.372  10.493
14406SOL     OW44658   4.662   3.535  10.779
14406SOL    HW144659   4.621   3.506  10.697
14406SOL    HW244660   4.666   3.630  10.771
14407SOL     OW44661   4.187   2.351   9.518
14407SOL    HW144662   4.237   2.431   9.530
14407SOL    HW244663   4.100   2.381   9.490
14408SOL     OW44664   3.852   3.004  10.783
14408SOL    HW144665   3.863   2.963  10.868
14408SOL    HW244666   3.871   2.935  10.719
14409SOL     OW44667   5.038   2.900  10.534
14409SOL    HW144668   5.061   2.837  10.465
14409SOL    HW244669   4.974   2.958  10.493
14410SOL     OW44670   5.042   2.709   9.613
14410SOL    HW144671   4.957   2.705   9.657
14410SOL    HW244672   5.021   2.708   9.520
14411SOL     OW44673   5.506   3.588  10.474
14411SOL    HW144674   5.564   3.621  10.406
14411SOL    HW244675   5.475   3.504  10.440
14412SOL     OW44676   4.963   3.590  10.408
14412SOL    HW144677   5.046   3.615  10.367
14412SOL    HW244678   4.973   3.497  10.429
14413SOL     OW44679   3.812   3.111  10.318
14413SOL    HW144680   3.775   3.120  10.406
14413SOL    HW244681   3.751   3.055  10.272
14414SOL     OW44682   4.398   3.537  11.048
14414SOL    HW144683   4.333   3.607  11.051
14414SOL    HW244684   4.453   3.559  10.973
14415SOL     OW44685   5.463   2.023   9.826
14415SOL    HW144686   5.523   2.009   9.752
14415SOL    HW244687   5.441   1.934   9.855
14416SOL     OW44688   5.124   3.436   9.810
14416SOL    HW144689   5.175   3.466   9.736
14416SOL    HW244690   5.068   3.510   9.833
14417SOL     OW44691   3.858   3.661  11.150
14417SOL    HW144692   3.809   3.594  11.198
14417SOL    HW244693   3.908   3.708  11.217
14418SOL     OW44694   5.010   2.779   9.975
14418SOL    HW144695   5.087   2.722   9.974
14418SOL    HW244696   5.037   2.857   9.926
14419SOL     OW44697   4.531   3.143  10.741
14419SOL    HW144698   4.499   3.182  10.822
14419SOL    HW244699   4.478   3.182  10.672
14420SOL     OW44700   5.351   3.581  10.707
14420SOL    HW144701   5.399   3.588  10.625
14420SOL    HW244702   5.334   3.672  10.733
14421SOL     OW44703   5.561   2.029  10.281
14421SOL    HW144704   5.586   1.942  10.250
14421SOL    HW244705   5.476   2.045  10.240
14422SOL     OW44706   3.976   2.165  10.021
14422SOL    HW144707   3.892   2.203   9.995
14422SOL    HW244708   3.976   2.170  10.117
14423SOL     OW44709   4.548   2.875  10.680
14423SOL    HW144710   4.570   2.877  10.587
14423SOL    HW244711   4.539   2.967  10.705
14424SOL     OW44712   4.660   2.778   9.627
14424SOL    HW144713   4.702   2.806   9.546
14424SOL    HW244714   4.704   2.696   9.649
14425SOL     OW44715   5.219   3.460   9.365
14425SOL    HW144716   5.127   3.455   9.339
14425SOL    HW244717   5.266   3.474   9.284
14426SOL     OW44718   4.088   3.161  10.809
14426SOL    HW144719   4.089   3.235  10.749
14426SOL    HW244720   4.010   3.111  10.784
14427SOL     OW44721   5.328   3.147  10.582
14427SOL    HW144722   5.403   3.146  10.642
14427SOL    HW244723   5.270   3.214  10.618
14428SOL     OW44724   4.789   2.977  10.030
14428SOL    HW144725   4.713   2.929  10.062
14428SOL    HW244726   4.835   2.915   9.974
14429SOL     OW44727   4.742   2.117  10.293
14429SOL    HW144728   4.689   2.089  10.219
14429SOL    HW244729   4.744   2.041  10.351
14430SOL     OW44730   4.353   3.356   9.803
14430SOL    HW144731   4.395   3.297   9.740
14430SOL    HW244732   4.303   3.418   9.748
14431SOL     OW44733   5.464   2.241  10.689
14431SOL    HW144734   5.529   2.311  10.692
14431SOL    HW244735   5.498   2.180  10.624
14432SOL     OW44736   3.845   2.905  11.044
14432SOL    HW144737   3.766   2.874  11.089
14432SOL    HW244738   3.916   2.853  11.082
14433SOL     OW44739   4.401   2.054  10.812
14433SOL    HW144740   4.485   2.035  10.770
14433SOL    HW244741   4.425   2.091  10.897
14434SOL     OW44742   3.799   2.186   9.347
14434SOL    HW144743   3.740   2.189   9.272
14434SOL    HW244744   3.838   2.273   9.350
14435SOL     OW44745   5.145   2.716  10.710
14435SOL    HW144746   5.091   2.776  10.658
14435SOL    HW244747   5.232   2.722  10.671
14436SOL     OW44748   3.778   2.018   9.601
14436SOL    HW144749   3.760   2.088   9.538
14436SOL    HW244750   3.866   1.987   9.577
14437SOL     OW44751   4.892   3.184   9.460
14437SOL    HW144752   4.820   3.246   9.465
14437SOL    HW244753   4.929   3.184   9.549
14438SOL     OW44754   4.350   2.691  10.747
14438SOL    HW144755   4.403   2.769  10.727
14438SOL    HW244756   4.413   2.619  10.750
14439SOL     OW44757   5.203   3.639  10.282
14439SOL    HW144758   5.212   3.704  10.212
14439SOL    HW244759   5.288   3.643  10.328
14440SOL     OW44760   4.447   2.414  11.007
14440SOL    HW144761   4.488   2.471  11.072
14440SOL    HW244762   4.460   2.325  11.040
14441SOL     OW44763   5.205   3.041  10.943
14441SOL    HW144764   5.188   3.080  11.029
14441SOL    HW244765   5.293   3.073  10.920
14442SOL     OW44766   4.087   3.601  10.873
14442SOL    HW144767   4.002   3.633  10.843
14442SOL    HW244768   4.068   3.518  10.916
14443SOL     OW44769   5.382   2.741  10.565
14443SOL    HW144770   5.376   2.660  10.515
14443SOL    HW244771   5.370   2.811  10.499
14444SOL     OW44772   4.936   2.171   9.778
14444SOL    HW144773   5.006   2.106   9.764
14444SOL    HW244774   4.969   2.226   9.849
14445SOL     OW44775   4.315   2.591   9.997
14445SOL    HW144776   4.355   2.676   9.980
14445SOL    HW244777   4.253   2.579   9.925
14446SOL     OW44778   5.476   2.223  10.967
14446SOL    HW144779   5.472   2.234  10.872
14446SOL    HW244780   5.401   2.167  10.988
14447SOL     OW44781   5.478   2.796  10.819
14447SOL    HW144782   5.465   2.890  10.831
14447SOL    HW244783   5.456   2.780  10.727
14448SOL     OW44784   4.398   3.616  10.271
14448SOL    HW144785   4.368   3.707  10.263
14448SOL    HW244786   4.491   3.619  10.247
14449SOL     OW44787   4.592   2.838  10.170
14449SOL    HW144788   4.647   2.768  10.206
14449SOL    HW244789   4.558   2.883  10.247
14450SOL     OW44790   4.786   2.838   9.398
14450SOL    HW144791   4.764   2.904   9.332
14450SOL    HW244792   4.867   2.798   9.366
14451SOL     OW44793   5.561   3.419  10.155
14451SOL    HW144794   5.491   3.413  10.090
14451SOL    HW244795   5.526   3.373  10.231
14452SOL     OW44796   3.945   3.152  11.166
14452SOL    HW144797   3.896   3.083  11.122
14452SOL    HW244798   3.900   3.165  11.249
14453SOL     OW44799   4.416   3.264  10.958
14453SOL    HW144800   4.326   3.236  10.978
14453SOL    HW244801   4.419   3.356  10.983
14454SOL     OW44802   5.583   2.016  10.551
14454SOL    HW144803   5.521   1.943  10.559
14454SOL    HW244804   5.579   2.041  10.458
14455SOL     OW44805   4.169   2.283   9.852
14455SOL    HW144806   4.186   2.225   9.778
14455SOL    HW244807   4.102   2.236   9.903
14456SOL     OW44808   5.425   3.340  10.389
14456SOL    HW144809   5.343   3.328  10.340
14456SOL    HW244810   5.422   3.274  10.458
14457SOL     OW44811   4.060   2.423  10.604
14457SOL    HW144812   4.118   2.365  10.652
14457SOL    HW244813   4.074   2.401  10.512
14458SOL     OW44814   4.558   3.465   9.967
14458SOL    HW144815   4.556   3.554   9.932
14458SOL    HW244816   4.481   3.422   9.930
14459SOL     OW44817   5.152   2.086  10.433
14459SOL    HW144818   5.144   1.995  10.462
14459SOL    HW244819   5.102   2.136  10.498
14460SOL     OW44820   4.733   1.879  10.446
14460SOL    HW144821   4.673   1.810  10.418
14460SOL    HW244822   4.820   1.837  10.443
14461SOL     OW44823   4.507   3.177   9.660
14461SOL    HW144824   4.470   3.089   9.655
14461SOL    HW244825   4.597   3.163   9.691
14462SOL     OW44826   4.343   3.412  10.610
14462SOL    HW144827   4.346   3.494  10.659
14462SOL    HW244828   4.426   3.410  10.562
14463SOL     OW44829   5.069   1.911   9.485
14463SOL    HW144830   5.093   1.866   9.403
14463SOL    HW244831   4.982   1.876   9.506
14464SOL     OW44832   5.022   2.321   9.990
14464SOL    HW144833   4.974   2.404   9.987
14464SOL    HW244834   5.016   2.293  10.082
14465SOL     OW44835   5.304   2.061  10.196
14465SOL    HW144836   5.250   2.090  10.269
14465SOL    HW244837   5.305   2.136  10.136
14466SOL     OW44838   3.950   2.476  11.302
14466SOL    HW144839   3.860   2.484  11.333
14466SOL    HW244840   3.942   2.462  11.208
14467SOL     OW44841   3.953   2.144  12.160
14467SOL    HW144842   3.983   2.111  12.244
14467SOL    HW244843   3.863   2.114  12.152
14468SOL     OW44844   3.720   2.250  11.811
14468SOL    HW144845   3.641   2.279  11.858
14468SOL    HW244846   3.692   2.171  11.764
14469SOL     OW44847   4.269   3.116  12.341
14469SOL    HW144848   4.191   3.146  12.294
14469SOL    HW244849   4.280   3.180  12.411
14470SOL     OW44850   5.293   3.371  11.879
14470SOL    HW144851   5.248   3.362  11.963
14470SOL    HW244852   5.223   3.384  11.815
14471SOL     OW44853   4.860   2.554  11.865
14471SOL    HW144854   4.903   2.639  11.855
14471SOL    HW244855   4.807   2.563  11.944
14472SOL     OW44856   5.509   2.458  11.394
14472SOL    HW144857   5.478   2.456  11.304
14472SOL    HW244858   5.464   2.385  11.437
14473SOL     OW44859   4.482   3.001  12.229
14473SOL    HW144860   4.401   3.032  12.270
14473SOL    HW244861   4.514   3.076  12.179
14474SOL     OW44862   4.409   2.854  11.821
14474SOL    HW144863   4.474   2.853  11.890
14474SOL    HW244864   4.339   2.910  11.854
14475SOL     OW44865   4.065   3.266  12.226
14475SOL    HW144866   3.981   3.238  12.188
14475SOL    HW244867   4.100   3.327  12.161
14476SOL     OW44868   5.316   2.303  11.914
14476SOL    HW144869   5.238   2.314  11.860
14476SOL    HW244870   5.308   2.371  11.981
14477SOL     OW44871   3.949   3.574  11.636
14477SOL    HW144872   3.967   3.649  11.693
14477SOL    HW244873   4.025   3.569  11.578
14478SOL     OW44874   3.946   3.309  11.713
14478SOL    HW144875   3.941   3.404  11.704
14478SOL    HW244876   3.892   3.289  11.790
14479SOL     OW44877   3.984   2.955  12.062
14479SOL    HW144878   3.982   2.869  12.105
14479SOL    HW244879   3.935   3.012  12.121
14480SOL     OW44880   4.309   2.847  11.316
14480SOL    HW144881   4.351   2.901  11.249
14480SOL    HW244882   4.345   2.880  11.399
14481SOL     OW44883   3.841   2.520  11.733
14481SOL    HW144884   3.811   2.433  11.758
14481SOL    HW244885   3.830   2.573  11.812
14482SOL     OW44886   5.569   3.614  11.499
14482SOL    HW144887   5.637   3.593  11.563
14482SOL    HW244888   5.581   3.708  11.481
14483SOL     OW44889   3.754   3.454  11.289
14483SOL    HW144890   3.742   3.362  11.314
14483SOL    HW244891   3.735   3.503  11.370
14484SOL     OW44892   5.418   2.774  11.790
14484SOL    HW144893   5.484   2.730  11.736
14484SOL    HW244894   5.386   2.845  11.735
14485SOL     OW44895   5.371   2.975  11.597
14485SOL    HW144896   5.456   2.970  11.555
14485SOL    HW244897   5.382   3.037  11.669
14486SOL     OW44898   3.912   2.618   0.212
14486SOL    HW144899   3.908   2.606   0.307
14486SOL    HW244900   3.830   2.662   0.190
14487SOL     OW44901   4.336   3.254  11.901
14487SOL    HW144902   4.289   3.171  11.909
14487SOL    HW244903   4.318   3.283  11.811
14488SOL     OW44904   4.548   1.873  11.684
14488SOL    HW144905   4.586   1.958  11.661
14488SOL    HW244906   4.453   1.890  11.689
14489SOL     OW44907   3.920   2.841  12.386
14489SOL    HW144908   3.994   2.786  12.409
14489SOL    HW244909   3.847   2.806  12.438
14490SOL     OW44910   5.204   2.851  11.413
14490SOL    HW144911   5.264   2.797  11.361
14490SOL    HW244912   5.261   2.895  11.477
14491SOL     OW44913   5.209   3.273  12.133
14491SOL    HW144914   5.136   3.298  12.189
14491SOL    HW244915   5.185   3.187  12.099
14492SOL     OW44916   5.386   3.613  11.746
14492SOL    HW144917   5.361   3.584  11.659
14492SOL    HW244918   5.360   3.541  11.804
14493SOL     OW44919   4.318   2.585  11.446
14493SOL    HW144920   4.312   2.668  11.400
14493SOL    HW244921   4.252   2.591  11.515
14494SOL     OW44922   5.009   2.238  12.112
14494SOL    HW144923   4.920   2.201  12.109
14494SOL    HW244924   5.057   2.179  12.170
14495SOL     OW44925   5.305   3.530  11.485
14495SOL    HW144926   5.394   3.560  11.472
14495SOL    HW244927   5.270   3.518  11.396
14496SOL     OW44928   4.716   2.205  12.379
14496SOL    HW144929   4.683   2.276  12.434
14496SOL    HW244930   4.644   2.185  12.319
14497SOL     OW44931   4.785   2.556  11.592
14497SOL    HW144932   4.802   2.551  11.686
14497SOL    HW244933   4.700   2.513  11.581
14498SOL     OW44934   3.799   2.689  11.947
14498SOL    HW144935   3.882   2.684  11.994
14498SOL    HW244936   3.752   2.762  11.987
14499SOL     OW44937   4.621   2.215  11.368
14499SOL    HW144938   4.663   2.274  11.306
14499SOL    HW244939   4.601   2.137  11.316
14500SOL     OW44940   5.090   2.982  11.667
14500SOL    HW144941   5.181   3.002  11.645
14500SOL    HW244942   5.042   3.062  11.643
14501SOL     OW44943   4.283   2.049  12.065
14501SOL    HW144944   4.282   2.094  12.150
14501SOL    HW244945   4.271   2.119  12.001
14502SOL     OW44946   4.719   3.307  11.639
14502SOL    HW144947   4.690   3.380  11.584
14502SOL    HW244948   4.690   3.331  11.727
14503SOL     OW44949   4.076   3.679  12.040
14503SOL    HW144950   4.122   3.596  12.050
14503SOL    HW244951   4.141   3.746  12.063
14504SOL     OW44952   5.518   2.865  12.052
14504SOL    HW144953   5.477   2.874  11.966
14504SOL    HW244954   5.456   2.906  12.112
14505SOL     OW44955   4.039   2.825  11.427
14505SOL    HW144956   4.121   2.847  11.383
14505SOL    HW244957   4.007   2.748  11.380
14506SOL     OW44958   5.208   2.618  11.888
14506SOL    HW144959   5.206   2.574  11.973
14506SOL    HW244960   5.291   2.666  11.888
14507SOL     OW44961   4.857   3.626  11.417
14507SOL    HW144962   4.772   3.595  11.446
14507SOL    HW244963   4.877   3.572  11.340
14508SOL     OW44964   5.354   3.234  11.269
14508SOL    HW144965   5.322   3.323  11.254
14508SOL    HW244966   5.280   3.178  11.247
14509SOL     OW44967   4.194   3.591  11.494
14509SOL    HW144968   4.236   3.654  11.553
14509SOL    HW244969   4.262   3.568  11.431
14510SOL     OW44970   5.128   1.974  11.620
14510SOL    HW144971   5.122   1.949  11.528
14510SOL    HW244972   5.222   1.983  11.637
14511SOL     OW44973   3.992   3.625  12.408
14511SOL    HW144974   3.934   3.595  12.478
14511SOL    HW244975   3.940   3.614  12.328
14512SOL     OW44976   4.661   3.562  12.071
14512SOL    HW144977   4.738   3.510  12.095
14512SOL    HW244978   4.619   3.512  12.001
14513SOL     OW44979   4.125   2.553  11.647
14513SOL    HW144980   4.138   2.459  11.661
14513SOL    HW244981   4.032   2.567  11.662
14514SOL     OW44982   4.378   1.977  11.270
14514SOL    HW144983   4.427   1.898  11.294
14514SOL    HW244984   4.318   1.948  11.201
14515SOL     OW44985   4.541   3.223  12.093
14515SOL    HW144986   4.627   3.236  12.055
14515SOL    HW244987   4.480   3.245  12.023
14516SOL     OW44988   4.662   2.375  12.068
14516SOL    HW144989   4.633   2.365  11.978
14516SOL    HW244990   4.693   2.288  12.093
14517SOL     OW44991   4.279   1.926  11.666
14517SOL    HW144992   4.199   1.925  11.719
14517SOL    HW244993   4.269   2.002  11.609
14518SOL     OW44994   5.143   3.066  11.221
14518SOL    HW144995   5.151   2.997  11.286
14518SOL    HW244996   5.057   3.106  11.239
14519SOL     OW44997   4.008   1.910  11.357
14519SOL    HW144998   4.061   1.975  11.310
14519SOL    HW244999   4.072   1.853  11.398
14520SOL     OW45000   4.669   2.118  11.624
14520SOL    HW145001   4.646   2.153  11.538
14520SOL    HW245002   4.763   2.133  11.632
14521SOL     OW45003   4.955   3.434  11.965
14521SOL    HW145004   4.961   3.496  11.893
14521SOL    HW245005   4.996   3.479  12.039
14522SOL     OW45006   4.195   3.012  11.896
14522SOL    HW145007   4.128   2.994  11.962
14522SOL    HW245008   4.150   3.002  11.812
14523SOL     OW45009   4.985   3.650  11.786
14523SOL    HW145010   5.032   3.712  11.731
14523SOL    HW245011   4.913   3.701  11.824
14524SOL     OW45012   4.745   2.398  11.197
14524SOL    HW145013   4.700   2.480  11.176
14524SOL    HW245014   4.811   2.422  11.263
14525SOL     OW45015   4.291   2.065  12.355
14525SOL    HW145016   4.300   1.976  12.323
14525SOL    HW245017   4.198   2.074  12.376
14526SOL     OW45018   4.592   2.323  11.809
14526SOL    HW145019   4.536   2.378  11.755
14526SOL    HW245020   4.612   2.247  11.755
14527SOL     OW45021   4.745   1.902  11.908
14527SOL    HW145022   4.682   1.899  11.836
14527SOL    HW245023   4.720   1.829  11.965
14528SOL     OW45024   5.164   3.022  12.031
14528SOL    HW145025   5.081   2.979  12.009
14528SOL    HW245026   5.208   3.034  11.947
14529SOL     OW45027   5.190   2.470  12.126
14529SOL    HW145028   5.130   2.395  12.135
14529SOL    HW245029   5.248   2.462  12.202
14530SOL     OW45030   5.558   2.660  11.573
14530SOL    HW145031   5.614   2.610  11.633
14530SOL    HW245032   5.545   2.601  11.499
14531SOL     OW45033   4.212   3.280  11.319
14531SOL    HW145034   4.138   3.252  11.373
14531SOL    HW245035   4.202   3.231  11.237
14532SOL     OW45036   5.392   3.114  11.830
14532SOL    HW145037   5.487   3.112  11.839
14532SOL    HW245038   5.368   3.206  11.844
14533SOL     OW45039   5.125   2.427  11.247
14533SOL    HW145040   5.063   2.404  11.316
14533SOL    HW245041   5.207   2.385  11.273
14534SOL     OW45042   4.252   2.122  11.479
14534SOL    HW145043   4.301   2.079  11.409
14534SOL    HW245044   4.225   2.205  11.441
14535SOL     OW45045   4.834   3.096  12.294
14535SOL    HW145046   4.752   3.117  12.337
14535SOL    HW245047   4.823   3.125  12.203
14536SOL     OW45048   5.347   2.967  12.240
14536SOL    HW145049   5.338   3.024  12.316
14536SOL    HW245050   5.271   2.986  12.186
14537SOL     OW45051   4.437   2.924  11.549
14537SOL    HW145052   4.416   2.903  11.640
14537SOL    HW245053   4.520   2.881  11.533
14538SOL     OW45054   4.155   2.682  12.449
14538SOL    HW145055   4.200   2.729  12.519
14538SOL    HW245056   4.162   2.590  12.475
14539SOL     OW45057   4.971   2.215  12.463
14539SOL    HW145058   4.999   2.306  12.463
14539SOL    HW245059   4.884   2.216  12.422
14540SOL     OW45060   4.060   2.985  11.657
14540SOL    HW145061   4.059   3.061  11.599
14540SOL    HW245062   4.058   2.910  11.598
14541SOL     OW45063   4.267   2.387  12.034
14541SOL    HW145064   4.282   2.446  11.960
14541SOL    HW245065   4.330   2.415  12.101
14542SOL     OW45066   4.967   3.211  11.571
14542SOL    HW145067   5.022   3.286  11.596
14542SOL    HW245068   4.879   3.236  11.599
14543SOL     OW45069   5.012   3.314  12.312
14543SOL    HW145070   5.051   3.328  12.398
14543SOL    HW245071   4.950   3.243  12.325
14544SOL     OW45072   5.295   2.491  11.647
14544SOL    HW145073   5.253   2.530  11.723
14544SOL    HW245074   5.364   2.554  11.624
14545SOL     OW45075   4.139   3.383  12.461
14545SOL    HW145076   4.101   3.336  12.387
14545SOL    HW245077   4.111   3.474  12.449
14546SOL     OW45078   4.302   2.731  12.215
14546SOL    HW145079   4.320   2.825  12.207
14546SOL    HW245080   4.245   2.725  12.292
14547SOL     OW45081   5.050   2.706  12.211
14547SOL    HW145082   4.964   2.690  12.174
14547SOL    HW245083   5.104   2.632  12.183
14548SOL     OW45084   4.933   2.388  11.437
14548SOL    HW145085   4.939   2.309  11.490
14548SOL    HW245086   4.885   2.450  11.492
14549SOL     OW45087   4.027   2.057  12.412
14549SOL    HW145088   3.971   2.097  12.479
14549SOL    HW245089   4.002   1.965  12.412
14550SOL     OW45090   3.805   3.198  12.442
14550SOL    HW145091   3.808   3.126  12.504
14550SOL    HW245092   3.795   3.276  12.496
14551SOL     OW45093   4.438   2.489  12.225
14551SOL    HW145094   4.515   2.485  12.168
14551SOL    HW245095   4.405   2.578  12.214
14552SOL     OW45096   4.036   1.924  11.794
14552SOL    HW145097   4.009   2.013  11.815
14552SOL    HW245098   4.043   1.880  11.879
14553SOL     OW45099   5.344   2.249  11.525
14553SOL    HW145100   5.372   2.184  11.589
14553SOL    HW245101   5.317   2.324  11.577
14554SOL     OW45102   4.761   2.617  12.148
14554SOL    HW145103   4.744   2.628  12.241
14554SOL    HW245104   4.731   2.529  12.128
14555SOL     OW45105   5.248   2.131  11.295
14555SOL    HW145106   5.185   2.067  11.327
14555SOL    HW245107   5.285   2.171  11.374
14556SOL     OW45108   5.039   2.684  11.222
14556SOL    HW145109   5.073   2.594  11.221
14556SOL    HW245110   5.061   2.719  11.136
14557SOL     OW45111   4.814   3.202  12.036
14557SOL    HW145112   4.814   3.133  11.970
14557SOL    HW245113   4.866   3.272  11.998
14558SOL     OW45114   4.031   2.669  12.103
14558SOL    HW145115   4.124   2.690  12.108
14558SOL    HW245116   4.024   2.579  12.135
14559SOL     OW45117   4.032   2.401  12.171
14559SOL    HW145118   4.004   2.310  12.172
14559SOL    HW245119   4.114   2.401  12.122
14560SOL     OW45120   3.735   3.179  11.363
14560SOL    HW145121   3.648   3.196  11.327
14560SOL    HW245122   3.729   3.091  11.401
14561SOL     OW45123   3.816   3.640  12.117
14561SOL    HW145124   3.788   3.562  12.068
14561SOL    HW245125   3.905   3.658  12.085
14562SOL     OW45126   4.216   3.442  12.072
14562SOL    HW145127   4.285   3.503  12.098
14562SOL    HW245128   4.261   3.379  12.015
14563SOL     OW45129   4.692   2.656  12.417
14563SOL    HW145130   4.740   2.718  12.473
14563SOL    HW245131   4.601   2.688  12.421
14564SOL     OW45132   3.775   2.425  12.299
14564SOL    HW145133   3.848   2.414  12.237
14564SOL    HW245134   3.770   2.519  12.314
14565SOL     OW45135   4.547   2.445  11.527
14565SOL    HW145136   4.546   2.366  11.473
14565SOL    HW245137   4.467   2.491  11.502
14566SOL     OW45138   5.377   2.471  12.329
14566SOL    HW145139   5.373   2.414  12.407
14566SOL    HW245140   5.469   2.469  12.303
14567SOL     OW45141   4.455   2.299  12.426
14567SOL    HW145142   4.385   2.236  12.408
14567SOL    HW245143   4.439   2.370  12.364
14568SOL     OW45144   4.651   3.515   0.023
14568SOL    HW145145   4.650   3.586  -0.040
14568SOL    HW245146   4.632   3.557   0.107
14569SOL     OW45147   4.188   2.355  11.356
14569SOL    HW145148   4.244   2.429  11.381
14569SOL    HW245149   4.101   2.393  11.344
14570SOL     OW45150   5.051   2.936  12.368
14570SOL    HW145151   5.058   2.865  12.304
14570SOL    HW245152   4.978   2.989  12.337
14571SOL     OW45153   5.472   3.606  12.296
14571SOL    HW145154   5.547   3.630  12.241
14571SOL    HW245155   5.468   3.511  12.292
14572SOL     OW45156   4.967   3.583  12.248
14572SOL    HW145157   5.054   3.614  12.221
14572SOL    HW245158   4.982   3.494  12.278
14573SOL     OW45159   3.813   3.133  12.182
14573SOL    HW145160   3.813   3.160  12.274
14573SOL    HW245161   3.734   3.080  12.173
14574SOL     OW45162   5.438   2.022  11.670
14574SOL    HW145163   5.511   2.005  11.610
14574SOL    HW245164   5.425   1.939  11.716
14575SOL     OW45165   5.117   3.429  11.663
14575SOL    HW145166   5.174   3.464  11.594
14575SOL    HW245167   5.064   3.504  11.689
14576SOL     OW45168   5.000   2.785  11.828
14576SOL    HW145169   5.076   2.730  11.845
14576SOL    HW245170   5.034   2.855  11.772
14577SOL     OW45171   4.398   3.480  11.325
14577SOL    HW145172   4.408   3.502  11.233
14577SOL    HW245173   4.338   3.406  11.326
14578SOL     OW45174   5.353   3.642   0.043
14578SOL    HW145175   5.402   3.635  -0.039
14578SOL    HW245176   5.371   3.731   0.074
14579SOL     OW45177   5.565   2.028  12.136
14579SOL    HW145178   5.596   1.940  12.115
14579SOL    HW245179   5.478   2.033  12.097
14580SOL     OW45180   3.978   2.174  11.883
14580SOL    HW145181   3.892   2.210  11.861
14580SOL    HW245182   3.980   2.171  11.978
14581SOL     OW45183   4.941   3.483  11.196
14581SOL    HW145184   4.888   3.405  11.179
14581SOL    HW245185   4.923   3.540  11.121
14582SOL     OW45186   4.521   2.893  12.478
14582SOL    HW145187   4.516   2.932  12.391
14582SOL    HW245188   4.559   2.961  12.534
14583SOL     OW45189   4.666   2.795  11.484
14583SOL    HW145190   4.696   2.805  11.394
14583SOL    HW245191   4.680   2.702  11.504
14584SOL     OW45192   5.221   3.474  11.223
14584SOL    HW145193   5.126   3.481  11.211
14584SOL    HW245194   5.257   3.488  11.135
14585SOL     OW45195   4.796   2.972  11.889
14585SOL    HW145196   4.718   2.930  11.925
14585SOL    HW245197   4.849   2.900  11.856
14586SOL     OW45198   4.763   2.105  12.105
14586SOL    HW145199   4.755   2.044  12.032
14586SOL    HW245200   4.757   2.049  12.183
14587SOL     OW45201   4.325   3.356  11.649
14587SOL    HW145202   4.373   3.306  11.584
14587SOL    HW245203   4.263   3.408  11.599
14588SOL     OW45204   5.489   2.289   0.024
14588SOL    HW145205   5.549   2.278   0.097
14588SOL    HW245206   5.489   2.204  -0.020
14589SOL     OW45207   3.990   3.199  11.474
14589SOL    HW145208   3.899   3.201  11.443
14589SOL    HW245209   3.986   3.243  11.559
14590SOL     OW45210   3.804   2.190  11.196
14590SOL    HW145211   3.724   2.171  11.146
14590SOL    HW245212   3.839   2.269  11.156
14591SOL     OW45213   3.780   2.016  11.468
14591SOL    HW145214   3.767   2.093  11.413
14591SOL    HW245215   3.866   1.982  11.443
14592SOL     OW45216   4.894   3.175  11.287
14592SOL    HW145217   4.800   3.185  11.277
14592SOL    HW245218   4.912   3.203  11.377
14593SOL     OW45219   5.220   3.641  12.152
14593SOL    HW145220   5.233   3.716  12.094
14593SOL    HW245221   5.301   3.636  12.202
14594SOL     OW45222   5.421   2.745  12.408
14594SOL    HW145223   5.396   2.659  12.374
14594SOL    HW245224   5.394   2.806  12.340
14595SOL     OW45225   4.944   2.183  11.631
14595SOL    HW145226   5.004   2.108  11.628
14595SOL    HW245227   4.972   2.233  11.707
14596SOL     OW45228   4.318   2.588  11.846
14596SOL    HW145229   4.353   2.677  11.835
14596SOL    HW245230   4.250   2.581  11.778
14597SOL     OW45231   5.390   2.836   0.163
14597SOL    HW145232   5.476   2.862   0.195
14597SOL    HW245233   5.407   2.799   0.076
14598SOL     OW45234   4.619   3.230  11.231
14598SOL    HW145235   4.561   3.264  11.299
14598SOL    HW245236   4.622   3.299  11.165
14599SOL     OW45237   4.385   3.655  12.116
14599SOL    HW145238   4.365   3.744  12.090
14599SOL    HW245239   4.480   3.648  12.107
14600SOL     OW45240   4.598   2.837  12.031
14600SOL    HW145241   4.644   2.764  12.073
14600SOL    HW245242   4.558   2.885  12.104
14601SOL     OW45243   4.818   2.846  11.261
14601SOL    HW145244   4.776   2.912  11.206
14601SOL    HW245245   4.864   2.788  11.200
14602SOL     OW45246   5.562   3.407  12.019
14602SOL    HW145247   5.484   3.406  11.965
14602SOL    HW245248   5.533   3.373  12.104
14603SOL     OW45249   3.808   3.076  11.842
14603SOL    HW145250   3.842   3.043  11.925
14603SOL    HW245251   3.876   3.056  11.778
14604SOL     OW45252   5.534   2.050  12.406
14604SOL    HW145253   5.555   1.961  12.434
14604SOL    HW245254   5.541   2.048  12.311
14605SOL     OW45255   4.156   2.291  11.700
14605SOL    HW145256   4.180   2.220  11.640
14605SOL    HW245257   4.101   2.249  11.766
14606SOL     OW45258   5.441   3.334  12.265
14606SOL    HW145259   5.355   3.318  12.228
14606SOL    HW245260   5.437   3.297  12.353
14607SOL     OW45261   4.558   3.446  11.844
14607SOL    HW145262   4.545   3.521  11.785
14607SOL    HW245263   4.478   3.394  11.834
14608SOL     OW45264   5.158   2.093  12.289
14608SOL    HW145265   5.199   2.013  12.322
14608SOL    HW245266   5.105   2.124  12.363
14609SOL     OW45267   4.724   1.827  12.344
14609SOL    HW145268   4.679   1.796  12.265
14609SOL    HW245269   4.815   1.804  12.329
14610SOL     OW45270   4.492   3.195  11.498
14610SOL    HW145271   4.467   3.104  11.509
14610SOL    HW245272   4.575   3.204  11.545
14611SOL     OW45273   5.086   1.910  11.353
14611SOL    HW145274   5.114   1.852  11.283
14611SOL    HW245275   5.000   1.878  11.379
14612SOL     OW45276   5.028   2.327  11.852
14612SOL    HW145277   4.972   2.405  11.851
14612SOL    HW245278   5.018   2.292  11.940
14613SOL     OW45279   5.307   2.056  12.051
14613SOL    HW145280   5.251   2.080  12.125
14613SOL    HW245281   5.306   2.132  11.993
14614SOL     OW45282   3.763   2.929  11.482
14614SOL    HW145283   3.858   2.927  11.466
14614SOL    HW245284   3.740   2.838  11.499
14615SOL     OW45285   4.611   3.522  11.506
14615SOL    HW145286   4.538   3.509  11.446
14615SOL    HW245287   4.583   3.596  11.561
14616SOL     OW45288   3.955   4.280   0.043
14616SOL    HW145289   3.930   4.343   0.112
14616SOL    HW245290   3.967   4.334  -0.035
14617SOL     OW45291   3.952   3.998   0.988
14617SOL    HW145292   3.977   3.970   1.076
14617SOL    HW245293   3.861   3.970   0.979
14618SOL     OW45294   3.717   4.112   0.637
14618SOL    HW145295   3.644   4.148   0.687
14618SOL    HW245296   3.685   4.027   0.604
14619SOL     OW45297   4.301   5.020   1.191
14619SOL    HW145298   4.208   5.008   1.170
14619SOL    HW245299   4.308   5.111   1.219
14620SOL     OW45300   5.292   5.239   0.712
14620SOL    HW145301   5.248   5.218   0.794
14620SOL    HW245302   5.222   5.243   0.647
14621SOL     OW45303   4.862   4.417   0.693
14621SOL    HW145304   4.904   4.503   0.682
14621SOL    HW245305   4.812   4.425   0.774
14622SOL     OW45306   5.493   4.316   0.254
14622SOL    HW145307   5.445   4.347   0.177
14622SOL    HW245308   5.434   4.253   0.296
14623SOL     OW45309   4.476   4.864   1.050
14623SOL    HW145310   4.409   4.898   1.109
14623SOL    HW245311   4.513   4.942   1.009
14624SOL     OW45312   4.600   4.480   1.828
14624SOL    HW145313   4.579   4.546   1.894
14624SOL    HW245314   4.621   4.530   1.749
14625SOL     OW45315   4.408   4.719   0.645
14625SOL    HW145316   4.474   4.714   0.714
14625SOL    HW245317   4.338   4.773   0.682
14626SOL     OW45318   4.443   4.880   1.818
14626SOL    HW145319   4.484   4.960   1.852
14626SOL    HW245320   4.360   4.910   1.781
14627SOL     OW45321   4.050   5.145   1.066
14627SOL    HW145322   3.977   5.103   1.020
14627SOL    HW245323   4.097   5.192   0.997
14628SOL     OW45324   5.203   5.226   1.423
14628SOL    HW145325   5.213   5.310   1.379
14628SOL    HW245326   5.111   5.223   1.447
14629SOL     OW45327   4.180   4.107   1.465
14629SOL    HW145328   4.251   4.044   1.483
14629SOL    HW245329   4.101   4.060   1.492
14630SOL     OW45330   5.321   4.167   0.752
14630SOL    HW145331   5.249   4.180   0.690
14630SOL    HW245332   5.300   4.224   0.825
14631SOL     OW45333   3.934   5.450   0.467
14631SOL    HW145334   3.960   5.521   0.526
14631SOL    HW245335   4.012   5.434   0.413
14632SOL     OW45336   4.865   5.060   1.694
14632SOL    HW145337   4.896   5.063   1.784
14632SOL    HW245338   4.808   4.983   1.690
14633SOL     OW45339   3.953   5.176   0.546
14633SOL    HW145340   3.922   5.266   0.553
14633SOL    HW245341   3.898   5.128   0.609
14634SOL     OW45342   3.999   4.815   0.909
14634SOL    HW145343   3.988   4.732   0.956
14634SOL    HW245344   3.941   4.876   0.954
14635SOL     OW45345   4.325   5.514   1.427
14635SOL    HW145346   4.245   5.491   1.475
14635SOL    HW245347   4.348   5.602   1.458
14636SOL     OW45348   4.304   4.685   0.145
14636SOL    HW145349   4.371   4.704   0.079
14636SOL    HW245350   4.333   4.732   0.223
14637SOL     OW45351   5.310   3.857   1.459
14637SOL    HW145352   5.336   3.941   1.421
14637SOL    HW245353   5.295   3.876   1.551
14638SOL     OW45354   3.843   4.373   0.562
14638SOL    HW145355   3.810   4.287   0.587
14638SOL    HW245356   3.837   4.425   0.642
14639SOL     OW45357   5.575   5.455   0.317
14639SOL    HW145358   5.641   5.441   0.384
14639SOL    HW245359   5.581   5.549   0.298
14640SOL     OW45360   3.752   5.258   0.128
14640SOL    HW145361   3.667   5.216   0.128
14640SOL    HW245362   3.742   5.333   0.187
14641SOL     OW45363   5.412   4.654   0.641
14641SOL    HW145364   5.467   4.610   0.576
14641SOL    HW245365   5.371   4.726   0.593
14642SOL     OW45366   5.369   4.848   0.431
14642SOL    HW145367   5.456   4.846   0.393
14642SOL    HW245368   5.376   4.909   0.505
14643SOL     OW45369   3.856   4.476   1.582
14643SOL    HW145370   3.945   4.509   1.584
14643SOL    HW245371   3.801   4.555   1.577
14644SOL     OW45372   4.346   5.113   0.735
14644SOL    HW145373   4.299   5.030   0.748
14644SOL    HW245374   4.327   5.137   0.645
14645SOL     OW45375   5.023   4.968   1.403
14645SOL    HW145376   5.047   4.889   1.354
14645SOL    HW245377   5.068   4.959   1.487
14646SOL     OW45378   4.545   3.725   0.519
14646SOL    HW145379   4.585   3.809   0.495
14646SOL    HW245380   4.452   3.744   0.525
14647SOL     OW45381   3.920   4.685   1.166
14647SOL    HW145382   3.996   4.636   1.200
14647SOL    HW245383   3.884   4.730   1.243
14648SOL     OW45384   5.240   4.727   0.224
14648SOL    HW145385   5.171   4.671   0.259
14648SOL    HW245386   5.279   4.769   0.300
14649SOL     OW45387   4.999   5.542   1.579
14649SOL    HW145388   4.944   5.614   1.548
14649SOL    HW245389   4.938   5.469   1.591
14650SOL     OW45390   4.069   3.972   1.833
14650SOL    HW145391   4.103   4.061   1.835
14650SOL    HW245392   3.976   3.981   1.850
14651SOL     OW45393   5.196   5.137   0.953
14651SOL    HW145394   5.132   5.155   1.021
14651SOL    HW245395   5.175   5.049   0.922
14652SOL     OW45396   5.377   5.479   0.574
14652SOL    HW145397   5.357   5.441   0.488
14652SOL    HW245398   5.354   5.410   0.637
14653SOL     OW45399   4.302   4.434   0.275
14653SOL    HW145400   4.308   4.521   0.235
14653SOL    HW245401   4.239   4.445   0.347
14654SOL     OW45402   5.007   4.091   0.934
14654SOL    HW145403   4.916   4.062   0.942
14654SOL    HW245404   5.056   4.035   0.994
14655SOL     OW45405   5.306   5.393   0.315
14655SOL    HW145406   5.399   5.413   0.303
14655SOL    HW245407   5.272   5.382   0.226
14656SOL     OW45408   4.526   4.338   1.445
14656SOL    HW145409   4.498   4.314   1.533
14656SOL    HW245410   4.488   4.271   1.388
14657SOL     OW45411   5.121   4.197   1.681
14657SOL    HW145412   5.121   4.241   1.766
14657SOL    HW245413   5.172   4.118   1.694
14658SOL     OW45414   4.673   4.610   1.588
14658SOL    HW145415   4.728   4.542   1.549
14658SOL    HW245416   4.626   4.648   1.514
14659SOL     OW45417   4.724   4.132   1.230
14659SOL    HW145418   4.637   4.154   1.266
14659SOL    HW245419   4.705   4.087   1.148
14660SOL     OW45420   4.779   4.423   0.425
14660SOL    HW145421   4.796   4.417   0.519
14660SOL    HW245422   4.693   4.384   0.413
14661SOL     OW45423   3.819   4.549   0.771
14661SOL    HW145424   3.901   4.537   0.819
14661SOL    HW245425   3.776   4.622   0.815
14662SOL     OW45426   3.840   5.574   1.574
14662SOL    HW145427   3.848   5.561   1.669
14662SOL    HW245428   3.753   5.542   1.553
14663SOL     OW45429   4.618   4.081   0.215
14663SOL    HW145430   4.647   4.150   0.156
14663SOL    HW245431   4.593   4.008   0.158
14664SOL     OW45432   5.436   4.292   1.828
14664SOL    HW145433   5.396   4.365   1.781
14664SOL    HW245434   5.456   4.227   1.759
14665SOL     OW45435   5.106   4.870   0.543
14665SOL    HW145436   5.184   4.868   0.487
14665SOL    HW245437   5.046   4.929   0.499
14666SOL     OW45438   4.283   3.902   0.905
14666SOL    HW145439   4.282   3.926   0.998
14666SOL    HW245440   4.273   3.985   0.859
14667SOL     OW45441   4.721   5.161   0.474
14667SOL    HW145442   4.682   5.236   0.429
14667SOL    HW245443   4.698   5.173   0.566
14668SOL     OW45444   4.076   5.536   0.869
14668SOL    HW145445   4.118   5.451   0.875
14668SOL    HW245446   4.144   5.598   0.896
14669SOL     OW45447   5.515   4.747   0.883
14669SOL    HW145448   5.468   4.741   0.800
14669SOL    HW245449   5.452   4.783   0.944
14670SOL     OW45450   4.946   5.244   1.497
14670SOL    HW145451   4.924   5.181   1.567
14670SOL    HW245452   4.861   5.280   1.471
14671SOL     OW45453   4.040   4.707   0.260
14671SOL    HW145454   4.117   4.719   0.205
14671SOL    HW245455   3.993   4.634   0.220
14672SOL     OW45456   5.206   4.473   0.718
14672SOL    HW145457   5.197   4.430   0.803
14672SOL    HW245458   5.282   4.530   0.727
14673SOL     OW45459   4.199   4.985   1.726
14673SOL    HW145460   4.170   4.982   1.635
14673SOL    HW245461   4.118   4.984   1.777
14674SOL     OW45462   4.804   5.504   0.230
14674SOL    HW145463   4.771   5.449   0.301
14674SOL    HW245464   4.867   5.448   0.185
14675SOL     OW45465   3.924   4.001   1.508
14675SOL    HW145466   3.840   4.047   1.503
14675SOL    HW245467   3.902   3.916   1.545
14676SOL     OW45468   5.379   5.143   0.054
14676SOL    HW145469   5.319   5.218   0.053
14676SOL    HW245470   5.323   5.067   0.066
14677SOL     OW45471   4.173   5.466   0.321
14677SOL    HW145472   4.224   5.514   0.387
14677SOL    HW245473   4.240   5.419   0.270
14678SOL     OW45474   5.129   3.826   0.445
14678SOL    HW145475   5.126   3.790   0.356
14678SOL    HW245476   5.222   3.829   0.466
14679SOL     OW45477   3.976   5.516   1.229
14679SOL    HW145478   4.023   5.456   1.286
14679SOL    HW245479   3.981   5.475   1.142
14680SOL     OW45480   4.658   5.428   0.893
14680SOL    HW145481   4.717   5.368   0.939
14680SOL    HW245482   4.622   5.375   0.822
14681SOL     OW45483   4.116   4.414   0.481
14681SOL    HW145484   4.134   4.321   0.492
14681SOL    HW245485   4.026   4.425   0.510
14682SOL     OW45486   5.252   3.947   1.725
14682SOL    HW145487   5.265   3.967   1.818
14682SOL    HW245488   5.183   3.880   1.725
14683SOL     OW45489   4.360   3.842   0.115
14683SOL    HW145490   4.454   3.820   0.114
14683SOL    HW245491   4.346   3.889   0.033
14684SOL     OW45492   4.481   3.997   1.757
14684SOL    HW145493   4.562   3.947   1.755
14684SOL    HW245494   4.441   3.974   1.841
14685SOL     OW45495   4.604   5.251   1.190
14685SOL    HW145496   4.578   5.208   1.108
14685SOL    HW245497   4.663   5.189   1.231
14686SOL     OW45498   5.066   4.309   1.435
14686SOL    HW145499   5.095   4.279   1.521
14686SOL    HW245500   5.096   4.400   1.430
14687SOL     OW45501   4.547   5.115   0.948
14687SOL    HW145502   4.630   5.104   0.902
14687SOL    HW245503   4.481   5.118   0.878
14688SOL     OW45504   4.662   4.237   0.895
14688SOL    HW145505   4.634   4.226   0.805
14688SOL    HW245506   4.684   4.149   0.925
14689SOL     OW45507   4.277   3.779   0.504
14689SOL    HW145508   4.200   3.782   0.560
14689SOL    HW245509   4.270   3.857   0.449
14690SOL     OW45510   5.188   4.950   0.069
14690SOL    HW145511   5.205   4.865   0.110
14690SOL    HW245512   5.093   4.961   0.073
14691SOL     OW45513   4.030   3.795   0.198
14691SOL    HW145514   4.104   3.856   0.205
14691SOL    HW245515   4.065   3.712   0.232
14692SOL     OW45516   4.667   3.968   0.461
14692SOL    HW145517   4.642   4.008   0.378
14692SOL    HW245518   4.761   3.986   0.468
14693SOL     OW45519   4.803   4.411   1.453
14693SOL    HW145520   4.728   4.352   1.462
14693SOL    HW245521   4.879   4.353   1.456
14694SOL     OW45522   4.960   5.288   0.787
14694SOL    HW145523   4.962   5.357   0.720
14694SOL    HW245524   5.004   5.327   0.863
14695SOL     OW45525   4.199   4.877   0.733
14695SOL    HW145526   4.135   4.854   0.800
14695SOL    HW245527   4.152   4.867   0.651
14696SOL     OW45528   4.982   5.513   0.607
14696SOL    HW145529   5.027   5.579   0.554
14696SOL    HW245530   4.911   5.562   0.650
14697SOL     OW45531   4.749   4.273   0.061
14697SOL    HW145532   4.728   4.355   0.018
14697SOL    HW245533   4.811   4.297   0.130
14698SOL     OW45534   3.812   4.286   1.390
14698SOL    HW145535   3.905   4.287   1.365
14698SOL    HW245536   3.805   4.356   1.456
14699SOL     OW45537   4.284   3.949   1.178
14699SOL    HW145538   4.321   3.886   1.239
14699SOL    HW245539   4.191   3.952   1.201
14700SOL     OW45540   4.595   4.184   0.637
14700SOL    HW145541   4.542   4.242   0.581
14700SOL    HW245542   4.608   4.105   0.585
14701SOL     OW45543   4.755   3.770   0.738
14701SOL    HW145544   4.686   3.773   0.672
14701SOL    HW245545   4.726   3.703   0.799
14702SOL     OW45546   5.154   4.881   0.855
14702SOL    HW145547   5.081   4.821   0.866
14702SOL    HW245548   5.163   4.891   0.760
14703SOL     OW45549   5.191   4.321   0.958
14703SOL    HW145550   5.126   4.252   0.969
14703SOL    HW245551   5.242   4.319   1.039
14704SOL     OW45552   5.560   4.542   0.435
14704SOL    HW145553   5.601   4.469   0.482
14704SOL    HW245554   5.523   4.502   0.356
14705SOL     OW45555   4.213   5.129   0.173
14705SOL    HW145556   4.153   5.079   0.228
14705SOL    HW245557   4.156   5.167   0.105
14706SOL     OW45558   5.403   4.990   0.653
14706SOL    HW145559   5.498   4.997   0.664
14706SOL    HW245560   5.370   5.078   0.675
14707SOL     OW45561   5.134   4.273   0.090
14707SOL    HW145562   5.071   4.273   0.163
14707SOL    HW245563   5.176   4.187   0.094
14708SOL     OW45564   4.244   3.974   0.320
14708SOL    HW145565   4.297   3.929   0.254
14708SOL    HW245566   4.225   4.060   0.281
14709SOL     OW45567   5.475   4.960   1.560
14709SOL    HW145568   5.562   4.919   1.563
14709SOL    HW245569   5.487   5.045   1.602
14710SOL     OW45570   4.765   5.061   1.318
14710SOL    HW145571   4.690   5.037   1.372
14710SOL    HW245572   4.841   5.039   1.371
14711SOL     OW45573   4.868   4.939   1.095
14711SOL    HW145574   4.809   4.968   1.165
14711SOL    HW245575   4.826   4.969   1.014
14712SOL     OW45576   5.343   4.831   1.076
14712SOL    HW145577   5.337   4.892   1.149
14712SOL    HW245578   5.263   4.847   1.025
14713SOL     OW45579   4.648   3.811   1.393
14713SOL    HW145580   4.671   3.801   1.301
14713SOL    HW245581   4.724   3.854   1.433
14714SOL     OW45582   4.706   4.840   1.724
14714SOL    HW145583   4.617   4.858   1.753
14714SOL    HW245584   4.699   4.759   1.673
14715SOL     OW45585   4.433   4.788   0.371
14715SOL    HW145586   4.415   4.767   0.463
14715SOL    HW245587   4.511   4.737   0.350
14716SOL     OW45588   4.152   4.540   1.245
14716SOL    HW145589   4.211   4.556   1.318
14716SOL    HW245590   4.111   4.456   1.265
14717SOL     OW45591   4.991   4.102   1.275
14717SOL    HW145592   5.021   4.178   1.326
14717SOL    HW245593   4.898   4.121   1.257
14718SOL     OW45594   3.805   5.309   1.366
14718SOL    HW145595   3.796   5.391   1.317
14718SOL    HW245596   3.899   5.289   1.362
14719SOL     OW45597   4.066   4.849   0.496
14719SOL    HW145598   4.052   4.925   0.439
14719SOL    HW245599   4.068   4.774   0.437
14720SOL     OW45600   4.271   4.244   0.854
14720SOL    HW145601   4.284   4.305   0.781
14720SOL    HW245602   4.332   4.273   0.922
14721SOL     OW45603   4.968   5.071   0.395
14721SOL    HW145604   5.023   5.144   0.426
14721SOL    HW245605   4.880   5.092   0.426
14722SOL     OW45606   5.019   5.172   1.161
14722SOL    HW145607   5.036   5.157   1.254
14722SOL    HW245608   4.956   5.105   1.137
14723SOL     OW45609   5.285   4.342   0.486
14723SOL    HW145610   5.247   4.377   0.566
14723SOL    HW245611   5.277   4.413   0.423
14724SOL     OW45612   4.066   5.254   1.310
14724SOL    HW145613   4.056   5.209   1.226
14724SOL    HW245614   4.160   5.262   1.322
14725SOL     OW45615   4.145   4.472   1.605
14725SOL    HW145616   4.209   4.512   1.547
14725SOL    HW245617   4.178   4.383   1.619
14726SOL     OW45618   5.340   4.503   1.686
14726SOL    HW145619   5.253   4.543   1.684
14726SOL    HW245620   5.388   4.548   1.617
14727SOL     OW45621   4.718   3.861   1.747
14727SOL    HW145622   4.778   3.934   1.731
14727SOL    HW245623   4.771   3.783   1.732
14728SOL     OW45624   4.224   3.760   1.760
14728SOL    HW145625   4.176   3.708   1.695
14728SOL    HW245626   4.170   3.839   1.772
14729SOL     OW45627   4.313   4.595   1.032
14729SOL    HW145628   4.333   4.689   1.033
14729SOL    HW245629   4.254   4.582   1.107
14730SOL     OW45630   5.062   4.575   1.012
14730SOL    HW145631   4.971   4.559   0.987
14730SOL    HW245632   5.104   4.490   1.005
14731SOL     OW45633   4.936   4.252   0.280
14731SOL    HW145634   4.945   4.177   0.339
14731SOL    HW245635   4.889   4.318   0.332
14732SOL     OW45636   4.022   3.927   1.245
14732SOL    HW145637   3.975   3.957   1.323
14732SOL    HW245638   4.008   3.832   1.245
14733SOL     OW45639   3.746   5.069   1.242
14733SOL    HW145640   3.771   4.993   1.295
14733SOL    HW245641   3.764   5.144   1.299
14734SOL     OW45642   4.438   4.349   1.045
14734SOL    HW145643   4.518   4.346   0.992
14734SOL    HW245644   4.406   4.439   1.035
14735SOL     OW45645   5.462   4.691   1.855
14735SOL    HW145646   5.419   4.617   1.812
14735SOL    HW245647   5.406   4.710   1.930
14736SOL     OW45648   4.030   3.787   0.624
14736SOL    HW145649   4.005   3.877   0.645
14736SOL    HW245650   4.038   3.744   0.708
14737SOL     OW45651   5.344   4.101   0.365
14737SOL    HW145652   5.371   4.033   0.427
14737SOL    HW245653   5.312   4.173   0.421
14738SOL     OW45654   4.766   4.480   0.960
14738SOL    HW145655   4.748   4.498   1.052
14738SOL    HW245656   4.733   4.391   0.946
14739SOL     OW45657   4.741   5.317   1.711
14739SOL    HW145658   4.703   5.346   1.628
14739SOL    HW245659   4.735   5.222   1.708
14740SOL     OW45660   5.543   5.244   1.605
14740SOL    HW145661   5.580   5.262   1.519
14740SOL    HW245662   5.616   5.253   1.666
14741SOL     OW45663   4.073   4.621   1.825
14741SOL    HW145664   4.157   4.649   1.861
14741SOL    HW245665   4.096   4.568   1.748
14742SOL     OW45666   5.240   3.995   0.133
14742SOL    HW145667   5.180   3.925   0.159
14742SOL    HW245668   5.277   4.026   0.215
14743SOL     OW45669   5.024   4.534   0.053
14743SOL    HW145670   5.076   4.455   0.040
14743SOL    HW245671   5.055   4.595  -0.013
14744SOL     OW45672   4.796   5.069   0.852
14744SOL    HW145673   4.802   4.995   0.791
14744SOL    HW245674   4.857   5.134   0.816
14745SOL     OW45675   4.048   4.517   0.918
14745SOL    HW145676   4.139   4.543   0.930
14745SOL    HW245677   4.035   4.446   0.981
14746SOL     OW45678   4.054   4.244   1.021
14746SOL    HW145679   4.016   4.157   1.006
14746SOL    HW245680   4.126   4.250   0.958
14747SOL     OW45681   4.861   4.098   1.683
14747SOL    HW145682   4.811   4.149   1.746
14747SOL    HW245683   4.948   4.137   1.683
14748SOL     OW45684   4.888   3.924   1.468
14748SOL    HW145685   4.875   3.984   1.541
14748SOL    HW245686   4.929   3.977   1.400
14749SOL     OW45687   3.809   5.506   0.934
14749SOL    HW145688   3.782   5.425   0.892
14749SOL    HW245689   3.901   5.517   0.908
14750SOL     OW45690   4.212   5.298   0.898
14750SOL    HW145691   4.281   5.359   0.922
14750SOL    HW245692   4.257   5.232   0.844
14751SOL     OW45693   4.697   4.508   1.219
14751SOL    HW145694   4.753   4.487   1.293
14751SOL    HW245695   4.609   4.483   1.248
14752SOL     OW45696   3.766   4.274   1.115
14752SOL    HW145697   3.852   4.275   1.072
14752SOL    HW245698   3.787   4.280   1.209
14753SOL     OW45699   3.913   4.249   1.727
14753SOL    HW145700   3.941   4.196   1.652
14753SOL    HW245701   3.882   4.331   1.688
14754SOL     OW45702   5.111   4.652   1.658
14754SOL    HW145703   5.123   4.747   1.656
14754SOL    HW245704   5.102   4.628   1.566
14755SOL     OW45705   4.538   4.307   0.369
14755SOL    HW145706   4.540   4.228   0.315
14755SOL    HW245707   4.459   4.353   0.341
14756SOL     OW45708   5.362   4.332   1.173
14756SOL    HW145709   5.353   4.274   1.249
14756SOL    HW245710   5.452   4.317   1.143
14757SOL     OW45711   3.965   5.269   1.723
14757SOL    HW145712   3.946   5.327   1.796
14757SOL    HW245713   3.970   5.181   1.762
14758SOL     OW45714   4.446   4.168   1.248
14758SOL    HW145715   4.382   4.098   1.232
14758SOL    HW245716   4.430   4.231   1.178
14759SOL     OW45717   4.675   5.398   1.453
14759SOL    HW145718   4.632   5.360   1.377
14759SOL    HW245719   4.656   5.492   1.448
14760SOL     OW45720   4.189   4.198   0.184
14760SOL    HW145721   4.231   4.279   0.212
14760SOL    HW245722   4.108   4.226   0.141
14761SOL     OW45723   5.051   4.765   1.209
14761SOL    HW145724   5.061   4.699   1.140
14761SOL    HW245725   4.985   4.825   1.174
14762SOL     OW45726   5.039   4.565   0.326
14762SOL    HW145727   4.959   4.543   0.372
14762SOL    HW245728   5.021   4.546   0.234
14763SOL     OW45729   5.481   5.452   1.162
14763SOL    HW145730   5.542   5.490   1.100
14763SOL    HW245731   5.469   5.362   1.132
14764SOL     OW45732   4.965   5.445   1.091
14764SOL    HW145733   5.052   5.473   1.060
14764SOL    HW245734   4.979   5.357   1.127
14765SOL     OW45735   3.805   5.010   0.986
14765SOL    HW145736   3.787   5.024   1.079
14765SOL    HW245737   3.750   4.935   0.962
14766SOL     OW45738   4.399   5.400   1.728
14766SOL    HW145739   4.338   5.472   1.737
14766SOL    HW245740   4.465   5.431   1.667
14767SOL     OW45741   4.632   3.807   0.098
14767SOL    HW145742   4.674   3.832   0.015
14767SOL    HW245743   4.705   3.793   0.158
14768SOL     OW45744   5.445   3.877   0.505
14768SOL    HW145745   5.515   3.855   0.443
14768SOL    HW245746   5.425   3.795   0.550
14769SOL     OW45747   5.116   5.291   0.493
14769SOL    HW145748   5.174   5.326   0.425
14769SOL    HW245749   5.065   5.366   0.522
14770SOL     OW45750   3.855   5.523   1.836
14770SOL    HW145751   3.812   5.457   1.889
14770SOL    HW245752   3.920   5.562   1.895
14771SOL     OW45753   4.999   4.650   0.663
14771SOL    HW145754   5.074   4.591   0.675
14771SOL    HW245755   5.035   4.724   0.612
14772SOL     OW45756   4.515   5.003   1.422
14772SOL    HW145757   4.491   5.046   1.504
14772SOL    HW245758   4.439   5.013   1.365
14773SOL     OW45759   4.379   5.343   0.185
14773SOL    HW145760   4.450   5.340   0.121
14773SOL    HW245761   4.337   5.258   0.179
14774SOL     OW45762   5.368   5.458   1.429
14774SOL    HW145763   5.406   5.458   1.340
14774SOL    HW245764   5.346   5.550   1.445
14775SOL     OW45765   5.564   3.890   0.961
14775SOL    HW145766   5.594   3.802   0.939
14775SOL    HW245767   5.475   3.895   0.928
14776SOL     OW45768   3.976   4.037   0.713
14776SOL    HW145769   3.889   4.074   0.693
14776SOL    HW245770   3.978   4.030   0.808
14777SOL     OW45771   4.939   5.329   0.073
14777SOL    HW145772   4.915   5.238   0.060
14777SOL    HW245773   4.945   5.365  -0.016
14778SOL     OW45774   4.550   4.735   1.376
14778SOL    HW145775   4.577   4.737   1.285
14778SOL    HW245776   4.538   4.827   1.400
14779SOL     OW45777   4.653   4.649   0.301
14779SOL    HW145778   4.707   4.669   0.225
14779SOL    HW245779   4.696   4.575   0.343
14780SOL     OW45780   5.211   5.355   0.049
14780SOL    HW145781   5.122   5.341   0.082
14780SOL    HW245782   5.198   5.394  -0.038
14781SOL     OW45783   4.096   5.007   1.477
14781SOL    HW145784   4.065   5.089   1.439
14781SOL    HW245785   4.023   4.946   1.466
14782SOL     OW45786   5.343   5.019   1.288
14782SOL    HW145787   5.398   4.989   1.360
14782SOL    HW245788   5.279   5.077   1.328
14783SOL     OW45789   4.792   4.836   0.715
14783SOL    HW145790   4.716   4.790   0.752
14783SOL    HW245791   4.851   4.766   0.687
14784SOL     OW45792   4.754   3.968   0.960
14784SOL    HW145793   4.751   3.919   0.878
14784SOL    HW245794   4.746   3.901   1.028
14785SOL     OW45795   4.327   5.203   0.477
14785SOL    HW145796   4.368   5.155   0.405
14785SOL    HW245797   4.241   5.229   0.443
14786SOL     OW45798   5.447   4.128   1.371
14786SOL    HW145799   5.522   4.187   1.375
14786SOL    HW245800   5.477   4.053   1.319
14787SOL     OW45801   3.994   5.049   0.317
14787SOL    HW145802   3.909   5.049   0.273
14787SOL    HW245803   3.980   5.100   0.397
14788SOL     OW45804   3.841   4.784   1.814
14788SOL    HW145805   3.758   4.741   1.834
14788SOL    HW245806   3.906   4.714   1.818
14789SOL     OW45807   4.403   3.911   1.498
14789SOL    HW145808   4.489   3.890   1.463
14789SOL    HW245809   4.420   3.944   1.586
14790SOL     OW45810   5.148   4.582   1.395
14790SOL    HW145811   5.098   4.641   1.339
14790SOL    HW245812   5.237   4.586   1.360
14791SOL     OW45813   3.787   3.867   0.308
14791SOL    HW145814   3.790   3.963   0.314
14791SOL    HW245815   3.873   3.843   0.272
14792SOL     OW45816   4.915   5.048   0.111
14792SOL    HW145817   4.820   5.049   0.100
14792SOL    HW245818   4.929   5.049   0.206
14793SOL     OW45819   4.349   4.552   1.435
14793SOL    HW145820   4.405   4.629   1.426
14793SOL    HW245821   4.410   4.479   1.444
14794SOL     OW45822   5.216   5.511   0.987
14794SOL    HW145823   5.229   5.580   0.922
14794SOL    HW245824   5.300   5.503   1.032
14795SOL     OW45825   4.449   4.278   1.694
14795SOL    HW145826   4.488   4.337   1.760
14795SOL    HW245827   4.459   4.191   1.732
14796SOL     OW45828   5.194   4.919   1.630
14796SOL    HW145829   5.175   4.932   1.723
14796SOL    HW245830   5.289   4.931   1.623
14797SOL     OW45831   4.084   5.455   1.551
14797SOL    HW145832   4.001   5.501   1.545
14797SOL    HW245833   4.064   5.376   1.601
14798SOL     OW45834   5.390   4.607   1.249
14798SOL    HW145835   5.375   4.522   1.209
14798SOL    HW245836   5.369   4.670   1.180
14799SOL     OW45837   4.945   4.040   0.457
14799SOL    HW145838   5.004   3.964   0.454
14799SOL    HW245839   4.971   4.087   0.536
14800SOL     OW45840   4.321   4.450   0.667
14800SOL    HW145841   4.354   4.539   0.659
14800SOL    HW245842   4.248   4.445   0.605
14801SOL     OW45843   5.479   4.091   1.642
14801SOL    HW145844   5.455   4.108   1.551
14801SOL    HW245845   5.412   4.031   1.674
14802SOL     OW45846   5.474   4.659   1.503
14802SOL    HW145847   5.454   4.750   1.522
14802SOL    HW245848   5.449   4.647   1.412
14803SOL     OW45849   4.644   5.087   0.064
14803SOL    HW145850   4.585   5.072   0.138
14803SOL    HW245851   4.626   5.177   0.037
14804SOL     OW45852   4.385   5.506   0.928
14804SOL    HW145853   4.368   5.600   0.918
14804SOL    HW245854   4.481   5.499   0.927
14805SOL     OW45855   4.596   4.700   0.855
14805SOL    HW145856   4.642   4.625   0.894
14805SOL    HW245857   4.553   4.743   0.929
14806SOL     OW45858   4.814   4.706   0.082
14806SOL    HW145859   4.842   4.787   0.040
14806SOL    HW245860   4.891   4.649   0.078
14807SOL     OW45861   5.563   5.260   0.838
14807SOL    HW145862   5.484   5.264   0.784
14807SOL    HW245863   5.532   5.231   0.924
14808SOL     OW45864   3.956   5.024   1.849
14808SOL    HW145865   3.913   4.943   1.819
14808SOL    HW245866   3.915   5.042   1.933
14809SOL     OW45867   3.812   4.959   0.668
14809SOL    HW145868   3.807   4.911   0.751
14809SOL    HW245869   3.874   4.908   0.616
14810SOL     OW45870   4.410   5.139   1.632
14810SOL    HW145871   4.333   5.091   1.664
14810SOL    HW245872   4.401   5.227   1.669
14811SOL     OW45873   5.541   3.919   1.235
14811SOL    HW145874   5.564   3.835   1.273
14811SOL    HW245875   5.548   3.906   1.140
14812SOL     OW45876   4.150   4.153   0.526
14812SOL    HW145877   4.180   4.078   0.475
14812SOL    HW245878   4.100   4.114   0.598
14813SOL     OW45879   5.434   5.190   1.075
14813SOL    HW145880   5.349   5.178   1.033
14813SOL    HW245881   5.430   5.135   1.153
14814SOL     OW45882   4.065   4.286   1.295
14814SOL    HW145883   4.115   4.224   1.349
14814SOL    HW245884   4.075   4.254   1.206
14815SOL     OW45885   4.557   5.293   0.677
14815SOL    HW145886   4.531   5.348   0.604
14815SOL    HW245887   4.483   5.233   0.691
14816SOL     OW45888   5.156   3.953   1.119
14816SOL    HW145889   5.181   3.875   1.169
14816SOL    HW245890   5.104   4.005   1.180
14817SOL     OW45891   4.738   3.747   1.132
14817SOL    HW145892   4.676   3.680   1.104
14817SOL    HW245893   4.824   3.703   1.127
14818SOL     OW45894   4.511   5.047   0.306
14818SOL    HW145895   4.474   4.961   0.324
14818SOL    HW245896   4.582   5.056   0.370
14819SOL     OW45897   4.343   5.281   1.283
14819SOL    HW145898   4.341   5.362   1.334
14819SOL    HW245899   4.433   5.277   1.249
14820SOL     OW45900   5.095   3.750   0.180
14820SOL    HW145901   5.096   3.729   0.087
14820SOL    HW245902   5.004   3.770   0.199
14821SOL     OW45903   5.025   4.186   0.676
14821SOL    HW145904   4.970   4.265   0.678
14821SOL    HW245905   5.016   4.149   0.764
14822SOL     OW45906   5.304   3.913   0.887
14822SOL    HW145907   5.251   3.935   0.964
14822SOL    HW245908   5.300   3.991   0.832
14823SOL     OW45909   3.768   4.804   0.339
14823SOL    HW145910   3.859   4.799   0.310
14823SOL    HW245911   3.752   4.719   0.381
14824SOL     OW45912   4.594   5.377   0.370
14824SOL    HW145913   4.514   5.362   0.320
14824SOL    HW245914   4.578   5.459   0.417
14825SOL     OW45915   3.955   4.311   1.998
14825SOL    HW145916   3.868   4.323   2.037
14825SOL    HW245917   3.939   4.310   1.904
14826SOL     OW45918   3.954   3.987   2.866
14826SOL    HW145919   4.000   3.952   2.943
14826SOL    HW245920   3.864   3.958   2.876
14827SOL     OW45921   3.718   4.124   2.490
14827SOL    HW145922   3.642   4.154   2.539
14827SOL    HW245923   3.693   4.037   2.458
14828SOL     OW45924   4.288   5.027   3.032
14828SOL    HW145925   4.217   4.992   3.086
14828SOL    HW245926   4.309   5.111   3.073
14829SOL     OW45927   5.290   5.239   2.575
14829SOL    HW145928   5.249   5.220   2.659
14829SOL    HW245929   5.217   5.245   2.514
14830SOL     OW45930   4.852   4.406   2.553
14830SOL    HW145931   4.891   4.485   2.591
14830SOL    HW245932   4.795   4.373   2.622
14831SOL     OW45933   5.525   4.313   2.082
14831SOL    HW145934   5.489   4.308   1.993
14831SOL    HW245935   5.473   4.249   2.132
14832SOL     OW45936   4.504   4.871   2.899
14832SOL    HW145937   4.461   4.867   2.985
14832SOL    HW245938   4.492   4.961   2.870
14833SOL     OW45939   4.417   4.722   2.517
14833SOL    HW145940   4.469   4.708   2.596
14833SOL    HW245941   4.342   4.775   2.547
14834SOL     OW45942   4.007   5.199   2.919
14834SOL    HW145943   3.963   5.119   2.889
14834SOL    HW245944   4.082   5.209   2.861
14835SOL     OW45945   5.186   5.231   3.216
14835SOL    HW145946   5.237   5.309   3.236
14835SOL    HW245947   5.116   5.232   3.282
14836SOL     OW45948   5.318   4.173   2.610
14836SOL    HW145949   5.237   4.175   2.560
14836SOL    HW245950   5.301   4.229   2.685
14837SOL     OW45951   3.937   5.443   2.334
14837SOL    HW145952   3.962   5.518   2.389
14837SOL    HW245953   4.018   5.420   2.288
14838SOL     OW45954   4.854   5.057   3.550
14838SOL    HW145955   4.873   5.048   3.643
14838SOL    HW245956   4.819   4.972   3.524
14839SOL     OW45957   3.947   5.167   2.401
14839SOL    HW145958   3.928   5.260   2.413
14839SOL    HW245959   3.895   5.123   2.469
14840SOL     OW45960   3.994   4.815   2.751
14840SOL    HW145961   3.994   4.726   2.787
14840SOL    HW245962   3.941   4.866   2.811
14841SOL     OW45963   4.329   5.519   3.294
14841SOL    HW145964   4.249   5.490   3.338
14841SOL    HW245965   4.343   5.608   3.326
14842SOL     OW45966   4.309   4.707   2.002
14842SOL    HW145967   4.356   4.757   1.936
14842SOL    HW245968   4.342   4.739   2.085
14843SOL     OW45969   5.332   3.858   3.315
14843SOL    HW145970   5.324   3.947   3.281
14843SOL    HW245971   5.299   3.864   3.405
14844SOL     OW45972   3.845   4.379   2.425
14844SOL    HW145973   3.808   4.294   2.449
14844SOL    HW245974   3.836   4.433   2.504
14845SOL     OW45975   5.563   5.473   2.178
14845SOL    HW145976   5.542   5.461   2.270
14845SOL    HW245977   5.577   5.567   2.168
14846SOL     OW45978   3.758   5.317   1.980
14846SOL    HW145979   3.748   5.224   2.002
14846SOL    HW245980   3.738   5.363   2.061
14847SOL     OW45981   5.404   4.632   2.502
14847SOL    HW145982   5.495   4.603   2.500
14847SOL    HW245983   5.395   4.688   2.424
14848SOL     OW45984   5.378   4.827   2.291
14848SOL    HW145985   5.466   4.830   2.253
14848SOL    HW245986   5.381   4.891   2.362
14849SOL     OW45987   3.850   4.473   3.425
14849SOL    HW145988   3.944   4.463   3.433
14849SOL    HW245989   3.829   4.548   3.481
14850SOL     OW45990   4.347   5.112   2.592
14850SOL    HW145991   4.299   5.030   2.605
14850SOL    HW245992   4.325   5.139   2.503
14851SOL     OW45993   5.028   4.963   3.277
14851SOL    HW145994   5.054   4.886   3.227
14851SOL    HW245995   5.075   4.955   3.360
14852SOL     OW45996   4.528   3.735   2.324
14852SOL    HW145997   4.581   3.813   2.337
14852SOL    HW245998   4.446   3.753   2.371
14853SOL     OW45999   3.908   4.678   3.113
14853SOL    HW146000   3.991   4.631   3.108
14853SOL    HW246001   3.843   4.610   3.130
14854SOL     OW46002   5.258   4.727   2.063
14854SOL    HW146003   5.188   4.670   2.095
14854SOL    HW246004   5.300   4.760   2.143
14855SOL     OW46005   4.932   5.550   3.490
14855SOL    HW146006   4.916   5.599   3.409
14855SOL    HW246007   4.934   5.458   3.463
14856SOL     OW46008   5.189   5.139   2.816
14856SOL    HW146009   5.122   5.157   2.882
14856SOL    HW246010   5.172   5.048   2.789
14857SOL     OW46011   5.403   5.439   2.404
14857SOL    HW146012   5.329   5.498   2.389
14857SOL    HW246013   5.373   5.380   2.472
14858SOL     OW46014   4.314   4.437   2.130
14858SOL    HW146015   4.315   4.522   2.086
14858SOL    HW246016   4.248   4.445   2.198
14859SOL     OW46017   5.003   4.077   2.786
14859SOL    HW146018   4.911   4.051   2.790
14859SOL    HW246019   5.042   4.042   2.866
14860SOL     OW46020   5.301   5.353   2.123
14860SOL    HW146021   5.383   5.371   2.169
14860SOL    HW246022   5.258   5.439   2.116
14861SOL     OW46023   4.519   4.348   3.267
14861SOL    HW146024   4.549   4.367   3.356
14861SOL    HW246025   4.580   4.280   3.236
14862SOL     OW46026   5.192   4.198   3.520
14862SOL    HW146027   5.165   4.243   3.600
14862SOL    HW246028   5.187   4.105   3.542
14863SOL     OW46029   4.779   4.422   2.286
14863SOL    HW146030   4.801   4.414   2.379
14863SOL    HW246031   4.695   4.378   2.278
14864SOL     OW46032   3.810   4.565   2.628
14864SOL    HW146033   3.889   4.544   2.677
14864SOL    HW246034   3.767   4.634   2.679
14865SOL     OW46035   3.843   5.583   3.438
14865SOL    HW146036   3.860   5.577   3.533
14865SOL    HW246037   3.771   5.523   3.423
14866SOL     OW46038   4.612   4.076   2.053
14866SOL    HW146039   4.656   4.133   1.990
14866SOL    HW246040   4.630   3.987   2.023
14867SOL     OW46041   5.450   4.295   3.681
14867SOL    HW146042   5.406   4.371   3.643
14867SOL    HW246043   5.441   4.226   3.615
14868SOL     OW46044   5.095   4.867   2.394
14868SOL    HW146045   5.179   4.858   2.350
14868SOL    HW246046   5.049   4.935   2.345
14869SOL     OW46047   4.290   3.958   2.688
14869SOL    HW146048   4.310   3.923   2.775
14869SOL    HW246049   4.283   4.053   2.702
14870SOL     OW46050   4.715   5.163   2.332
14870SOL    HW146051   4.689   5.237   2.277
14870SOL    HW246052   4.687   5.189   2.420
14871SOL     OW46053   4.081   5.539   2.730
14871SOL    HW146054   4.116   5.450   2.737
14871SOL    HW246055   4.154   5.595   2.754
14872SOL     OW46056   5.517   4.770   2.730
14872SOL    HW146057   5.453   4.756   2.660
14872SOL    HW246058   5.463   4.785   2.809
14873SOL     OW46059   4.958   5.260   3.372
14873SOL    HW146060   4.947   5.191   3.438
14873SOL    HW246061   4.877   5.259   3.322
14874SOL     OW46062   4.039   4.687   2.118
14874SOL    HW146063   4.119   4.709   2.071
14874SOL    HW246064   4.004   4.610   2.074
14875SOL     OW46065   5.181   4.485   2.583
14875SOL    HW146066   5.186   4.433   2.663
14875SOL    HW246067   5.266   4.529   2.577
14876SOL     OW46068   4.828   5.504   2.058
14876SOL    HW146069   4.761   5.472   2.118
14876SOL    HW246070   4.864   5.426   2.018
14877SOL     OW46071   3.906   4.106   3.350
14877SOL    HW146072   3.822   4.077   3.385
14877SOL    HW246073   3.969   4.042   3.385
14878SOL     OW46074   5.354   5.108   1.910
14878SOL    HW146075   5.325   5.185   1.959
14878SOL    HW246076   5.280   5.048   1.912
14879SOL     OW46077   4.194   5.433   2.219
14879SOL    HW146078   4.234   5.504   2.270
14879SOL    HW246079   4.167   5.475   2.137
14880SOL     OW46080   5.124   3.843   2.298
14880SOL    HW146081   5.117   3.809   2.209
14880SOL    HW246082   5.215   3.829   2.323
14881SOL     OW46083   3.982   5.534   3.068
14881SOL    HW146084   4.025   5.467   3.120
14881SOL    HW246085   3.956   5.490   2.987
14882SOL     OW46086   4.654   5.431   2.758
14882SOL    HW146087   4.705   5.374   2.816
14882SOL    HW246088   4.625   5.372   2.688
14883SOL     OW46089   4.114   4.399   2.325
14883SOL    HW146090   4.117   4.303   2.331
14883SOL    HW246091   4.025   4.421   2.353
14884SOL     OW46092   5.247   3.925   3.582
14884SOL    HW146093   5.261   3.948   3.674
14884SOL    HW246094   5.167   3.872   3.583
14885SOL     OW46095   4.338   3.863   2.002
14885SOL    HW146096   4.381   3.788   2.043
14885SOL    HW246097   4.302   3.828   1.920
14886SOL     OW46098   4.619   5.258   3.043
14886SOL    HW146099   4.583   5.210   2.969
14886SOL    HW246100   4.660   5.191   3.098
14887SOL     OW46101   5.197   4.317   3.261
14887SOL    HW146102   5.183   4.270   3.343
14887SOL    HW246103   5.145   4.397   3.271
14888SOL     OW46104   4.557   5.123   2.788
14888SOL    HW146105   4.627   5.115   2.724
14888SOL    HW246106   4.477   5.126   2.737
14889SOL     OW46107   4.695   4.253   2.753
14889SOL    HW146108   4.647   4.230   2.674
14889SOL    HW246109   4.708   4.170   2.799
14890SOL     OW46110   4.273   3.855   2.388
14890SOL    HW146111   4.186   3.820   2.406
14890SOL    HW246112   4.304   3.887   2.473
14891SOL     OW46113   5.146   4.926   1.902
14891SOL    HW146114   5.176   4.853   1.956
14891SOL    HW246115   5.061   4.950   1.938
14892SOL     OW46116   4.017   3.788   2.047
14892SOL    HW146117   4.064   3.833   1.977
14892SOL    HW246118   4.081   3.729   2.086
14893SOL     OW46119   4.661   3.984   2.319
14893SOL    HW146120   4.647   4.026   2.234
14893SOL    HW246121   4.755   3.991   2.334
14894SOL     OW46122   4.946   5.284   2.645
14894SOL    HW146123   4.955   5.355   2.581
14894SOL    HW246124   4.990   5.316   2.724
14895SOL     OW46125   4.200   4.876   2.584
14895SOL    HW146126   4.136   4.856   2.653
14895SOL    HW246127   4.151   4.865   2.502
14896SOL     OW46128   4.997   5.513   2.465
14896SOL    HW146129   5.049   5.570   2.408
14896SOL    HW246130   4.937   5.572   2.510
14897SOL     OW46131   4.750   4.252   1.887
14897SOL    HW146132   4.705   4.335   1.871
14897SOL    HW246133   4.809   4.270   1.960
14898SOL     OW46134   3.765   4.305   3.217
14898SOL    HW146135   3.818   4.233   3.251
14898SOL    HW246136   3.768   4.371   3.285
14899SOL     OW46137   4.599   4.194   2.502
14899SOL    HW146138   4.543   4.246   2.445
14899SOL    HW246139   4.612   4.112   2.455
14900SOL     OW46140   4.767   3.714   2.614
14900SOL    HW146141   4.674   3.708   2.590
14900SOL    HW246142   4.772   3.668   2.698
14901SOL     OW46143   5.149   4.880   2.721
14901SOL    HW146144   5.115   4.791   2.733
14901SOL    HW246145   5.165   4.887   2.627
14902SOL     OW46146   5.194   4.319   2.817
14902SOL    HW146147   5.127   4.255   2.838
14902SOL    HW246148   5.247   4.326   2.896
14903SOL     OW46149   5.574   4.533   2.236
14903SOL    HW146150   5.626   4.487   2.303
14903SOL    HW246151   5.549   4.464   2.174
14904SOL     OW46152   4.216   5.146   2.011
14904SOL    HW146153   4.146   5.125   2.073
14904SOL    HW246154   4.192   5.099   1.930
14905SOL     OW46155   5.397   4.992   2.498
14905SOL    HW146156   5.491   4.992   2.520
14905SOL    HW246157   5.366   5.078   2.528
14906SOL     OW46158   5.115   4.294   1.936
14906SOL    HW146159   5.048   4.276   2.002
14906SOL    HW246160   5.197   4.265   1.976
14907SOL     OW46161   5.468   4.965   3.417
14907SOL    HW146162   5.551   4.920   3.435
14907SOL    HW246163   5.483   5.055   3.446
14908SOL     OW46164   4.802   5.070   3.174
14908SOL    HW146165   4.721   5.054   3.222
14908SOL    HW246166   4.870   5.031   3.229
14909SOL     OW46167   5.337   5.357   3.525
14909SOL    HW146168   5.328   5.388   3.435
14909SOL    HW246169   5.414   5.301   3.523
14910SOL     OW46170   4.804   4.924   2.939
14910SOL    HW146171   4.812   4.966   3.024
14910SOL    HW246172   4.712   4.900   2.932
14911SOL     OW46173   5.356   4.832   2.944
14911SOL    HW146174   5.363   4.890   3.019
14911SOL    HW246175   5.265   4.841   2.915
14912SOL     OW46176   4.433   4.784   2.240
14912SOL    HW146177   4.416   4.766   2.332
14912SOL    HW246178   4.509   4.730   2.218
14913SOL     OW46179   4.139   4.528   3.102
14913SOL    HW146180   4.197   4.546   3.176
14913SOL    HW246181   4.108   4.439   3.116
14914SOL     OW46182   3.804   5.290   3.211
14914SOL    HW146183   3.784   5.382   3.196
14914SOL    HW246184   3.900   5.285   3.207
14915SOL     OW46185   4.064   4.847   2.346
14915SOL    HW146186   4.056   4.925   2.291
14915SOL    HW246187   4.058   4.773   2.286
14916SOL     OW46188   4.283   4.241   2.697
14916SOL    HW146189   4.299   4.312   2.636
14916SOL    HW246190   4.334   4.264   2.775
14917SOL     OW46191   4.964   5.078   2.253
14917SOL    HW146192   5.021   5.148   2.285
14917SOL    HW246193   4.878   5.100   2.287
14918SOL     OW46194   5.006   5.186   3.017
14918SOL    HW146195   5.071   5.193   3.086
14918SOL    HW246196   4.930   5.146   3.059
14919SOL     OW46197   5.296   4.356   2.337
14919SOL    HW146198   5.237   4.379   2.409
14919SOL    HW246199   5.340   4.438   2.315
14920SOL     OW46200   4.068   5.299   3.164
14920SOL    HW146201   4.052   5.249   3.084
14920SOL    HW246202   4.145   5.258   3.203
14921SOL     OW46203   4.124   4.418   3.432
14921SOL    HW146204   4.191   4.482   3.410
14921SOL    HW246205   4.153   4.380   3.515
14922SOL     OW46206   5.344   4.512   3.552
14922SOL    HW146207   5.255   4.546   3.545
14922SOL    HW246208   5.390   4.549   3.477
14923SOL     OW46209   4.306   4.600   2.903
14923SOL    HW146210   4.330   4.691   2.922
14923SOL    HW246211   4.249   4.575   2.976
14924SOL     OW46212   5.044   4.579   2.867
14924SOL    HW146213   4.954   4.548   2.870
14924SOL    HW246214   5.097   4.501   2.882
14925SOL     OW46215   4.916   4.251   2.119
14925SOL    HW146216   4.928   4.175   2.176
14925SOL    HW246217   4.875   4.317   2.176
14926SOL     OW46218   3.777   5.033   3.124
14926SOL    HW146219   3.808   4.972   3.191
14926SOL    HW246220   3.785   5.119   3.165
14927SOL     OW46221   4.429   4.341   2.902
14927SOL    HW146222   4.524   4.340   2.910
14927SOL    HW246223   4.405   4.432   2.916
14928SOL     OW46224   5.469   4.694   3.717
14928SOL    HW146225   5.425   4.623   3.670
14928SOL    HW246226   5.412   4.714   3.791
14929SOL     OW46227   4.024   3.789   2.468
14929SOL    HW146228   3.993   3.869   2.510
14929SOL    HW246229   4.058   3.736   2.540
14930SOL     OW46230   5.354   4.114   2.220
14930SOL    HW146231   5.371   4.048   2.287
14930SOL    HW246232   5.324   4.191   2.269
14931SOL     OW46233   4.776   4.493   2.861
14931SOL    HW146234   4.757   4.501   2.954
14931SOL    HW246235   4.752   4.403   2.839
14932SOL     OW46236   4.729   5.307   3.565
14932SOL    HW146237   4.701   5.341   3.480
14932SOL    HW246238   4.751   5.215   3.549
14933SOL     OW46239   5.574   5.220   3.466
14933SOL    HW146240   5.596   5.252   3.379
14933SOL    HW246241   5.653   5.234   3.518
14934SOL     OW46242   4.061   4.681   3.626
14934SOL    HW146243   4.100   4.762   3.659
14934SOL    HW246244   4.089   4.614   3.687
14935SOL     OW46245   5.256   3.998   1.989
14935SOL    HW146246   5.192   3.932   2.017
14935SOL    HW246247   5.288   4.036   2.070
14936SOL     OW46248   5.005   4.544   1.887
14936SOL    HW146249   5.048   4.459   1.896
14936SOL    HW246250   5.042   4.581   1.806
14937SOL     OW46251   4.837   5.026   2.674
14937SOL    HW146252   4.852   5.021   2.768
14937SOL    HW246253   4.873   5.111   2.648
14938SOL     OW46254   4.038   4.531   2.786
14938SOL    HW146255   4.125   4.552   2.819
14938SOL    HW246256   4.021   4.442   2.817
14939SOL     OW46257   4.027   4.253   2.821
14939SOL    HW146258   4.005   4.166   2.854
14939SOL    HW246259   4.117   4.244   2.788
14940SOL     OW46260   3.739   5.042   2.051
14940SOL    HW146261   3.651   5.057   2.015
14940SOL    HW246262   3.736   4.953   2.086
14941SOL     OW46263   3.815   5.505   2.793
14941SOL    HW146264   3.785   5.423   2.755
14941SOL    HW246265   3.907   5.512   2.767
14942SOL     OW46266   4.212   5.298   2.754
14942SOL    HW146267   4.281   5.356   2.786
14942SOL    HW246268   4.258   5.230   2.706
14943SOL     OW46269   4.709   4.527   3.127
14943SOL    HW146270   4.750   4.563   3.206
14943SOL    HW246271   4.655   4.455   3.159
14944SOL     OW46272   3.770   4.330   2.944
14944SOL    HW146273   3.857   4.301   2.918
14944SOL    HW246274   3.769   4.320   3.040
14945SOL     OW46275   3.902   4.238   3.603
14945SOL    HW146276   3.938   4.196   3.525
14945SOL    HW246277   3.854   4.314   3.570
14946SOL     OW46278   5.109   4.650   3.516
14946SOL    HW146279   5.113   4.745   3.517
14946SOL    HW246280   5.075   4.628   3.429
14947SOL     OW46281   4.542   4.297   2.221
14947SOL    HW146282   4.547   4.226   2.157
14947SOL    HW246283   4.467   4.350   2.192
14948SOL     OW46284   5.348   4.345   3.039
14948SOL    HW146285   5.299   4.323   3.117
14948SOL    HW246286   5.423   4.285   3.039
14949SOL     OW46287   3.980   5.273   3.593
14949SOL    HW146288   3.946   5.328   3.663
14949SOL    HW246289   3.973   5.184   3.625
14950SOL     OW46290   4.339   4.134   3.072
14950SOL    HW146291   4.418   4.111   3.122
14950SOL    HW246292   4.363   4.213   3.024
14951SOL     OW46293   4.664   5.407   3.317
14951SOL    HW146294   4.625   5.361   3.242
14951SOL    HW246295   4.638   5.498   3.304
14952SOL     OW46296   4.193   4.194   2.069
14952SOL    HW146297   4.246   4.273   2.080
14952SOL    HW246298   4.105   4.227   2.048
14953SOL     OW46299   3.884   4.864   3.314
14953SOL    HW146300   3.869   4.820   3.397
14953SOL    HW246301   3.897   4.793   3.251
14954SOL     OW46302   5.055   4.781   3.051
14954SOL    HW146303   5.055   4.707   2.989
14954SOL    HW246304   4.975   4.829   3.032
14955SOL     OW46305   5.044   4.584   2.162
14955SOL    HW146306   4.977   4.548   2.221
14955SOL    HW246307   5.008   4.569   2.074
14956SOL     OW46308   5.499   5.460   3.025
14956SOL    HW146309   5.565   5.485   2.960
14956SOL    HW246310   5.470   5.373   2.997
14957SOL     OW46311   4.961   5.455   2.951
14957SOL    HW146312   5.047   5.480   2.916
14957SOL    HW246313   4.974   5.366   2.984
14958SOL     OW46314   3.810   4.990   2.863
14958SOL    HW146315   3.802   5.005   2.957
14958SOL    HW246316   3.741   4.927   2.843
14959SOL     OW46317   4.409   5.415   3.601
14959SOL    HW146318   4.344   5.485   3.593
14959SOL    HW246319   4.469   5.428   3.527
14960SOL     OW46320   5.455   3.880   2.374
14960SOL    HW146321   5.521   3.864   2.306
14960SOL    HW246322   5.435   3.793   2.409
14961SOL     OW46323   5.117   5.288   2.347
14961SOL    HW146324   5.175   5.318   2.277
14961SOL    HW246325   5.072   5.366   2.376
14962SOL     OW46326   3.879   5.542   3.699
14962SOL    HW146327   3.824   5.473   3.736
14962SOL    HW246328   3.924   5.579   3.775
14963SOL     OW46329   4.985   4.677   2.552
14963SOL    HW146330   5.049   4.606   2.563
14963SOL    HW246331   5.024   4.734   2.486
14964SOL     OW46332   4.553   5.054   3.272
14964SOL    HW146333   4.491   5.087   3.337
14964SOL    HW246334   4.526   4.963   3.257
14965SOL     OW46335   4.429   5.324   1.996
14965SOL    HW146336   4.412   5.356   1.907
14965SOL    HW246337   4.355   5.267   2.016
14966SOL     OW46338   5.343   5.454   3.258
14966SOL    HW146339   5.395   5.460   3.178
14966SOL    HW246340   5.327   5.545   3.283
14967SOL     OW46341   5.565   3.832   2.780
14967SOL    HW146342   5.589   3.868   2.695
14967SOL    HW246343   5.473   3.855   2.791
14968SOL     OW46344   3.966   4.031   2.580
14968SOL    HW146345   3.882   4.076   2.569
14968SOL    HW246346   3.977   4.022   2.674
14969SOL     OW46347   4.946   5.313   1.894
14969SOL    HW146348   4.930   5.226   1.932
14969SOL    HW246349   4.874   5.326   1.832
14970SOL     OW46350   4.560   4.775   3.189
14970SOL    HW146351   4.608   4.702   3.149
14970SOL    HW246352   4.543   4.747   3.279
14971SOL     OW46353   4.647   4.639   2.165
14971SOL    HW146354   4.704   4.669   2.095
14971SOL    HW246355   4.696   4.567   2.206
14972SOL     OW46356   5.199   5.381   1.807
14972SOL    HW146357   5.118   5.342   1.839
14972SOL    HW246358   5.202   5.467   1.848
14973SOL     OW46359   4.108   5.026   3.280
14973SOL    HW146360   4.141   5.047   3.368
14973SOL    HW246361   4.034   4.968   3.296
14974SOL     OW46362   5.350   5.017   3.151
14974SOL    HW146363   5.390   4.991   3.234
14974SOL    HW246364   5.281   5.079   3.176
14975SOL     OW46365   4.748   3.974   2.802
14975SOL    HW146366   4.739   3.900   2.742
14975SOL    HW246367   4.713   3.942   2.886
14976SOL     OW46368   4.331   5.211   2.334
14976SOL    HW146369   4.358   5.161   2.257
14976SOL    HW246370   4.273   5.279   2.299
14977SOL     OW46371   5.467   4.106   3.228
14977SOL    HW146372   5.524   4.183   3.236
14977SOL    HW246373   5.511   4.051   3.163
14978SOL     OW46374   3.994   5.067   2.160
14978SOL    HW146375   3.903   5.059   2.131
14978SOL    HW246376   3.988   5.108   2.246
14979SOL     OW46377   3.803   4.733   3.540
14979SOL    HW146378   3.737   4.729   3.610
14979SOL    HW246379   3.886   4.721   3.585
14980SOL     OW46380   3.809   4.043   1.884
14980SOL    HW146381   3.716   4.031   1.868
14980SOL    HW246382   3.831   4.125   1.840
14981SOL     OW46383   5.143   4.597   3.243
14981SOL    HW146384   5.097   4.661   3.189
14981SOL    HW246385   5.234   4.601   3.213
14982SOL     OW46386   3.780   3.873   2.164
14982SOL    HW146387   3.767   3.959   2.123
14982SOL    HW246388   3.866   3.845   2.135
14983SOL     OW46389   4.896   5.055   1.981
14983SOL    HW146390   4.802   5.040   1.980
14983SOL    HW246391   4.919   5.055   2.074
14984SOL     OW46392   4.335   4.551   3.288
14984SOL    HW146393   4.390   4.603   3.346
14984SOL    HW246394   4.386   4.471   3.271
14985SOL     OW46395   5.207   5.513   2.838
14985SOL    HW146396   5.213   5.590   2.781
14985SOL    HW246397   5.294   5.504   2.876
14986SOL     OW46398   5.192   4.922   3.495
14986SOL    HW146399   5.176   4.934   3.588
14986SOL    HW246400   5.286   4.939   3.484
14987SOL     OW46401   4.098   5.466   3.437
14987SOL    HW146402   4.011   5.502   3.418
14987SOL    HW246403   4.080   5.383   3.482
14988SOL     OW46404   5.396   4.608   3.116
14988SOL    HW146405   5.383   4.522   3.078
14988SOL    HW246406   5.384   4.669   3.043
14989SOL     OW46407   4.942   4.051   2.314
14989SOL    HW146408   5.001   3.976   2.309
14989SOL    HW246409   4.969   4.097   2.394
14990SOL     OW46410   4.324   4.445   2.507
14990SOL    HW146411   4.353   4.535   2.514
14990SOL    HW246412   4.246   4.449   2.452
14991SOL     OW46413   5.484   4.066   3.501
14991SOL    HW146414   5.456   4.092   3.413
14991SOL    HW246415   5.410   4.017   3.537
14992SOL     OW46416   5.491   4.659   3.366
14992SOL    HW146417   5.456   4.746   3.387
14992SOL    HW246418   5.461   4.642   3.277
14993SOL     OW46419   4.603   5.097   1.917
14993SOL    HW146420   4.568   5.077   2.004
14993SOL    HW246421   4.574   5.187   1.900
14994SOL     OW46422   4.385   5.510   2.789
14994SOL    HW146423   4.371   5.604   2.777
14994SOL    HW246424   4.481   5.500   2.790
14995SOL     OW46425   4.623   4.697   2.731
14995SOL    HW146426   4.647   4.617   2.778
14995SOL    HW246427   4.570   4.746   2.793
14996SOL     OW46428   4.798   4.710   1.953
14996SOL    HW146429   4.778   4.764   1.877
14996SOL    HW246430   4.870   4.654   1.923
14997SOL     OW46431   5.567   5.269   2.711
14997SOL    HW146432   5.490   5.274   2.654
14997SOL    HW246433   5.535   5.230   2.792
14998SOL     OW46434   3.919   5.041   3.713
14998SOL    HW146435   3.996   4.985   3.718
14998SOL    HW246436   3.869   5.021   3.793
14999SOL     OW46437   3.813   4.951   2.535
14999SOL    HW146438   3.815   4.917   2.625
14999SOL    HW246439   3.883   4.903   2.490
15000SOL     OW46440   4.387   5.159   3.465
15000SOL    HW146441   4.371   5.097   3.536
15000SOL    HW246442   4.379   5.245   3.505
15001SOL     OW46443   5.572   3.888   3.084
15001SOL    HW146444   5.517   3.849   3.151
15001SOL    HW246445   5.523   3.877   3.002
15002SOL     OW46446   4.149   4.122   2.388
15002SOL    HW146447   4.073   4.085   2.432
15002SOL    HW246448   4.204   4.156   2.458
15003SOL     OW46449   5.426   5.204   2.944
15003SOL    HW146450   5.342   5.188   2.902
15003SOL    HW246451   5.428   5.144   3.018
15004SOL     OW46452   4.081   4.264   3.142
15004SOL    HW146453   4.050   4.243   3.230
15004SOL    HW246454   4.157   4.207   3.129
15005SOL     OW46455   4.562   5.294   2.534
15005SOL    HW146456   4.537   5.367   2.479
15005SOL    HW246457   4.483   5.240   2.541
15006SOL     OW46458   5.136   3.967   3.001
15006SOL    HW146459   5.124   3.880   3.039
15006SOL    HW246460   5.070   4.022   3.044
15007SOL     OW46461   4.516   5.038   2.165
15007SOL    HW146462   4.480   4.954   2.192
15007SOL    HW246463   4.576   5.062   2.236
15008SOL     OW46464   4.354   5.286   3.134
15008SOL    HW146465   4.347   5.363   3.191
15008SOL    HW246466   4.448   5.276   3.119
15009SOL     OW46467   5.086   3.777   2.029
15009SOL    HW146468   5.119   3.700   1.983
15009SOL    HW246469   4.995   3.755   2.050
15010SOL     OW46470   5.033   4.185   2.539
15010SOL    HW146471   4.975   4.261   2.543
15010SOL    HW246472   5.020   4.141   2.623
15011SOL     OW46473   5.315   3.938   2.783
15011SOL    HW146474   5.251   3.954   2.853
15011SOL    HW246475   5.300   4.009   2.720
15012SOL     OW46476   3.766   4.787   2.168
15012SOL    HW146477   3.860   4.781   2.151
15012SOL    HW246478   3.739   4.698   2.189
15013SOL     OW46479   4.617   5.379   2.195
15013SOL    HW146480   4.545   5.361   2.134
15013SOL    HW246481   4.583   5.448   2.253
15014SOL     OW46482   3.918   4.410   3.820
15014SOL    HW146483   3.852   4.384   3.883
15014SOL    HW246484   3.932   4.331   3.766
15015SOL     OW46485   3.946   3.996   4.714
15015SOL    HW146486   3.987   3.986   4.799
15015SOL    HW246487   3.852   3.982   4.730
15016SOL     OW46488   3.712   4.097   4.357
15016SOL    HW146489   3.633   4.130   4.399
15016SOL    HW246490   3.686   4.012   4.320
15017SOL     OW46491   4.286   5.040   4.838
15017SOL    HW146492   4.217   4.979   4.866
15017SOL    HW246493   4.287   5.107   4.907
15018SOL     OW46494   5.297   5.242   4.440
15018SOL    HW146495   5.254   5.213   4.520
15018SOL    HW246496   5.227   5.244   4.374
15019SOL     OW46497   4.879   4.394   4.426
15019SOL    HW146498   4.896   4.488   4.428
15019SOL    HW246499   4.824   4.378   4.502
15020SOL     OW46500   5.531   4.314   3.940
15020SOL    HW146501   5.495   4.311   3.851
15020SOL    HW246502   5.474   4.257   3.991
15021SOL     OW46503   4.636   4.508   5.543
15021SOL    HW146504   4.591   4.592   5.544
15021SOL    HW246505   4.621   4.474   5.454
15022SOL     OW46506   4.016   5.204   4.779
15022SOL    HW146507   3.977   5.125   4.742
15022SOL    HW246508   4.087   5.227   4.718
15023SOL     OW46509   5.180   5.225   5.083
15023SOL    HW146510   5.229   5.306   5.101
15023SOL    HW246511   5.112   5.223   5.150
15024SOL     OW46512   4.182   4.126   5.220
15024SOL    HW146513   4.240   4.052   5.236
15024SOL    HW246514   4.095   4.086   5.207
15025SOL     OW46515   5.329   4.173   4.471
15025SOL    HW146516   5.247   4.181   4.424
15025SOL    HW246517   5.322   4.234   4.544
15026SOL     OW46518   3.949   5.442   4.175
15026SOL    HW146519   3.978   5.507   4.239
15026SOL    HW246520   4.027   5.426   4.121
15027SOL     OW46521   4.837   5.060   5.412
15027SOL    HW146522   4.881   5.042   5.495
15027SOL    HW246523   4.748   5.028   5.424
15028SOL     OW46524   4.328   5.523   5.157
15028SOL    HW146525   4.246   5.499   5.200
15028SOL    HW246526   4.344   5.614   5.184
15029SOL     OW46527   5.311   3.855   5.182
15029SOL    HW146528   5.254   3.918   5.138
15029SOL    HW246529   5.294   3.869   5.275
15030SOL     OW46530   3.792   4.346   4.258
15030SOL    HW146531   3.776   4.257   4.292
15030SOL    HW246532   3.857   4.383   4.318
15031SOL     OW46533   5.564   5.473   4.040
15031SOL    HW146534   5.605   5.445   4.122
15031SOL    HW246535   5.589   5.565   4.032
15032SOL     OW46536   3.755   5.343   3.828
15032SOL    HW146537   3.751   5.252   3.860
15032SOL    HW246538   3.725   5.395   3.902
15033SOL     OW46539   5.418   4.650   4.373
15033SOL    HW146540   5.487   4.595   4.337
15033SOL    HW246541   5.386   4.701   4.299
15034SOL     OW46542   5.371   4.822   4.154
15034SOL    HW146543   5.455   4.822   4.109
15034SOL    HW246544   5.377   4.893   4.217
15035SOL     OW46545   4.334   5.095   4.478
15035SOL    HW146546   4.281   5.026   4.517
15035SOL    HW246547   4.317   5.087   4.384
15036SOL     OW46548   5.013   4.970   5.131
15036SOL    HW146549   5.050   4.905   5.070
15036SOL    HW246550   5.060   4.955   5.213
15037SOL     OW46551   5.268   4.728   3.913
15037SOL    HW146552   5.197   4.663   3.918
15037SOL    HW246553   5.288   4.748   4.004
15038SOL     OW46554   4.947   5.546   5.353
15038SOL    HW146555   4.918   5.591   5.273
15038SOL    HW246556   4.943   5.453   5.331
15039SOL     OW46557   4.043   3.995   5.525
15039SOL    HW146558   4.112   4.059   5.536
15039SOL    HW246559   3.964   4.038   5.559
15040SOL     OW46560   5.194   5.141   4.671
15040SOL    HW146561   5.125   5.154   4.736
15040SOL    HW246562   5.180   5.052   4.639
15041SOL     OW46563   5.396   5.467   4.293
15041SOL    HW146564   5.354   5.438   4.212
15041SOL    HW246565   5.369   5.403   4.359
15042SOL     OW46566   5.294   5.411   4.032
15042SOL    HW146567   5.388   5.430   4.022
15042SOL    HW246568   5.266   5.389   3.943
15043SOL     OW46569   4.538   4.325   5.219
15043SOL    HW146570   4.498   4.308   5.304
15043SOL    HW246571   4.500   4.258   5.162
15044SOL     OW46572   5.183   4.208   5.389
15044SOL    HW146573   5.147   4.262   5.460
15044SOL    HW246574   5.123   4.134   5.382
15045SOL     OW46575   4.794   4.380   4.160
15045SOL    HW146576   4.807   4.366   4.254
15045SOL    HW246577   4.713   4.334   4.139
15046SOL     OW46578   3.850   5.600   5.301
15046SOL    HW146579   3.837   5.587   5.395
15046SOL    HW246580   3.800   5.530   5.260
15047SOL     OW46581   5.453   4.298   5.536
15047SOL    HW146582   5.408   4.377   5.505
15047SOL    HW246583   5.422   4.228   5.479
15048SOL     OW46584   5.104   4.867   4.278
15048SOL    HW146585   5.176   4.851   4.217
15048SOL    HW246586   5.045   4.924   4.230
15049SOL     OW46587   4.746   5.192   4.199
15049SOL    HW146588   4.705   5.259   4.145
15049SOL    HW246589   4.702   5.199   4.284
15050SOL     OW46590   4.084   5.540   4.584
15050SOL    HW146591   4.123   5.453   4.595
15050SOL    HW246592   4.152   5.600   4.614
15051SOL     OW46593   5.525   4.794   4.587
15051SOL    HW146594   5.472   4.757   4.516
15051SOL    HW246595   5.465   4.799   4.661
15052SOL     OW46596   4.954   5.263   5.251
15052SOL    HW146597   4.935   5.195   5.314
15052SOL    HW246598   4.888   5.251   5.182
15053SOL     OW46599   4.049   4.652   3.911
15053SOL    HW146600   3.972   4.643   3.854
15053SOL    HW246601   4.048   4.574   3.966
15054SOL     OW46602   5.212   4.472   4.442
15054SOL    HW146603   5.208   4.431   4.529
15054SOL    HW246604   5.284   4.534   4.448
15055SOL     OW46605   4.851   5.511   3.940
15055SOL    HW146606   4.775   5.478   3.987
15055SOL    HW246607   4.875   5.440   3.880
15056SOL     OW46608   3.930   4.027   5.198
15056SOL    HW146609   3.856   4.084   5.175
15056SOL    HW246610   3.913   4.002   5.289
15057SOL     OW46611   5.357   5.109   3.807
15057SOL    HW146612   5.312   5.193   3.801
15057SOL    HW246613   5.289   5.043   3.795
15058SOL     OW46614   4.190   5.460   4.034
15058SOL    HW146615   4.248   5.504   4.095
15058SOL    HW246616   4.248   5.410   3.977
15059SOL     OW46617   5.152   3.836   4.155
15059SOL    HW146618   5.142   3.815   4.063
15059SOL    HW246619   5.246   3.846   4.168
15060SOL     OW46620   4.001   5.530   4.932
15060SOL    HW146621   4.031   5.453   4.979
15060SOL    HW246622   3.954   5.496   4.856
15061SOL     OW46623   4.657   5.431   4.615
15061SOL    HW146624   4.708   5.367   4.665
15061SOL    HW246625   4.620   5.381   4.542
15062SOL     OW46626   5.251   3.913   5.450
15062SOL    HW146627   5.256   3.945   5.540
15062SOL    HW246628   5.165   3.872   5.444
15063SOL     OW46629   4.483   4.004   5.485
15063SOL    HW146630   4.567   3.960   5.480
15063SOL    HW246631   4.438   3.961   5.558
15064SOL     OW46632   4.606   5.258   4.936
15064SOL    HW146633   4.586   5.221   4.849
15064SOL    HW246634   4.668   5.196   4.974
15065SOL     OW46635   5.180   4.335   5.137
15065SOL    HW146636   5.188   4.285   5.218
15065SOL    HW246637   5.090   4.368   5.137
15066SOL     OW46638   4.554   5.153   4.686
15066SOL    HW146639   4.628   5.114   4.638
15066SOL    HW246640   4.478   5.103   4.656
15067SOL     OW46641   5.150   4.930   3.765
15067SOL    HW146642   5.181   4.854   3.814
15067SOL    HW246643   5.063   4.948   3.802
15068SOL     OW46644   4.951   5.285   4.513
15068SOL    HW146645   4.962   5.355   4.449
15068SOL    HW246646   5.010   5.309   4.585
15069SOL     OW46647   4.988   5.514   4.334
15069SOL    HW146648   5.034   5.582   4.285
15069SOL    HW246649   4.916   5.559   4.378
15070SOL     OW46650   5.150   4.895   4.560
15070SOL    HW146651   5.105   4.818   4.594
15070SOL    HW246652   5.138   4.890   4.465
15071SOL     OW46653   5.215   4.324   4.687
15071SOL    HW146654   5.165   4.246   4.711
15071SOL    HW246655   5.271   4.341   4.762
15072SOL     OW46656   5.585   4.534   4.102
15072SOL    HW146657   5.633   4.483   4.167
15072SOL    HW246658   5.550   4.470   4.041
15073SOL     OW46659   5.414   5.011   4.334
15073SOL    HW146660   5.503   5.008   4.370
15073SOL    HW246661   5.372   5.084   4.379
15074SOL     OW46662   5.119   4.286   3.772
15074SOL    HW146663   5.044   4.275   3.830
15074SOL    HW246664   5.192   4.248   3.820
15075SOL     OW46665   5.460   4.973   5.283
15075SOL    HW146666   5.530   4.910   5.299
15075SOL    HW246667   5.496   5.056   5.315
15076SOL     OW46668   4.775   5.099   5.096
15076SOL    HW146669   4.726   5.072   5.173
15076SOL    HW246670   4.858   5.052   5.103
15077SOL     OW46671   5.343   5.366   5.398
15077SOL    HW146672   5.325   5.391   5.307
15077SOL    HW246673   5.417   5.305   5.392
15078SOL     OW46674   4.847   4.950   4.823
15078SOL    HW146675   4.766   4.932   4.869
15078SOL    HW246676   4.819   4.980   4.736
15079SOL     OW46677   5.361   4.832   4.807
15079SOL    HW146678   5.364   4.891   4.883
15079SOL    HW246679   5.267   4.822   4.789
15080SOL     OW46680   4.640   3.806   5.158
15080SOL    HW146681   4.669   3.822   5.068
15080SOL    HW246682   4.705   3.850   5.213
15081SOL     OW46683   3.805   5.343   5.114
15081SOL    HW146684   3.758   5.351   5.031
15081SOL    HW246685   3.892   5.311   5.090
15082SOL     OW46686   4.975   5.075   4.112
15082SOL    HW146687   5.034   5.141   4.148
15082SOL    HW246688   4.889   5.099   4.147
15083SOL     OW46689   5.008   5.183   4.866
15083SOL    HW146690   5.058   5.179   4.947
15083SOL    HW246691   4.951   5.106   4.869
15084SOL     OW46692   5.299   4.359   4.197
15084SOL    HW146693   5.263   4.381   4.283
15084SOL    HW246694   5.266   4.428   4.139
15085SOL     OW46695   4.059   5.279   5.033
15085SOL    HW146696   4.040   5.238   4.948
15085SOL    HW246697   4.153   5.266   5.045
15086SOL     OW46698   5.332   4.519   5.410
15086SOL    HW146699   5.245   4.557   5.425
15086SOL    HW246700   5.338   4.509   5.315
15087SOL     OW46701   4.722   3.873   5.481
15087SOL    HW146702   4.788   3.933   5.449
15087SOL    HW246703   4.765   3.787   5.483
15088SOL     OW46704   4.202   3.761   5.494
15088SOL    HW146705   4.170   3.707   5.422
15088SOL    HW246706   4.146   3.838   5.494
15089SOL     OW46707   5.096   4.604   4.733
15089SOL    HW146708   5.005   4.583   4.713
15089SOL    HW246709   5.137   4.520   4.753
15090SOL     OW46710   4.954   4.244   3.979
15090SOL    HW146711   4.958   4.171   4.041
15090SOL    HW246712   4.892   4.305   4.018
15091SOL     OW46713   4.035   3.923   4.966
15091SOL    HW146714   3.995   3.962   5.044
15091SOL    HW246715   4.012   3.830   4.972
15092SOL     OW46716   3.758   5.054   4.974
15092SOL    HW146717   3.736   4.961   4.964
15092SOL    HW246718   3.752   5.070   5.068
15093SOL     OW46719   5.468   4.693   5.576
15093SOL    HW146720   5.426   4.629   5.518
15093SOL    HW246721   5.405   4.704   5.648
15094SOL     OW46722   5.361   4.117   4.080
15094SOL    HW146723   5.375   4.050   4.148
15094SOL    HW246724   5.329   4.193   4.128
15095SOL     OW46725   4.712   5.324   5.444
15095SOL    HW146726   4.700   5.342   5.351
15095SOL    HW246727   4.690   5.232   5.455
15096SOL     OW46728   5.578   5.222   5.336
15096SOL    HW146729   5.595   5.261   5.250
15096SOL    HW246730   5.660   5.232   5.383
15097SOL     OW46731   5.271   3.995   3.845
15097SOL    HW146732   5.199   3.937   3.871
15097SOL    HW246733   5.297   4.039   3.926
15098SOL     OW46734   5.078   4.560   3.769
15098SOL    HW146735   5.091   4.465   3.763
15098SOL    HW246736   5.083   4.590   3.678
15099SOL     OW46737   4.785   5.064   4.574
15099SOL    HW146738   4.794   4.993   4.510
15099SOL    HW246739   4.847   5.131   4.542
15100SOL     OW46740   4.868   4.141   5.387
15100SOL    HW146741   4.820   4.168   5.465
15100SOL    HW246742   4.859   4.215   5.326
15101SOL     OW46743   4.906   3.911   5.238
15101SOL    HW146744   4.890   4.000   5.270
15101SOL    HW246745   4.932   3.922   5.147
15102SOL     OW46746   3.825   5.513   4.675
15102SOL    HW146747   3.783   5.438   4.634
15102SOL    HW246748   3.913   5.514   4.639
15103SOL     OW46749   4.226   5.309   4.623
15103SOL    HW146750   4.297   5.346   4.676
15103SOL    HW246751   4.266   5.236   4.577
15104SOL     OW46752   5.101   4.671   5.419
15104SOL    HW146753   5.119   4.759   5.387
15104SOL    HW246754   5.049   4.630   5.349
15105SOL     OW46755   5.355   4.352   4.913
15105SOL    HW146756   5.311   4.320   4.991
15105SOL    HW246757   5.432   4.296   4.904
15106SOL     OW46758   3.948   5.309   5.479
15106SOL    HW146759   3.909   5.356   5.553
15106SOL    HW246760   3.983   5.229   5.517
15107SOL     OW46761   4.404   4.168   5.041
15107SOL    HW146762   4.333   4.112   5.072
15107SOL    HW246763   4.362   4.252   5.024
15108SOL     OW46764   4.651   5.403   5.182
15108SOL    HW146765   4.635   5.354   5.101
15108SOL    HW246766   4.616   5.490   5.165
15109SOL     OW46767   5.083   4.830   4.897
15109SOL    HW146768   5.080   4.738   4.871
15109SOL    HW246769   4.997   4.865   4.872
15110SOL     OW46770   5.035   4.579   4.046
15110SOL    HW146771   4.961   4.540   4.093
15110SOL    HW246772   5.011   4.571   3.953
15111SOL     OW46773   5.513   5.445   4.892
15111SOL    HW146774   5.564   5.476   4.817
15111SOL    HW246775   5.475   5.362   4.863
15112SOL     OW46776   4.960   5.459   4.831
15112SOL    HW146777   5.041   5.484   4.788
15112SOL    HW246778   4.971   5.366   4.851
15113SOL     OW46779   4.409   5.408   5.484
15113SOL    HW146780   4.363   5.473   5.431
15113SOL    HW246781   4.474   5.371   5.425
15114SOL     OW46782   5.444   3.881   4.228
15114SOL    HW146783   5.516   3.864   4.168
15114SOL    HW246784   5.429   3.798   4.272
15115SOL     OW46785   5.124   5.292   4.218
15115SOL    HW146786   5.173   5.332   4.146
15115SOL    HW246787   5.065   5.361   4.248
15116SOL     OW46788   3.833   5.589   5.580
15116SOL    HW146789   3.792   5.509   5.612
15116SOL    HW246790   3.905   5.606   5.641
15117SOL     OW46791   4.997   4.646   4.404
15117SOL    HW146792   5.069   4.583   4.408
15117SOL    HW246793   5.031   4.718   4.350
15118SOL     OW46794   4.359   5.323   3.867
15118SOL    HW146795   4.384   5.345   3.777
15118SOL    HW246796   4.338   5.230   3.864
15119SOL     OW46797   5.344   5.450   5.125
15119SOL    HW146798   5.397   5.448   5.045
15119SOL    HW246799   5.335   5.543   5.145
15120SOL     OW46800   5.567   3.890   4.690
15120SOL    HW146801   5.592   3.800   4.668
15120SOL    HW246802   5.481   3.902   4.651
15121SOL     OW46803   3.949   3.959   4.447
15121SOL    HW146804   3.887   4.024   4.415
15121SOL    HW246805   3.955   3.975   4.541
15122SOL     OW46806   4.938   5.322   3.753
15122SOL    HW146807   4.924   5.233   3.786
15122SOL    HW246808   4.869   5.334   3.687
15123SOL     OW46809   5.211   5.361   3.771
15123SOL    HW146810   5.118   5.344   3.757
15123SOL    HW246811   5.248   5.364   3.683
15124SOL     OW46812   5.364   5.025   5.019
15124SOL    HW146813   5.385   4.982   5.102
15124SOL    HW246814   5.286   5.078   5.039
15125SOL     OW46815   4.792   4.838   4.424
15125SOL    HW146816   4.721   4.798   4.474
15125SOL    HW246817   4.853   4.766   4.408
15126SOL     OW46818   4.394   5.244   4.182
15126SOL    HW146819   4.407   5.154   4.154
15126SOL    HW246820   4.304   5.264   4.159
15127SOL     OW46821   5.453   4.120   5.100
15127SOL    HW146822   5.525   4.182   5.103
15127SOL    HW246823   5.485   4.048   5.047
15128SOL     OW46824   4.389   3.920   5.235
15128SOL    HW146825   4.473   3.900   5.193
15128SOL    HW246826   4.412   3.955   5.321
15129SOL     OW46827   3.767   4.029   3.730
15129SOL    HW146828   3.702   4.072   3.786
15129SOL    HW246829   3.827   4.099   3.704
15130SOL     OW46830   5.236   4.633   5.137
15130SOL    HW146831   5.145   4.631   5.167
15130SOL    HW246832   5.247   4.552   5.087
15131SOL     OW46833   4.885   5.065   3.840
15131SOL    HW146834   4.791   5.080   3.843
15131SOL    HW246835   4.911   5.058   3.932
15132SOL     OW46836   5.192   5.531   4.703
15132SOL    HW146837   5.214   5.607   4.649
15132SOL    HW246838   5.277   5.491   4.724
15133SOL     OW46839   4.443   4.278   5.465
15133SOL    HW146840   4.448   4.312   5.554
15133SOL    HW246841   4.450   4.183   5.475
15134SOL     OW46842   5.188   4.933   5.351
15134SOL    HW146843   5.181   4.940   5.446
15134SOL    HW246844   5.282   4.944   5.333
15135SOL     OW46845   4.098   5.472   5.299
15135SOL    HW146846   4.016   5.513   5.272
15135SOL    HW246847   4.071   5.393   5.345
15136SOL     OW46848   5.479   4.601   4.945
15136SOL    HW146849   5.432   4.519   4.929
15136SOL    HW246850   5.424   4.668   4.904
15137SOL     OW46851   4.984   4.056   4.176
15137SOL    HW146852   5.034   3.974   4.177
15137SOL    HW246853   5.014   4.103   4.253
15138SOL     OW46854   5.486   4.044   5.362
15138SOL    HW146855   5.459   4.079   5.277
15138SOL    HW246856   5.407   4.006   5.399
15139SOL     OW46857   5.518   4.668   5.213
15139SOL    HW146858   5.432   4.698   5.243
15139SOL    HW246859   5.505   4.645   5.121
15140SOL     OW46860   4.623   5.159   3.776
15140SOL    HW146861   4.534   5.127   3.762
15140SOL    HW246862   4.634   5.230   3.713
15141SOL     OW46863   4.408   5.528   4.699
15141SOL    HW146864   4.385   5.600   4.640
15141SOL    HW246865   4.493   5.497   4.667
15142SOL     OW46866   4.608   4.736   4.595
15142SOL    HW146867   4.552   4.659   4.600
15142SOL    HW246868   4.571   4.797   4.659
15143SOL     OW46869   5.563   5.279   4.570
15143SOL    HW146870   5.483   5.270   4.517
15143SOL    HW246871   5.551   5.217   4.642
15144SOL     OW46872   5.576   3.909   4.966
15144SOL    HW146873   5.516   3.839   4.989
15144SOL    HW246874   5.568   3.917   4.871
15145SOL     OW46875   5.419   5.204   4.815
15145SOL    HW146876   5.341   5.187   4.762
15145SOL    HW246877   5.414   5.140   4.886
15146SOL     OW46878   4.543   5.293   4.407
15146SOL    HW146879   4.497   5.299   4.324
15146SOL    HW246880   4.496   5.226   4.456
15147SOL     OW46881   5.222   3.948   4.842
15147SOL    HW146882   5.255   3.865   4.877
15147SOL    HW246883   5.137   3.960   4.885
15148SOL     OW46884   4.338   5.280   5.016
15148SOL    HW146885   4.341   5.364   5.062
15148SOL    HW246886   4.428   5.266   4.986
15149SOL     OW46887   5.096   3.783   3.888
15149SOL    HW146888   5.108   3.725   3.813
15149SOL    HW246889   5.012   3.757   3.925
15150SOL     OW46890   5.061   4.192   4.403
15150SOL    HW146891   5.011   4.273   4.389
15150SOL    HW246892   5.018   4.151   4.479
15151SOL     OW46893   5.314   3.918   4.591
15151SOL    HW146894   5.270   3.938   4.673
15151SOL    HW246895   5.313   4.001   4.542
15152SOL     OW46896   4.622   5.401   4.053
15152SOL    HW146897   4.544   5.353   4.024
15152SOL    HW246898   4.591   5.456   4.125
15153SOL     OW46899   3.961   4.308   5.700
15153SOL    HW146900   3.888   4.312   5.762
15153SOL    HW246901   3.925   4.344   5.619
15154SOL     OW46902   3.919   4.066   6.602
15154SOL    HW146903   3.955   4.021   6.679
15154SOL    HW246904   3.839   4.017   6.581
15155SOL     OW46905   3.763   4.122   6.255
15155SOL    HW146906   3.678   4.155   6.282
15155SOL    HW246907   3.745   4.062   6.183
15156SOL     OW46908   5.304   5.249   6.301
15156SOL    HW146909   5.260   5.211   6.377
15156SOL    HW246910   5.238   5.247   6.232
15157SOL     OW46911   5.537   4.316   5.797
15157SOL    HW146912   5.499   4.312   5.710
15157SOL    HW246913   5.474   4.271   5.853
15158SOL     OW46914   4.443   4.732   6.239
15158SOL    HW146915   4.509   4.716   6.306
15158SOL    HW246916   4.370   4.772   6.286
15159SOL     OW46917   3.981   5.238   6.637
15159SOL    HW146918   3.917   5.167   6.639
15159SOL    HW246919   4.064   5.195   6.617
15160SOL     OW46920   5.183   5.223   6.957
15160SOL    HW146921   5.234   5.304   6.969
15160SOL    HW246922   5.113   5.229   7.021
15161SOL     OW46923   5.332   4.151   6.317
15161SOL    HW146924   5.267   4.126   6.252
15161SOL    HW246925   5.317   4.244   6.331
15162SOL     OW46926   3.933   5.468   6.025
15162SOL    HW146927   3.983   5.516   6.092
15162SOL    HW246928   3.951   5.376   6.044
15163SOL     OW46929   4.857   5.059   7.283
15163SOL    HW146930   4.891   5.056   7.372
15163SOL    HW246931   4.818   4.973   7.269
15164SOL     OW46932   3.959   5.207   6.109
15164SOL    HW146933   3.955   5.169   6.021
15164SOL    HW246934   3.928   5.138   6.166
15165SOL     OW46935   3.991   4.799   6.478
15165SOL    HW146936   4.009   4.710   6.509
15165SOL    HW246937   3.944   4.841   6.550
15166SOL     OW46938   4.372   5.522   7.070
15166SOL    HW146939   4.282   5.490   7.064
15166SOL    HW246940   4.364   5.617   7.064
15167SOL     OW46941   4.333   4.697   5.715
15167SOL    HW146942   4.394   4.728   5.648
15167SOL    HW246943   4.354   4.748   5.793
15168SOL     OW46944   5.319   3.850   7.055
15168SOL    HW146945   5.311   3.921   6.992
15168SOL    HW246946   5.293   3.888   7.138
15169SOL     OW46947   3.849   4.389   6.147
15169SOL    HW146948   3.831   4.299   6.176
15169SOL    HW246949   3.837   4.442   6.226
15170SOL     OW46950   5.566   5.482   5.911
15170SOL    HW146951   5.636   5.455   5.970
15170SOL    HW246952   5.588   5.572   5.887
15171SOL     OW46953   3.783   5.365   5.718
15171SOL    HW146954   3.847   5.301   5.749
15171SOL    HW246955   3.720   5.373   5.790
15172SOL     OW46956   5.450   4.671   6.236
15172SOL    HW146957   5.480   4.587   6.199
15172SOL    HW246958   5.396   4.708   6.167
15173SOL     OW46959   5.369   4.822   6.010
15173SOL    HW146960   5.457   4.822   5.971
15173SOL    HW246961   5.371   4.895   6.072
15174SOL     OW46962   3.851   4.451   7.150
15174SOL    HW146963   3.936   4.489   7.173
15174SOL    HW246964   3.796   4.526   7.129
15175SOL     OW46965   4.303   5.121   6.317
15175SOL    HW146966   4.276   5.032   6.342
15175SOL    HW246967   4.285   5.125   6.223
15176SOL     OW46968   5.020   4.956   6.994
15176SOL    HW146969   5.047   4.888   6.933
15176SOL    HW246970   5.075   4.942   7.071
15177SOL     OW46971   3.957   4.674   6.820
15177SOL    HW146972   3.983   4.619   6.746
15177SOL    HW246973   3.874   4.637   6.849
15178SOL     OW46974   5.263   4.718   5.776
15178SOL    HW146975   5.192   4.655   5.791
15178SOL    HW246976   5.289   4.747   5.864
15179SOL     OW46977   4.935   5.540   7.209
15179SOL    HW146978   4.908   5.587   7.130
15179SOL    HW246979   4.940   5.448   7.181
15180SOL     OW46980   4.041   3.988   7.418
15180SOL    HW146981   4.069   4.073   7.385
15180SOL    HW246982   3.950   4.003   7.446
15181SOL     OW46983   5.186   5.138   6.522
15181SOL    HW146984   5.126   5.156   6.594
15181SOL    HW246985   5.166   5.048   6.495
15182SOL     OW46986   5.363   5.497   6.160
15182SOL    HW146987   5.347   5.459   6.073
15182SOL    HW246988   5.355   5.423   6.220
15183SOL     OW46989   4.312   4.449   5.861
15183SOL    HW146990   4.308   4.529   5.809
15183SOL    HW246991   4.241   4.457   5.924
15184SOL     OW46992   5.297   5.408   5.901
15184SOL    HW146993   5.391   5.422   5.888
15184SOL    HW246994   5.263   5.389   5.814
15185SOL     OW46995   5.126   4.214   7.266
15185SOL    HW146996   5.047   4.213   7.320
15185SOL    HW246997   5.170   4.132   7.286
15186SOL     OW46998   4.782   4.420   6.005
15186SOL    HW146999   4.817   4.355   6.066
15186SOL    HW247000   4.694   4.390   5.985
15187SOL     OW47001   3.826   4.539   6.373
15187SOL    HW147002   3.896   4.532   6.437
15187SOL    HW247003   3.801   4.632   6.375
15188SOL     OW47004   3.853   5.591   7.157
15188SOL    HW147005   3.842   5.569   7.250
15188SOL    HW247006   3.809   5.519   7.111
15189SOL     OW47007   4.621   4.069   5.790
15189SOL    HW147008   4.659   4.123   5.721
15189SOL    HW247009   4.596   3.988   5.745
15190SOL     OW47010   5.457   4.303   7.412
15190SOL    HW147011   5.411   4.372   7.365
15190SOL    HW247012   5.461   4.230   7.350
15191SOL     OW47013   5.108   4.926   6.146
15191SOL    HW147014   5.155   4.845   6.126
15191SOL    HW247015   5.043   4.934   6.077
15192SOL     OW47016   4.747   5.220   6.094
15192SOL    HW147017   4.702   5.253   6.017
15192SOL    HW247018   4.690   5.152   6.129
15193SOL     OW47019   4.083   5.539   6.460
15193SOL    HW147020   4.132   5.458   6.468
15193SOL    HW247021   4.147   5.608   6.475
15194SOL     OW47022   5.537   4.810   6.452
15194SOL    HW147023   5.500   4.765   6.376
15194SOL    HW247024   5.468   4.805   6.518
15195SOL     OW47025   4.957   5.266   7.113
15195SOL    HW147026   4.948   5.193   7.175
15195SOL    HW247027   4.892   5.248   7.046
15196SOL     OW47028   4.078   4.643   5.866
15196SOL    HW147029   4.117   4.679   5.787
15196SOL    HW247030   3.999   4.598   5.835
15197SOL     OW47031   5.247   4.414   6.314
15197SOL    HW147032   5.162   4.372   6.324
15197SOL    HW247033   5.227   4.506   6.297
15198SOL     OW47034   4.857   5.493   5.822
15198SOL    HW147035   4.771   5.467   5.855
15198SOL    HW247036   4.876   5.429   5.753
15199SOL     OW47037   3.912   4.025   7.100
15199SOL    HW147038   3.820   4.002   7.113
15199SOL    HW247039   3.960   3.950   7.136
15200SOL     OW47040   5.354   5.116   5.684
15200SOL    HW147041   5.306   5.195   5.659
15200SOL    HW247042   5.293   5.044   5.666
15201SOL     OW47043   4.242   5.492   5.881
15201SOL    HW147044   4.225   5.442   5.961
15201SOL    HW247045   4.285   5.429   5.823
15202SOL     OW47046   4.007   5.519   6.780
15202SOL    HW147047   3.955   5.471   6.844
15202SOL    HW247048   4.040   5.452   6.720
15203SOL     OW47049   4.695   5.422   6.444
15203SOL    HW147050   4.780   5.403   6.485
15203SOL    HW247051   4.643   5.343   6.460
15204SOL     OW47052   4.124   4.406   6.069
15204SOL    HW147053   4.139   4.311   6.077
15204SOL    HW247054   4.029   4.416   6.080
15205SOL     OW47055   5.240   3.955   7.318
15205SOL    HW147056   5.266   3.963   7.410
15205SOL    HW247057   5.169   3.891   7.318
15206SOL     OW47058   4.383   3.838   5.681
15206SOL    HW147059   4.434   3.759   5.698
15206SOL    HW247060   4.314   3.810   5.620
15207SOL     OW47061   4.616   5.256   6.810
15207SOL    HW147062   4.556   5.205   6.755
15207SOL    HW247063   4.680   5.193   6.842
15208SOL     OW47064   5.150   4.299   7.002
15208SOL    HW147065   5.140   4.265   7.091
15208SOL    HW247066   5.109   4.386   7.005
15209SOL     OW47067   4.584   5.179   6.481
15209SOL    HW147068   4.637   5.105   6.451
15209SOL    HW247069   4.520   5.140   6.541
15210SOL     OW47070   5.162   4.927   5.627
15210SOL    HW147071   5.191   4.846   5.669
15210SOL    HW247072   5.067   4.930   5.643
15211SOL     OW47073   4.658   3.995   6.061
15211SOL    HW147074   4.621   4.009   5.973
15211SOL    HW247075   4.751   4.014   6.051
15212SOL     OW47076   4.984   5.347   6.380
15212SOL    HW147077   4.998   5.301   6.297
15212SOL    HW247078   4.995   5.279   6.446
15213SOL     OW47079   4.200   4.867   6.311
15213SOL    HW147080   4.129   4.844   6.371
15213SOL    HW247081   4.163   4.855   6.224
15214SOL     OW47082   4.912   5.541   6.177
15214SOL    HW147083   4.971   5.591   6.119
15214SOL    HW247084   4.967   5.517   6.251
15215SOL     OW47085   4.746   4.252   5.617
15215SOL    HW147086   4.708   4.338   5.596
15215SOL    HW247087   4.805   4.270   5.690
15216SOL     OW47088   3.830   4.261   6.959
15216SOL    HW147089   3.884   4.191   6.996
15216SOL    HW247090   3.834   4.331   7.023
15217SOL     OW47091   4.601   4.216   6.221
15217SOL    HW147092   4.545   4.269   6.165
15217SOL    HW247093   4.616   4.136   6.171
15218SOL     OW47094   5.124   4.890   6.433
15218SOL    HW147095   5.053   4.826   6.439
15218SOL    HW247096   5.145   4.895   6.339
15219SOL     OW47097   5.593   4.538   5.961
15219SOL    HW147098   5.637   4.482   6.025
15219SOL    HW247099   5.551   4.477   5.900
15220SOL     OW47100   5.418   5.012   6.196
15220SOL    HW147101   5.509   5.005   6.225
15220SOL    HW247102   5.384   5.089   6.240
15221SOL     OW47103   5.123   4.290   5.657
15221SOL    HW147104   5.051   4.279   5.719
15221SOL    HW247105   5.178   4.213   5.671
15222SOL     OW47106   4.291   3.996   5.896
15222SOL    HW147107   4.317   3.940   5.824
15222SOL    HW247108   4.254   4.074   5.854
15223SOL     OW47109   5.469   4.968   7.145
15223SOL    HW147110   5.552   4.920   7.151
15223SOL    HW247111   5.489   5.055   7.178
15224SOL     OW47112   4.790   5.093   6.968
15224SOL    HW147113   4.735   5.051   7.034
15224SOL    HW247114   4.872   5.045   6.971
15225SOL     OW47115   5.341   5.366   7.255
15225SOL    HW147116   5.327   5.388   7.163
15225SOL    HW247117   5.416   5.307   7.255
15226SOL     OW47118   4.894   4.992   6.663
15226SOL    HW147119   4.814   4.971   6.711
15226SOL    HW247120   4.872   4.977   6.571
15227SOL     OW47121   5.349   4.831   6.653
15227SOL    HW147122   5.336   4.884   6.731
15227SOL    HW247123   5.262   4.825   6.613
15228SOL     OW47124   4.716   4.815   7.277
15228SOL    HW147125   4.628   4.851   7.292
15228SOL    HW247126   4.704   4.751   7.207
15229SOL     OW47127   4.445   4.804   5.965
15229SOL    HW147128   4.420   4.773   6.052
15229SOL    HW247129   4.523   4.753   5.943
15230SOL     OW47130   3.808   5.402   6.930
15230SOL    HW147131   3.759   5.403   6.848
15230SOL    HW247132   3.825   5.309   6.947
15231SOL     OW47133   4.102   4.847   6.054
15231SOL    HW147134   4.097   4.900   5.975
15231SOL    HW247135   4.087   4.757   6.023
15232SOL     OW47136   4.291   4.256   6.417
15232SOL    HW147137   4.279   4.323   6.350
15232SOL    HW247138   4.386   4.251   6.429
15233SOL     OW47139   4.957   5.091   5.961
15233SOL    HW147140   5.032   5.128   6.009
15233SOL    HW247141   4.880   5.123   6.008
15234SOL     OW47142   5.025   5.214   6.730
15234SOL    HW147143   5.072   5.200   6.813
15234SOL    HW247144   4.971   5.136   6.720
15235SOL     OW47145   5.319   4.368   6.038
15235SOL    HW147146   5.297   4.373   6.131
15235SOL    HW247147   5.252   4.420   5.994
15236SOL     OW47148   5.342   4.511   7.278
15236SOL    HW147149   5.249   4.531   7.265
15236SOL    HW247150   5.383   4.533   7.194
15237SOL     OW47151   4.191   3.760   7.394
15237SOL    HW147152   4.188   3.699   7.320
15237SOL    HW247153   4.127   3.828   7.372
15238SOL     OW47154   4.284   4.644   6.633
15238SOL    HW147155   4.352   4.659   6.568
15238SOL    HW247156   4.258   4.731   6.661
15239SOL     OW47157   4.927   4.263   5.839
15239SOL    HW147158   4.941   4.200   5.910
15239SOL    HW247159   4.873   4.331   5.878
15240SOL     OW47160   3.963   3.945   6.840
15240SOL    HW147161   3.963   3.970   6.933
15240SOL    HW247162   4.045   3.898   6.828
15241SOL     OW47163   5.470   4.697   7.434
15241SOL    HW147164   5.432   4.625   7.384
15241SOL    HW247165   5.409   4.711   7.506
15242SOL     OW47166   5.350   4.099   5.955
15242SOL    HW147167   5.297   4.048   6.017
15242SOL    HW247168   5.334   4.190   5.980
15243SOL     OW47169   4.705   5.291   7.294
15243SOL    HW147170   4.695   5.331   7.207
15243SOL    HW247171   4.750   5.208   7.277
15244SOL     OW47172   5.577   5.229   7.192
15244SOL    HW147173   5.605   5.260   7.106
15244SOL    HW247174   5.657   5.232   7.245
15245SOL     OW47175   5.253   3.989   5.715
15245SOL    HW147176   5.184   3.927   5.736
15245SOL    HW247177   5.282   4.023   5.799
15246SOL     OW47178   5.026   4.554   5.651
15246SOL    HW147179   5.051   4.463   5.638
15246SOL    HW247180   5.045   4.597   5.567
15247SOL     OW47181   4.787   4.991   6.404
15247SOL    HW147182   4.744   4.905   6.400
15247SOL    HW247183   4.853   4.988   6.335
15248SOL     OW47184   4.035   4.540   6.572
15248SOL    HW147185   4.127   4.564   6.578
15248SOL    HW247186   4.034   4.445   6.584
15249SOL     OW47187   4.097   4.274   6.608
15249SOL    HW147188   4.034   4.203   6.599
15249SOL    HW247189   4.155   4.264   6.532
15250SOL     OW47190   3.813   5.519   6.482
15250SOL    HW147191   3.798   5.427   6.462
15250SOL    HW247192   3.908   5.529   6.481
15251SOL     OW47193   4.268   5.330   6.491
15251SOL    HW147194   4.292   5.284   6.571
15251SOL    HW247195   4.272   5.264   6.422
15252SOL     OW47196   3.763   4.278   6.695
15252SOL    HW147197   3.813   4.212   6.647
15252SOL    HW247198   3.800   4.276   6.783
15253SOL     OW47199   3.897   4.220   7.293
15253SOL    HW147200   3.922   4.161   7.222
15253SOL    HW247201   3.880   4.304   7.249
15254SOL     OW47202   5.097   4.656   7.252
15254SOL    HW147203   5.114   4.750   7.247
15254SOL    HW247204   5.097   4.627   7.160
15255SOL     OW47205   4.545   4.316   5.930
15255SOL    HW147206   4.539   4.229   5.890
15255SOL    HW247207   4.462   4.358   5.908
15256SOL     OW47208   5.375   4.358   6.786
15256SOL    HW147209   5.322   4.294   6.832
15256SOL    HW247210   5.441   4.306   6.740
15257SOL     OW47211   4.653   5.402   7.044
15257SOL    HW147212   4.644   5.354   6.962
15257SOL    HW247213   4.585   5.469   7.041
15258SOL     OW47214   4.208   4.215   5.754
15258SOL    HW147215   4.249   4.293   5.791
15258SOL    HW247216   4.117   4.241   5.737
15259SOL     OW47217   5.057   4.790   6.768
15259SOL    HW147218   5.011   4.710   6.745
15259SOL    HW247219   5.012   4.859   6.719
15260SOL     OW47220   5.023   4.571   5.924
15260SOL    HW147221   4.941   4.535   5.956
15260SOL    HW247222   5.015   4.567   5.828
15261SOL     OW47223   5.515   5.452   6.751
15261SOL    HW147224   5.568   5.475   6.675
15261SOL    HW247225   5.470   5.372   6.725
15262SOL     OW47226   4.962   5.479   6.702
15262SOL    HW147227   5.044   5.498   6.655
15262SOL    HW247228   4.967   5.386   6.721
15263SOL     OW47229   3.779   5.032   6.616
15263SOL    HW147230   3.784   4.983   6.698
15263SOL    HW247231   3.746   4.969   6.552
15264SOL     OW47232   4.420   5.415   7.347
15264SOL    HW147233   4.368   5.470   7.289
15264SOL    HW247234   4.484   5.373   7.291
15265SOL     OW47235   5.503   3.858   6.139
15265SOL    HW147236   5.526   3.864   6.046
15265SOL    HW247237   5.454   3.777   6.146
15266SOL     OW47238   5.112   5.308   6.092
15266SOL    HW147239   5.175   5.323   6.021
15266SOL    HW247240   5.031   5.350   6.061
15267SOL     OW47241   3.854   5.539   7.425
15267SOL    HW147242   3.812   5.457   7.448
15267SOL    HW247243   3.905   5.563   7.502
15268SOL     OW47244   5.101   4.632   6.220
15268SOL    HW147245   5.055   4.603   6.141
15268SOL    HW247246   5.032   4.662   6.279
15269SOL     OW47247   4.406   5.323   5.740
15269SOL    HW147248   4.410   5.346   5.647
15269SOL    HW247249   4.387   5.229   5.741
15270SOL     OW47250   5.348   5.448   6.985
15270SOL    HW147251   5.398   5.444   6.903
15270SOL    HW247252   5.338   5.542   7.002
15271SOL     OW47253   5.560   3.889   6.558
15271SOL    HW147254   5.583   3.805   6.518
15271SOL    HW247255   5.475   3.911   6.521
15272SOL     OW47256   4.020   4.095   6.346
15272SOL    HW147257   3.934   4.117   6.308
15272SOL    HW247258   4.000   4.066   6.435
15273SOL     OW47259   4.927   5.314   5.624
15273SOL    HW147260   4.916   5.222   5.646
15273SOL    HW247261   4.863   5.330   5.555
15274SOL     OW47262   4.675   4.674   5.900
15274SOL    HW147263   4.702   4.672   5.808
15274SOL    HW247264   4.694   4.586   5.933
15275SOL     OW47265   5.202   5.377   5.637
15275SOL    HW147266   5.112   5.348   5.620
15275SOL    HW247267   5.245   5.376   5.551
15276SOL     OW47268   5.356   5.022   6.883
15276SOL    HW147269   5.380   4.976   6.963
15276SOL    HW247270   5.282   5.078   6.909
15277SOL     OW47271   4.306   5.232   6.037
15277SOL    HW147272   4.368   5.176   5.990
15277SOL    HW247273   4.220   5.195   6.017
15278SOL     OW47274   5.471   4.104   6.983
15278SOL    HW147275   5.522   4.181   6.960
15278SOL    HW247276   5.497   4.037   6.919
15279SOL     OW47277   5.139   4.595   6.993
15279SOL    HW147278   5.069   4.599   6.928
15279SOL    HW247279   5.220   4.599   6.941
15280SOL     OW47280   4.895   5.042   5.693
15280SOL    HW147281   4.839   4.965   5.684
15280SOL    HW247282   4.914   5.048   5.786
15281SOL     OW47283   5.214   5.527   6.594
15281SOL    HW147284   5.235   5.550   6.504
15281SOL    HW247285   5.255   5.441   6.607
15282SOL     OW47286   5.194   4.922   7.213
15282SOL    HW147287   5.179   4.936   7.307
15282SOL    HW247288   5.288   4.936   7.201
15283SOL     OW47289   4.103   5.470   7.149
15283SOL    HW147290   4.016   5.508   7.142
15283SOL    HW247291   4.090   5.377   7.129
15284SOL     OW47292   5.385   4.618   6.847
15284SOL    HW147293   5.384   4.526   6.821
15284SOL    HW247294   5.377   4.666   6.765
15285SOL     OW47295   4.310   4.475   6.254
15285SOL    HW147296   4.355   4.554   6.225
15285SOL    HW247297   4.244   4.459   6.186
15286SOL     OW47298   5.474   4.083   7.251
15286SOL    HW147299   5.469   4.095   7.156
15286SOL    HW247300   5.395   4.033   7.273
15287SOL     OW47301   5.499   4.655   7.090
15287SOL    HW147302   5.456   4.736   7.115
15287SOL    HW247303   5.468   4.637   7.002
15288SOL     OW47304   4.449   5.593   6.577
15288SOL    HW147305   4.381   5.620   6.516
15288SOL    HW247306   4.461   5.500   6.559
15289SOL     OW47307   4.807   4.772   5.641
15289SOL    HW147308   4.722   4.767   5.597
15289SOL    HW247309   4.848   4.688   5.624
15290SOL     OW47310   5.572   5.277   6.438
15290SOL    HW147311   5.493   5.259   6.387
15290SOL    HW247312   5.595   5.193   6.479
15291SOL     OW47313   3.825   5.000   6.243
15291SOL    HW147314   3.807   4.944   6.318
15291SOL    HW247315   3.795   4.949   6.167
15292SOL     OW47316   5.570   3.905   6.830
15292SOL    HW147317   5.529   3.819   6.841
15292SOL    HW247318   5.570   3.919   6.735
15293SOL     OW47319   4.160   4.143   6.108
15293SOL    HW147320   4.194   4.068   6.060
15293SOL    HW247321   4.125   4.107   6.189
15294SOL     OW47322   5.390   5.222   6.692
15294SOL    HW147323   5.331   5.191   6.623
15294SOL    HW247324   5.393   5.150   6.755
15295SOL     OW47325   4.497   5.309   6.225
15295SOL    HW147326   4.428   5.291   6.161
15295SOL    HW247327   4.478   5.251   6.298
15296SOL     OW47328   5.175   3.909   6.744
15296SOL    HW147329   5.122   3.837   6.780
15296SOL    HW247330   5.111   3.963   6.697
15297SOL     OW47331   4.493   5.067   5.918
15297SOL    HW147332   4.457   4.983   5.945
15297SOL    HW247333   4.548   5.046   5.843
15298SOL     OW47334   4.306   5.319   6.850
15298SOL    HW147335   4.383   5.351   6.898
15298SOL    HW247336   4.331   5.230   6.824
15299SOL     OW47337   5.058   3.790   5.741
15299SOL    HW147338   5.052   3.725   5.672
15299SOL    HW247339   4.977   3.781   5.790
15300SOL     OW47340   5.300   3.919   6.466
15300SOL    HW147341   5.248   3.952   6.539
15300SOL    HW247342   5.309   3.993   6.407
15301SOL     OW47343   4.609   5.392   5.923
15301SOL    HW147344   4.555   5.349   5.857
15301SOL    HW247345   4.548   5.448   5.972
15302SOL     OW47346   5.295   5.237   8.162
15302SOL    HW147347   5.251   5.200   8.239
15302SOL    HW247348   5.230   5.232   8.092
15303SOL     OW47349   5.513   4.322   7.672
15303SOL    HW147350   5.486   4.315   7.581
15303SOL    HW247351   5.471   4.247   7.715
15304SOL     OW47352   4.600   4.503   9.252
15304SOL    HW147353   4.534   4.566   9.282
15304SOL    HW247354   4.627   4.534   9.166
15305SOL     OW47355   4.416   4.897   9.248
15305SOL    HW147356   4.444   4.977   9.203
15305SOL    HW247357   4.328   4.881   9.215
15306SOL     OW47358   5.184   5.221   8.820
15306SOL    HW147359   5.233   5.303   8.826
15306SOL    HW247360   5.110   5.234   8.880
15307SOL     OW47361   4.149   4.062   8.943
15307SOL    HW147362   4.227   4.053   8.888
15307SOL    HW247363   4.107   3.976   8.939
15308SOL     OW47364   5.335   4.185   8.200
15308SOL    HW147365   5.267   4.185   8.133
15308SOL    HW247366   5.300   4.241   8.270
15309SOL     OW47367   3.937   5.439   7.913
15309SOL    HW147368   3.968   5.514   7.963
15309SOL    HW247369   4.007   5.421   7.851
15310SOL     OW47370   4.864   5.069   9.151
15310SOL    HW147371   4.909   5.035   9.229
15310SOL    HW247372   4.822   4.993   9.112
15311SOL     OW47373   3.962   5.169   8.019
15311SOL    HW147374   3.923   5.253   7.999
15311SOL    HW247375   3.889   5.115   8.052
15312SOL     OW47376   4.352   5.515   8.940
15312SOL    HW147377   4.259   5.493   8.946
15312SOL    HW247378   4.354   5.609   8.924
15313SOL     OW47379   5.321   3.867   8.911
15313SOL    HW147380   5.365   3.903   8.834
15313SOL    HW247381   5.227   3.874   8.891
15314SOL     OW47382   5.571   5.471   7.773
15314SOL    HW147383   5.641   5.443   7.833
15314SOL    HW247384   5.584   5.565   7.763
15315SOL     OW47385   3.751   5.326   7.564
15315SOL    HW147386   3.755   5.234   7.589
15315SOL    HW247387   3.728   5.372   7.644
15316SOL     OW47388   5.462   4.672   8.094
15316SOL    HW147389   5.478   4.584   8.059
15316SOL    HW247390   5.410   4.715   8.025
15317SOL     OW47391   5.358   4.814   7.874
15317SOL    HW147392   5.440   4.814   7.825
15317SOL    HW247393   5.365   4.891   7.931
15318SOL     OW47394   3.843   4.519   9.073
15318SOL    HW147395   3.919   4.521   9.015
15318SOL    HW247396   3.797   4.601   9.055
15319SOL     OW47397   5.013   4.957   8.871
15319SOL    HW147398   5.028   4.890   8.804
15319SOL    HW247399   5.081   4.942   8.936
15320SOL     OW47400   4.548   3.733   8.003
15320SOL    HW147401   4.594   3.756   7.923
15320SOL    HW247402   4.457   3.757   7.986
15321SOL     OW47403   5.262   4.721   7.621
15321SOL    HW147404   5.190   4.658   7.612
15321SOL    HW247405   5.271   4.733   7.716
15322SOL     OW47406   4.912   5.535   9.081
15322SOL    HW147407   4.907   5.595   9.006
15322SOL    HW247408   4.925   5.449   9.042
15323SOL     OW47409   4.085   4.059   9.278
15323SOL    HW147410   4.176   4.029   9.287
15323SOL    HW247411   4.036   3.980   9.254
15324SOL     OW47412   5.180   5.134   8.387
15324SOL    HW147413   5.112   5.151   8.452
15324SOL    HW247414   5.165   5.043   8.361
15325SOL     OW47415   5.377   5.472   8.030
15325SOL    HW147416   5.352   5.448   7.940
15325SOL    HW247417   5.355   5.395   8.082
15326SOL     OW47418   5.050   4.082   8.388
15326SOL    HW147419   4.986   4.109   8.322
15326SOL    HW247420   4.997   4.036   8.454
15327SOL     OW47421   5.301   5.404   7.761
15327SOL    HW147422   5.395   5.419   7.752
15327SOL    HW247423   5.270   5.388   7.672
15328SOL     OW47424   4.513   4.316   8.923
15328SOL    HW147425   4.439   4.302   8.981
15328SOL    HW247426   4.491   4.267   8.844
15329SOL     OW47427   5.141   4.247   9.119
15329SOL    HW147428   5.117   4.261   9.210
15329SOL    HW247429   5.137   4.152   9.107
15330SOL     OW47430   4.683   4.617   9.013
15330SOL    HW147431   4.731   4.538   8.986
15330SOL    HW247432   4.641   4.648   8.933
15331SOL     OW47433   4.722   4.142   8.681
15331SOL    HW147434   4.630   4.139   8.705
15331SOL    HW247435   4.723   4.122   8.588
15332SOL     OW47436   3.837   5.594   9.025
15332SOL    HW147437   3.829   5.578   9.119
15332SOL    HW247438   3.798   5.517   8.984
15333SOL     OW47439   5.416   4.299   9.289
15333SOL    HW147440   5.391   4.372   9.233
15333SOL    HW247441   5.425   4.224   9.229
15334SOL     OW47442   5.112   4.916   8.025
15334SOL    HW147443   5.163   4.850   7.977
15334SOL    HW247444   5.058   4.957   7.958
15335SOL     OW47445   4.255   3.900   8.343
15335SOL    HW147446   4.276   3.951   8.421
15335SOL    HW247447   4.271   3.959   8.270
15336SOL     OW47448   4.739   5.186   7.942
15336SOL    HW147449   4.703   5.243   7.874
15336SOL    HW247450   4.682   5.201   8.018
15337SOL     OW47451   4.075   5.531   8.319
15337SOL    HW147452   4.133   5.456   8.328
15337SOL    HW247453   4.131   5.607   8.335
15338SOL     OW47454   5.535   4.805   8.317
15338SOL    HW147455   5.498   4.762   8.240
15338SOL    HW247456   5.468   4.798   8.384
15339SOL     OW47457   4.955   5.270   8.975
15339SOL    HW147458   4.951   5.195   9.034
15339SOL    HW247459   4.895   5.247   8.904
15340SOL     OW47460   4.178   4.979   9.131
15340SOL    HW147461   4.156   4.948   9.043
15340SOL    HW247462   4.094   4.985   9.176
15341SOL     OW47463   4.846   5.505   7.675
15341SOL    HW147464   4.771   5.464   7.719
15341SOL    HW247465   4.871   5.442   7.607
15342SOL     OW47466   5.354   5.114   7.537
15342SOL    HW147467   5.306   5.196   7.527
15342SOL    HW247468   5.288   5.046   7.521
15343SOL     OW47469   4.194   5.475   7.765
15343SOL    HW147470   4.243   5.462   7.846
15343SOL    HW247471   4.241   5.423   7.700
15344SOL     OW47472   4.018   5.503   8.671
15344SOL    HW147473   4.055   5.430   8.720
15344SOL    HW247474   3.995   5.466   8.586
15345SOL     OW47475   4.662   5.419   8.343
15345SOL    HW147476   4.750   5.380   8.348
15345SOL    HW247477   4.616   5.365   8.278
15346SOL     OW47478   4.612   5.235   8.658
15346SOL    HW147479   4.598   5.165   8.593
15346SOL    HW247480   4.684   5.203   8.712
15347SOL     OW47481   5.055   4.319   8.867
15347SOL    HW147482   5.093   4.295   8.952
15347SOL    HW247483   5.090   4.406   8.849
15348SOL     OW47484   4.654   4.205   8.370
15348SOL    HW147485   4.713   4.255   8.314
15348SOL    HW247486   4.691   4.116   8.370
15349SOL     OW47487   4.283   3.807   7.941
15349SOL    HW147488   4.198   3.796   7.984
15349SOL    HW247489   4.273   3.886   7.888
15350SOL     OW47490   5.152   4.930   7.485
15350SOL    HW147491   5.190   4.854   7.529
15350SOL    HW247492   5.059   4.928   7.508
15351SOL     OW47493   4.020   3.776   7.630
15351SOL    HW147494   4.065   3.822   7.559
15351SOL    HW247495   4.080   3.705   7.654
15352SOL     OW47496   4.795   4.368   8.956
15352SOL    HW147497   4.719   4.321   8.922
15352SOL    HW247498   4.867   4.342   8.900
15353SOL     OW47499   4.928   5.350   8.267
15353SOL    HW147500   4.970   5.384   8.189
15353SOL    HW247501   4.977   5.269   8.287
15354SOL     OW47502   5.007   5.521   8.050
15354SOL    HW147503   5.050   5.585   7.994
15354SOL    HW247504   4.926   5.564   8.079
15355SOL     OW47505   4.291   3.945   8.632
15355SOL    HW147506   4.338   3.864   8.613
15355SOL    HW247507   4.206   3.915   8.665
15356SOL     OW47508   4.737   3.762   8.216
15356SOL    HW147509   4.683   3.767   8.138
15356SOL    HW247510   4.703   3.687   8.264
15357SOL     OW47511   5.151   4.869   8.297
15357SOL    HW147512   5.118   4.779   8.303
15357SOL    HW247513   5.140   4.892   8.205
15358SOL     OW47514   5.210   4.305   8.428
15358SOL    HW147515   5.142   4.239   8.414
15358SOL    HW247516   5.241   4.290   8.517
15359SOL     OW47517   5.575   4.534   7.827
15359SOL    HW147518   5.629   4.483   7.889
15359SOL    HW247519   5.547   4.469   7.762
15360SOL     OW47520   4.214   5.131   7.589
15360SOL    HW147521   4.138   5.128   7.648
15360SOL    HW247522   4.191   5.073   7.517
15361SOL     OW47523   5.417   5.013   8.044
15361SOL    HW147524   5.506   5.006   8.081
15361SOL    HW247525   5.376   5.083   8.094
15362SOL     OW47526   5.474   4.967   9.008
15362SOL    HW147527   5.560   4.928   8.995
15362SOL    HW247528   5.492   5.056   9.038
15363SOL     OW47529   4.779   5.108   8.832
15363SOL    HW147530   4.699   5.056   8.833
15363SOL    HW247531   4.850   5.044   8.829
15364SOL     OW47532   5.338   5.361   9.119
15364SOL    HW147533   5.322   5.389   9.029
15364SOL    HW247534   5.417   5.306   9.113
15365SOL     OW47535   4.888   4.956   8.563
15365SOL    HW147536   4.793   4.957   8.573
15365SOL    HW247537   4.903   4.965   8.469
15366SOL     OW47538   5.352   4.819   8.521
15366SOL    HW147539   5.336   4.882   8.592
15366SOL    HW247540   5.270   4.817   8.473
15367SOL     OW47541   4.676   3.846   8.842
15367SOL    HW147542   4.648   3.835   8.752
15367SOL    HW247543   4.760   3.801   8.847
15368SOL     OW47544   4.698   4.831   9.177
15368SOL    HW147545   4.603   4.846   9.180
15368SOL    HW247546   4.710   4.762   9.112
15369SOL     OW47547   4.999   4.110   8.693
15369SOL    HW147548   5.023   4.183   8.751
15369SOL    HW247549   4.903   4.114   8.690
15370SOL     OW47550   3.812   5.335   8.827
15370SOL    HW147551   3.786   5.356   8.737
15370SOL    HW247552   3.887   5.277   8.817
15371SOL     OW47553   4.971   5.078   7.842
15371SOL    HW147554   5.030   5.146   7.873
15371SOL    HW247555   4.885   5.103   7.877
15372SOL     OW47556   5.009   5.198   8.598
15372SOL    HW147557   5.062   5.183   8.676
15372SOL    HW247558   4.952   5.122   8.592
15373SOL     OW47559   5.324   4.377   7.945
15373SOL    HW147560   5.244   4.407   7.989
15373SOL    HW247561   5.343   4.445   7.881
15374SOL     OW47562   4.130   4.465   9.029
15374SOL    HW147563   4.205   4.511   8.993
15374SOL    HW247564   4.110   4.397   8.964
15375SOL     OW47565   5.342   4.516   9.140
15375SOL    HW147566   5.250   4.529   9.116
15375SOL    HW247567   5.392   4.545   9.063
15376SOL     OW47568   5.112   4.572   8.478
15376SOL    HW147569   5.077   4.578   8.389
15376SOL    HW247570   5.148   4.484   8.484
15377SOL     OW47571   4.482   4.368   8.512
15377SOL    HW147572   4.540   4.311   8.461
15377SOL    HW247573   4.507   4.457   8.486
15378SOL     OW47574   5.469   4.678   9.319
15378SOL    HW147575   5.428   4.619   9.256
15378SOL    HW247576   5.399   4.698   9.382
15379SOL     OW47577   4.030   3.798   8.061
15379SOL    HW147578   3.956   3.859   8.063
15379SOL    HW247579   4.034   3.761   8.149
15380SOL     OW47580   5.383   4.118   7.822
15380SOL    HW147581   5.322   4.052   7.856
15380SOL    HW247582   5.373   4.192   7.881
15381SOL     OW47583   4.720   4.490   8.407
15381SOL    HW147584   4.778   4.530   8.472
15381SOL    HW247585   4.779   4.453   8.341
15382SOL     OW47586   4.704   5.290   9.158
15382SOL    HW147587   4.689   5.333   9.073
15382SOL    HW247588   4.753   5.211   9.136
15383SOL     OW47589   5.572   5.225   9.060
15383SOL    HW147590   5.595   5.256   8.973
15383SOL    HW247591   5.654   5.229   9.110
15384SOL     OW47592   4.104   4.621   9.269
15384SOL    HW147593   4.198   4.621   9.283
15384SOL    HW247594   4.091   4.566   9.191
15385SOL     OW47595   5.300   3.985   7.583
15385SOL    HW147596   5.224   3.947   7.627
15385SOL    HW247597   5.347   4.033   7.651
15386SOL     OW47598   5.046   4.572   7.508
15386SOL    HW147599   5.029   4.478   7.509
15386SOL    HW247600   5.063   4.593   7.416
15387SOL     OW47601   4.862   5.055   8.303
15387SOL    HW147602   4.787   4.996   8.313
15387SOL    HW247603   4.838   5.111   8.229
15388SOL     OW47604   4.821   4.157   9.165
15388SOL    HW147605   4.787   4.210   9.237
15388SOL    HW247606   4.842   4.220   9.097
15389SOL     OW47607   4.940   3.971   8.970
15389SOL    HW147608   4.853   4.011   8.962
15389SOL    HW247609   4.939   3.899   8.907
15390SOL     OW47610   3.709   5.081   7.704
15390SOL    HW147611   3.618   5.107   7.687
15390SOL    HW247612   3.716   4.993   7.669
15391SOL     OW47613   3.809   5.508   8.388
15391SOL    HW147614   3.775   5.430   8.345
15391SOL    HW247615   3.900   5.513   8.359
15392SOL     OW47616   4.755   4.521   8.696
15392SOL    HW147617   4.740   4.450   8.758
15392SOL    HW247618   4.681   4.515   8.635
15393SOL     OW47619   3.897   4.267   9.181
15393SOL    HW147620   3.983   4.236   9.154
15393SOL    HW247621   3.883   4.347   9.129
15394SOL     OW47622   5.092   4.662   9.109
15394SOL    HW147623   5.123   4.752   9.096
15394SOL    HW247624   5.087   4.625   9.021
15395SOL     OW47625   5.367   4.334   8.664
15395SOL    HW147626   5.362   4.260   8.725
15395SOL    HW247627   5.446   4.317   8.613
15396SOL     OW47628   4.005   5.292   9.213
15396SOL    HW147629   3.927   5.320   9.262
15396SOL    HW247630   4.003   5.197   9.218
15397SOL     OW47631   4.435   4.177   8.706
15397SOL    HW147632   4.385   4.103   8.671
15397SOL    HW247633   4.435   4.242   8.635
15398SOL     OW47634   4.642   5.403   8.918
15398SOL    HW147635   4.636   5.348   8.841
15398SOL    HW247636   4.602   5.486   8.891
15399SOL     OW47637   3.944   4.882   9.009
15399SOL    HW147638   3.860   4.838   9.017
15399SOL    HW247639   3.960   4.888   8.915
15400SOL     OW47640   5.049   4.761   8.669
15400SOL    HW147641   5.064   4.692   8.603
15400SOL    HW247642   4.982   4.817   8.630
15401SOL     OW47643   5.517   5.448   8.623
15401SOL    HW147644   5.569   5.475   8.547
15401SOL    HW247645   5.472   5.368   8.593
15402SOL     OW47646   4.969   5.474   8.580
15402SOL    HW147647   5.045   5.492   8.525
15402SOL    HW247648   4.966   5.378   8.586
15403SOL     OW47649   4.432   5.429   9.205
15403SOL    HW147650   4.377   5.472   9.140
15403SOL    HW247651   4.508   5.396   9.156
15404SOL     OW47652   5.518   3.873   8.008
15404SOL    HW147653   5.535   3.878   7.913
15404SOL    HW247654   5.440   3.818   8.015
15405SOL     OW47655   5.123   5.290   7.944
15405SOL    HW147656   5.179   5.320   7.872
15405SOL    HW247657   5.073   5.367   7.970
15406SOL     OW47658   3.824   5.562   9.300
15406SOL    HW147659   3.796   5.474   9.324
15406SOL    HW247660   3.893   5.583   9.363
15407SOL     OW47661   4.517   5.003   8.862
15407SOL    HW147662   4.476   5.038   8.941
15407SOL    HW247663   4.446   4.998   8.798
15408SOL     OW47664   4.383   5.346   7.607
15408SOL    HW147665   4.397   5.367   7.515
15408SOL    HW247666   4.331   5.266   7.605
15409SOL     OW47667   5.342   5.450   8.851
15409SOL    HW147668   5.395   5.447   8.771
15409SOL    HW247669   5.331   5.544   8.868
15410SOL     OW47670   5.567   3.897   8.422
15410SOL    HW147671   5.588   3.810   8.388
15410SOL    HW247672   5.480   3.916   8.386
15411SOL     OW47673   4.928   5.333   7.478
15411SOL    HW147674   4.921   5.244   7.511
15411SOL    HW247675   4.861   5.338   7.410
15412SOL     OW47676   4.555   4.733   8.791
15412SOL    HW147677   4.573   4.721   8.698
15412SOL    HW247678   4.552   4.828   8.804
15413SOL     OW47679   5.205   5.372   7.498
15413SOL    HW147680   5.113   5.351   7.480
15413SOL    HW247681   5.247   5.372   7.412
15414SOL     OW47682   5.339   5.013   8.732
15414SOL    HW147683   5.382   4.981   8.812
15414SOL    HW247684   5.272   5.074   8.764
15415SOL     OW47685   4.761   3.959   8.412
15415SOL    HW147686   4.761   3.908   8.331
15415SOL    HW247687   4.743   3.895   8.481
15416SOL     OW47688   4.335   5.250   7.921
15416SOL    HW147689   4.390   5.190   7.871
15416SOL    HW247690   4.249   5.209   7.922
15417SOL     OW47691   5.467   4.128   8.846
15417SOL    HW147692   5.547   4.181   8.838
15417SOL    HW247693   5.482   4.053   8.790
15418SOL     OW47694   3.990   5.119   7.748
15418SOL    HW147695   3.898   5.103   7.726
15418SOL    HW247696   3.992   5.117   7.844
15419SOL     OW47697   3.869   4.774   9.303
15419SOL    HW147698   3.807   4.761   9.231
15419SOL    HW247699   3.941   4.713   9.283
15420SOL     OW47700   3.783   4.065   7.496
15420SOL    HW147701   3.721   4.053   7.424
15420SOL    HW247702   3.830   4.146   7.475
15421SOL     OW47703   5.153   4.585   8.853
15421SOL    HW147704   5.096   4.636   8.795
15421SOL    HW247705   5.237   4.581   8.808
15422SOL     OW47706   3.791   3.875   7.738
15422SOL    HW147707   3.769   3.949   7.682
15422SOL    HW247708   3.877   3.846   7.706
15423SOL     OW47709   4.903   5.082   7.567
15423SOL    HW147710   4.816   5.044   7.562
15423SOL    HW247711   4.933   5.062   7.656
15424SOL     OW47712   4.358   4.569   8.915
15424SOL    HW147713   4.398   4.642   8.867
15424SOL    HW247714   4.405   4.491   8.883
15425SOL     OW47715   5.211   5.533   8.450
15425SOL    HW147716   5.222   5.551   8.357
15425SOL    HW247717   5.262   5.453   8.465
15426SOL     OW47718   4.449   4.268   9.226
15426SOL    HW147719   4.498   4.350   9.217
15426SOL    HW247720   4.502   4.203   9.179
15427SOL     OW47721   5.205   4.915   9.077
15427SOL    HW147722   5.199   4.930   9.171
15427SOL    HW247723   5.297   4.933   9.056
15428SOL     OW47724   4.095   5.470   9.017
15428SOL    HW147725   4.011   5.498   8.981
15428SOL    HW247726   4.076   5.388   9.064
15429SOL     OW47727   5.393   4.603   8.708
15429SOL    HW147728   5.382   4.513   8.677
15429SOL    HW247729   5.375   4.658   8.631
15430SOL     OW47730   5.446   4.070   9.121
15430SOL    HW147731   5.458   4.111   9.035
15430SOL    HW247732   5.404   3.986   9.101
15431SOL     OW47733   5.495   4.650   8.954
15431SOL    HW147734   5.469   4.741   8.967
15431SOL    HW247735   5.468   4.629   8.865
15432SOL     OW47736   4.622   5.112   7.510
15432SOL    HW147737   4.532   5.119   7.542
15432SOL    HW247738   4.629   5.179   7.442
15433SOL     OW47739   4.433   5.593   8.441
15433SOL    HW147740   4.402   5.594   8.351
15433SOL    HW247741   4.479   5.509   8.449
15434SOL     OW47742   4.876   4.795   7.519
15434SOL    HW147743   4.810   4.781   7.451
15434SOL    HW247744   4.920   4.710   7.526
15435SOL     OW47745   5.571   5.280   8.297
15435SOL    HW147746   5.494   5.267   8.241
15435SOL    HW247747   5.586   5.195   8.338
15436SOL     OW47748   3.949   5.035   9.291
15436SOL    HW147749   3.922   4.956   9.245
15436SOL    HW247750   3.906   5.030   9.376
15437SOL     OW47751   3.783   4.947   8.084
15437SOL    HW147752   3.809   4.873   8.139
15437SOL    HW247753   3.789   4.914   7.994
15438SOL     OW47754   4.404   5.125   9.098
15438SOL    HW147755   4.319   5.080   9.096
15438SOL    HW247756   4.386   5.213   9.065
15439SOL     OW47757   5.516   3.904   8.695
15439SOL    HW147758   5.524   3.808   8.700
15439SOL    HW247759   5.522   3.924   8.602
15440SOL     OW47760   5.392   5.219   8.551
15440SOL    HW147761   5.327   5.192   8.486
15440SOL    HW247762   5.397   5.146   8.611
15441SOL     OW47763   4.069   4.292   8.807
15441SOL    HW147764   4.077   4.203   8.842
15441SOL    HW247765   4.038   4.281   8.717
15442SOL     OW47766   4.537   5.295   8.126
15442SOL    HW147767   4.517   5.352   8.052
15442SOL    HW247768   4.471   5.226   8.122
15443SOL     OW47769   5.173   3.906   8.647
15443SOL    HW147770   5.111   3.836   8.624
15443SOL    HW247771   5.118   3.984   8.658
15444SOL     OW47772   4.721   3.743   8.575
15444SOL    HW147773   4.658   3.689   8.528
15444SOL    HW247774   4.802   3.693   8.573
15445SOL     OW47775   4.479   5.058   7.786
15445SOL    HW147776   4.422   4.995   7.741
15445SOL    HW247777   4.567   5.024   7.774
15446SOL     OW47778   4.365   5.372   8.685
15446SOL    HW147779   4.368   5.390   8.779
15446SOL    HW247780   4.434   5.306   8.672
15447SOL     OW47781   5.312   3.939   8.343
15447SOL    HW147782   5.231   3.963   8.388
15447SOL    HW247783   5.317   3.999   8.269
15448SOL     OW47784   4.613   5.387   7.787
15448SOL    HW147785   4.539   5.359   7.734
15448SOL    HW247786   4.577   5.455   7.845
15449SOL     OW47787   3.941   4.353   9.447
15449SOL    HW147788   3.866   4.299   9.470
15449SOL    HW247789   3.946   4.348   9.351
15450SOL     OW47790   3.927   4.039  10.307
15450SOL    HW147791   3.980   3.984  10.364
15450SOL    HW247792   3.846   3.989  10.294
15451SOL     OW47793   3.726   4.091   9.948
15451SOL    HW147794   3.633   4.113   9.958
15451SOL    HW247795   3.726   4.009   9.898
15452SOL     OW47796   4.293   5.021  10.495
15452SOL    HW147797   4.199   5.007  10.502
15452SOL    HW247798   4.306   5.112  10.522
15453SOL     OW47799   5.298   5.237  10.015
15453SOL    HW147800   5.256   5.227  10.101
15453SOL    HW247801   5.226   5.241   9.953
15454SOL     OW47802   4.883   4.414  10.032
15454SOL    HW147803   4.907   4.499   9.996
15454SOL    HW247804   4.822   4.434  10.103
15455SOL     OW47805   5.463   4.317   9.555
15455SOL    HW147806   5.447   4.337   9.462
15455SOL    HW247807   5.474   4.222   9.558
15456SOL     OW47808   4.457   4.864  10.345
15456SOL    HW147809   4.395   4.904  10.406
15456SOL    HW247810   4.508   4.937  10.311
15457SOL     OW47811   4.592   4.494  11.129
15457SOL    HW147812   4.607   4.564  11.193
15457SOL    HW247813   4.615   4.533  11.045
15458SOL     OW47814   4.433   4.870  11.131
15458SOL    HW147815   4.480   4.947  11.161
15458SOL    HW247816   4.354   4.904  11.089
15459SOL     OW47817   4.018   5.195  10.367
15459SOL    HW147818   3.969   5.118  10.337
15459SOL    HW247819   4.094   5.198  10.309
15460SOL     OW47820   5.185   5.230  10.671
15460SOL    HW147821   5.235   5.312  10.678
15460SOL    HW247822   5.112   5.242  10.731
15461SOL     OW47823   4.160   4.110  10.819
15461SOL    HW147824   4.247   4.071  10.812
15461SOL    HW247825   4.100   4.039  10.794
15462SOL     OW47826   5.312   4.189  10.042
15462SOL    HW147827   5.318   4.238   9.960
15462SOL    HW247828   5.332   4.254  10.109
15463SOL     OW47829   3.936   5.443   9.777
15463SOL    HW147830   3.963   5.521   9.825
15463SOL    HW247831   4.005   5.429   9.713
15464SOL     OW47832   4.860   5.092  11.010
15464SOL    HW147833   4.909   5.101  11.092
15464SOL    HW247834   4.820   5.005  11.015
15465SOL     OW47835   3.944   5.202   9.924
15465SOL    HW147836   3.915   5.248   9.845
15465SOL    HW247837   3.897   5.119   9.921
15466SOL     OW47838   4.011   4.820  10.209
15466SOL    HW147839   3.995   4.729  10.236
15466SOL    HW247840   3.943   4.870  10.252
15467SOL     OW47841   4.307   5.528  10.719
15467SOL    HW147842   4.234   5.507  10.777
15467SOL    HW247843   4.344   5.609  10.754
15468SOL     OW47844   4.351   4.699   9.428
15468SOL    HW147845   4.376   4.762   9.360
15468SOL    HW247846   4.369   4.745   9.510
15469SOL     OW47847   5.327   3.840  10.777
15469SOL    HW147848   5.241   3.866  10.743
15469SOL    HW247849   5.326   3.866  10.868
15470SOL     OW47850   3.834   4.366   9.873
15470SOL    HW147851   3.805   4.276   9.888
15470SOL    HW247852   3.822   4.409   9.958
15471SOL     OW47853   5.562   5.474   9.639
15471SOL    HW147854   5.634   5.448   9.696
15471SOL    HW247855   5.581   5.565   9.616
15472SOL     OW47856   3.782   5.319   9.422
15472SOL    HW147857   3.768   5.224   9.427
15472SOL    HW247858   3.736   5.354   9.498
15473SOL     OW47859   5.375   4.608   9.927
15473SOL    HW147860   5.465   4.581   9.915
15473SOL    HW247861   5.363   4.680   9.865
15474SOL     OW47862   5.372   4.825   9.749
15474SOL    HW147863   5.455   4.824   9.702
15474SOL    HW247864   5.383   4.889   9.819
15475SOL     OW47865   3.854   4.468  10.899
15475SOL    HW147866   3.946   4.496  10.895
15475SOL    HW247867   3.804   4.550  10.902
15476SOL     OW47868   4.339   5.106  10.038
15476SOL    HW147869   4.303   5.018  10.039
15476SOL    HW247870   4.321   5.139   9.950
15477SOL     OW47871   5.006   4.951  10.735
15477SOL    HW147872   5.043   4.890  10.671
15477SOL    HW247873   5.068   4.950  10.808
15478SOL     OW47874   4.545   3.722   9.868
15478SOL    HW147875   4.584   3.797   9.823
15478SOL    HW247876   4.451   3.732   9.855
15479SOL     OW47877   3.919   4.676  10.590
15479SOL    HW147878   4.005   4.639  10.571
15479SOL    HW247879   3.862   4.638  10.523
15480SOL     OW47880   5.256   4.722   9.512
15480SOL    HW147881   5.188   4.662   9.542
15480SOL    HW247882   5.296   4.755   9.593
15481SOL     OW47883   4.902   5.545  10.934
15481SOL    HW147884   4.911   5.587  10.849
15481SOL    HW247885   4.926   5.454  10.919
15482SOL     OW47886   4.061   3.967  11.143
15482SOL    HW147887   4.109   4.049  11.146
15482SOL    HW247888   3.971   3.990  11.168
15483SOL     OW47889   5.194   5.136  10.256
15483SOL    HW147890   5.124   5.149  10.321
15483SOL    HW247891   5.184   5.044  10.229
15484SOL     OW47892   5.368   5.494   9.886
15484SOL    HW147893   5.361   5.447   9.803
15484SOL    HW247894   5.353   5.426   9.953
15485SOL     OW47895   4.341   4.492   9.631
15485SOL    HW147896   4.339   4.539   9.547
15485SOL    HW247897   4.259   4.443   9.632
15486SOL     OW47898   4.992   4.074  10.211
15486SOL    HW147899   4.903   4.043  10.223
15486SOL    HW247900   5.043   4.029  10.278
15487SOL     OW47901   5.297   5.402   9.621
15487SOL    HW147902   5.391   5.419   9.614
15487SOL    HW247903   5.270   5.383   9.531
15488SOL     OW47904   4.517   4.349  10.769
15488SOL    HW147905   4.487   4.320  10.855
15488SOL    HW247906   4.489   4.280  10.709
15489SOL     OW47907   5.130   4.220  10.976
15489SOL    HW147908   5.122   4.246  11.067
15489SOL    HW247909   5.165   4.130  10.980
15490SOL     OW47910   4.677   4.612  10.897
15490SOL    HW147911   4.730   4.544  10.855
15490SOL    HW247912   4.626   4.649  10.825
15491SOL     OW47913   4.721   4.135  10.538
15491SOL    HW147914   4.632   4.150  10.571
15491SOL    HW247915   4.710   4.077  10.463
15492SOL     OW47916   4.776   4.410   9.733
15492SOL    HW147917   4.775   4.389   9.827
15492SOL    HW247918   4.697   4.368   9.699
15493SOL     OW47919   3.807   4.519  10.098
15493SOL    HW147920   3.886   4.528  10.152
15493SOL    HW247921   3.759   4.600  10.114
15494SOL     OW47922   3.836   5.593  10.894
15494SOL    HW147923   3.841   5.574  10.988
15494SOL    HW247924   3.748   5.566  10.869
15495SOL     OW47925   5.439   4.295  11.138
15495SOL    HW147926   5.399   4.370  11.092
15495SOL    HW247927   5.450   4.229  11.070
15496SOL     OW47928   5.107   4.864   9.846
15496SOL    HW147929   5.187   4.853   9.795
15496SOL    HW247930   5.055   4.927   9.796
15497SOL     OW47931   4.738   5.192   9.797
15497SOL    HW147932   4.756   5.283   9.821
15497SOL    HW247933   4.710   5.151   9.878
15498SOL     OW47934   4.093   5.534  10.178
15498SOL    HW147935   4.159   5.467  10.197
15498SOL    HW247936   4.133   5.617  10.203
15499SOL     OW47937   5.516   4.754  10.178
15499SOL    HW147938   5.467   4.791  10.104
15499SOL    HW247939   5.460   4.769  10.254
15500SOL     OW47940   4.954   5.272  10.823
15500SOL    HW147941   4.936   5.205  10.889
15500SOL    HW247942   4.880   5.268  10.764
15501SOL     OW47943   4.056   4.656   9.559
15501SOL    HW147944   4.095   4.678   9.474
15501SOL    HW247945   4.004   4.577   9.541
15502SOL     OW47946   5.192   4.457  10.059
15502SOL    HW147947   5.194   4.481  10.152
15502SOL    HW247948   5.261   4.510  10.019
15503SOL     OW47949   4.193   4.989  11.048
15503SOL    HW147950   4.166   4.991  10.956
15503SOL    HW247951   4.111   4.991  11.097
15504SOL     OW47952   4.791   5.423   9.561
15504SOL    HW147953   4.858   5.462   9.617
15504SOL    HW247954   4.838   5.398   9.482
15505SOL     OW47955   3.892   3.987  10.818
15505SOL    HW147956   3.860   4.071  10.787
15505SOL    HW247957   3.904   3.999  10.912
15506SOL     OW47958   5.348   5.120   9.419
15506SOL    HW147959   5.316   5.197   9.374
15506SOL    HW247960   5.290   5.049   9.391
15507SOL     OW47961   4.174   5.452   9.631
15507SOL    HW147962   4.227   5.510   9.685
15507SOL    HW247963   4.234   5.421   9.563
15508SOL     OW47964   5.111   3.811   9.714
15508SOL    HW147965   5.101   3.776   9.626
15508SOL    HW247966   5.194   3.859   9.712
15509SOL     OW47967   4.001   5.513  10.550
15509SOL    HW147968   4.040   5.476  10.629
15509SOL    HW247969   4.020   5.449  10.482
15510SOL     OW47970   4.661   5.430  10.211
15510SOL    HW147971   4.744   5.388  10.235
15510SOL    HW247972   4.625   5.376  10.141
15511SOL     OW47973   4.105   4.417   9.828
15511SOL    HW147974   4.134   4.326   9.831
15511SOL    HW247975   4.010   4.412   9.819
15512SOL     OW47976   5.250   3.951  11.026
15512SOL    HW147977   5.235   3.959  11.120
15512SOL    HW247978   5.166   3.923  10.990
15513SOL     OW47979   4.495   4.009  11.071
15513SOL    HW147980   4.574   3.955  11.067
15513SOL    HW247981   4.465   4.001  11.161
15514SOL     OW47982   4.596   5.242  10.505
15514SOL    HW147983   4.580   5.207  10.418
15514SOL    HW247984   4.670   5.192  10.538
15515SOL     OW47985   5.063   4.320  10.734
15515SOL    HW147986   5.092   4.283  10.818
15515SOL    HW247987   5.100   4.408  10.733
15516SOL     OW47988   4.541   5.116  10.256
15516SOL    HW147989   4.629   5.105  10.220
15516SOL    HW247990   4.483   5.119  10.180
15517SOL     OW47991   4.646   4.231  10.204
15517SOL    HW147992   4.624   4.224  10.111
15517SOL    HW247993   4.669   4.142  10.230
15518SOL     OW47994   4.288   3.780   9.808
15518SOL    HW147995   4.201   3.769   9.846
15518SOL    HW247996   4.281   3.857   9.752
15519SOL     OW47997   5.164   4.929   9.351
15519SOL    HW147998   5.190   4.849   9.396
15519SOL    HW247999   5.074   4.944   9.380
15520SOL     OW48000   4.665   3.955   9.775
15520SOL    HW148001   4.637   3.975   9.686
15520SOL    HW248002   4.758   3.976   9.775
15521SOL     OW48003   4.803   4.411  10.759
15521SOL    HW148004   4.739   4.341  10.763
15521SOL    HW248005   4.888   4.366  10.752
15522SOL     OW48006   4.939   5.301  10.117
15522SOL    HW148007   4.969   5.364  10.051
15522SOL    HW248008   4.986   5.327  10.197
15523SOL     OW48009   4.212   4.847  10.029
15523SOL    HW148010   4.138   4.846  10.090
15523SOL    HW248011   4.172   4.842   9.942
15524SOL     OW48012   4.980   5.518   9.909
15524SOL    HW148013   5.032   5.583   9.861
15524SOL    HW248014   4.927   5.570   9.969
15525SOL     OW48015   4.776   4.333   9.383
15525SOL    HW148016   4.700   4.378   9.347
15525SOL    HW248017   4.851   4.383   9.353
15526SOL     OW48018   3.826   4.252  10.733
15526SOL    HW148019   3.909   4.264  10.687
15526SOL    HW248020   3.815   4.332  10.784
15527SOL     OW48021   4.275   3.975  10.534
15527SOL    HW148022   4.293   3.949  10.444
15527SOL    HW248023   4.184   3.949  10.549
15528SOL     OW48024   4.601   4.191   9.932
15528SOL    HW148025   4.553   4.230   9.860
15528SOL    HW248026   4.615   4.100   9.904
15529SOL     OW48027   4.747   3.775  10.058
15529SOL    HW148028   4.680   3.778   9.989
15529SOL    HW248029   4.722   3.702  10.114
15530SOL     OW48030   5.175   4.875  10.163
15530SOL    HW148031   5.098   4.820  10.152
15530SOL    HW248032   5.205   4.892  10.074
15531SOL     OW48033   5.152   4.307  10.312
15531SOL    HW148034   5.093   4.251  10.364
15531SOL    HW248035   5.230   4.316  10.366
15532SOL     OW48036   5.573   4.531   9.697
15532SOL    HW148037   5.633   4.477   9.748
15532SOL    HW248038   5.535   4.471   9.634
15533SOL     OW48039   4.210   5.139   9.462
15533SOL    HW148040   4.136   5.107   9.514
15533SOL    HW248041   4.196   5.100   9.375
15534SOL     OW48042   5.404   4.978   9.973
15534SOL    HW148043   5.500   4.983   9.975
15534SOL    HW248044   5.375   5.069   9.984
15535SOL     OW48045   5.123   4.306   9.395
15535SOL    HW148046   5.087   4.268   9.475
15535SOL    HW248047   5.215   4.278   9.394
15536SOL     OW48048   4.264   4.024   9.652
15536SOL    HW148049   4.286   3.962   9.583
15536SOL    HW248050   4.236   4.103   9.606
15537SOL     OW48051   5.474   4.961  10.871
15537SOL    HW148052   5.561   4.930  10.848
15537SOL    HW248053   5.487   5.052  10.899
15538SOL     OW48054   4.788   5.070  10.628
15538SOL    HW148055   4.710   5.046  10.678
15538SOL    HW248056   4.861   5.032  10.678
15539SOL     OW48057   5.352   5.361  10.968
15539SOL    HW148058   5.335   5.390  10.879
15539SOL    HW248059   5.428   5.303  10.960
15540SOL     OW48060   4.825   4.900  10.408
15540SOL    HW148061   4.804   4.958  10.481
15540SOL    HW248062   4.824   4.957  10.331
15541SOL     OW48063   5.345   4.818  10.385
15541SOL    HW148064   5.337   4.885  10.453
15541SOL    HW248065   5.275   4.838  10.324
15542SOL     OW48066   4.676   3.810  10.714
15542SOL    HW148067   4.684   3.802  10.619
15542SOL    HW248068   4.757   3.852  10.742
15543SOL     OW48069   4.715   4.847  11.038
15543SOL    HW148070   4.623   4.863  11.058
15543SOL    HW248071   4.715   4.769  10.983
15544SOL     OW48072   4.437   4.796   9.678
15544SOL    HW148073   4.377   4.729   9.710
15544SOL    HW248074   4.519   4.750   9.661
15545SOL     OW48075   4.158   4.539  10.549
15545SOL    HW148076   4.223   4.550  10.619
15545SOL    HW248077   4.121   4.452  10.564
15546SOL     OW48078   5.003   4.168  10.516
15546SOL    HW148079   5.030   4.213  10.596
15546SOL    HW248080   4.910   4.152  10.528
15547SOL     OW48081   3.796   5.301  10.634
15547SOL    HW148082   3.785   5.390  10.603
15547SOL    HW248083   3.889   5.294  10.655
15548SOL     OW48084   4.087   4.833   9.780
15548SOL    HW148085   4.073   4.903   9.717
15548SOL    HW248086   4.076   4.752   9.730
15549SOL     OW48087   4.286   4.278  10.163
15549SOL    HW148088   4.266   4.283  10.069
15549SOL    HW248089   4.317   4.189  10.176
15550SOL     OW48090   4.973   5.071   9.709
15550SOL    HW148091   5.033   5.141   9.734
15550SOL    HW248092   4.887   5.101   9.739
15551SOL     OW48093   5.007   5.157  10.453
15551SOL    HW148094   5.059   5.218  10.505
15551SOL    HW248095   4.936   5.130  10.511
15552SOL     OW48096   5.326   4.333   9.803
15552SOL    HW148097   5.285   4.418   9.818
15552SOL    HW248098   5.372   4.342   9.720
15553SOL     OW48099   4.070   5.240  10.630
15553SOL    HW148100   4.048   5.219  10.539
15553SOL    HW248101   4.164   5.255  10.629
15554SOL     OW48102   4.148   4.464  10.914
15554SOL    HW148103   4.206   4.512  10.855
15554SOL    HW248104   4.196   4.384  10.934
15555SOL     OW48105   5.341   4.511  11.003
15555SOL    HW148106   5.252   4.546  10.995
15555SOL    HW248107   5.389   4.550  10.930
15556SOL     OW48108   4.716   3.842  11.087
15556SOL    HW148109   4.771   3.919  11.072
15556SOL    HW248110   4.762   3.771  11.043
15557SOL     OW48111   4.210   3.747  11.071
15557SOL    HW148112   4.168   3.703  10.997
15557SOL    HW248113   4.160   3.828  11.082
15558SOL     OW48114   4.293   4.631  10.322
15558SOL    HW148115   4.352   4.700  10.354
15558SOL    HW248116   4.252   4.597  10.401
15559SOL     OW48117   5.070   4.574  10.320
15559SOL    HW148118   4.976   4.572  10.299
15559SOL    HW248119   5.092   4.484  10.340
15560SOL     OW48120   4.951   4.226   9.609
15560SOL    HW148121   4.896   4.204   9.533
15560SOL    HW248122   4.908   4.302   9.648
15561SOL     OW48123   4.009   3.916  10.572
15561SOL    HW148124   3.955   3.934  10.649
15561SOL    HW248125   3.996   3.823  10.554
15562SOL     OW48126   3.762   5.036  10.582
15562SOL    HW148127   3.795   4.983  10.655
15562SOL    HW248128   3.768   5.126  10.613
15563SOL     OW48129   4.474   4.363  10.381
15563SOL    HW148130   4.530   4.314  10.321
15563SOL    HW248131   4.401   4.392  10.327
15564SOL     OW48132   5.474   4.678  11.178
15564SOL    HW148133   5.429   4.616  11.121
15564SOL    HW248134   5.409   4.701  11.245
15565SOL     OW48135   4.042   3.784   9.929
15565SOL    HW148136   4.022   3.876   9.945
15565SOL    HW248137   4.043   3.744  10.016
15566SOL     OW48138   5.291   4.071   9.716
15566SOL    HW148139   5.357   4.022   9.766
15566SOL    HW248140   5.298   4.160   9.749
15567SOL     OW48141   4.752   4.481  10.268
15567SOL    HW148142   4.741   4.502  10.360
15567SOL    HW248143   4.716   4.392  10.259
15568SOL     OW48144   4.657   5.289  11.010
15568SOL    HW148145   4.663   5.325  10.921
15568SOL    HW248146   4.739   5.241  11.022
15569SOL     OW48147   5.579   5.216  10.910
15569SOL    HW148148   5.599   5.246  10.821
15569SOL    HW248149   5.660   5.232  10.959
15570SOL     OW48150   4.075   4.628  11.126
15570SOL    HW148151   4.155   4.657  11.170
15570SOL    HW248152   4.106   4.571  11.056
15571SOL     OW48153   5.293   3.970   9.461
15571SOL    HW148154   5.217   3.983   9.404
15571SOL    HW248155   5.272   4.019   9.541
15572SOL     OW48156   5.010   4.548   9.342
15572SOL    HW148157   5.058   4.465   9.344
15572SOL    HW248158   5.035   4.588   9.259
15573SOL     OW48159   4.788   5.067  10.166
15573SOL    HW148160   4.802   4.994  10.106
15573SOL    HW248161   4.854   5.132  10.141
15574SOL     OW48162   4.025   4.539  10.263
15574SOL    HW148163   4.119   4.561  10.270
15574SOL    HW248164   4.021   4.446  10.286
15575SOL     OW48165   4.068   4.269  10.326
15575SOL    HW148166   4.024   4.187  10.307
15575SOL    HW248167   4.144   4.270  10.268
15576SOL     OW48168   4.850   4.070  11.055
15576SOL    HW148169   4.827   4.159  11.082
15576SOL    HW248170   4.905   4.081  10.978
15577SOL     OW48171   3.737   5.052   9.518
15577SOL    HW148172   3.650   5.068   9.481
15577SOL    HW248173   3.737   4.959   9.539
15578SOL     OW48174   4.218   5.288  10.201
15578SOL    HW148175   4.288   5.344  10.233
15578SOL    HW248176   4.261   5.222  10.147
15579SOL     OW48177   4.695   4.520  10.530
15579SOL    HW148178   4.742   4.493  10.608
15579SOL    HW248179   4.615   4.467  10.530
15580SOL     OW48180   3.764   4.262  10.430
15580SOL    HW148181   3.802   4.219  10.353
15580SOL    HW248182   3.835   4.264  10.494
15581SOL     OW48183   3.936   4.241  11.031
15581SOL    HW148184   4.010   4.221  10.974
15581SOL    HW248185   3.893   4.316  10.988
15582SOL     OW48186   5.108   4.653  10.968
15582SOL    HW148187   5.126   4.747  10.965
15582SOL    HW248188   5.100   4.626  10.877
15583SOL     OW48189   4.537   4.298   9.661
15583SOL    HW148190   4.533   4.240   9.584
15583SOL    HW248191   4.465   4.360   9.648
15584SOL     OW48192   5.364   4.330  10.483
15584SOL    HW148193   5.351   4.276  10.561
15584SOL    HW248194   5.451   4.308  10.453
15585SOL     OW48195   3.973   5.279  11.038
15585SOL    HW148196   3.942   5.334  11.110
15585SOL    HW248197   3.979   5.191  11.077
15586SOL     OW48198   4.446   4.173  10.583
15586SOL    HW148199   4.387   4.099  10.566
15586SOL    HW248200   4.435   4.230  10.507
15587SOL     OW48201   4.653   5.400  10.758
15587SOL    HW148202   4.632   5.368  10.671
15587SOL    HW248203   4.648   5.496  10.750
15588SOL     OW48204   4.196   4.254   9.513
15588SOL    HW148205   4.232   4.248   9.425
15588SOL    HW248206   4.103   4.275   9.499
15589SOL     OW48207   3.857   4.860  10.781
15589SOL    HW148208   3.863   4.815  10.865
15589SOL    HW248209   3.880   4.793  10.716
15590SOL     OW48210   5.040   4.762  10.524
15590SOL    HW148211   5.068   4.707  10.452
15590SOL    HW248212   4.964   4.810  10.490
15591SOL     OW48213   5.040   4.573   9.616
15591SOL    HW148214   4.955   4.556   9.658
15591SOL    HW248215   5.022   4.563   9.522
15592SOL     OW48216   5.519   5.453  10.480
15592SOL    HW148217   5.564   5.489  10.403
15592SOL    HW248218   5.469   5.379  10.446
15593SOL     OW48219   3.821   4.989  10.319
15593SOL    HW148220   3.794   5.002  10.410
15593SOL    HW248221   3.751   4.936  10.281
15594SOL     OW48222   4.411   5.387  11.069
15594SOL    HW148223   4.385   5.466  11.020
15594SOL    HW248224   4.502   5.372  11.042
15595SOL     OW48225   5.473   3.885   9.829
15595SOL    HW148226   5.523   3.869   9.749
15595SOL    HW248227   5.442   3.799   9.856
15596SOL     OW48228   5.113   5.294   9.799
15596SOL    HW148229   5.174   5.327   9.733
15596SOL    HW248230   5.069   5.373   9.832
15597SOL     OW48231   3.859   5.533  11.155
15597SOL    HW148232   3.813   5.459  11.197
15597SOL    HW248233   3.909   5.572  11.226
15598SOL     OW48234   4.997   4.657   9.976
15598SOL    HW148235   5.072   4.598   9.988
15598SOL    HW248236   5.031   4.727   9.920
15599SOL     OW48237   4.537   5.005  10.727
15599SOL    HW148238   4.508   5.044  10.810
15599SOL    HW248239   4.466   5.024  10.666
15600SOL     OW48240   4.370   5.355   9.459
15600SOL    HW148241   4.383   5.381   9.367
15600SOL    HW248242   4.315   5.277   9.454
15601SOL     OW48243   5.351   5.452  10.706
15601SOL    HW148244   5.401   5.455  10.625
15601SOL    HW248245   5.335   5.544  10.727
15602SOL     OW48246   5.567   3.890  10.283
15602SOL    HW148247   5.592   3.803  10.251
15602SOL    HW248248   5.481   3.905  10.245
15603SOL     OW48249   3.985   4.042  10.022
15603SOL    HW148250   3.895   4.065  10.000
15603SOL    HW248251   3.985   4.035  10.117
15604SOL     OW48252   4.926   5.329   9.344
15604SOL    HW148253   4.925   5.234   9.359
15604SOL    HW248254   4.874   5.341   9.264
15605SOL     OW48255   4.548   4.732  10.686
15605SOL    HW148256   4.605   4.717  10.610
15605SOL    HW248257   4.552   4.827  10.699
15606SOL     OW48258   4.662   4.658   9.623
15606SOL    HW148259   4.710   4.684   9.545
15606SOL    HW248260   4.693   4.569   9.641
15607SOL     OW48261   5.202   5.386   9.354
15607SOL    HW148262   5.114   5.357   9.333
15607SOL    HW248263   5.249   5.381   9.271
15608SOL     OW48264   4.084   5.021  10.803
15608SOL    HW148265   4.072   5.102  10.754
15608SOL    HW248266   4.002   4.973  10.790
15609SOL     OW48267   5.329   5.013  10.582
15609SOL    HW148268   5.390   5.003  10.655
15609SOL    HW248269   5.266   5.079  10.612
15610SOL     OW48270   4.779   4.834  10.025
15610SOL    HW148271   4.707   4.778  10.053
15610SOL    HW248272   4.846   4.773   9.992
15611SOL     OW48273   4.744   3.966  10.268
15611SOL    HW148274   4.735   3.918  10.185
15611SOL    HW248275   4.736   3.898  10.335
15612SOL     OW48276   4.321   5.223   9.793
15612SOL    HW148277   4.377   5.167   9.739
15612SOL    HW248278   4.251   5.251   9.733
15613SOL     OW48279   5.455   4.133  10.690
15613SOL    HW148280   5.534   4.187  10.685
15613SOL    HW248281   5.477   4.054  10.641
15614SOL     OW48282   3.999   5.066   9.629
15614SOL    HW148283   3.911   5.057   9.592
15614SOL    HW248284   3.985   5.101   9.716
15615SOL     OW48285   3.842   4.744  11.030
15615SOL    HW148286   3.767   4.724  11.085
15615SOL    HW248287   3.918   4.708  11.076
15616SOL     OW48288   4.395   3.915  10.828
15616SOL    HW148289   4.472   3.912  10.770
15616SOL    HW248290   4.429   3.951  10.910
15617SOL     OW48291   3.789   4.093   9.395
15617SOL    HW148292   3.769   4.004   9.364
15617SOL    HW248293   3.828   4.136   9.319
15618SOL     OW48294   5.150   4.585  10.706
15618SOL    HW148295   5.097   4.644  10.652
15618SOL    HW248296   5.238   4.590  10.668
15619SOL     OW48297   4.914   5.059   9.435
15619SOL    HW148298   4.823   5.030   9.432
15619SOL    HW248299   4.939   5.053   9.527
15620SOL     OW48300   4.345   4.558  10.743
15620SOL    HW148301   4.401   4.634  10.729
15620SOL    HW248302   4.406   4.485  10.753
15621SOL     OW48303   5.276   5.486  10.246
15621SOL    HW148304   5.282   5.575  10.213
15621SOL    HW248305   5.197   5.486  10.300
15622SOL     OW48306   4.429   4.287  11.016
15622SOL    HW148307   4.478   4.349  11.071
15622SOL    HW248308   4.460   4.201  11.045
15623SOL     OW48309   5.200   4.912  10.938
15623SOL    HW148310   5.187   4.933  11.031
15623SOL    HW248311   5.291   4.937  10.920
15624SOL     OW48312   4.086   5.473  10.873
15624SOL    HW148313   4.000   5.516  10.870
15624SOL    HW248314   4.069   5.391  10.919
15625SOL     OW48315   5.390   4.607  10.567
15625SOL    HW148316   5.384   4.523  10.520
15625SOL    HW248317   5.378   4.673  10.498
15626SOL     OW48318   4.943   4.022   9.794
15626SOL    HW148319   5.000   3.950   9.767
15626SOL    HW248320   4.960   4.091   9.730
15627SOL     OW48321   4.331   4.529   9.915
15627SOL    HW148322   4.385   4.505   9.840
15627SOL    HW248323   4.244   4.497   9.893
15628SOL     OW48324   5.475   4.083  10.961
15628SOL    HW148325   5.460   4.104  10.869
15628SOL    HW248326   5.397   4.033  10.987
15629SOL     OW48327   5.487   4.654  10.821
15629SOL    HW148328   5.466   4.746  10.838
15629SOL    HW248329   5.462   4.641  10.729
15630SOL     OW48330   4.615   5.174   9.391
15630SOL    HW148331   4.554   5.103   9.369
15630SOL    HW248332   4.640   5.210   9.306
15631SOL     OW48333   4.386   5.501  10.245
15631SOL    HW148334   4.375   5.595  10.231
15631SOL    HW248335   4.481   5.488  10.246
15632SOL     OW48336   4.579   4.680  10.171
15632SOL    HW148337   4.640   4.612  10.201
15632SOL    HW248338   4.570   4.739  10.246
15633SOL     OW48339   4.811   4.730   9.406
15633SOL    HW148340   4.772   4.764   9.325
15633SOL    HW248341   4.877   4.667   9.376
15634SOL     OW48342   5.562   5.279  10.159
15634SOL    HW148343   5.485   5.280  10.102
15634SOL    HW248344   5.530   5.243  10.242
15635SOL     OW48345   3.948   5.026  11.160
15635SOL    HW148346   3.880   4.977  11.115
15635SOL    HW248347   3.917   5.034  11.250
15636SOL     OW48348   3.810   4.960   9.956
15636SOL    HW148349   3.802   4.908  10.037
15636SOL    HW248350   3.840   4.897   9.891
15637SOL     OW48351   4.397   5.131  10.926
15637SOL    HW148352   4.324   5.088  10.971
15637SOL    HW248353   4.407   5.214  10.973
15638SOL     OW48354   5.565   3.916  10.557
15638SOL    HW148355   5.516   3.836  10.578
15638SOL    HW248356   5.564   3.920  10.461
15639SOL     OW48357   4.191   4.166   9.883
15639SOL    HW148358   4.221   4.111   9.810
15639SOL    HW248359   4.124   4.113   9.927
15640SOL     OW48360   5.426   5.203  10.391
15640SOL    HW148361   5.343   5.200  10.344
15640SOL    HW248362   5.417   5.139  10.461
15641SOL     OW48363   4.058   4.280  10.599
15641SOL    HW148364   4.119   4.222  10.644
15641SOL    HW248365   4.073   4.262  10.506
15642SOL     OW48366   4.542   5.313   9.991
15642SOL    HW148367   4.516   5.370   9.919
15642SOL    HW248368   4.476   5.244   9.992
15643SOL     OW48369   5.139   3.953  10.418
15643SOL    HW148370   5.120   3.876  10.473
15643SOL    HW248371   5.102   4.026  10.467
15644SOL     OW48372   4.735   3.743  10.441
15644SOL    HW148373   4.678   3.683  10.392
15644SOL    HW248374   4.820   3.700  10.441
15645SOL     OW48375   4.499   5.073   9.658
15645SOL    HW148376   4.458   4.986   9.650
15645SOL    HW248377   4.592   5.054   9.669
15646SOL     OW48378   4.338   5.284  10.587
15646SOL    HW148379   4.337   5.368  10.633
15646SOL    HW248380   4.429   5.273  10.560
15647SOL     OW48381   5.312   3.928  10.201
15647SOL    HW148382   5.251   3.944  10.273
15647SOL    HW248383   5.293   3.997  10.138
15648SOL     OW48384   3.770   4.796   9.616
15648SOL    HW148385   3.819   4.777   9.536
15648SOL    HW248386   3.750   4.710   9.652
15649SOL     OW48387   3.953   4.335  11.296
15649SOL    HW148388   3.866   4.366  11.321
15649SOL    HW248389   3.950   4.326  11.201
15650SOL     OW48390   3.953   3.997  12.157
15650SOL    HW148391   3.979   3.963  12.243
15650SOL    HW248392   3.861   3.973  12.149
15651SOL     OW48393   3.723   4.112  11.809
15651SOL    HW148394   3.644   4.140  11.855
15651SOL    HW248395   3.697   4.033  11.762
15652SOL     OW48396   4.272   4.960  12.324
15652SOL    HW148397   4.182   4.958  12.290
15652SOL    HW248398   4.284   5.051  12.353
15653SOL     OW48399   5.306   5.245  11.882
15653SOL    HW148400   5.260   5.233  11.965
15653SOL    HW248401   5.237   5.252  11.817
15654SOL     OW48402   4.861   4.415  11.870
15654SOL    HW148403   4.905   4.499  11.856
15654SOL    HW248404   4.808   4.428  11.949
15655SOL     OW48405   5.520   4.319  11.393
15655SOL    HW148406   5.490   4.319  11.302
15655SOL    HW248407   5.468   4.250  11.435
15656SOL     OW48408   4.507   4.871  12.238
15656SOL    HW148409   4.419   4.887  12.270
15656SOL    HW248410   4.529   4.949  12.187
15657SOL     OW48411   4.412   4.711  11.818
15657SOL    HW148412   4.478   4.709  11.888
15657SOL    HW248413   4.344   4.770  11.851
15658SOL     OW48414   4.058   5.141  12.231
15658SOL    HW148415   4.021   5.064  12.188
15658SOL    HW248416   4.101   5.189  12.161
15659SOL     OW48417   5.324   4.165  11.918
15659SOL    HW148418   5.250   4.175  11.857
15659SOL    HW248419   5.316   4.239  11.978
15660SOL     OW48420   3.943   5.442  11.639
15660SOL    HW148421   3.968   5.516  11.694
15660SOL    HW248422   4.017   5.431  11.579
15661SOL     OW48423   3.953   5.170  11.709
15661SOL    HW148424   3.934   5.263  11.712
15661SOL    HW248425   3.901   5.133  11.781
15662SOL     OW48426   4.299   4.710  11.315
15662SOL    HW148427   4.349   4.752  11.245
15662SOL    HW248428   4.341   4.741  11.396
15663SOL     OW48429   3.837   4.382  11.728
15663SOL    HW148430   3.813   4.294  11.756
15663SOL    HW248431   3.823   4.436  11.806
15664SOL     OW48432   5.568   5.487  11.500
15664SOL    HW148433   5.642   5.461  11.556
15664SOL    HW248434   5.589   5.577  11.474
15665SOL     OW48435   3.778   5.314  11.292
15665SOL    HW148436   3.756   5.223  11.308
15665SOL    HW248437   3.745   5.360  11.370
15666SOL     OW48438   5.417   4.645  11.811
15666SOL    HW148439   5.485   4.597  11.764
15666SOL    HW248440   5.382   4.706  11.746
15667SOL     OW48441   5.372   4.829  11.605
15667SOL    HW148442   5.457   4.832  11.562
15667SOL    HW248443   5.377   4.897  11.673
15668SOL     OW48444   3.897   4.470   0.222
15668SOL    HW148445   3.885   4.456   0.316
15668SOL    HW248446   3.817   4.515   0.194
15669SOL     OW48447   4.340   5.119  11.898
15669SOL    HW148448   4.298   5.034  11.905
15669SOL    HW248449   4.323   5.148  11.809
15670SOL     OW48450   4.546   3.726  11.692
15670SOL    HW148451   4.586   3.807  11.662
15670SOL    HW248452   4.452   3.745  11.693
15671SOL     OW48453   3.917   4.682  12.464
15671SOL    HW148454   3.994   4.671  12.407
15671SOL    HW248455   3.843   4.682  12.404
15672SOL     OW48456   5.264   4.717  11.374
15672SOL    HW148457   5.192   4.662  11.404
15672SOL    HW248458   5.297   4.759  11.454
15673SOL     OW48459   5.203   5.134  12.128
15673SOL    HW148460   5.137   5.144  12.196
15673SOL    HW248461   5.185   5.048  12.090
15674SOL     OW48462   5.356   5.513  11.743
15674SOL    HW148463   5.345   5.463  11.663
15674SOL    HW248464   5.348   5.448  11.813
15675SOL     OW48465   4.320   4.439  11.445
15675SOL    HW148466   4.325   4.522  11.399
15675SOL    HW248467   4.255   4.453  11.514
15676SOL     OW48468   5.014   4.093  12.109
15676SOL    HW148469   4.924   4.062  12.107
15676SOL    HW248470   5.058   4.034  12.171
15677SOL     OW48471   5.303   5.418  11.488
15677SOL    HW148472   5.397   5.436  11.480
15677SOL    HW248473   5.275   5.393  11.400
15678SOL     OW48474   4.711   4.070  12.386
15678SOL    HW148475   4.711   4.142  12.449
15678SOL    HW248476   4.624   4.070  12.348
15679SOL     OW48477   4.778   4.416  11.598
15679SOL    HW148478   4.794   4.410  11.692
15679SOL    HW248479   4.694   4.372  11.586
15680SOL     OW48480   3.781   4.550  11.938
15680SOL    HW148481   3.864   4.530  11.982
15680SOL    HW248482   3.748   4.627  11.983
15681SOL     OW48483   4.634   4.065  11.354
15681SOL    HW148484   4.664   4.143  11.308
15681SOL    HW248485   4.675   3.992  11.308
15682SOL     OW48486   5.111   4.859  11.722
15682SOL    HW148487   5.184   4.850  11.661
15682SOL    HW248488   5.056   4.927  11.684
15683SOL     OW48489   4.280   3.908  12.068
15683SOL    HW148490   4.282   3.953  12.152
15683SOL    HW248491   4.273   3.977  12.003
15684SOL     OW48492   4.726   5.169  11.641
15684SOL    HW148493   4.696   5.244  11.589
15684SOL    HW248494   4.700   5.190  11.730
15685SOL     OW48495   4.084   5.544  12.042
15685SOL    HW148496   4.121   5.456  12.048
15685SOL    HW248497   4.158   5.602  12.056
15686SOL     OW48498   5.530   4.769  12.038
15686SOL    HW148499   5.476   4.749  11.961
15686SOL    HW248500   5.467   4.780  12.109
15687SOL     OW48501   4.039   4.690  11.426
15687SOL    HW148502   4.124   4.711  11.387
15687SOL    HW248503   4.012   4.609  11.383
15688SOL     OW48504   5.212   4.469  11.884
15688SOL    HW148505   5.204   4.435  11.973
15688SOL    HW248506   5.287   4.529  11.889
15689SOL     OW48507   4.833   5.526  11.442
15689SOL    HW148508   4.754   5.484  11.476
15689SOL    HW248509   4.872   5.461  11.384
15690SOL     OW48510   5.362   5.103  11.271
15690SOL    HW148511   5.326   5.190  11.254
15690SOL    HW248512   5.290   5.043  11.249
15691SOL     OW48513   4.184   5.463  11.489
15691SOL    HW148514   4.234   5.513  11.554
15691SOL    HW248515   4.250   5.422  11.434
15692SOL     OW48516   5.122   3.826  11.617
15692SOL    HW148517   5.109   3.805  11.525
15692SOL    HW248518   5.216   3.845  11.625
15693SOL     OW48519   3.977   5.508  12.385
15693SOL    HW148520   4.001   5.426  12.430
15693SOL    HW248521   3.927   5.480  12.309
15694SOL     OW48522   4.664   5.421  12.074
15694SOL    HW148523   4.740   5.366  12.092
15694SOL    HW248524   4.618   5.375  12.003
15695SOL     OW48525   4.122   4.420  11.645
15695SOL    HW148526   4.135   4.326  11.658
15695SOL    HW248527   4.029   4.434  11.664
15696SOL     OW48528   4.359   3.824  11.288
15696SOL    HW148529   4.446   3.786  11.276
15696SOL    HW248530   4.310   3.799  11.210
15697SOL     OW48531   4.534   5.101  12.103
15697SOL    HW148532   4.622   5.101  12.066
15697SOL    HW248533   4.476   5.109  12.027
15698SOL     OW48534   4.660   4.234  12.068
15698SOL    HW148535   4.631   4.224  11.977
15698SOL    HW248536   4.693   4.148  12.092
15699SOL     OW48537   4.278   3.784  11.669
15699SOL    HW148538   4.197   3.785  11.720
15699SOL    HW248539   4.272   3.861  11.613
15700SOL     OW48540   5.160   4.922  11.211
15700SOL    HW148541   5.184   4.846  11.263
15700SOL    HW248542   5.070   4.943  11.239
15701SOL     OW48543   4.014   3.770  11.356
15701SOL    HW148544   4.064   3.834  11.305
15701SOL    HW248545   4.080   3.713  11.396
15702SOL     OW48546   4.665   3.968  11.620
15702SOL    HW148547   4.640   4.005  11.535
15702SOL    HW248548   4.758   3.988  11.629
15703SOL     OW48549   4.939   5.305  11.985
15703SOL    HW148550   4.962   5.360  11.911
15703SOL    HW248551   5.004   5.326  12.052
15704SOL     OW48552   4.206   4.878  11.892
15704SOL    HW148553   4.143   4.867  11.963
15704SOL    HW248554   4.154   4.864  11.812
15705SOL     OW48555   4.976   5.516  11.785
15705SOL    HW148556   4.986   5.571  11.708
15705SOL    HW248557   4.902   5.554  11.833
15706SOL     OW48558   4.735   4.279  11.216
15706SOL    HW148559   4.690   4.358  11.186
15706SOL    HW248560   4.808   4.311  11.269
15707SOL     OW48561   4.285   3.931  12.355
15707SOL    HW148562   4.294   3.839  12.328
15707SOL    HW248563   4.192   3.942  12.373
15708SOL     OW48564   4.589   4.178  11.808
15708SOL    HW148565   4.542   4.238  11.750
15708SOL    HW248566   4.611   4.103  11.752
15709SOL     OW48567   4.750   3.767  11.911
15709SOL    HW148568   4.688   3.774  11.839
15709SOL    HW248569   4.717   3.695  11.964
15710SOL     OW48570   5.165   4.877  12.021
15710SOL    HW148571   5.087   4.822  12.017
15710SOL    HW248572   5.188   4.893  11.929
15711SOL     OW48573   5.182   4.331  12.126
15711SOL    HW148574   5.124   4.255  12.132
15711SOL    HW248575   5.239   4.323  12.203
15712SOL     OW48576   5.575   4.531  11.563
15712SOL    HW148577   5.633   4.477  11.617
15712SOL    HW248578   5.546   4.472  11.493
15713SOL     OW48579   4.211   5.148  11.331
15713SOL    HW148580   4.134   5.115  11.376
15713SOL    HW248581   4.216   5.095  11.251
15714SOL     OW48582   5.401   4.993  11.816
15714SOL    HW148583   5.496   4.995  11.830
15714SOL    HW248584   5.372   5.081  11.837
15715SOL     OW48585   5.115   4.291  11.242
15715SOL    HW148586   5.053   4.272  11.312
15715SOL    HW248587   5.197   4.253  11.272
15716SOL     OW48588   4.249   3.982  11.487
15716SOL    HW148589   4.294   3.933  11.419
15716SOL    HW248590   4.226   4.065  11.446
15717SOL     OW48591   4.825   4.949  12.284
15717SOL    HW148592   4.738   4.958  12.324
15717SOL    HW248593   4.813   4.979  12.194
15718SOL     OW48594   5.336   4.818  12.237
15718SOL    HW148595   5.303   4.866  12.314
15718SOL    HW248596   5.272   4.836  12.168
15719SOL     OW48597   4.433   4.784  11.545
15719SOL    HW148598   4.418   4.762  11.637
15719SOL    HW248599   4.510   4.732  11.521
15720SOL     OW48600   4.179   4.542  12.429
15720SOL    HW148601   4.208   4.594  12.504
15720SOL    HW248602   4.167   4.454  12.464
15721SOL     OW48603   4.979   4.090  12.431
15721SOL    HW148604   4.999   4.179  12.461
15721SOL    HW248605   4.888   4.094  12.402
15722SOL     OW48606   4.057   4.848  11.659
15722SOL    HW148607   4.060   4.921  11.598
15722SOL    HW248608   4.058   4.770  11.603
15723SOL     OW48609   4.266   4.245  12.036
15723SOL    HW148610   4.277   4.303  11.961
15723SOL    HW248611   4.329   4.277  12.100
15724SOL     OW48612   4.981   5.064  11.608
15724SOL    HW148613   5.030   5.146  11.613
15724SOL    HW248614   4.889   5.091  11.606
15725SOL     OW48615   5.028   5.126  12.336
15725SOL    HW148616   5.042   5.115  12.430
15725SOL    HW248617   4.953   5.069  12.316
15726SOL     OW48618   5.304   4.344  11.651
15726SOL    HW148619   5.258   4.382  11.726
15726SOL    HW248620   5.310   4.416  11.589
15727SOL     OW48621   4.097   5.269  12.464
15727SOL    HW148622   4.062   5.214  12.393
15727SOL    HW248623   4.184   5.296  12.433
15728SOL     OW48624   4.337   4.599  12.215
15728SOL    HW148625   4.308   4.682  12.179
15728SOL    HW248626   4.277   4.583  12.289
15729SOL     OW48627   5.054   4.575  12.179
15729SOL    HW148628   4.968   4.559  12.141
15729SOL    HW248629   5.102   4.493  12.165
15730SOL     OW48630   4.934   4.250  11.443
15730SOL    HW148631   4.933   4.170  11.497
15730SOL    HW248632   4.888   4.315  11.496
15731SOL     OW48633   4.021   3.909  12.409
15731SOL    HW148634   3.982   3.953  12.484
15731SOL    HW248635   4.014   3.816  12.430
15732SOL     OW48636   3.778   5.061  12.439
15732SOL    HW148637   3.812   4.987  12.488
15732SOL    HW248638   3.782   5.135  12.499
15733SOL     OW48639   4.442   4.347  12.221
15733SOL    HW148640   4.518   4.338  12.164
15733SOL    HW248641   4.416   4.439  12.212
15734SOL     OW48642   4.031   3.781  11.793
15734SOL    HW148643   4.007   3.872  11.811
15734SOL    HW248644   4.039   3.741  11.879
15735SOL     OW48645   5.347   4.102  11.534
15735SOL    HW148646   5.376   4.041  11.602
15735SOL    HW248647   5.323   4.182  11.581
15736SOL     OW48648   4.757   4.478  12.145
15736SOL    HW148649   4.744   4.488  12.239
15736SOL    HW248650   4.727   4.389  12.126
15737SOL     OW48651   5.246   3.991  11.299
15737SOL    HW148652   5.180   3.929  11.331
15737SOL    HW248653   5.282   4.031  11.379
15738SOL     OW48654   5.017   4.548  11.203
15738SOL    HW148655   5.056   4.461  11.202
15738SOL    HW248656   5.046   4.588  11.122
15739SOL     OW48657   4.796   5.067  12.034
15739SOL    HW148658   4.802   4.995  11.971
15739SOL    HW248659   4.853   5.135  11.999
15740SOL     OW48660   4.009   4.515  12.077
15740SOL    HW148661   4.034   4.606  12.097
15740SOL    HW248662   4.057   4.462  12.141
15741SOL     OW48663   4.049   4.247  12.204
15741SOL    HW148664   4.014   4.159  12.188
15741SOL    HW248665   4.122   4.255  12.143
15742SOL     OW48666   4.893   3.941   0.148
15742SOL    HW148667   4.858   4.006   0.209
15742SOL    HW248668   4.921   3.992   0.072
15743SOL     OW48669   3.733   5.042  11.364
15743SOL    HW148670   3.645   5.060  11.332
15743SOL    HW248671   3.728   4.953  11.401
15744SOL     OW48672   3.824   5.497  12.123
15744SOL    HW148673   3.789   5.418  12.080
15744SOL    HW248674   3.910   5.509  12.084
15745SOL     OW48675   4.219   5.304  12.070
15745SOL    HW148676   4.291   5.362  12.095
15745SOL    HW248677   4.261   5.239  12.012
15746SOL     OW48678   4.692   4.511  12.421
15746SOL    HW148679   4.735   4.580  12.471
15746SOL    HW248680   4.600   4.535  12.421
15747SOL     OW48681   3.774   4.276  12.279
15747SOL    HW148682   3.858   4.286  12.234
15747SOL    HW248683   3.799   4.251  12.368
15748SOL     OW48684   4.540   4.290  11.538
15748SOL    HW148685   4.544   4.221  11.472
15748SOL    HW248686   4.468   4.346  11.511
15749SOL     OW48687   5.366   4.329  12.328
15749SOL    HW148688   5.367   4.271  12.404
15749SOL    HW248689   5.458   4.336  12.301
15750SOL     OW48690   4.450   4.154  12.417
15750SOL    HW148691   4.375   4.098  12.398
15750SOL    HW248692   4.437   4.230  12.360
15751SOL     OW48693   4.612   5.370   0.038
15751SOL    HW148694   4.639   5.422  -0.038
15751SOL    HW248695   4.659   5.408   0.112
15752SOL     OW48696   4.189   4.211  11.357
15752SOL    HW148697   4.246   4.284  11.380
15752SOL    HW248698   4.103   4.252  11.344
15753SOL     OW48699   5.020   4.762  12.373
15753SOL    HW148700   5.039   4.704  12.299
15753SOL    HW248701   4.961   4.828  12.337
15754SOL     OW48702   5.051   4.572  11.476
15754SOL    HW148703   4.970   4.558  11.525
15754SOL    HW248704   5.025   4.564  11.384
15755SOL     OW48705   5.521   5.453  12.327
15755SOL    HW148706   5.553   5.483  12.242
15755SOL    HW248707   5.481   5.368  12.309
15756SOL     OW48708   3.745   5.040  12.171
15756SOL    HW148709   3.759   5.050  12.265
15756SOL    HW248710   3.809   4.974  12.144
15757SOL     OW48711   5.454   3.883  11.687
15757SOL    HW148712   5.517   3.869  11.615
15757SOL    HW248713   5.436   3.795  11.720
15758SOL     OW48714   5.126   5.298  11.675
15758SOL    HW148715   5.169   5.326  11.594
15758SOL    HW248716   5.063   5.367  11.694
15759SOL     OW48717   5.003   4.644  11.840
15759SOL    HW148718   5.077   4.585  11.846
15759SOL    HW248719   5.035   4.720  11.791
15760SOL     OW48720   4.389   5.353  11.338
15760SOL    HW148721   4.401   5.368  11.244
15760SOL    HW248722   4.337   5.272  11.343
15761SOL     OW48723   5.434   5.570   0.055
15761SOL    HW148724   5.460   5.517  -0.020
15761SOL    HW248725   5.343   5.548   0.071
15762SOL     OW48726   5.566   3.891  12.142
15762SOL    HW148727   5.593   3.803  12.114
15762SOL    HW248728   5.479   3.902  12.103
15763SOL     OW48729   3.981   4.032  11.882
15763SOL    HW148730   3.897   4.074  11.860
15763SOL    HW248731   3.983   4.031  11.977
15764SOL     OW48732   4.518   4.746  12.483
15764SOL    HW148733   4.516   4.782  12.394
15764SOL    HW248734   4.571   4.808  12.533
15765SOL     OW48735   4.643   4.633  11.477
15765SOL    HW148736   4.694   4.659  11.400
15765SOL    HW248737   4.693   4.563  11.517
15766SOL     OW48738   5.260   5.359  11.224
15766SOL    HW148739   5.166   5.339  11.225
15766SOL    HW248740   5.283   5.364  11.131
15767SOL     OW48741   4.790   4.836  11.893
15767SOL    HW148742   4.716   4.787  11.928
15767SOL    HW248743   4.845   4.771  11.850
15768SOL     OW48744   4.767   3.970  12.107
15768SOL    HW148745   4.760   3.905  12.038
15768SOL    HW248746   4.747   3.923  12.188
15769SOL     OW48747   4.328   5.218  11.646
15769SOL    HW148748   4.385   5.165  11.591
15769SOL    HW248749   4.252   5.237  11.591
15770SOL     OW48750   5.505   4.149   0.005
15770SOL    HW148751   5.517   4.153   0.100
15770SOL    HW248752   5.497   4.056  -0.015
15771SOL     OW48753   3.987   5.062  11.469
15771SOL    HW148754   3.895   5.061  11.440
15771SOL    HW248755   3.984   5.104  11.555
15772SOL     OW48756   3.802   4.058  11.196
15772SOL    HW148757   3.727   4.045  11.138
15772SOL    HW248758   3.845   4.137  11.163
15773SOL     OW48759   3.783   3.877  11.467
15773SOL    HW148760   3.771   3.954  11.412
15773SOL    HW248761   3.870   3.845  11.444
15774SOL     OW48762   4.908   4.997  11.293
15774SOL    HW148763   4.816   5.016  11.274
15774SOL    HW248764   4.941   5.077  11.335
15775SOL     OW48765   5.267   5.486  12.105
15775SOL    HW148766   5.259   5.573  12.065
15775SOL    HW248767   5.205   5.487  12.178
15776SOL     OW48768   5.425   4.600  12.396
15776SOL    HW148769   5.383   4.519  12.364
15776SOL    HW248770   5.392   4.668  12.338
15777SOL     OW48771   4.935   4.037  11.635
15777SOL    HW148772   4.997   3.965  11.629
15777SOL    HW248773   4.966   4.090  11.709
15778SOL     OW48774   4.319   4.445  11.843
15778SOL    HW148775   4.356   4.533  11.834
15778SOL    HW248776   4.249   4.442  11.777
15779SOL     OW48777   5.523   4.609   0.145
15779SOL    HW148778   5.477   4.684   0.182
15779SOL    HW248779   5.490   4.602   0.056
15780SOL     OW48780   4.569   5.093  11.203
15780SOL    HW148781   4.558   5.136  11.287
15780SOL    HW248782   4.597   5.162  11.143
15781SOL     OW48783   4.390   5.513  12.122
15781SOL    HW148784   4.379   5.605  12.095
15781SOL    HW248785   4.484   5.498  12.114
15782SOL     OW48786   4.596   4.696  12.032
15782SOL    HW148787   4.641   4.620  12.070
15782SOL    HW248788   4.560   4.742  12.107
15783SOL     OW48789   4.783   4.682  11.254
15783SOL    HW148790   4.777   4.759  11.197
15783SOL    HW248791   4.867   4.642  11.232
15784SOL     OW48792   5.559   5.282  12.023
15784SOL    HW148793   5.479   5.279  11.970
15784SOL    HW248794   5.535   5.236  12.104
15785SOL     OW48795   3.823   4.944  11.845
15785SOL    HW148796   3.863   4.918  11.928
15785SOL    HW248797   3.880   4.907  11.778
15786SOL     OW48798   5.529   3.891  12.416
15786SOL    HW148799   5.580   3.812  12.433
15786SOL    HW248800   5.534   3.903  12.321
15787SOL     OW48801   4.149   4.157  11.695
15787SOL    HW148802   4.181   4.088  11.638
15787SOL    HW248803   4.100   4.112  11.763
15788SOL     OW48804   5.432   5.201  12.268
15788SOL    HW148805   5.349   5.184  12.223
15788SOL    HW248806   5.421   5.160  12.354
15789SOL     OW48807   4.552   5.307  11.850
15789SOL    HW148808   4.537   5.357  11.770
15789SOL    HW248809   4.480   5.245  11.854
15790SOL     OW48810   5.167   3.953  12.299
15790SOL    HW148811   5.233   3.925  12.363
15790SOL    HW248812   5.100   3.996  12.351
15791SOL     OW48813   4.725   3.706  12.311
15791SOL    HW148814   4.685   3.667  12.233
15791SOL    HW248815   4.818   3.683  12.304
15792SOL     OW48816   4.496   5.057  11.506
15792SOL    HW148817   4.472   4.964  11.507
15792SOL    HW248818   4.586   5.059  11.540
15793SOL     OW48819   5.072   3.779  11.351
15793SOL    HW148820   5.083   3.751  11.260
15793SOL    HW248821   4.990   3.739  11.379
15794SOL     OW48822   5.027   4.186  11.849
15794SOL    HW148823   4.974   4.265  11.849
15794SOL    HW248824   5.020   4.152  11.938
15795SOL     OW48825   5.308   3.917  12.060
15795SOL    HW148826   5.251   3.940  12.132
15795SOL    HW248827   5.304   3.993  12.001
15796SOL     OW48828   3.765   4.792  11.481
15796SOL    HW148829   3.860   4.789  11.465
15796SOL    HW248830   3.742   4.701  11.499
15797SOL     OW48831   4.600   5.389  11.529
15797SOL    HW148832   4.531   5.371  11.465
15797SOL    HW248833   4.569   5.465  11.577
15798SOL     OW48834   3.950   6.144   0.033
15798SOL    HW148835   3.921   6.201   0.105
15798SOL    HW248836   3.979   6.204  -0.035
15799SOL     OW48837   3.950   5.868   0.992
15799SOL    HW148838   3.977   5.835   1.078
15799SOL    HW248839   3.861   5.834   0.981
15800SOL     OW48840   3.722   5.966   0.639
15800SOL    HW148841   3.647   5.991   0.692
15800SOL    HW248842   3.695   5.885   0.595
15801SOL     OW48843   4.295   6.885   1.188
15801SOL    HW148844   4.207   6.887   1.151
15801SOL    HW248845   4.310   6.974   1.221
15802SOL     OW48846   5.288   7.104   0.715
15802SOL    HW148847   5.246   7.085   0.798
15802SOL    HW248848   5.216   7.112   0.652
15803SOL     OW48849   4.866   6.286   0.696
15803SOL    HW148850   4.911   6.371   0.694
15803SOL    HW248851   4.814   6.288   0.777
15804SOL     OW48852   5.472   6.146   0.203
15804SOL    HW148853   5.401   6.209   0.192
15804SOL    HW248854   5.440   6.084   0.268
15805SOL     OW48855   4.466   6.724   1.045
15805SOL    HW148856   4.402   6.759   1.106
15805SOL    HW248857   4.507   6.802   1.006
15806SOL     OW48858   4.603   6.342   1.833
15806SOL    HW148859   4.595   6.405   1.904
15806SOL    HW248860   4.623   6.395   1.756
15807SOL     OW48861   4.410   6.581   0.647
15807SOL    HW148862   4.477   6.576   0.715
15807SOL    HW248863   4.341   6.636   0.684
15808SOL     OW48864   4.436   6.734   1.814
15808SOL    HW148865   4.481   6.812   1.849
15808SOL    HW248866   4.355   6.769   1.776
15809SOL     OW48867   4.060   7.001   1.065
15809SOL    HW148868   3.984   6.962   1.022
15809SOL    HW248869   4.101   7.053   0.996
15810SOL     OW48870   5.184   7.091   1.363
15810SOL    HW148871   5.237   7.170   1.376
15810SOL    HW248872   5.114   7.098   1.427
15811SOL     OW48873   4.184   5.972   1.459
15811SOL    HW148874   4.258   5.914   1.478
15811SOL    HW248875   4.109   5.929   1.501
15812SOL     OW48876   5.316   6.030   0.745
15812SOL    HW148877   5.231   6.041   0.703
15812SOL    HW248878   5.313   6.087   0.821
15813SOL     OW48879   3.934   7.310   0.473
15813SOL    HW148880   3.958   7.385   0.528
15813SOL    HW248881   4.012   7.294   0.419
15814SOL     OW48882   4.861   6.930   1.695
15814SOL    HW148883   4.899   6.926   1.782
15814SOL    HW248884   4.808   6.851   1.687
15815SOL     OW48885   3.948   7.038   0.544
15815SOL    HW148886   3.925   7.130   0.550
15815SOL    HW248887   3.895   6.994   0.610
15816SOL     OW48888   3.996   6.679   0.893
15816SOL    HW148889   3.988   6.590   0.928
15816SOL    HW248890   3.935   6.731   0.945
15817SOL     OW48891   4.321   7.378   1.422
15817SOL    HW148892   4.243   7.356   1.473
15817SOL    HW248893   4.346   7.465   1.452
15818SOL     OW48894   4.305   6.548   0.147
15818SOL    HW148895   4.373   6.573   0.085
15818SOL    HW248896   4.330   6.593   0.228
15819SOL     OW48897   5.323   5.718   1.482
15819SOL    HW148898   5.335   5.802   1.438
15819SOL    HW248899   5.279   5.740   1.565
15820SOL     OW48900   3.843   6.234   0.562
15820SOL    HW148901   3.816   6.145   0.586
15820SOL    HW248902   3.835   6.284   0.642
15821SOL     OW48903   5.574   7.329   0.308
15821SOL    HW148904   5.636   7.308   0.378
15821SOL    HW248905   5.585   7.424   0.294
15822SOL     OW48906   3.753   7.121   0.128
15822SOL    HW148907   3.667   7.078   0.131
15822SOL    HW248908   3.744   7.195   0.188
15823SOL     OW48909   5.407   6.517   0.663
15823SOL    HW148910   5.488   6.470   0.646
15823SOL    HW248911   5.390   6.565   0.582
15824SOL     OW48912   5.359   6.716   0.444
15824SOL    HW148913   5.442   6.716   0.396
15824SOL    HW248914   5.377   6.768   0.522
15825SOL     OW48915   3.854   6.332   1.571
15825SOL    HW148916   3.945   6.357   1.582
15825SOL    HW248917   3.805   6.414   1.577
15826SOL     OW48918   4.347   6.977   0.734
15826SOL    HW148919   4.301   6.894   0.746
15826SOL    HW248920   4.328   7.002   0.643
15827SOL     OW48921   5.010   6.824   1.414
15827SOL    HW148922   5.042   6.752   1.360
15827SOL    HW248923   5.062   6.818   1.495
15828SOL     OW48924   4.551   5.600   0.524
15828SOL    HW148925   4.587   5.685   0.499
15828SOL    HW248926   4.456   5.614   0.527
15829SOL     OW48927   3.914   6.545   1.287
15829SOL    HW148928   3.999   6.506   1.269
15829SOL    HW248929   3.852   6.491   1.238
15830SOL     OW48930   5.214   6.582   0.224
15830SOL    HW148931   5.161   6.515   0.179
15830SOL    HW248932   5.303   6.547   0.221
15831SOL     OW48933   4.918   7.400   1.628
15831SOL    HW148934   4.917   7.460   1.553
15831SOL    HW248935   4.934   7.314   1.590
15832SOL     OW48936   4.040   5.879   1.771
15832SOL    HW148937   4.123   5.912   1.805
15832SOL    HW248938   4.014   5.811   1.833
15833SOL     OW48939   5.189   7.007   0.953
15833SOL    HW148940   5.122   7.025   1.019
15833SOL    HW248941   5.176   6.915   0.930
15834SOL     OW48942   5.358   7.351   0.581
15834SOL    HW148943   5.352   7.309   0.495
15834SOL    HW248944   5.354   7.279   0.643
15835SOL     OW48945   4.304   6.296   0.273
15835SOL    HW148946   4.313   6.384   0.236
15835SOL    HW248947   4.242   6.307   0.346
15836SOL     OW48948   5.000   5.954   0.931
15836SOL    HW148949   4.911   5.922   0.941
15836SOL    HW248950   5.052   5.900   0.990
15837SOL     OW48951   5.314   7.253   0.323
15837SOL    HW148952   5.408   7.269   0.317
15837SOL    HW248953   5.280   7.278   0.237
15838SOL     OW48954   4.519   6.204   1.445
15838SOL    HW148955   4.495   6.178   1.534
15838SOL    HW248956   4.486   6.133   1.390
15839SOL     OW48957   5.125   6.060   1.684
15839SOL    HW148958   5.124   6.103   1.770
15839SOL    HW248959   5.166   5.975   1.700
15840SOL     OW48960   4.675   6.472   1.590
15840SOL    HW148961   4.730   6.403   1.551
15840SOL    HW248962   4.624   6.505   1.516
15841SOL     OW48963   4.725   5.995   1.227
15841SOL    HW148964   4.638   6.015   1.262
15841SOL    HW248965   4.707   5.940   1.151
15842SOL     OW48966   4.777   6.278   0.431
15842SOL    HW148967   4.790   6.270   0.526
15842SOL    HW248968   4.692   6.237   0.414
15843SOL     OW48969   3.814   6.401   0.775
15843SOL    HW148970   3.893   6.397   0.829
15843SOL    HW248971   3.768   6.479   0.807
15844SOL     OW48972   3.852   7.457   1.588
15844SOL    HW148973   3.858   7.436   1.682
15844SOL    HW248974   3.774   7.411   1.558
15845SOL     OW48975   4.605   5.931   0.216
15845SOL    HW148976   4.624   5.970   0.130
15845SOL    HW248977   4.595   5.838   0.198
15846SOL     OW48978   5.480   6.171   1.817
15846SOL    HW148979   5.427   6.239   1.776
15846SOL    HW248980   5.474   6.096   1.757
15847SOL     OW48981   4.279   5.764   0.906
15847SOL    HW148982   4.279   5.787   0.999
15847SOL    HW248983   4.275   5.848   0.861
15848SOL     OW48984   4.729   7.018   0.469
15848SOL    HW148985   4.691   7.093   0.423
15848SOL    HW248986   4.707   7.032   0.561
15849SOL     OW48987   4.076   7.401   0.868
15849SOL    HW148988   4.118   7.315   0.873
15849SOL    HW248989   4.144   7.462   0.894
15850SOL     OW48990   5.528   6.633   0.884
15850SOL    HW148991   5.471   6.613   0.810
15850SOL    HW248992   5.469   6.644   0.958
15851SOL     OW48993   4.951   7.128   1.511
15851SOL    HW148994   4.940   7.058   1.576
15851SOL    HW248995   4.870   7.129   1.462
15852SOL     OW48996   4.039   6.565   0.264
15852SOL    HW148997   4.113   6.580   0.204
15852SOL    HW248998   3.999   6.484   0.232
15853SOL     OW48999   5.202   6.336   0.724
15853SOL    HW149000   5.195   6.290   0.808
15853SOL    HW249001   5.279   6.392   0.734
15854SOL     OW49002   4.198   6.859   1.731
15854SOL    HW149003   4.169   6.864   1.639
15854SOL    HW249004   4.116   6.853   1.781
15855SOL     OW49005   4.813   7.369   0.237
15855SOL    HW149006   4.763   7.321   0.303
15855SOL    HW249007   4.858   7.301   0.187
15856SOL     OW49008   3.920   5.867   1.503
15856SOL    HW149009   3.837   5.906   1.529
15856SOL    HW249010   3.943   5.809   1.575
15857SOL     OW49011   5.377   6.995   0.066
15857SOL    HW149012   5.312   7.062   0.046
15857SOL    HW249013   5.325   6.917   0.085
15858SOL     OW49014   4.175   7.314   0.331
15858SOL    HW149015   4.223   7.372   0.390
15858SOL    HW249016   4.242   7.277   0.274
15859SOL     OW49017   5.123   5.686   0.426
15859SOL    HW149018   5.119   5.656   0.335
15859SOL    HW249019   5.215   5.681   0.449
15860SOL     OW49020   3.983   7.379   1.227
15860SOL    HW149021   4.023   7.310   1.279
15860SOL    HW249022   3.980   7.343   1.138
15861SOL     OW49023   4.656   7.288   0.895
15861SOL    HW149024   4.719   7.232   0.939
15861SOL    HW249025   4.622   7.234   0.823
15862SOL     OW49026   4.115   6.277   0.477
15862SOL    HW149027   4.133   6.183   0.487
15862SOL    HW249028   4.025   6.287   0.509
15863SOL     OW49029   5.234   5.805   1.739
15863SOL    HW149030   5.255   5.827   1.830
15863SOL    HW249031   5.165   5.739   1.746
15864SOL     OW49032   4.359   5.685   0.123
15864SOL    HW149033   4.455   5.685   0.126
15864SOL    HW249034   4.337   5.605   0.075
15865SOL     OW49035   4.489   5.860   1.745
15865SOL    HW149036   4.573   5.814   1.735
15865SOL    HW249037   4.445   5.815   1.816
15866SOL     OW49038   4.602   7.114   1.190
15866SOL    HW149039   4.579   7.069   1.109
15866SOL    HW249040   4.666   7.055   1.232
15867SOL     OW49041   5.066   6.172   1.439
15867SOL    HW149042   5.096   6.141   1.524
15867SOL    HW249043   5.099   6.262   1.433
15868SOL     OW49044   4.546   6.976   0.949
15868SOL    HW149045   4.630   6.964   0.904
15868SOL    HW249046   4.481   6.981   0.878
15869SOL     OW49047   4.661   6.101   0.896
15869SOL    HW149048   4.633   6.089   0.805
15869SOL    HW249049   4.683   6.013   0.927
15870SOL     OW49050   4.282   5.644   0.503
15870SOL    HW149051   4.204   5.643   0.558
15870SOL    HW249052   4.269   5.719   0.445
15871SOL     OW49053   5.170   6.816   0.085
15871SOL    HW149054   5.177   6.722   0.103
15871SOL    HW249055   5.077   6.830   0.067
15872SOL     OW49056   4.040   5.677   0.194
15872SOL    HW149057   4.103   5.736   0.236
15872SOL    HW249058   4.065   5.590   0.224
15873SOL     OW49059   4.670   5.843   0.467
15873SOL    HW149060   4.644   5.881   0.383
15873SOL    HW249061   4.765   5.854   0.469
15874SOL     OW49062   4.805   6.272   1.453
15874SOL    HW149063   4.736   6.208   1.468
15874SOL    HW249064   4.886   6.221   1.457
15875SOL     OW49065   4.956   7.148   0.784
15875SOL    HW149066   4.962   7.221   0.722
15875SOL    HW249067   5.006   7.178   0.860
15876SOL     OW49068   4.202   6.742   0.728
15876SOL    HW149069   4.136   6.721   0.795
15876SOL    HW249070   4.156   6.732   0.645
15877SOL     OW49071   4.984   7.373   0.612
15877SOL    HW149072   5.037   7.440   0.568
15877SOL    HW249073   4.912   7.423   0.652
15878SOL     OW49074   4.796   6.215   0.059
15878SOL    HW149075   4.759   6.140   0.013
15878SOL    HW249076   4.838   6.177   0.137
15879SOL     OW49077   3.803   6.145   1.382
15879SOL    HW149078   3.896   6.133   1.363
15879SOL    HW249079   3.801   6.213   1.450
15880SOL     OW49080   4.278   5.812   1.179
15880SOL    HW149081   4.322   5.753   1.241
15880SOL    HW249082   4.186   5.811   1.207
15881SOL     OW49083   4.597   6.053   0.636
15881SOL    HW149084   4.544   6.104   0.574
15881SOL    HW249085   4.615   5.971   0.590
15882SOL     OW49086   4.748   5.633   0.737
15882SOL    HW149087   4.683   5.628   0.667
15882SOL    HW249088   4.723   5.564   0.799
15883SOL     OW49089   5.175   6.744   0.876
15883SOL    HW149090   5.106   6.680   0.862
15883SOL    HW249091   5.224   6.746   0.793
15884SOL     OW49092   5.189   6.188   0.962
15884SOL    HW149093   5.126   6.117   0.975
15884SOL    HW249094   5.244   6.185   1.041
15885SOL     OW49095   5.536   6.408   0.430
15885SOL    HW149096   5.588   6.334   0.461
15885SOL    HW249097   5.505   6.381   0.343
15886SOL     OW49098   4.215   6.986   0.175
15886SOL    HW149099   4.149   6.942   0.228
15886SOL    HW249100   4.166   7.026   0.103
15887SOL     OW49101   5.382   6.848   0.674
15887SOL    HW149102   5.477   6.843   0.682
15887SOL    HW249103   5.361   6.940   0.688
15888SOL     OW49104   5.146   6.143   0.094
15888SOL    HW149105   5.081   6.147   0.164
15888SOL    HW249106   5.184   6.055   0.100
15889SOL     OW49107   4.235   5.835   0.312
15889SOL    HW149108   4.292   5.791   0.249
15889SOL    HW249109   4.219   5.921   0.274
15890SOL     OW49110   5.469   6.826   1.555
15890SOL    HW149111   5.543   6.777   1.592
15890SOL    HW249112   5.485   6.917   1.579
15891SOL     OW49113   4.774   6.933   1.323
15891SOL    HW149114   4.698   6.905   1.374
15891SOL    HW249115   4.850   6.898   1.370
15892SOL     OW49116   5.332   7.216   1.658
15892SOL    HW149117   5.328   7.250   1.568
15892SOL    HW249118   5.410   7.160   1.658
15893SOL     OW49119   4.858   6.792   1.098
15893SOL    HW149120   4.804   6.831   1.167
15893SOL    HW249121   4.827   6.833   1.017
15894SOL     OW49122   5.353   6.685   1.087
15894SOL    HW149123   5.349   6.747   1.159
15894SOL    HW249124   5.275   6.704   1.034
15895SOL     OW49125   4.644   5.675   1.390
15895SOL    HW149126   4.673   5.664   1.299
15895SOL    HW249127   4.719   5.715   1.434
15896SOL     OW49128   4.706   6.706   1.718
15896SOL    HW149129   4.616   6.721   1.748
15896SOL    HW249130   4.702   6.624   1.669
15897SOL     OW49131   4.431   6.650   0.375
15897SOL    HW149132   4.414   6.628   0.467
15897SOL    HW249133   4.510   6.601   0.353
15898SOL     OW49134   4.147   6.401   1.250
15898SOL    HW149135   4.212   6.412   1.319
15898SOL    HW249136   4.111   6.313   1.265
15899SOL     OW49137   4.992   5.964   1.277
15899SOL    HW149138   5.021   6.039   1.329
15899SOL    HW249139   4.900   5.983   1.258
15900SOL     OW49140   3.796   7.177   1.368
15900SOL    HW149141   3.775   7.241   1.299
15900SOL    HW249142   3.888   7.154   1.353
15901SOL     OW49143   4.064   6.712   0.496
15901SOL    HW149144   4.051   6.788   0.439
15901SOL    HW249145   4.066   6.638   0.435
15902SOL     OW49146   4.268   6.110   0.852
15902SOL    HW149147   4.284   6.171   0.780
15902SOL    HW249148   4.332   6.136   0.919
15903SOL     OW49149   4.985   6.917   0.406
15903SOL    HW149150   5.032   6.997   0.430
15903SOL    HW249151   4.895   6.932   0.435
15904SOL     OW49152   5.013   7.051   1.155
15904SOL    HW149153   5.070   7.058   1.231
15904SOL    HW249154   4.951   6.981   1.177
15905SOL     OW49155   5.301   6.225   0.482
15905SOL    HW149156   5.244   6.241   0.557
15905SOL    HW249157   5.359   6.301   0.478
15906SOL     OW49158   4.064   7.120   1.308
15906SOL    HW149159   4.052   7.069   1.228
15906SOL    HW249160   4.159   7.128   1.317
15907SOL     OW49161   4.141   6.330   1.605
15907SOL    HW149162   4.208   6.368   1.548
15907SOL    HW249163   4.177   6.245   1.630
15908SOL     OW49164   5.344   6.367   1.687
15908SOL    HW149165   5.256   6.404   1.686
15908SOL    HW249166   5.391   6.414   1.618
15909SOL     OW49167   4.723   5.717   1.731
15909SOL    HW149168   4.789   5.786   1.730
15909SOL    HW249169   4.760   5.649   1.787
15910SOL     OW49170   4.229   5.611   1.722
15910SOL    HW149171   4.166   5.567   1.666
15910SOL    HW249172   4.182   5.629   1.804
15911SOL     OW49173   4.308   6.459   1.033
15911SOL    HW149174   4.341   6.549   1.040
15911SOL    HW249175   4.253   6.449   1.111
15912SOL     OW49176   5.059   6.440   1.009
15912SOL    HW149177   4.967   6.416   0.997
15912SOL    HW249178   5.106   6.357   1.004
15913SOL     OW49179   4.941   6.119   0.279
15913SOL    HW149180   4.954   6.039   0.329
15913SOL    HW249181   4.887   6.175   0.335
15914SOL     OW49182   4.011   5.786   1.248
15914SOL    HW149183   3.979   5.817   1.333
15914SOL    HW249184   3.996   5.692   1.250
15915SOL     OW49185   3.816   6.905   1.269
15915SOL    HW149186   3.817   6.837   1.337
15915SOL    HW249187   3.760   6.974   1.305
15916SOL     OW49188   4.436   6.210   1.043
15916SOL    HW149189   4.518   6.204   0.994
15916SOL    HW249190   4.408   6.301   1.032
15917SOL     OW49191   5.466   6.551   1.858
15917SOL    HW149192   5.421   6.479   1.813
15917SOL    HW249193   5.410   6.570   1.934
15918SOL     OW49194   4.036   5.649   0.626
15918SOL    HW149195   4.012   5.739   0.649
15918SOL    HW249196   4.043   5.604   0.710
15919SOL     OW49197   5.354   5.967   0.376
15919SOL    HW149198   5.373   5.897   0.439
15919SOL    HW249199   5.322   6.039   0.431
15920SOL     OW49200   4.764   6.344   0.963
15920SOL    HW149201   4.746   6.362   1.055
15920SOL    HW249202   4.733   6.255   0.949
15921SOL     OW49203   4.708   7.159   1.723
15921SOL    HW149204   4.693   7.197   1.636
15921SOL    HW249205   4.744   7.072   1.705
15922SOL     OW49206   5.572   7.080   1.602
15922SOL    HW149207   5.594   7.117   1.517
15922SOL    HW249208   5.648   7.098   1.657
15923SOL     OW49209   4.083   6.511   1.804
15923SOL    HW149210   4.159   6.520   1.862
15923SOL    HW249211   4.108   6.444   1.741
15924SOL     OW49212   5.245   5.895   0.130
15924SOL    HW149213   5.202   5.810   0.125
15924SOL    HW249214   5.279   5.900   0.219
15925SOL     OW49215   5.050   6.428   0.078
15925SOL    HW149216   5.055   6.336   0.051
15925SOL    HW249217   5.053   6.478  -0.004
15926SOL     OW49218   4.794   6.929   0.852
15926SOL    HW149219   4.804   6.855   0.792
15926SOL    HW249220   4.855   6.996   0.819
15927SOL     OW49221   4.034   6.394   0.942
15927SOL    HW149222   4.127   6.416   0.945
15927SOL    HW249223   4.029   6.304   0.975
15928SOL     OW49224   4.045   6.117   1.005
15928SOL    HW149225   4.012   6.027   0.999
15928SOL    HW249226   4.123   6.118   0.949
15929SOL     OW49227   4.864   5.963   1.680
15929SOL    HW149228   4.813   6.011   1.745
15929SOL    HW249229   4.951   6.004   1.682
15930SOL     OW49230   4.883   5.785   1.470
15930SOL    HW149231   4.870   5.846   1.543
15930SOL    HW249232   4.928   5.837   1.403
15931SOL     OW49233   3.811   7.367   0.935
15931SOL    HW149234   3.782   7.287   0.891
15931SOL    HW249235   3.901   7.380   0.907
15932SOL     OW49236   4.213   7.162   0.896
15932SOL    HW149237   4.281   7.224   0.921
15932SOL    HW249238   4.258   7.097   0.842
15933SOL     OW49239   4.691   6.370   1.223
15933SOL    HW149240   4.752   6.350   1.294
15933SOL    HW249241   4.607   6.337   1.253
15934SOL     OW49242   3.769   6.141   1.108
15934SOL    HW149243   3.854   6.136   1.064
15934SOL    HW249244   3.791   6.139   1.202
15935SOL     OW49245   3.894   6.121   1.758
15935SOL    HW149246   3.948   6.049   1.726
15935SOL    HW249247   3.882   6.178   1.682
15936SOL     OW49248   5.114   6.512   1.656
15936SOL    HW149249   5.127   6.607   1.656
15936SOL    HW249250   5.106   6.488   1.563
15937SOL     OW49251   4.540   6.163   0.364
15937SOL    HW149252   4.547   6.085   0.309
15937SOL    HW249253   4.461   6.207   0.334
15938SOL     OW49254   5.360   6.192   1.177
15938SOL    HW149255   5.348   6.135   1.253
15938SOL    HW249256   5.448   6.171   1.145
15939SOL     OW49257   3.959   7.127   1.723
15939SOL    HW149258   3.943   7.195   1.789
15939SOL    HW249259   3.967   7.046   1.773
15940SOL     OW49260   4.447   6.030   1.248
15940SOL    HW149261   4.382   5.961   1.236
15940SOL    HW249262   4.430   6.092   1.177
15941SOL     OW49263   4.661   7.259   1.464
15941SOL    HW149264   4.620   7.221   1.386
15941SOL    HW249265   4.646   7.353   1.456
15942SOL     OW49266   4.177   6.064   0.191
15942SOL    HW149267   4.224   6.144   0.214
15942SOL    HW249268   4.101   6.095   0.141
15943SOL     OW49269   3.861   6.727   1.483
15943SOL    HW149270   3.867   6.682   1.567
15943SOL    HW249271   3.879   6.659   1.418
15944SOL     OW49272   5.049   6.629   1.209
15944SOL    HW149273   5.064   6.565   1.139
15944SOL    HW249274   4.981   6.687   1.175
15945SOL     OW49275   4.983   6.448   0.363
15945SOL    HW149276   4.909   6.392   0.385
15945SOL    HW249277   5.001   6.430   0.271
15946SOL     OW49278   5.498   7.315   1.155
15946SOL    HW149279   5.558   7.343   1.086
15946SOL    HW249280   5.473   7.226   1.130
15947SOL     OW49281   4.961   7.316   1.091
15947SOL    HW149282   5.047   7.342   1.057
15947SOL    HW249283   4.973   7.226   1.122
15948SOL     OW49284   3.814   6.859   1.005
15948SOL    HW149285   3.813   6.875   1.099
15948SOL    HW249286   3.735   6.806   0.990
15949SOL     OW49287   4.402   7.260   1.744
15949SOL    HW149288   4.344   7.335   1.736
15949SOL    HW249289   4.479   7.283   1.692
15950SOL     OW49290   4.628   5.675   0.121
15950SOL    HW149291   4.660   5.688   0.031
15950SOL    HW249292   4.697   5.624   0.164
15951SOL     OW49293   5.449   5.740   0.513
15951SOL    HW149294   5.516   5.717   0.450
15951SOL    HW249295   5.425   5.657   0.554
15952SOL     OW49296   5.113   7.150   0.486
15952SOL    HW149297   5.177   7.187   0.425
15952SOL    HW249298   5.064   7.226   0.518
15953SOL     OW49299   3.873   7.370   1.849
15953SOL    HW149300   3.823   7.310   1.903
15953SOL    HW249301   3.921   7.424   1.912
15954SOL     OW49302   5.023   6.517   0.623
15954SOL    HW149303   5.088   6.458   0.660
15954SOL    HW249304   5.012   6.488   0.533
15955SOL     OW49305   4.523   6.865   1.418
15955SOL    HW149306   4.499   6.908   1.499
15955SOL    HW249307   4.446   6.874   1.361
15956SOL     OW49308   4.384   7.195   0.193
15956SOL    HW149309   4.441   7.198   0.116
15956SOL    HW249310   4.334   7.114   0.184
15957SOL     OW49311   5.343   7.317   1.392
15957SOL    HW149312   5.393   7.322   1.311
15957SOL    HW249313   5.328   7.408   1.417
15958SOL     OW49314   5.515   5.741   1.004
15958SOL    HW149315   5.599   5.723   0.964
15958SOL    HW249316   5.452   5.741   0.931
15959SOL     OW49317   3.981   5.900   0.716
15959SOL    HW149318   3.893   5.931   0.696
15959SOL    HW249319   3.983   5.893   0.812
15960SOL     OW49320   4.918   7.192   0.066
15960SOL    HW149321   4.912   7.098   0.083
15960SOL    HW249322   4.882   7.203  -0.022
15961SOL     OW49323   4.546   6.593   1.378
15961SOL    HW149324   4.592   6.587   1.294
15961SOL    HW249325   4.542   6.686   1.397
15962SOL     OW49326   4.653   6.515   0.308
15962SOL    HW149327   4.708   6.541   0.234
15962SOL    HW249328   4.689   6.432   0.337
15963SOL     OW49329   5.182   7.168   0.004
15963SOL    HW149330   5.097   7.194   0.038
15963SOL    HW249331   5.236   7.247   0.014
15964SOL     OW49332   4.086   6.892   1.487
15964SOL    HW149333   4.067   6.969   1.433
15964SOL    HW249334   4.008   6.836   1.478
15965SOL     OW49335   5.346   6.878   1.291
15965SOL    HW149336   5.388   6.852   1.373
15965SOL    HW249337   5.279   6.941   1.317
15966SOL     OW49338   4.804   6.698   0.708
15966SOL    HW149339   4.730   6.651   0.746
15966SOL    HW249340   4.862   6.630   0.676
15967SOL     OW49341   4.750   5.827   0.959
15967SOL    HW149342   4.745   5.779   0.876
15967SOL    HW249343   4.745   5.759   1.026
15968SOL     OW49344   4.327   7.066   0.477
15968SOL    HW149345   4.364   7.018   0.403
15968SOL    HW249346   4.246   7.103   0.442
15969SOL     OW49347   5.452   5.982   1.387
15969SOL    HW149348   5.522   6.047   1.384
15969SOL    HW249349   5.485   5.908   1.337
15970SOL     OW49350   3.993   6.910   0.315
15970SOL    HW149351   3.910   6.917   0.267
15970SOL    HW249352   3.978   6.961   0.395
15971SOL     OW49353   3.848   6.631   1.747
15971SOL    HW149354   3.777   6.589   1.795
15971SOL    HW249355   3.926   6.582   1.773
15972SOL     OW49356   4.402   5.782   1.488
15972SOL    HW149357   4.488   5.755   1.457
15972SOL    HW249358   4.416   5.805   1.580
15973SOL     OW49359   5.147   6.444   1.393
15973SOL    HW149360   5.098   6.505   1.338
15973SOL    HW249361   5.236   6.446   1.357
15974SOL     OW49362   3.791   5.734   0.317
15974SOL    HW149363   3.786   5.828   0.301
15974SOL    HW249364   3.878   5.709   0.286
15975SOL     OW49365   4.903   6.926   0.119
15975SOL    HW149366   4.811   6.907   0.099
15975SOL    HW249367   4.910   6.916   0.214
15976SOL     OW49368   4.344   6.414   1.435
15976SOL    HW149369   4.402   6.490   1.424
15976SOL    HW249370   4.404   6.340   1.444
15977SOL     OW49371   5.212   7.372   0.984
15977SOL    HW149372   5.233   7.440   0.920
15977SOL    HW249373   5.296   7.350   1.025
15978SOL     OW49374   4.447   6.141   1.696
15978SOL    HW149375   4.488   6.195   1.763
15978SOL    HW249376   4.458   6.051   1.728
15979SOL     OW49377   5.191   6.780   1.631
15979SOL    HW149378   5.175   6.792   1.725
15979SOL    HW249379   5.283   6.803   1.620
15980SOL     OW49380   4.092   7.321   1.563
15980SOL    HW149381   4.009   7.368   1.554
15980SOL    HW249382   4.068   7.237   1.603
15981SOL     OW49383   5.390   6.463   1.257
15981SOL    HW149384   5.383   6.378   1.214
15981SOL    HW249385   5.379   6.527   1.186
15982SOL     OW49386   4.947   5.904   0.454
15982SOL    HW149387   5.005   5.828   0.445
15982SOL    HW249388   4.978   5.947   0.534
15983SOL     OW49389   4.315   6.315   0.668
15983SOL    HW149390   4.351   6.403   0.659
15983SOL    HW249391   4.246   6.310   0.602
15984SOL     OW49392   5.480   5.939   1.662
15984SOL    HW149393   5.461   5.959   1.570
15984SOL    HW249394   5.406   5.884   1.690
15985SOL     OW49395   5.481   6.526   1.507
15985SOL    HW149396   5.451   6.616   1.518
15985SOL    HW249397   5.457   6.504   1.417
15986SOL     OW49398   4.631   6.944   0.058
15986SOL    HW149399   4.578   6.933   0.137
15986SOL    HW249400   4.617   7.035   0.033
15987SOL     OW49401   4.384   7.373   0.926
15987SOL    HW149402   4.369   7.466   0.915
15987SOL    HW249403   4.479   7.363   0.927
15988SOL     OW49404   4.604   6.565   0.853
15988SOL    HW149405   4.648   6.491   0.894
15988SOL    HW249406   4.557   6.608   0.925
15989SOL     OW49407   4.812   6.581   0.095
15989SOL    HW149408   4.763   6.550   0.019
15989SOL    HW249409   4.897   6.538   0.089
15990SOL     OW49410   5.568   7.124   0.853
15990SOL    HW149411   5.495   7.121   0.790
15990SOL    HW249412   5.532   7.085   0.933
15991SOL     OW49413   3.957   6.873   1.856
15991SOL    HW149414   3.910   6.794   1.827
15991SOL    HW249415   3.950   6.871   1.951
15992SOL     OW49416   3.813   6.820   0.672
15992SOL    HW149417   3.821   6.777   0.757
15992SOL    HW249418   3.876   6.774   0.616
15993SOL     OW49419   4.408   7.003   1.623
15993SOL    HW149420   4.335   6.955   1.661
15993SOL    HW249421   4.408   7.087   1.668
15994SOL     OW49422   5.559   5.769   1.265
15994SOL    HW149423   5.577   5.677   1.283
15994SOL    HW249424   5.542   5.771   1.170
15995SOL     OW49425   4.148   6.016   0.524
15995SOL    HW149426   4.180   5.942   0.471
15995SOL    HW249427   4.102   5.975   0.597
15996SOL     OW49428   5.423   7.061   1.085
15996SOL    HW149429   5.340   7.047   1.041
15996SOL    HW249430   5.422   6.999   1.159
15997SOL     OW49431   4.060   6.143   1.290
15997SOL    HW149432   4.110   6.085   1.348
15997SOL    HW249433   4.077   6.110   1.202
15998SOL     OW49434   4.560   7.156   0.675
15998SOL    HW149435   4.531   7.220   0.611
15998SOL    HW249436   4.486   7.096   0.685
15999SOL     OW49437   5.155   5.821   1.111
15999SOL    HW149438   5.184   5.742   1.157
15999SOL    HW249439   5.104   5.869   1.176
16000SOL     OW49440   4.741   5.608   1.132
16000SOL    HW149441   4.678   5.541   1.104
16000SOL    HW249442   4.825   5.563   1.131
16001SOL     OW49443   4.513   6.906   0.305
16001SOL    HW149444   4.473   6.821   0.324
16001SOL    HW249445   4.582   6.916   0.372
16002SOL     OW49446   4.342   7.143   1.282
16002SOL    HW149447   4.340   7.225   1.332
16002SOL    HW249448   4.432   7.139   1.248
16003SOL     OW49449   5.103   5.641   0.142
16003SOL    HW149450   5.093   5.592   0.060
16003SOL    HW249451   5.024   5.695   0.148
16004SOL     OW49452   5.033   6.052   0.678
16004SOL    HW149453   4.978   6.130   0.679
16004SOL    HW249454   5.018   6.012   0.764
16005SOL     OW49455   5.280   5.768   0.861
16005SOL    HW149456   5.238   5.797   0.943
16005SOL    HW249457   5.289   5.849   0.810
16006SOL     OW49458   3.766   6.666   0.335
16006SOL    HW149459   3.858   6.665   0.309
16006SOL    HW249460   3.753   6.580   0.377
16007SOL     OW49461   4.603   7.238   0.359
16007SOL    HW149462   4.521   7.215   0.314
16007SOL    HW249463   4.580   7.311   0.415
16008SOL     OW49464   3.944   6.232   2.003
16008SOL    HW149465   3.865   6.204   2.050
16008SOL    HW249466   3.930   6.202   1.913
16009SOL     OW49467   3.932   5.875   2.865
16009SOL    HW149468   3.984   5.804   2.904
16009SOL    HW249469   3.850   5.833   2.840
16010SOL     OW49470   3.718   5.980   2.500
16010SOL    HW149471   3.638   6.003   2.546
16010SOL    HW249472   3.696   5.900   2.451
16011SOL     OW49473   4.297   6.886   3.053
16011SOL    HW149474   4.211   6.886   3.013
16011SOL    HW249475   4.309   6.976   3.084
16012SOL     OW49476   5.299   7.133   2.583
16012SOL    HW149477   5.260   7.104   2.665
16012SOL    HW249478   5.237   7.104   2.515
16013SOL     OW49479   4.848   6.280   2.553
16013SOL    HW149480   4.898   6.360   2.537
16013SOL    HW249481   4.804   6.294   2.637
16014SOL     OW49482   5.529   6.155   2.086
16014SOL    HW149483   5.473   6.167   2.009
16014SOL    HW249484   5.475   6.104   2.146
16015SOL     OW49485   4.470   6.724   2.913
16015SOL    HW149486   4.404   6.763   2.971
16015SOL    HW249487   4.509   6.799   2.868
16016SOL     OW49488   4.579   6.389   3.702
16016SOL    HW149489   4.532   6.366   3.782
16016SOL    HW249490   4.557   6.320   3.640
16017SOL     OW49491   4.407   6.585   2.503
16017SOL    HW149492   4.475   6.575   2.569
16017SOL    HW249493   4.340   6.639   2.546
16018SOL     OW49494   4.431   6.734   3.680
16018SOL    HW149495   4.473   6.815   3.709
16018SOL    HW249496   4.348   6.761   3.643
16019SOL     OW49497   4.061   6.995   2.929
16019SOL    HW149498   3.983   6.955   2.890
16019SOL    HW249499   4.097   7.050   2.858
16020SOL     OW49500   5.184   7.081   3.227
16020SOL    HW149501   5.234   7.162   3.228
16020SOL    HW249502   5.109   7.098   3.284
16021SOL     OW49503   4.181   5.966   3.346
16021SOL    HW149504   4.257   5.908   3.350
16021SOL    HW249505   4.117   5.927   3.404
16022SOL     OW49506   5.335   6.068   2.576
16022SOL    HW149507   5.247   6.031   2.567
16022SOL    HW249508   5.351   6.070   2.671
16023SOL     OW49509   3.948   7.299   2.334
16023SOL    HW149510   3.961   7.376   2.389
16023SOL    HW249511   4.025   7.297   2.278
16024SOL     OW49512   4.876   6.931   3.547
16024SOL    HW149513   4.896   6.899   3.635
16024SOL    HW249514   4.909   6.863   3.489
16025SOL     OW49515   3.948   7.021   2.383
16025SOL    HW149516   3.938   7.115   2.392
16025SOL    HW249517   3.899   6.984   2.456
16026SOL     OW49518   3.991   6.676   2.753
16026SOL    HW149519   3.989   6.588   2.791
16026SOL    HW249520   3.934   6.728   2.809
16027SOL     OW49521   4.328   7.375   3.304
16027SOL    HW149522   4.243   7.351   3.343
16027SOL    HW249523   4.338   7.468   3.324
16028SOL     OW49524   4.299   6.575   2.005
16028SOL    HW149525   4.351   6.615   1.935
16028SOL    HW249526   4.341   6.605   2.086
16029SOL     OW49527   5.317   5.717   3.325
16029SOL    HW149528   5.341   5.800   3.284
16029SOL    HW249529   5.290   5.740   3.413
16030SOL     OW49530   3.834   6.253   2.419
16030SOL    HW149531   3.811   6.163   2.440
16030SOL    HW249532   3.830   6.299   2.503
16031SOL     OW49533   5.565   7.334   2.180
16031SOL    HW149534   5.614   7.306   2.257
16031SOL    HW249535   5.584   7.427   2.171
16032SOL     OW49536   3.765   7.151   1.997
16032SOL    HW149537   3.683   7.106   1.976
16032SOL    HW249538   3.743   7.212   2.066
16033SOL     OW49539   5.407   6.471   2.475
16033SOL    HW149540   5.501   6.470   2.495
16033SOL    HW249541   5.396   6.545   2.416
16034SOL     OW49542   5.401   6.679   2.282
16034SOL    HW149543   5.490   6.686   2.248
16034SOL    HW249544   5.392   6.754   2.341
16035SOL     OW49545   3.846   6.369   3.391
16035SOL    HW149546   3.907   6.338   3.458
16035SOL    HW249547   3.779   6.418   3.440
16036SOL     OW49548   4.345   6.980   2.598
16036SOL    HW149549   4.300   6.896   2.609
16036SOL    HW249550   4.328   7.004   2.507
16037SOL     OW49551   4.993   6.804   3.312
16037SOL    HW149552   5.009   6.744   3.240
16037SOL    HW249553   5.073   6.803   3.364
16038SOL     OW49554   4.546   5.585   2.373
16038SOL    HW149555   4.587   5.669   2.351
16038SOL    HW249556   4.452   5.606   2.379
16039SOL     OW49557   3.916   6.555   3.128
16039SOL    HW149558   3.998   6.508   3.117
16039SOL    HW249559   3.849   6.486   3.133
16040SOL     OW49560   5.265   6.587   2.061
16040SOL    HW149561   5.195   6.528   2.091
16040SOL    HW249562   5.304   6.621   2.142
16041SOL     OW49563   4.917   7.436   3.411
16041SOL    HW149564   4.984   7.396   3.357
16041SOL    HW249565   4.868   7.363   3.448
16042SOL     OW49566   4.063   5.860   3.658
16042SOL    HW149567   4.100   5.928   3.715
16042SOL    HW249568   3.974   5.848   3.690
16043SOL     OW49569   5.191   7.033   2.811
16043SOL    HW149570   5.121   7.034   2.877
16043SOL    HW249571   5.191   6.943   2.778
16044SOL     OW49572   5.389   7.344   2.431
16044SOL    HW149573   5.355   7.300   2.353
16044SOL    HW249574   5.365   7.285   2.503
16045SOL     OW49575   4.317   6.301   2.135
16045SOL    HW149576   4.325   6.388   2.097
16045SOL    HW249577   4.252   6.310   2.205
16046SOL     OW49578   4.999   5.961   2.799
16046SOL    HW149579   4.911   5.926   2.811
16046SOL    HW249580   5.055   5.902   2.850
16047SOL     OW49581   5.296   7.268   2.170
16047SOL    HW149582   5.389   7.288   2.163
16047SOL    HW249583   5.269   7.246   2.081
16048SOL     OW49584   4.517   6.202   3.318
16048SOL    HW149585   4.500   6.170   3.407
16048SOL    HW249586   4.485   6.132   3.261
16049SOL     OW49587   5.123   6.061   3.543
16049SOL    HW149588   5.128   6.100   3.631
16049SOL    HW249589   5.169   5.978   3.551
16050SOL     OW49590   4.687   6.508   3.439
16050SOL    HW149591   4.736   6.430   3.414
16050SOL    HW249592   4.635   6.529   3.362
16051SOL     OW49593   4.720   6.001   3.088
16051SOL    HW149594   4.630   6.008   3.119
16051SOL    HW249595   4.713   5.949   3.008
16052SOL     OW49596   4.771   6.289   2.284
16052SOL    HW149597   4.794   6.284   2.376
16052SOL    HW249598   4.689   6.240   2.277
16053SOL     OW49599   3.807   6.421   2.637
16053SOL    HW149600   3.888   6.407   2.684
16053SOL    HW249601   3.766   6.496   2.681
16054SOL     OW49602   3.854   7.465   3.443
16054SOL    HW149603   3.853   7.442   3.536
16054SOL    HW249604   3.775   7.423   3.408
16055SOL     OW49605   4.604   5.936   2.067
16055SOL    HW149606   4.654   5.976   1.996
16055SOL    HW249607   4.549   5.870   2.023
16056SOL     OW49608   5.440   6.161   3.691
16056SOL    HW149609   5.400   6.233   3.641
16056SOL    HW249610   5.456   6.093   3.626
16057SOL     OW49611   5.084   6.709   2.353
16057SOL    HW149612   5.146   6.741   2.419
16057SOL    HW249613   5.046   6.789   2.316
16058SOL     OW49614   4.273   5.770   2.768
16058SOL    HW149615   4.279   5.795   2.860
16058SOL    HW249616   4.282   5.852   2.719
16059SOL     OW49617   4.717   7.027   2.327
16059SOL    HW149618   4.693   7.107   2.282
16059SOL    HW249619   4.699   7.044   2.419
16060SOL     OW49620   4.081   7.400   2.721
16060SOL    HW149621   4.122   7.314   2.733
16060SOL    HW249622   4.146   7.462   2.753
16061SOL     OW49623   5.518   6.641   2.717
16061SOL    HW149624   5.439   6.653   2.665
16061SOL    HW249625   5.487   6.636   2.808
16062SOL     OW49626   4.954   7.132   3.365
16062SOL    HW149627   4.940   7.071   3.438
16062SOL    HW249628   4.890   7.106   3.299
16063SOL     OW49629   4.041   6.543   2.114
16063SOL    HW149630   4.126   6.558   2.073
16063SOL    HW249631   4.019   6.453   2.091
16064SOL     OW49632   5.184   6.354   2.598
16064SOL    HW149633   5.201   6.291   2.668
16064SOL    HW249634   5.270   6.390   2.576
16065SOL     OW49635   4.193   6.854   3.597
16065SOL    HW149636   4.166   6.862   3.505
16065SOL    HW249637   4.112   6.843   3.645
16066SOL     OW49638   4.852   7.371   2.081
16066SOL    HW149639   4.778   7.335   2.129
16066SOL    HW249640   4.877   7.301   2.019
16067SOL     OW49641   3.899   5.847   3.367
16067SOL    HW149642   3.820   5.888   3.401
16067SOL    HW249643   3.897   5.757   3.401
16068SOL     OW49644   5.356   6.967   1.937
16068SOL    HW149645   5.310   7.051   1.936
16068SOL    HW249646   5.286   6.901   1.929
16069SOL     OW49647   4.187   7.319   2.181
16069SOL    HW149648   4.230   7.374   2.247
16069SOL    HW249649   4.259   7.286   2.127
16070SOL     OW49650   3.991   7.382   3.080
16070SOL    HW149651   4.026   7.300   3.113
16070SOL    HW249652   3.943   7.358   3.001
16071SOL     OW49653   4.674   7.284   2.757
16071SOL    HW149654   4.759   7.241   2.766
16071SOL    HW249655   4.629   7.234   2.689
16072SOL     OW49656   4.115   6.286   2.330
16072SOL    HW149657   4.133   6.193   2.346
16072SOL    HW249658   4.022   6.297   2.350
16073SOL     OW49659   5.242   5.805   3.585
16073SOL    HW149660   5.252   5.827   3.678
16073SOL    HW249661   5.180   5.732   3.585
16074SOL     OW49662   4.408   5.715   1.962
16074SOL    HW149663   4.440   5.641   2.014
16074SOL    HW249664   4.313   5.704   1.961
16075SOL     OW49665   4.486   5.860   3.614
16075SOL    HW149666   4.568   5.811   3.609
16075SOL    HW249667   4.437   5.817   3.685
16076SOL     OW49668   4.601   7.117   3.062
16076SOL    HW149669   4.586   7.080   2.975
16076SOL    HW249670   4.674   7.066   3.098
16077SOL     OW49671   5.055   6.179   3.303
16077SOL    HW149672   5.091   6.144   3.385
16077SOL    HW249673   5.100   6.263   3.291
16078SOL     OW49674   4.548   6.976   2.814
16078SOL    HW149675   4.633   6.962   2.771
16078SOL    HW249676   4.486   6.982   2.741
16079SOL     OW49677   4.649   6.089   2.763
16079SOL    HW149678   4.626   6.079   2.670
16079SOL    HW249679   4.681   6.003   2.788
16080SOL     OW49680   4.281   5.653   2.361
16080SOL    HW149681   4.200   5.652   2.413
16080SOL    HW249682   4.273   5.731   2.306
16081SOL     OW49683   5.151   6.783   1.904
16081SOL    HW149684   5.184   6.711   1.958
16081SOL    HW249685   5.067   6.807   1.943
16082SOL     OW49686   4.673   5.832   2.319
16082SOL    HW149687   4.648   5.868   2.234
16082SOL    HW249688   4.768   5.846   2.324
16083SOL     OW49689   4.802   6.283   3.332
16083SOL    HW149690   4.736   6.213   3.335
16083SOL    HW249691   4.885   6.237   3.323
16084SOL     OW49692   4.940   7.174   2.672
16084SOL    HW149693   4.964   7.232   2.599
16084SOL    HW249694   5.019   7.173   2.727
16085SOL     OW49695   4.197   6.745   2.591
16085SOL    HW149696   4.135   6.723   2.661
16085SOL    HW249697   4.150   6.726   2.510
16086SOL     OW49698   4.987   7.380   2.466
16086SOL    HW149699   5.036   7.444   2.414
16086SOL    HW249700   4.930   7.433   2.521
16087SOL     OW49701   4.753   6.111   1.885
16087SOL    HW149702   4.707   6.194   1.873
16087SOL    HW249703   4.807   6.124   1.963
16088SOL     OW49704   3.813   6.150   3.231
16088SOL    HW149705   3.908   6.161   3.236
16088SOL    HW249706   3.778   6.220   3.286
16089SOL     OW49707   4.280   5.815   3.042
16089SOL    HW149708   4.327   5.742   3.084
16089SOL    HW249709   4.192   5.810   3.079
16090SOL     OW49710   4.587   6.038   2.500
16090SOL    HW149711   4.549   6.094   2.433
16090SOL    HW249712   4.613   5.959   2.453
16091SOL     OW49713   4.743   5.645   2.612
16091SOL    HW149714   4.685   5.637   2.536
16091SOL    HW249715   4.719   5.571   2.668
16092SOL     OW49716   5.185   6.188   2.828
16092SOL    HW149717   5.124   6.114   2.832
16092SOL    HW249718   5.240   6.178   2.906
16093SOL     OW49719   5.613   6.391   2.212
16093SOL    HW149720   5.645   6.349   2.292
16093SOL    HW249721   5.551   6.328   2.176
16094SOL     OW49722   4.214   7.009   2.011
16094SOL    HW149723   4.133   6.984   2.056
16094SOL    HW249724   4.215   6.956   1.932
16095SOL     OW49725   5.416   6.877   2.461
16095SOL    HW149726   5.503   6.875   2.500
16095SOL    HW249727   5.356   6.870   2.536
16096SOL     OW49728   5.116   6.147   1.942
16096SOL    HW149729   5.042   6.142   2.003
16096SOL    HW249730   5.188   6.102   1.987
16097SOL     OW49731   4.228   5.857   2.185
16097SOL    HW149732   4.183   5.792   2.131
16097SOL    HW249733   4.229   5.936   2.131
16098SOL     OW49734   5.470   6.832   3.421
16098SOL    HW149735   5.554   6.786   3.425
16098SOL    HW249736   5.490   6.921   3.449
16099SOL     OW49737   4.776   6.961   3.220
16099SOL    HW149738   4.695   6.921   3.252
16099SOL    HW249739   4.845   6.900   3.247
16100SOL     OW49740   5.335   7.223   3.526
16100SOL    HW149741   5.324   7.252   3.436
16100SOL    HW249742   5.414   7.168   3.524
16101SOL     OW49743   4.862   6.814   2.968
16101SOL    HW149744   4.774   6.823   3.005
16101SOL    HW249745   4.850   6.829   2.874
16102SOL     OW49746   5.376   6.677   2.954
16102SOL    HW149747   5.359   6.745   3.020
16102SOL    HW249748   5.312   6.695   2.885
16103SOL     OW49749   4.636   5.689   3.248
16103SOL    HW149750   4.664   5.666   3.159
16103SOL    HW249751   4.715   5.724   3.290
16104SOL     OW49752   4.436   6.649   2.234
16104SOL    HW149753   4.423   6.629   2.326
16104SOL    HW249754   4.509   6.594   2.207
16105SOL     OW49755   4.142   6.394   3.114
16105SOL    HW149756   4.207   6.406   3.183
16105SOL    HW249757   4.105   6.308   3.131
16106SOL     OW49758   4.987   5.967   3.143
16106SOL    HW149759   5.017   6.044   3.191
16106SOL    HW249760   4.897   5.987   3.120
16107SOL     OW49761   3.794   7.166   3.226
16107SOL    HW149762   3.755   7.223   3.160
16107SOL    HW249763   3.888   7.166   3.205
16108SOL     OW49764   4.054   6.697   2.360
16108SOL    HW149765   4.082   6.765   2.299
16108SOL    HW249766   4.054   6.617   2.307
16109SOL     OW49767   4.274   6.112   2.715
16109SOL    HW149768   4.288   6.173   2.642
16109SOL    HW249769   4.339   6.139   2.780
16110SOL     OW49770   4.969   6.948   2.241
16110SOL    HW149771   5.024   7.015   2.281
16110SOL    HW249772   4.883   6.962   2.281
16111SOL     OW49773   5.008   7.045   3.010
16111SOL    HW149774   5.064   7.038   3.088
16111SOL    HW249775   4.958   6.964   3.009
16112SOL     OW49776   5.307   6.230   2.328
16112SOL    HW149777   5.291   6.206   2.419
16112SOL    HW249778   5.303   6.325   2.327
16113SOL     OW49779   4.065   7.125   3.163
16113SOL    HW149780   4.055   7.073   3.083
16113SOL    HW249781   4.160   7.133   3.174
16114SOL     OW49782   4.151   6.338   3.481
16114SOL    HW149783   4.217   6.360   3.414
16114SOL    HW249784   4.147   6.243   3.480
16115SOL     OW49785   5.338   6.372   3.550
16115SOL    HW149786   5.250   6.408   3.539
16115SOL    HW249787   5.389   6.411   3.478
16116SOL     OW49788   4.718   5.724   3.605
16116SOL    HW149789   4.787   5.787   3.586
16116SOL    HW249790   4.761   5.638   3.600
16117SOL     OW49791   4.221   5.639   3.606
16117SOL    HW149792   4.171   5.574   3.556
16117SOL    HW249793   4.160   5.711   3.620
16118SOL     OW49794   4.303   6.461   2.895
16118SOL    HW149795   4.340   6.549   2.904
16118SOL    HW249796   4.248   6.450   2.973
16119SOL     OW49797   5.094   6.447   2.907
16119SOL    HW149798   5.092   6.492   2.823
16119SOL    HW249799   5.115   6.356   2.886
16120SOL     OW49800   4.910   6.116   2.119
16120SOL    HW149801   4.924   6.040   2.174
16120SOL    HW249802   4.872   6.182   2.177
16121SOL     OW49803   4.022   5.789   3.131
16121SOL    HW149804   3.999   5.799   3.224
16121SOL    HW249805   4.008   5.696   3.113
16122SOL     OW49806   3.792   6.901   3.139
16122SOL    HW149807   3.814   6.841   3.210
16122SOL    HW249808   3.780   6.986   3.182
16123SOL     OW49809   4.442   6.211   2.911
16123SOL    HW149810   4.520   6.195   2.858
16123SOL    HW249811   4.419   6.302   2.892
16124SOL     OW49812   5.461   6.555   3.720
16124SOL    HW149813   5.426   6.482   3.669
16124SOL    HW249814   5.400   6.565   3.793
16125SOL     OW49815   4.035   5.650   2.486
16125SOL    HW149816   4.010   5.739   2.510
16125SOL    HW249817   4.045   5.605   2.571
16126SOL     OW49818   5.359   5.987   2.221
16126SOL    HW149819   5.344   5.912   2.279
16126SOL    HW249820   5.332   6.063   2.272
16127SOL     OW49821   4.730   6.345   2.814
16127SOL    HW149822   4.741   6.362   2.908
16127SOL    HW249823   4.716   6.251   2.808
16128SOL     OW49824   4.733   7.168   3.575
16128SOL    HW149825   4.690   7.198   3.494
16128SOL    HW249826   4.756   7.077   3.558
16129SOL     OW49827   5.573   7.087   3.474
16129SOL    HW149828   5.594   7.119   3.386
16129SOL    HW249829   5.655   7.096   3.522
16130SOL     OW49830   4.076   6.518   3.667
16130SOL    HW149831   4.151   6.513   3.726
16130SOL    HW249832   4.095   6.454   3.598
16131SOL     OW49833   5.271   5.861   2.000
16131SOL    HW149834   5.236   5.784   2.044
16131SOL    HW249835   5.310   5.913   2.070
16132SOL     OW49836   4.993   6.398   1.875
16132SOL    HW149837   5.045   6.321   1.897
16132SOL    HW249838   5.037   6.436   1.799
16133SOL     OW49839   4.793   6.921   2.714
16133SOL    HW149840   4.800   6.848   2.652
16133SOL    HW249841   4.858   6.985   2.682
16134SOL     OW49842   4.033   6.394   2.796
16134SOL    HW149843   4.126   6.416   2.802
16134SOL    HW249844   4.027   6.304   2.827
16135SOL     OW49845   4.048   6.122   2.857
16135SOL    HW149846   4.007   6.036   2.845
16135SOL    HW249847   4.126   6.119   2.801
16136SOL     OW49848   4.861   5.967   3.538
16136SOL    HW149849   4.815   6.014   3.608
16136SOL    HW249850   4.949   6.004   3.539
16137SOL     OW49851   4.878   5.788   3.327
16137SOL    HW149852   4.870   5.849   3.401
16137SOL    HW249853   4.925   5.838   3.260
16138SOL     OW49854   3.825   7.356   2.814
16138SOL    HW149855   3.788   7.282   2.766
16138SOL    HW249856   3.908   7.374   2.771
16139SOL     OW49857   4.217   7.164   2.765
16139SOL    HW149858   4.286   7.225   2.792
16139SOL    HW249859   4.262   7.099   2.710
16140SOL     OW49860   4.691   6.376   3.091
16140SOL    HW149861   4.753   6.360   3.163
16140SOL    HW249862   4.618   6.317   3.109
16141SOL     OW49863   3.922   6.139   3.577
16141SOL    HW149864   3.924   6.045   3.556
16141SOL    HW249865   3.829   6.160   3.581
16142SOL     OW49866   5.101   6.520   3.523
16142SOL    HW149867   5.129   6.612   3.515
16142SOL    HW249868   5.096   6.489   3.432
16143SOL     OW49869   4.539   6.154   2.234
16143SOL    HW149870   4.548   6.078   2.177
16143SOL    HW249871   4.463   6.201   2.200
16144SOL     OW49872   5.357   6.186   3.046
16144SOL    HW149873   5.353   6.118   3.113
16144SOL    HW249874   5.445   6.179   3.009
16145SOL     OW49875   3.965   7.131   3.591
16145SOL    HW149876   3.933   7.187   3.662
16145SOL    HW249877   3.967   7.043   3.629
16146SOL     OW49878   4.440   6.033   3.117
16146SOL    HW149879   4.384   5.959   3.096
16146SOL    HW249880   4.431   6.092   3.042
16147SOL     OW49881   4.637   7.265   3.337
16147SOL    HW149882   4.624   7.216   3.256
16147SOL    HW249883   4.623   7.356   3.312
16148SOL     OW49884   4.188   6.083   2.028
16148SOL    HW149885   4.246   6.152   2.059
16148SOL    HW249886   4.101   6.123   2.027
16149SOL     OW49887   3.881   6.728   3.336
16149SOL    HW149888   3.873   6.679   3.418
16149SOL    HW249889   3.894   6.661   3.269
16150SOL     OW49890   5.034   6.636   3.093
16150SOL    HW149891   5.060   6.569   3.029
16150SOL    HW249892   4.978   6.696   3.043
16151SOL     OW49893   5.060   6.435   2.156
16151SOL    HW149894   5.013   6.440   2.239
16151SOL    HW249895   4.993   6.417   2.091
16152SOL     OW49896   5.523   7.312   3.037
16152SOL    HW149897   5.555   7.352   2.957
16152SOL    HW249898   5.473   7.235   3.008
16153SOL     OW49899   4.960   7.318   3.005
16153SOL    HW149900   5.037   7.356   2.962
16153SOL    HW249901   4.975   7.224   3.003
16154SOL     OW49902   3.823   6.850   2.878
16154SOL    HW149903   3.812   6.865   2.971
16154SOL    HW249904   3.737   6.817   2.849
16155SOL     OW49905   4.400   7.264   3.592
16155SOL    HW149906   4.333   7.332   3.597
16155SOL    HW249907   4.445   7.280   3.509
16156SOL     OW49908   5.492   5.745   2.373
16156SOL    HW149909   5.425   5.707   2.316
16156SOL    HW249910   5.464   5.721   2.462
16157SOL     OW49911   5.110   7.158   2.348
16157SOL    HW149912   5.171   7.196   2.285
16157SOL    HW249913   5.065   7.233   2.386
16158SOL     OW49914   3.863   7.389   3.702
16158SOL    HW149915   3.814   7.318   3.744
16158SOL    HW249916   3.908   7.433   3.774
16159SOL     OW49917   4.983   6.508   2.503
16159SOL    HW149918   5.058   6.463   2.541
16159SOL    HW249919   5.021   6.579   2.451
16160SOL     OW49920   4.522   6.867   3.281
16160SOL    HW149921   4.494   6.908   3.363
16160SOL    HW249922   4.447   6.878   3.222
16161SOL     OW49923   4.393   7.214   2.020
16161SOL    HW149924   4.405   7.229   1.926
16161SOL    HW249925   4.339   7.135   2.024
16162SOL     OW49926   5.336   7.316   3.260
16162SOL    HW149927   5.385   7.315   3.178
16162SOL    HW249928   5.313   7.407   3.274
16163SOL     OW49929   3.975   5.901   2.577
16163SOL    HW149930   3.889   5.936   2.553
16163SOL    HW249931   3.973   5.896   2.673
16164SOL     OW49932   4.934   7.182   1.895
16164SOL    HW149933   4.921   7.093   1.926
16164SOL    HW249934   4.864   7.196   1.831
16165SOL     OW49935   4.540   6.592   3.229
16165SOL    HW149936   4.586   6.571   3.148
16165SOL    HW249937   4.540   6.688   3.233
16166SOL     OW49938   4.636   6.493   2.140
16166SOL    HW149939   4.702   6.530   2.082
16166SOL    HW249940   4.683   6.430   2.194
16167SOL     OW49941   5.210   7.218   1.908
16167SOL    HW149942   5.117   7.204   1.895
16167SOL    HW249943   5.246   7.222   1.819
16168SOL     OW49944   4.096   6.899   3.350
16168SOL    HW149945   4.072   6.973   3.294
16168SOL    HW249946   4.023   6.837   3.339
16169SOL     OW49947   5.350   6.878   3.152
16169SOL    HW149948   5.390   6.852   3.234
16169SOL    HW249949   5.283   6.942   3.177
16170SOL     OW49950   4.782   6.695   2.565
16170SOL    HW149951   4.713   6.643   2.606
16170SOL    HW249952   4.851   6.633   2.544
16171SOL     OW49953   4.748   5.828   2.832
16171SOL    HW149954   4.747   5.783   2.748
16171SOL    HW249955   4.744   5.758   2.898
16172SOL     OW49956   4.331   7.069   2.339
16172SOL    HW149957   4.380   7.021   2.272
16172SOL    HW249958   4.256   7.106   2.291
16173SOL     OW49959   5.450   5.976   3.240
16173SOL    HW149960   5.523   6.038   3.241
16173SOL    HW249961   5.479   5.904   3.184
16174SOL     OW49962   3.961   6.950   2.123
16174SOL    HW149963   3.905   7.021   2.094
16174SOL    HW249964   3.963   6.958   2.219
16175SOL     OW49965   3.834   6.639   3.596
16175SOL    HW149966   3.757   6.607   3.643
16175SOL    HW249967   3.907   6.587   3.632
16176SOL     OW49968   4.400   5.789   3.358
16176SOL    HW149969   4.482   5.760   3.319
16176SOL    HW249970   4.422   5.808   3.449
16177SOL     OW49971   3.772   5.932   1.934
16177SOL    HW149972   3.714   5.895   1.867
16177SOL    HW249973   3.826   5.995   1.887
16178SOL     OW49974   5.149   6.446   3.265
16178SOL    HW149975   5.096   6.501   3.208
16178SOL    HW249976   5.234   6.442   3.222
16179SOL     OW49977   3.796   5.740   2.151
16179SOL    HW149978   3.781   5.814   2.092
16179SOL    HW249979   3.887   5.716   2.136
16180SOL     OW49980   4.901   6.917   1.978
16180SOL    HW149981   4.818   6.869   1.986
16180SOL    HW249982   4.931   6.927   2.069
16181SOL     OW49983   4.345   6.409   3.294
16181SOL    HW149984   4.400   6.486   3.276
16181SOL    HW249985   4.407   6.337   3.302
16182SOL     OW49986   4.475   6.134   3.587
16182SOL    HW149987   4.430   6.146   3.671
16182SOL    HW249988   4.485   6.040   3.578
16183SOL     OW49989   5.201   6.781   3.496
16183SOL    HW149990   5.193   6.794   3.591
16183SOL    HW249991   5.293   6.799   3.476
16184SOL     OW49992   4.094   7.323   3.435
16184SOL    HW149993   4.013   7.371   3.414
16184SOL    HW249994   4.063   7.243   3.478
16185SOL     OW49995   5.387   6.456   3.124
16185SOL    HW149996   5.378   6.372   3.080
16185SOL    HW249997   5.383   6.521   3.054
16186SOL     OW49998   4.952   5.905   2.305
16186SOL    HW149999   5.018   5.836   2.295
16186SOL    HW250000   4.978   5.950   2.386
16187SOL     OW50001   4.308   6.320   2.533
16187SOL    HW150002   4.349   6.405   2.521
16187SOL    HW250003   4.243   6.314   2.463
16188SOL     OW50004   5.470   5.953   3.515
16188SOL    HW150005   5.457   5.966   3.421
16188SOL    HW250006   5.401   5.891   3.541
16189SOL     OW50007   5.485   6.519   3.370
16189SOL    HW150008   5.461   6.611   3.375
16189SOL    HW250009   5.462   6.493   3.280
16190SOL     OW50010   4.572   6.951   1.906
16190SOL    HW150011   4.548   6.960   1.999
16190SOL    HW250012   4.595   7.040   1.879
16191SOL     OW50013   4.391   7.375   2.799
16191SOL    HW150014   4.373   7.467   2.779
16191SOL    HW250015   4.486   7.366   2.790
16192SOL     OW50016   4.589   6.559   2.711
16192SOL    HW150017   4.637   6.483   2.744
16192SOL    HW250018   4.551   6.599   2.789
16193SOL     OW50019   4.806   6.582   1.948
16193SOL    HW150020   4.784   6.629   1.867
16193SOL    HW250021   4.872   6.519   1.921
16194SOL     OW50022   5.560   7.144   2.710
16194SOL    HW150023   5.482   7.141   2.654
16194SOL    HW250024   5.535   7.096   2.789
16195SOL     OW50025   3.942   6.877   3.707
16195SOL    HW150026   3.900   6.802   3.666
16195SOL    HW250027   3.890   6.893   3.786
16196SOL     OW50028   3.814   6.793   2.518
16196SOL    HW150029   3.817   6.759   2.607
16196SOL    HW250030   3.893   6.759   2.476
16197SOL     OW50031   4.416   6.994   3.504
16197SOL    HW150032   4.334   6.951   3.527
16197SOL    HW250033   4.405   7.084   3.534
16198SOL     OW50034   5.539   5.768   3.096
16198SOL    HW150035   5.532   5.672   3.097
16198SOL    HW250036   5.543   5.791   3.003
16199SOL     OW50037   4.143   6.027   2.387
16199SOL    HW150038   4.177   5.959   2.329
16199SOL    HW250039   4.100   5.979   2.457
16200SOL     OW50040   5.425   7.069   2.953
16200SOL    HW150041   5.344   7.069   2.903
16200SOL    HW250042   5.415   6.996   3.015
16201SOL     OW50043   4.072   6.113   3.149
16201SOL    HW150044   4.121   6.066   3.216
16201SOL    HW250045   4.127   6.108   3.071
16202SOL     OW50046   4.554   7.169   2.540
16202SOL    HW150047   4.524   7.233   2.476
16202SOL    HW250048   4.482   7.106   2.547
16203SOL     OW50049   5.147   5.816   2.981
16203SOL    HW150050   5.174   5.739   3.031
16203SOL    HW250051   5.097   5.869   3.043
16204SOL     OW50052   4.734   5.604   3.001
16204SOL    HW150053   4.673   5.534   2.978
16204SOL    HW250054   4.821   5.564   2.995
16205SOL     OW50055   4.506   6.917   2.177
16205SOL    HW150056   4.481   6.826   2.194
16205SOL    HW250057   4.583   6.932   2.233
16206SOL     OW50058   4.344   7.144   3.153
16206SOL    HW150059   4.344   7.225   3.204
16206SOL    HW250060   4.432   7.138   3.116
16207SOL     OW50061   5.070   5.626   1.932
16207SOL    HW150062   5.012   5.553   1.955
16207SOL    HW250063   5.064   5.686   2.007
16208SOL     OW50064   5.019   6.045   2.537
16208SOL    HW150065   4.969   6.127   2.539
16208SOL    HW250066   5.014   6.011   2.626
16209SOL     OW50067   5.261   5.764   2.732
16209SOL    HW150068   5.226   5.794   2.816
16209SOL    HW250069   5.354   5.786   2.736
16210SOL     OW50070   3.782   6.641   2.130
16210SOL    HW150071   3.878   6.637   2.128
16210SOL    HW250072   3.756   6.556   2.165
16211SOL     OW50073   4.620   7.249   2.192
16211SOL    HW150074   4.542   7.232   2.138
16211SOL    HW250075   4.592   7.314   2.255
16212SOL     OW50076   3.943   6.221   3.854
16212SOL    HW150077   3.854   6.214   3.888
16212SOL    HW250078   3.934   6.212   3.759
16213SOL     OW50079   3.954   5.893   4.741
16213SOL    HW150080   3.988   5.850   4.820
16213SOL    HW250081   3.875   5.843   4.719
16214SOL     OW50082   3.717   5.973   4.374
16214SOL    HW150083   3.637   6.005   4.416
16214SOL    HW250084   3.688   5.902   4.316
16215SOL     OW50085   4.294   6.883   4.912
16215SOL    HW150086   4.209   6.883   4.869
16215SOL    HW250087   4.308   6.974   4.938
16216SOL     OW50088   5.287   7.106   4.445
16216SOL    HW150089   5.246   7.077   4.526
16216SOL    HW250090   5.215   7.107   4.381
16217SOL     OW50091   4.850   6.289   4.415
16217SOL    HW150092   4.900   6.371   4.411
16217SOL    HW250093   4.804   6.293   4.498
16218SOL     OW50094   5.516   6.182   3.948
16218SOL    HW150095   5.486   6.177   3.857
16218SOL    HW250096   5.470   6.111   3.992
16219SOL     OW50097   4.473   6.725   4.771
16219SOL    HW150098   4.408   6.764   4.830
16219SOL    HW250099   4.509   6.798   4.722
16220SOL     OW50100   4.609   6.348   5.553
16220SOL    HW150101   4.638   6.420   5.609
16220SOL    HW250102   4.619   6.383   5.464
16221SOL     OW50103   4.410   6.582   4.364
16221SOL    HW150104   4.476   6.574   4.433
16221SOL    HW250105   4.342   6.637   4.402
16222SOL     OW50106   4.430   6.741   5.543
16222SOL    HW150107   4.471   6.823   5.570
16222SOL    HW250108   4.349   6.767   5.500
16223SOL     OW50109   4.057   7.001   4.789
16223SOL    HW150110   3.981   6.962   4.746
16223SOL    HW250111   4.100   7.052   4.721
16224SOL     OW50112   5.199   7.104   5.122
16224SOL    HW150113   5.168   7.169   5.059
16224SOL    HW250114   5.121   7.077   5.170
16225SOL     OW50115   4.172   5.979   5.231
16225SOL    HW150116   4.249   5.922   5.230
16225SOL    HW250117   4.099   5.919   5.249
16226SOL     OW50118   5.341   6.068   4.449
16226SOL    HW150119   5.256   6.072   4.406
16226SOL    HW250120   5.338   5.989   4.502
16227SOL     OW50121   3.945   7.307   4.197
16227SOL    HW150122   3.969   7.381   4.253
16227SOL    HW250123   4.018   7.300   4.135
16228SOL     OW50124   4.858   6.930   5.427
16228SOL    HW150125   4.889   6.928   5.518
16228SOL    HW250126   4.805   6.851   5.418
16229SOL     OW50127   3.966   7.031   4.268
16229SOL    HW150128   3.935   7.121   4.275
16229SOL    HW250129   3.912   6.981   4.329
16230SOL     OW50130   4.005   6.685   4.631
16230SOL    HW150131   3.973   6.598   4.657
16230SOL    HW250132   3.938   6.745   4.662
16231SOL     OW50133   4.329   7.378   5.163
16231SOL    HW150134   4.246   7.358   5.206
16231SOL    HW250135   4.346   7.470   5.184
16232SOL     OW50136   4.300   6.562   3.870
16232SOL    HW150137   4.340   6.616   3.802
16232SOL    HW250138   4.336   6.596   3.952
16233SOL     OW50139   5.334   5.719   5.177
16233SOL    HW150140   5.281   5.757   5.107
16233SOL    HW250141   5.290   5.748   5.258
16234SOL     OW50142   3.848   6.235   4.281
16234SOL    HW150143   3.802   6.152   4.295
16234SOL    HW250144   3.835   6.284   4.362
16235SOL     OW50145   5.559   7.365   4.072
16235SOL    HW150146   5.530   7.331   4.156
16235SOL    HW250147   5.655   7.364   4.077
16236SOL     OW50148   3.776   7.170   3.833
16236SOL    HW150149   3.747   7.081   3.850
16236SOL    HW250150   3.748   7.219   3.910
16237SOL     OW50151   5.437   6.521   4.372
16237SOL    HW150152   5.502   6.460   4.336
16237SOL    HW250153   5.395   6.560   4.295
16238SOL     OW50154   5.375   6.690   4.146
16238SOL    HW150155   5.463   6.684   4.109
16238SOL    HW250156   5.382   6.760   4.211
16239SOL     OW50157   3.844   6.317   5.305
16239SOL    HW150158   3.932   6.356   5.307
16239SOL    HW250159   3.785   6.392   5.292
16240SOL     OW50160   4.335   6.983   4.450
16240SOL    HW150161   4.293   6.898   4.460
16240SOL    HW250162   4.315   7.009   4.360
16241SOL     OW50163   5.031   6.841   5.128
16241SOL    HW150164   5.045   6.764   5.073
16241SOL    HW250165   5.075   6.820   5.210
16242SOL     OW50166   4.556   5.604   4.240
16242SOL    HW150167   4.589   5.691   4.217
16242SOL    HW250168   4.461   5.614   4.244
16243SOL     OW50169   3.905   6.542   5.017
16243SOL    HW150170   3.985   6.494   4.995
16243SOL    HW250171   3.835   6.496   4.970
16244SOL     OW50172   5.251   6.591   3.922
16244SOL    HW150173   5.178   6.536   3.953
16244SOL    HW250174   5.295   6.618   4.002
16245SOL     OW50175   4.940   7.403   5.348
16245SOL    HW150176   4.917   7.461   5.275
16245SOL    HW250177   4.932   7.315   5.312
16246SOL     OW50178   4.067   5.848   5.540
16246SOL    HW150179   4.100   5.932   5.573
16246SOL    HW250180   3.980   5.840   5.578
16247SOL     OW50181   5.206   6.994   4.680
16247SOL    HW150182   5.131   7.017   4.735
16247SOL    HW250183   5.185   6.908   4.646
16248SOL     OW50184   5.386   7.317   4.291
16248SOL    HW150185   5.335   7.290   4.214
16248SOL    HW250186   5.363   7.254   4.358
16249SOL     OW50187   4.313   6.300   3.994
16249SOL    HW150188   4.306   6.387   3.956
16249SOL    HW250189   4.249   6.300   4.065
16250SOL     OW50190   5.028   5.954   4.654
16250SOL    HW150191   4.951   5.903   4.680
16250SOL    HW250192   5.098   5.890   4.644
16251SOL     OW50193   5.290   7.289   4.028
16251SOL    HW150194   5.380   7.319   4.015
16251SOL    HW250195   5.263   7.258   3.941
16252SOL     OW50196   4.502   6.208   5.171
16252SOL    HW150197   4.484   6.177   5.260
16252SOL    HW250198   4.477   6.135   5.115
16253SOL     OW50199   5.125   6.068   5.401
16253SOL    HW150200   5.132   6.102   5.490
16253SOL    HW250201   5.167   5.982   5.406
16254SOL     OW50202   4.675   6.469   5.311
16254SOL    HW150203   4.725   6.397   5.271
16254SOL    HW250204   4.621   6.502   5.239
16255SOL     OW50205   4.712   6.007   4.947
16255SOL    HW150206   4.621   6.009   4.977
16255SOL    HW250207   4.712   5.944   4.875
16256SOL     OW50208   4.776   6.291   4.147
16256SOL    HW150209   4.796   6.283   4.240
16256SOL    HW250210   4.695   6.241   4.136
16257SOL     OW50211   3.828   6.389   4.504
16257SOL    HW150212   3.896   6.390   4.571
16257SOL    HW250213   3.771   6.462   4.527
16258SOL     OW50214   3.849   7.460   5.302
16258SOL    HW150215   3.842   7.440   5.395
16258SOL    HW250216   3.792   7.396   5.260
16259SOL     OW50217   4.610   5.938   3.921
16259SOL    HW150218   4.662   5.982   3.853
16259SOL    HW250219   4.589   5.853   3.883
16260SOL     OW50220   5.455   6.167   5.553
16260SOL    HW150221   5.408   6.236   5.506
16260SOL    HW250222   5.459   6.094   5.491
16261SOL     OW50223   5.113   6.734   4.276
16261SOL    HW150224   5.186   6.716   4.217
16261SOL    HW250225   5.054   6.790   4.225
16262SOL     OW50226   4.269   5.766   4.614
16262SOL    HW150227   4.275   5.788   4.707
16262SOL    HW250228   4.294   5.846   4.569
16263SOL     OW50229   4.729   7.032   4.170
16263SOL    HW150230   4.703   7.109   4.120
16263SOL    HW250231   4.686   7.044   4.255
16264SOL     OW50232   4.080   7.399   4.594
16264SOL    HW150233   4.118   7.311   4.600
16264SOL    HW250234   4.152   7.458   4.617
16265SOL     OW50235   5.530   6.666   4.586
16265SOL    HW150236   5.486   6.622   4.513
16265SOL    HW250237   5.466   6.663   4.658
16266SOL     OW50238   4.948   7.122   5.242
16266SOL    HW150239   4.933   7.055   5.308
16266SOL    HW250240   4.882   7.106   5.175
16267SOL     OW50241   4.029   6.539   3.984
16267SOL    HW150242   4.107   6.552   3.929
16267SOL    HW250243   3.997   6.453   3.959
16268SOL     OW50244   5.202   6.342   4.448
16268SOL    HW150245   5.188   6.274   4.514
16268SOL    HW250246   5.291   6.373   4.464
16269SOL     OW50247   4.191   6.859   5.461
16269SOL    HW150248   4.161   6.866   5.370
16269SOL    HW250249   4.110   6.853   5.512
16270SOL     OW50250   4.855   7.369   3.938
16270SOL    HW150251   4.777   7.341   3.986
16270SOL    HW250252   4.876   7.295   3.881
16271SOL     OW50253   3.906   5.860   5.235
16271SOL    HW150254   3.818   5.886   5.208
16271SOL    HW250255   3.896   5.770   5.265
16272SOL     OW50256   5.358   6.976   3.818
16272SOL    HW150257   5.311   7.058   3.800
16272SOL    HW250258   5.295   6.907   3.799
16273SOL     OW50259   4.186   7.334   4.033
16273SOL    HW150260   4.232   7.375   4.107
16273SOL    HW250261   4.253   7.281   3.991
16274SOL     OW50262   5.123   5.701   4.160
16274SOL    HW150263   5.123   5.662   4.073
16274SOL    HW250264   5.215   5.698   4.187
16275SOL     OW50265   3.994   7.378   4.942
16275SOL    HW150266   4.027   7.298   4.982
16275SOL    HW250267   3.963   7.351   4.856
16276SOL     OW50268   4.122   6.271   4.193
16276SOL    HW150269   4.139   6.178   4.210
16276SOL    HW250270   4.028   6.282   4.209
16277SOL     OW50271   5.236   5.809   5.447
16277SOL    HW150272   5.241   5.826   5.541
16277SOL    HW250273   5.180   5.732   5.440
16278SOL     OW50274   4.375   5.702   3.822
16278SOL    HW150275   4.414   5.622   3.856
16278SOL    HW250276   4.317   5.673   3.752
16279SOL     OW50277   4.494   5.869   5.493
16279SOL    HW150278   4.575   5.819   5.483
16279SOL    HW250279   4.441   5.817   5.553
16280SOL     OW50280   4.604   7.134   4.948
16280SOL    HW150281   4.625   7.162   4.859
16280SOL    HW250282   4.670   7.068   4.968
16281SOL     OW50283   5.059   6.181   5.161
16281SOL    HW150284   5.093   6.143   5.241
16281SOL    HW250285   5.105   6.265   5.152
16282SOL     OW50286   4.539   6.961   4.648
16282SOL    HW150287   4.595   7.038   4.637
16282SOL    HW250288   4.471   6.970   4.581
16283SOL     OW50289   4.655   6.096   4.624
16283SOL    HW150290   4.630   6.082   4.532
16283SOL    HW250291   4.689   6.012   4.653
16284SOL     OW50292   4.288   5.653   4.215
16284SOL    HW150293   4.209   5.645   4.268
16284SOL    HW250294   4.270   5.727   4.157
16285SOL     OW50295   5.155   6.794   3.768
16285SOL    HW150296   5.186   6.718   3.817
16285SOL    HW250297   5.076   6.823   3.815
16286SOL     OW50298   4.022   5.647   3.913
16286SOL    HW150299   4.092   5.711   3.912
16286SOL    HW250300   4.061   5.569   3.953
16287SOL     OW50301   4.670   5.852   4.181
16287SOL    HW150302   4.651   5.880   4.092
16287SOL    HW250303   4.766   5.857   4.188
16288SOL     OW50304   4.800   6.266   5.179
16288SOL    HW150305   4.739   6.193   5.184
16288SOL    HW250306   4.887   6.226   5.175
16289SOL     OW50307   4.968   7.155   4.520
16289SOL    HW150308   4.960   7.223   4.453
16289SOL    HW250309   4.899   7.175   4.583
16290SOL     OW50310   4.200   6.742   4.448
16290SOL    HW150311   4.137   6.722   4.518
16290SOL    HW250312   4.151   6.728   4.368
16291SOL     OW50313   4.985   7.382   4.327
16291SOL    HW150314   5.016   7.455   4.273
16291SOL    HW250315   4.908   7.417   4.372
16292SOL     OW50316   4.763   6.119   3.755
16292SOL    HW150317   4.740   6.211   3.743
16292SOL    HW250318   4.820   6.118   3.831
16293SOL     OW50319   3.823   6.176   5.070
16293SOL    HW150320   3.916   6.151   5.067
16293SOL    HW250321   3.813   6.220   5.154
16294SOL     OW50322   4.289   5.809   4.888
16294SOL    HW150323   4.334   5.727   4.908
16294SOL    HW250324   4.203   5.800   4.928
16295SOL     OW50325   4.588   6.047   4.364
16295SOL    HW150326   4.542   6.099   4.297
16295SOL    HW250327   4.615   5.968   4.318
16296SOL     OW50328   4.737   5.641   4.464
16296SOL    HW150329   4.680   5.625   4.389
16296SOL    HW250330   4.719   5.569   4.524
16297SOL     OW50331   5.160   6.745   4.573
16297SOL    HW150332   5.092   6.680   4.594
16297SOL    HW250333   5.158   6.750   4.477
16298SOL     OW50334   5.166   6.196   4.706
16298SOL    HW150335   5.121   6.113   4.694
16298SOL    HW250336   5.233   6.178   4.772
16299SOL     OW50337   5.562   6.394   4.113
16299SOL    HW150338   5.621   6.344   4.169
16299SOL    HW250339   5.538   6.333   4.043
16300SOL     OW50340   4.211   7.005   3.872
16300SOL    HW150341   4.138   6.979   3.928
16300SOL    HW250342   4.195   6.961   3.789
16301SOL     OW50343   5.411   6.877   4.332
16301SOL    HW150344   5.499   6.871   4.369
16301SOL    HW250345   5.369   6.948   4.381
16302SOL     OW50346   5.121   6.150   3.804
16302SOL    HW150347   5.055   6.131   3.870
16302SOL    HW250348   5.199   6.102   3.833
16303SOL     OW50349   4.247   5.849   4.025
16303SOL    HW150350   4.303   5.806   3.961
16303SOL    HW250351   4.220   5.930   3.982
16304SOL     OW50352   5.471   6.818   5.283
16304SOL    HW150353   5.557   6.779   5.267
16304SOL    HW250354   5.488   6.891   5.342
16305SOL     OW50355   4.782   6.960   5.076
16305SOL    HW150356   4.704   6.916   5.111
16305SOL    HW250357   4.855   6.903   5.101
16306SOL     OW50358   5.327   7.218   5.391
16306SOL    HW150359   5.271   7.215   5.314
16306SOL    HW250360   5.367   7.131   5.395
16307SOL     OW50361   4.859   6.801   4.830
16307SOL    HW150362   4.772   6.815   4.867
16307SOL    HW250363   4.851   6.826   4.738
16308SOL     OW50364   5.355   6.689   4.798
16308SOL    HW150365   5.344   6.748   4.873
16308SOL    HW250366   5.274   6.697   4.749
16309SOL     OW50367   4.629   5.696   5.106
16309SOL    HW150368   4.656   5.665   5.020
16309SOL    HW250369   4.711   5.724   5.148
16310SOL     OW50370   4.698   6.706   5.442
16310SOL    HW150371   4.607   6.716   5.469
16310SOL    HW250372   4.700   6.624   5.392
16311SOL     OW50373   4.439   6.649   4.094
16311SOL    HW150374   4.421   6.629   4.185
16311SOL    HW250375   4.514   6.594   4.071
16312SOL     OW50376   4.132   6.385   4.962
16312SOL    HW150377   4.198   6.408   5.028
16312SOL    HW250378   4.114   6.292   4.978
16313SOL     OW50379   4.975   5.968   5.007
16313SOL    HW150380   5.008   6.046   5.051
16313SOL    HW250381   4.885   5.990   4.983
16314SOL     OW50382   3.797   7.191   5.103
16314SOL    HW150383   3.761   7.233   5.025
16314SOL    HW250384   3.883   7.159   5.075
16315SOL     OW50385   4.062   6.705   4.212
16315SOL    HW150386   4.051   6.778   4.150
16315SOL    HW250387   4.055   6.627   4.158
16316SOL     OW50388   4.228   6.141   4.598
16316SOL    HW150389   4.258   6.192   4.523
16316SOL    HW250390   4.300   6.147   4.661
16317SOL     OW50391   4.977   6.938   4.112
16317SOL    HW150392   5.031   7.006   4.151
16317SOL    HW250393   4.888   6.957   4.144
16318SOL     OW50394   5.014   7.037   4.876
16318SOL    HW150395   5.032   7.003   4.964
16318SOL    HW250396   4.946   6.979   4.842
16319SOL     OW50397   5.279   6.221   4.185
16319SOL    HW150398   5.239   6.248   4.268
16319SOL    HW250399   5.348   6.286   4.169
16320SOL     OW50400   4.064   7.121   5.029
16320SOL    HW150401   4.049   7.070   4.950
16320SOL    HW250402   4.159   7.130   5.035
16321SOL     OW50403   4.137   6.332   5.328
16321SOL    HW150404   4.203   6.370   5.268
16321SOL    HW250405   4.164   6.241   5.338
16322SOL     OW50406   5.343   6.376   5.417
16322SOL    HW150407   5.253   6.409   5.407
16322SOL    HW250408   5.387   6.402   5.336
16323SOL     OW50409   4.718   5.718   5.477
16323SOL    HW150410   4.793   5.762   5.437
16323SOL    HW250411   4.740   5.625   5.472
16324SOL     OW50412   4.227   5.644   5.463
16324SOL    HW150413   4.179   5.581   5.410
16324SOL    HW250414   4.164   5.716   5.476
16325SOL     OW50415   4.320   6.463   4.755
16325SOL    HW150416   4.352   6.553   4.757
16325SOL    HW250417   4.263   6.456   4.831
16326SOL     OW50418   5.065   6.447   4.746
16326SOL    HW150419   4.978   6.428   4.712
16326SOL    HW250420   5.112   6.364   4.738
16327SOL     OW50421   4.916   6.116   3.985
16327SOL    HW150422   4.932   6.038   4.039
16327SOL    HW250423   4.874   6.178   4.044
16328SOL     OW50424   4.032   5.791   4.982
16328SOL    HW150425   3.984   5.808   5.063
16328SOL    HW250426   4.021   5.697   4.967
16329SOL     OW50427   3.818   6.908   4.998
16329SOL    HW150428   3.830   6.839   5.064
16329SOL    HW250429   3.744   6.959   5.030
16330SOL     OW50430   4.436   6.204   4.766
16330SOL    HW150431   4.515   6.183   4.716
16330SOL    HW250432   4.421   6.296   4.749
16331SOL     OW50433   5.467   6.555   5.584
16331SOL    HW150434   5.430   6.485   5.530
16331SOL    HW250435   5.404   6.567   5.655
16332SOL     OW50436   4.044   5.648   4.340
16332SOL    HW150437   3.968   5.705   4.349
16332SOL    HW250438   4.052   5.605   4.425
16333SOL     OW50439   5.358   5.977   4.073
16333SOL    HW150440   5.379   5.907   4.135
16333SOL    HW250441   5.318   6.045   4.126
16334SOL     OW50442   4.750   6.346   4.684
16334SOL    HW150443   4.740   6.361   4.778
16334SOL    HW250444   4.726   6.254   4.672
16335SOL     OW50445   4.718   7.165   5.442
16335SOL    HW150446   4.694   7.199   5.356
16335SOL    HW250447   4.757   7.079   5.424
16336SOL     OW50448   5.593   7.108   5.341
16336SOL    HW150449   5.613   7.111   5.248
16336SOL    HW250450   5.678   7.095   5.383
16337SOL     OW50451   4.075   6.497   5.539
16337SOL    HW150452   4.159   6.517   5.580
16337SOL    HW250453   4.096   6.437   5.467
16338SOL     OW50454   5.243   5.867   3.847
16338SOL    HW150455   5.187   5.794   3.874
16338SOL    HW250456   5.284   5.897   3.928
16339SOL     OW50457   5.005   6.393   3.750
16339SOL    HW150458   5.051   6.310   3.760
16339SOL    HW250459   5.042   6.431   3.670
16340SOL     OW50460   4.849   6.897   4.582
16340SOL    HW150461   4.814   6.837   4.516
16340SOL    HW250462   4.878   6.973   4.532
16341SOL     OW50463   4.040   6.371   4.683
16341SOL    HW150464   4.127   6.389   4.648
16341SOL    HW250465   4.052   6.370   4.778
16342SOL     OW50466   4.861   5.976   5.392
16342SOL    HW150467   4.812   6.016   5.464
16342SOL    HW250468   4.948   6.016   5.397
16343SOL     OW50469   4.873   5.787   5.195
16343SOL    HW150470   4.865   5.855   5.263
16343SOL    HW250471   4.919   5.831   5.124
16344SOL     OW50472   3.741   6.895   3.906
16344SOL    HW150473   3.652   6.914   3.875
16344SOL    HW250474   3.734   6.809   3.948
16345SOL     OW50475   3.817   7.364   4.671
16345SOL    HW150476   3.783   7.288   4.626
16345SOL    HW250477   3.905   7.377   4.634
16346SOL     OW50478   4.212   7.161   4.625
16346SOL    HW150479   4.281   7.220   4.653
16346SOL    HW250480   4.256   7.099   4.566
16347SOL     OW50481   4.689   6.375   4.951
16347SOL    HW150482   4.749   6.351   5.021
16347SOL    HW250483   4.610   6.323   4.967
16348SOL     OW50484   3.837   6.138   4.800
16348SOL    HW150485   3.817   6.045   4.801
16348SOL    HW250486   3.822   6.167   4.890
16349SOL     OW50487   3.905   6.093   5.459
16349SOL    HW150488   3.931   6.025   5.396
16349SOL    HW250489   3.873   6.165   5.405
16350SOL     OW50490   5.105   6.515   5.385
16350SOL    HW150491   5.116   6.609   5.378
16350SOL    HW250492   5.100   6.485   5.294
16351SOL     OW50493   4.545   6.162   4.083
16351SOL    HW150494   4.550   6.080   4.033
16351SOL    HW250495   4.462   6.201   4.057
16352SOL     OW50496   5.364   6.197   4.912
16352SOL    HW150497   5.353   6.125   4.975
16352SOL    HW250498   5.449   6.179   4.871
16353SOL     OW50499   3.960   7.132   5.455
16353SOL    HW150500   3.938   7.176   5.537
16353SOL    HW250501   3.973   7.040   5.481
16354SOL     OW50502   4.435   6.030   4.978
16354SOL    HW150503   4.385   5.952   4.958
16354SOL    HW250504   4.423   6.087   4.902
16355SOL     OW50505   4.647   7.265   5.195
16355SOL    HW150506   4.627   7.215   5.116
16355SOL    HW250507   4.623   7.355   5.173
16356SOL     OW50508   4.179   6.079   3.889
16356SOL    HW150509   4.234   6.148   3.924
16356SOL    HW250510   4.092   6.118   3.884
16357SOL     OW50511   3.861   6.728   5.208
16357SOL    HW150512   3.865   6.683   5.292
16357SOL    HW250513   3.876   6.658   5.144
16358SOL     OW50514   5.047   6.635   4.941
16358SOL    HW150515   5.060   6.566   4.875
16358SOL    HW250516   4.979   6.691   4.903
16359SOL     OW50517   5.022   6.467   4.019
16359SOL    HW150518   4.978   6.413   4.084
16359SOL    HW250519   5.007   6.421   3.936
16360SOL     OW50520   5.523   7.312   4.889
16360SOL    HW150521   5.569   7.338   4.810
16360SOL    HW250522   5.480   7.230   4.866
16361SOL     OW50523   4.996   7.338   4.888
16361SOL    HW150524   5.066   7.350   4.823
16361SOL    HW250525   4.967   7.248   4.874
16362SOL     OW50526   3.812   6.866   4.729
16362SOL    HW150527   3.810   6.878   4.824
16362SOL    HW250528   3.737   6.809   4.711
16363SOL     OW50529   4.417   7.275   5.475
16363SOL    HW150530   4.348   7.334   5.446
16363SOL    HW250531   4.470   7.260   5.397
16364SOL     OW50532   5.437   5.758   4.227
16364SOL    HW150533   5.504   5.714   4.174
16364SOL    HW250534   5.414   5.694   4.294
16365SOL     OW50535   5.118   7.161   4.215
16365SOL    HW150536   5.161   7.202   4.139
16365SOL    HW250537   5.061   7.229   4.250
16366SOL     OW50538   3.845   7.405   5.569
16366SOL    HW150539   3.807   7.325   5.605
16366SOL    HW250540   3.901   7.438   5.639
16367SOL     OW50541   4.999   6.519   4.402
16367SOL    HW150542   5.072   6.458   4.418
16367SOL    HW250543   5.038   6.589   4.350
16368SOL     OW50544   4.528   6.864   5.136
16368SOL    HW150545   4.497   6.907   5.216
16368SOL    HW250546   4.459   6.880   5.071
16369SOL     OW50547   4.391   7.211   3.872
16369SOL    HW150548   4.401   7.225   3.778
16369SOL    HW250549   4.335   7.134   3.880
16370SOL     OW50550   5.444   7.365   5.151
16370SOL    HW150551   5.446   7.335   5.060
16370SOL    HW250552   5.381   7.437   5.152
16371SOL     OW50553   5.576   5.756   4.692
16371SOL    HW150554   5.595   5.664   4.673
16371SOL    HW250555   5.490   5.772   4.654
16372SOL     OW50556   3.969   5.939   4.457
16372SOL    HW150557   3.881   5.945   4.421
16372SOL    HW250558   3.965   5.865   4.518
16373SOL     OW50559   4.936   7.176   3.757
16373SOL    HW150560   4.929   7.086   3.789
16373SOL    HW250561   4.867   7.184   3.691
16374SOL     OW50562   4.541   6.590   5.104
16374SOL    HW150563   4.586   6.574   5.022
16374SOL    HW250564   4.542   6.686   5.113
16375SOL     OW50565   4.650   6.500   4.004
16375SOL    HW150566   4.727   6.534   3.959
16375SOL    HW250567   4.684   6.430   4.060
16376SOL     OW50568   5.208   7.231   3.770
16376SOL    HW150569   5.117   7.207   3.754
16376SOL    HW250570   5.248   7.230   3.683
16377SOL     OW50571   4.080   6.901   5.221
16377SOL    HW150572   4.071   6.969   5.154
16377SOL    HW250573   4.008   6.841   5.203
16378SOL     OW50574   5.349   6.883   5.022
16378SOL    HW150575   5.384   6.843   5.102
16378SOL    HW250576   5.285   6.946   5.052
16379SOL     OW50577   4.777   6.692   4.418
16379SOL    HW150578   4.706   6.648   4.464
16379SOL    HW250579   4.844   6.624   4.408
16380SOL     OW50580   4.751   5.827   4.692
16380SOL    HW150581   4.747   5.782   4.607
16380SOL    HW250582   4.745   5.756   4.756
16381SOL     OW50583   4.304   7.068   4.189
16381SOL    HW150584   4.348   7.020   4.118
16381SOL    HW250585   4.213   7.073   4.162
16382SOL     OW50586   5.454   5.997   5.108
16382SOL    HW150587   5.535   6.046   5.099
16382SOL    HW250588   5.469   5.915   5.060
16383SOL     OW50589   3.994   6.928   4.025
16383SOL    HW150590   3.905   6.920   3.991
16383SOL    HW250591   3.984   6.968   4.111
16384SOL     OW50592   3.845   6.637   5.472
16384SOL    HW150593   3.766   6.601   5.511
16384SOL    HW250594   3.916   6.579   5.502
16385SOL     OW50595   4.398   5.798   5.226
16385SOL    HW150596   4.477   5.769   5.181
16385SOL    HW250597   4.426   5.814   5.316
16386SOL     OW50598   3.811   5.912   3.760
16386SOL    HW150599   3.721   5.881   3.769
16386SOL    HW250600   3.805   6.007   3.766
16387SOL     OW50601   5.155   6.451   5.124
16387SOL    HW150602   5.100   6.506   5.067
16387SOL    HW250603   5.239   6.445   5.078
16388SOL     OW50604   3.796   5.739   4.046
16388SOL    HW150605   3.766   5.816   3.998
16388SOL    HW250606   3.874   5.711   3.999
16389SOL     OW50607   4.900   6.911   3.845
16389SOL    HW150608   4.805   6.903   3.843
16389SOL    HW250609   4.922   6.916   3.938
16390SOL     OW50610   4.332   6.418   5.148
16390SOL    HW150611   4.393   6.491   5.139
16390SOL    HW250612   4.389   6.341   5.157
16391SOL     OW50613   5.214   7.384   4.725
16391SOL    HW150614   5.206   7.404   4.632
16391SOL    HW250615   5.278   7.313   4.728
16392SOL     OW50616   4.447   6.139   5.427
16392SOL    HW150617   4.492   6.191   5.494
16392SOL    HW250618   4.460   6.048   5.454
16393SOL     OW50619   5.192   6.781   5.349
16393SOL    HW150620   5.180   6.790   5.444
16393SOL    HW250621   5.287   6.787   5.337
16394SOL     OW50622   4.096   7.329   5.300
16394SOL    HW150623   4.014   7.370   5.274
16394SOL    HW250624   4.070   7.243   5.334
16395SOL     OW50625   5.392   6.462   4.980
16395SOL    HW150626   5.384   6.373   4.947
16395SOL    HW250627   5.381   6.517   4.903
16396SOL     OW50628   4.950   5.917   4.175
16396SOL    HW150629   5.005   5.839   4.170
16396SOL    HW250630   4.979   5.962   4.254
16397SOL     OW50631   4.297   6.323   4.403
16397SOL    HW150632   4.343   6.406   4.386
16397SOL    HW250633   4.240   6.311   4.328
16398SOL     OW50634   5.467   5.953   5.381
16398SOL    HW150635   5.458   5.969   5.287
16398SOL    HW250636   5.399   5.889   5.402
16399SOL     OW50637   5.496   6.514   5.227
16399SOL    HW150638   5.457   6.600   5.244
16399SOL    HW250639   5.469   6.493   5.138
16400SOL     OW50640   4.611   6.934   3.775
16400SOL    HW150641   4.570   6.936   3.862
16400SOL    HW250642   4.594   7.021   3.739
16401SOL     OW50643   4.380   7.375   4.668
16401SOL    HW150644   4.381   7.465   4.638
16401SOL    HW250645   4.472   7.349   4.671
16402SOL     OW50646   4.595   6.559   4.575
16402SOL    HW150647   4.641   6.484   4.613
16402SOL    HW250648   4.555   6.603   4.650
16403SOL     OW50649   4.826   6.601   3.756
16403SOL    HW150650   4.903   6.656   3.768
16403SOL    HW250651   4.860   6.511   3.755
16404SOL     OW50652   5.566   7.137   4.566
16404SOL    HW150653   5.480   7.121   4.525
16404SOL    HW250654   5.580   7.061   4.622
16405SOL     OW50655   3.937   6.876   5.570
16405SOL    HW150656   3.904   6.798   5.526
16405SOL    HW250657   3.879   6.888   5.645
16406SOL     OW50658   3.822   6.822   4.400
16406SOL    HW150659   3.789   6.767   4.471
16406SOL    HW250660   3.879   6.765   4.349
16407SOL     OW50661   4.408   6.997   5.345
16407SOL    HW150662   4.328   6.954   5.373
16407SOL    HW250663   4.434   7.051   5.420
16408SOL     OW50664   5.562   5.784   4.969
16408SOL    HW150665   5.519   5.704   4.999
16408SOL    HW250666   5.558   5.779   4.873
16409SOL     OW50667   4.158   6.013   4.252
16409SOL    HW150668   4.184   5.940   4.195
16409SOL    HW250669   4.101   5.972   4.317
16410SOL     OW50670   5.417   7.073   4.831
16410SOL    HW150671   5.346   7.048   4.771
16410SOL    HW250672   5.417   7.005   4.898
16411SOL     OW50673   4.088   6.120   5.019
16411SOL    HW150674   4.127   6.084   5.099
16411SOL    HW250675   4.086   6.045   4.958
16412SOL     OW50676   4.559   7.128   4.357
16412SOL    HW150677   4.525   7.216   4.344
16412SOL    HW250678   4.487   7.079   4.396
16413SOL     OW50679   5.183   5.794   4.953
16413SOL    HW150680   5.165   5.737   4.878
16413SOL    HW250681   5.109   5.855   4.955
16414SOL     OW50682   4.731   5.606   4.861
16414SOL    HW150683   4.670   5.541   4.827
16414SOL    HW250684   4.816   5.562   4.862
16415SOL     OW50685   4.511   6.910   4.028
16415SOL    HW150686   4.479   6.823   4.052
16415SOL    HW250687   4.578   6.930   4.093
16416SOL     OW50688   4.339   7.145   5.012
16416SOL    HW150689   4.340   7.225   5.065
16416SOL    HW250690   4.429   7.136   4.980
16417SOL     OW50691   5.090   5.634   3.887
16417SOL    HW150692   5.126   5.556   3.845
16417SOL    HW250693   5.000   5.611   3.908
16418SOL     OW50694   5.028   6.063   4.399
16418SOL    HW150695   4.963   6.133   4.410
16418SOL    HW250696   5.029   6.018   4.484
16419SOL     OW50697   3.770   6.648   4.031
16419SOL    HW150698   3.863   6.635   4.010
16419SOL    HW250699   3.738   6.561   4.055
16420SOL     OW50700   4.622   7.254   4.040
16420SOL    HW150701   4.542   7.230   3.994
16420SOL    HW250702   4.593   7.309   4.112
16421SOL     OW50703   3.948   6.220   5.710
16421SOL    HW150704   3.863   6.180   5.727
16421SOL    HW250705   3.962   6.208   5.616
16422SOL     OW50706   3.937   5.844   6.581
16422SOL    HW150707   3.970   5.826   6.669
16422SOL    HW250708   3.904   5.760   6.550
16423SOL     OW50709   3.711   5.982   6.226
16423SOL    HW150710   3.627   5.998   6.268
16423SOL    HW250711   3.699   5.902   6.175
16424SOL     OW50712   4.313   6.876   6.792
16424SOL    HW150713   4.222   6.849   6.781
16424SOL    HW250714   4.310   6.971   6.795
16425SOL     OW50715   5.307   7.107   6.298
16425SOL    HW150716   5.259   7.075   6.374
16425SOL    HW250717   5.241   7.113   6.229
16426SOL     OW50718   4.861   6.278   6.282
16426SOL    HW150719   4.903   6.363   6.271
16426SOL    HW250720   4.809   6.287   6.362
16427SOL     OW50721   5.513   6.178   5.813
16427SOL    HW150722   5.483   6.176   5.722
16427SOL    HW250723   5.466   6.106   5.855
16428SOL     OW50724   4.492   6.726   6.643
16428SOL    HW150725   4.427   6.761   6.704
16428SOL    HW250726   4.517   6.801   6.588
16429SOL     OW50727   4.625   6.386   7.433
16429SOL    HW150728   4.534   6.412   7.445
16429SOL    HW250729   4.644   6.405   7.341
16430SOL     OW50730   4.408   6.588   6.233
16430SOL    HW150731   4.473   6.574   6.302
16430SOL    HW250732   4.338   6.639   6.275
16431SOL     OW50733   4.438   6.746   7.399
16431SOL    HW150734   4.472   6.836   7.402
16431SOL    HW250735   4.350   6.756   7.361
16432SOL     OW50736   4.030   7.032   6.614
16432SOL    HW150737   3.953   6.975   6.608
16432SOL    HW250738   4.078   7.017   6.533
16433SOL     OW50739   5.181   7.082   6.953
16433SOL    HW150740   5.234   7.162   6.958
16433SOL    HW250741   5.107   7.099   7.012
16434SOL     OW50742   4.171   5.981   7.073
16434SOL    HW150743   4.249   5.925   7.073
16434SOL    HW250744   4.098   5.922   7.091
16435SOL     OW50745   5.322   6.034   6.324
16435SOL    HW150746   5.240   6.037   6.275
16435SOL    HW250747   5.317   6.109   6.384
16436SOL     OW50748   3.942   7.307   6.050
16436SOL    HW150749   3.970   7.380   6.105
16436SOL    HW250750   4.014   7.295   5.988
16437SOL     OW50751   4.873   6.918   7.276
16437SOL    HW150752   4.952   6.870   7.250
16437SOL    HW250753   4.806   6.851   7.287
16438SOL     OW50754   3.962   7.040   6.128
16438SOL    HW150755   3.936   7.131   6.121
16438SOL    HW250756   3.899   7.001   6.188
16439SOL     OW50757   3.967   6.656   6.469
16439SOL    HW150758   3.999   6.586   6.526
16439SOL    HW250759   3.917   6.713   6.527
16440SOL     OW50760   4.308   7.386   6.988
16440SOL    HW150761   4.233   7.366   7.044
16440SOL    HW250762   4.344   7.467   7.025
16441SOL     OW50763   4.299   6.576   5.730
16441SOL    HW150764   4.349   6.616   5.659
16441SOL    HW250765   4.343   6.606   5.810
16442SOL     OW50766   5.333   5.717   7.038
16442SOL    HW150767   5.278   5.783   6.997
16442SOL    HW250768   5.316   5.726   7.132
16443SOL     OW50769   3.838   6.236   6.220
16443SOL    HW150770   3.783   6.158   6.215
16443SOL    HW250771   3.927   6.203   6.207
16444SOL     OW50772   5.574   7.337   5.905
16444SOL    HW150773   5.640   7.312   5.969
16444SOL    HW250774   5.589   7.430   5.888
16445SOL     OW50775   3.778   7.179   5.705
16445SOL    HW150776   3.756   7.087   5.716
16445SOL    HW250777   3.742   7.222   5.782
16446SOL     OW50778   5.429   6.510   6.237
16446SOL    HW150779   5.481   6.446   6.189
16446SOL    HW250780   5.388   6.564   6.169
16447SOL     OW50781   5.371   6.685   6.019
16447SOL    HW150782   5.456   6.684   5.976
16447SOL    HW250783   5.377   6.753   6.085
16448SOL     OW50784   3.858   6.330   7.158
16448SOL    HW150785   3.952   6.344   7.171
16448SOL    HW250786   3.816   6.409   7.193
16449SOL     OW50787   4.331   6.965   6.319
16449SOL    HW150788   4.285   6.881   6.319
16449SOL    HW250789   4.325   6.996   6.228
16450SOL     OW50790   5.007   6.814   7.016
16450SOL    HW150791   5.026   6.749   6.948
16450SOL    HW250792   5.081   6.808   7.076
16451SOL     OW50793   4.564   5.610   6.125
16451SOL    HW150794   4.599   5.695   6.095
16451SOL    HW250795   4.470   5.625   6.133
16452SOL     OW50796   3.911   6.542   6.840
16452SOL    HW150797   3.996   6.497   6.836
16452SOL    HW250798   3.847   6.472   6.828
16453SOL     OW50799   5.264   6.578   5.787
16453SOL    HW150800   5.191   6.521   5.812
16453SOL    HW250801   5.297   6.612   5.870
16454SOL     OW50802   4.920   7.384   7.211
16454SOL    HW150803   4.915   7.453   7.144
16454SOL    HW250804   4.929   7.303   7.160
16455SOL     OW50805   4.048   5.839   7.433
16455SOL    HW150806   4.065   5.928   7.404
16455SOL    HW250807   3.956   5.838   7.457
16456SOL     OW50808   5.186   7.008   6.523
16456SOL    HW150809   5.121   7.020   6.592
16456SOL    HW250810   5.176   6.916   6.497
16457SOL     OW50811   5.381   7.346   6.159
16457SOL    HW150812   5.354   7.314   6.073
16457SOL    HW250813   5.364   7.272   6.218
16458SOL     OW50814   4.322   6.305   5.852
16458SOL    HW150815   4.328   6.386   5.801
16458SOL    HW250816   4.263   6.327   5.924
16459SOL     OW50817   4.997   5.956   6.523
16459SOL    HW150818   4.909   5.918   6.531
16459SOL    HW250819   5.052   5.901   6.578
16460SOL     OW50820   5.303   7.273   5.900
16460SOL    HW150821   5.397   7.287   5.886
16460SOL    HW250822   5.268   7.257   5.813
16461SOL     OW50823   4.506   6.204   7.045
16461SOL    HW150824   4.487   6.168   7.132
16461SOL    HW250825   4.481   6.134   6.984
16462SOL     OW50826   5.126   6.062   7.272
16462SOL    HW150827   5.134   6.099   7.360
16462SOL    HW250828   5.171   5.977   7.277
16463SOL     OW50829   4.680   6.468   7.173
16463SOL    HW150830   4.729   6.396   7.135
16463SOL    HW250831   4.623   6.499   7.103
16464SOL     OW50832   4.720   6.002   6.808
16464SOL    HW150833   4.631   6.005   6.843
16464SOL    HW250834   4.716   5.937   6.738
16465SOL     OW50835   4.777   6.282   6.013
16465SOL    HW150836   4.795   6.268   6.106
16465SOL    HW250837   4.695   6.236   5.997
16466SOL     OW50838   3.842   7.459   7.162
16466SOL    HW150839   3.841   7.443   7.257
16466SOL    HW250840   3.780   7.395   7.127
16467SOL     OW50841   4.611   5.941   5.786
16467SOL    HW150842   4.659   5.984   5.715
16467SOL    HW250843   4.568   5.866   5.744
16468SOL     OW50844   5.449   6.161   7.404
16468SOL    HW150845   5.404   6.231   7.356
16468SOL    HW250846   5.461   6.092   7.339
16469SOL     OW50847   5.115   6.729   6.154
16469SOL    HW150848   5.176   6.710   6.083
16469SOL    HW250849   5.054   6.793   6.117
16470SOL     OW50850   4.240   5.766   6.478
16470SOL    HW150851   4.265   5.803   6.563
16470SOL    HW250852   4.265   5.834   6.415
16471SOL     OW50853   4.686   7.038   6.086
16471SOL    HW150854   4.681   7.104   6.017
16471SOL    HW250855   4.775   7.005   6.081
16472SOL     OW50856   4.090   7.391   6.479
16472SOL    HW150857   4.144   7.322   6.442
16472SOL    HW250858   4.148   7.468   6.481
16473SOL     OW50859   5.533   6.653   6.453
16473SOL    HW150860   5.488   6.616   6.377
16473SOL    HW250861   5.467   6.650   6.523
16474SOL     OW50862   4.947   7.127   7.095
16474SOL    HW150863   4.937   7.061   7.163
16474SOL    HW250864   4.886   7.100   7.026
16475SOL     OW50865   4.039   6.536   5.840
16475SOL    HW150866   4.123   6.561   5.800
16475SOL    HW250867   4.004   6.469   5.782
16476SOL     OW50868   5.205   6.345   6.316
16476SOL    HW150869   5.199   6.294   6.397
16476SOL    HW250870   5.290   6.388   6.320
16477SOL     OW50871   4.197   6.838   7.303
16477SOL    HW150872   4.161   6.840   7.214
16477SOL    HW250873   4.119   6.839   7.360
16478SOL     OW50874   4.850   7.370   5.825
16478SOL    HW150875   4.772   7.331   5.863
16478SOL    HW250876   4.873   7.312   5.752
16479SOL     OW50877   3.919   5.854   7.109
16479SOL    HW150878   3.828   5.882   7.095
16479SOL    HW250879   3.911   5.761   7.134
16480SOL     OW50880   5.358   6.982   5.662
16480SOL    HW150881   5.300   7.057   5.671
16480SOL    HW250882   5.299   6.908   5.648
16481SOL     OW50883   4.183   7.329   5.901
16481SOL    HW150884   4.239   7.370   5.967
16481SOL    HW250885   4.243   7.284   5.842
16482SOL     OW50886   5.117   5.688   6.018
16482SOL    HW150887   5.106   5.662   5.927
16482SOL    HW250888   5.202   5.651   6.043
16483SOL     OW50889   4.669   7.284   6.488
16483SOL    HW150890   4.753   7.240   6.481
16483SOL    HW250891   4.614   7.241   6.422
16484SOL     OW50892   4.122   6.283   6.064
16484SOL    HW150893   4.138   6.189   6.074
16484SOL    HW250894   4.050   6.289   6.002
16485SOL     OW50895   5.247   5.801   7.301
16485SOL    HW150896   5.256   5.821   7.394
16485SOL    HW250897   5.186   5.728   7.298
16486SOL     OW50898   4.371   5.700   5.684
16486SOL    HW150899   4.395   5.618   5.728
16486SOL    HW250900   4.323   5.673   5.606
16487SOL     OW50901   4.492   5.865   7.356
16487SOL    HW150902   4.573   5.817   7.344
16487SOL    HW250903   4.440   5.811   7.415
16488SOL     OW50904   4.593   7.106   6.783
16488SOL    HW150905   4.584   7.071   6.695
16488SOL    HW250906   4.666   7.057   6.821
16489SOL     OW50907   5.061   6.174   7.026
16489SOL    HW150908   5.093   6.138   7.109
16489SOL    HW250909   5.104   6.259   7.019
16490SOL     OW50910   4.538   6.977   6.528
16490SOL    HW150911   4.625   6.966   6.489
16490SOL    HW250912   4.479   6.979   6.453
16491SOL     OW50913   4.646   6.103   6.484
16491SOL    HW150914   4.627   6.088   6.391
16491SOL    HW250915   4.677   6.018   6.516
16492SOL     OW50916   4.302   5.692   6.124
16492SOL    HW150917   4.217   5.656   6.150
16492SOL    HW250918   4.286   5.731   6.038
16493SOL     OW50919   5.175   6.784   5.621
16493SOL    HW150920   5.190   6.706   5.674
16493SOL    HW250921   5.096   6.824   5.658
16494SOL     OW50922   4.023   5.648   5.772
16494SOL    HW150923   4.100   5.677   5.725
16494SOL    HW250924   4.054   5.576   5.827
16495SOL     OW50925   4.678   5.855   6.045
16495SOL    HW150926   4.649   5.876   5.956
16495SOL    HW250927   4.774   5.860   6.040
16496SOL     OW50928   4.800   6.264   7.040
16496SOL    HW150929   4.737   6.193   7.048
16496SOL    HW250930   4.886   6.221   7.037
16497SOL     OW50931   4.922   7.182   6.394
16497SOL    HW150932   4.944   7.240   6.321
16497SOL    HW250933   5.007   7.160   6.433
16498SOL     OW50934   4.183   6.737   6.313
16498SOL    HW150935   4.116   6.703   6.373
16498SOL    HW250936   4.145   6.725   6.226
16499SOL     OW50937   4.983   7.387   6.205
16499SOL    HW150938   5.028   7.445   6.144
16499SOL    HW250939   4.907   7.438   6.235
16500SOL     OW50940   4.753   6.117   5.611
16500SOL    HW150941   4.707   6.199   5.593
16500SOL    HW250942   4.812   6.138   5.684
16501SOL     OW50943   3.810   6.150   6.960
16501SOL    HW150944   3.903   6.138   6.941
16501SOL    HW250945   3.808   6.214   7.031
16502SOL     OW50946   4.297   5.818   6.746
16502SOL    HW150947   4.342   5.734   6.744
16502SOL    HW250948   4.212   5.799   6.784
16503SOL     OW50949   4.592   6.051   6.222
16503SOL    HW150950   4.548   6.102   6.154
16503SOL    HW250951   4.620   5.971   6.178
16504SOL     OW50952   5.158   6.746   6.439
16504SOL    HW150953   5.090   6.679   6.449
16504SOL    HW250954   5.174   6.752   6.345
16505SOL     OW50955   5.187   6.196   6.552
16505SOL    HW150956   5.127   6.121   6.553
16505SOL    HW250957   5.243   6.183   6.629
16506SOL     OW50958   5.578   6.396   5.972
16506SOL    HW150959   5.625   6.338   6.033
16506SOL    HW250960   5.538   6.337   5.908
16507SOL     OW50961   4.210   7.017   5.749
16507SOL    HW150962   4.135   6.975   5.791
16507SOL    HW250963   4.228   6.962   5.672
16508SOL     OW50964   5.409   6.860   6.216
16508SOL    HW150965   5.503   6.859   6.234
16508SOL    HW250966   5.381   6.948   6.242
16509SOL     OW50967   5.126   6.145   5.667
16509SOL    HW150968   5.054   6.136   5.729
16509SOL    HW250969   5.182   6.069   5.684
16510SOL     OW50970   4.260   5.854   5.897
16510SOL    HW150971   4.298   5.794   5.832
16510SOL    HW250972   4.230   5.929   5.846
16511SOL     OW50973   5.467   6.833   7.150
16511SOL    HW150974   5.549   6.784   7.160
16511SOL    HW250975   5.489   6.923   7.173
16512SOL     OW50976   4.779   6.962   6.943
16512SOL    HW150977   4.699   6.919   6.974
16512SOL    HW250978   4.849   6.901   6.966
16513SOL     OW50979   5.340   7.221   7.246
16513SOL    HW150980   5.324   7.252   7.157
16513SOL    HW250981   5.418   7.166   7.239
16514SOL     OW50982   4.861   6.812   6.687
16514SOL    HW150983   4.774   6.796   6.724
16514SOL    HW250984   4.844   6.841   6.597
16515SOL     OW50985   5.346   6.678   6.656
16515SOL    HW150986   5.335   6.740   6.728
16515SOL    HW250987   5.271   6.694   6.599
16516SOL     OW50988   4.627   5.719   6.969
16516SOL    HW150989   4.649   5.675   6.887
16516SOL    HW250990   4.712   5.732   7.012
16517SOL     OW50991   4.699   6.703   7.306
16517SOL    HW150992   4.607   6.711   7.328
16517SOL    HW250993   4.703   6.624   7.251
16518SOL     OW50994   4.433   6.648   5.961
16518SOL    HW150995   4.420   6.628   6.054
16518SOL    HW250996   4.511   6.598   5.937
16519SOL     OW50997   4.145   6.401   6.841
16519SOL    HW150998   4.212   6.410   6.910
16519SOL    HW250999   4.116   6.310   6.848
16520SOL     OW51000   4.987   5.959   6.866
16520SOL    HW151001   5.018   6.036   6.914
16520SOL    HW251002   4.897   5.980   6.841
16521SOL     OW51003   3.797   7.205   6.972
16521SOL    HW151004   3.750   7.234   6.894
16521SOL    HW251005   3.885   7.182   6.941
16522SOL     OW51006   4.052   6.702   6.074
16522SOL    HW151007   4.056   6.774   6.011
16522SOL    HW251008   4.057   6.623   6.019
16523SOL     OW51009   4.262   6.132   6.455
16523SOL    HW151010   4.278   6.189   6.379
16523SOL    HW251011   4.348   6.122   6.495
16524SOL     OW51012   4.963   6.936   6.044
16524SOL    HW151013   5.023   7.011   6.047
16524SOL    HW251014   4.945   6.923   5.951
16525SOL     OW51015   5.013   7.046   6.730
16525SOL    HW151016   5.064   7.040   6.811
16525SOL    HW251017   4.955   6.970   6.732
16526SOL     OW51018   5.310   6.223   6.070
16526SOL    HW151019   5.249   6.256   6.136
16526SOL    HW251020   5.285   6.268   5.990
16527SOL     OW51021   4.048   7.135   6.880
16527SOL    HW151022   4.013   7.052   6.847
16527SOL    HW251023   4.120   7.109   6.938
16528SOL     OW51024   4.135   6.333   7.197
16528SOL    HW151025   4.204   6.367   7.140
16528SOL    HW251026   4.148   6.238   7.197
16529SOL     OW51027   5.338   6.374   7.271
16529SOL    HW151028   5.249   6.406   7.260
16529SOL    HW251029   5.387   6.413   7.198
16530SOL     OW51030   4.719   5.721   7.336
16530SOL    HW151031   4.793   5.761   7.290
16530SOL    HW251032   4.739   5.628   7.336
16531SOL     OW51033   4.216   5.644   7.333
16531SOL    HW151034   4.178   5.580   7.273
16531SOL    HW251035   4.145   5.706   7.350
16532SOL     OW51036   4.261   6.481   6.605
16532SOL    HW151037   4.335   6.538   6.626
16532SOL    HW251038   4.229   6.451   6.690
16533SOL     OW51039   5.066   6.445   6.611
16533SOL    HW151040   4.984   6.429   6.565
16533SOL    HW251041   5.115   6.363   6.601
16534SOL     OW51042   4.924   6.119   5.847
16534SOL    HW151043   4.933   6.038   5.898
16534SOL    HW251044   4.876   6.178   5.905
16535SOL     OW51045   4.033   5.781   6.833
16535SOL    HW151046   3.988   5.793   6.917
16535SOL    HW251047   4.026   5.687   6.816
16536SOL     OW51048   3.822   6.912   6.871
16536SOL    HW151049   3.841   6.837   6.927
16536SOL    HW251050   3.746   6.955   6.912
16537SOL     OW51051   4.465   6.234   6.643
16537SOL    HW151052   4.529   6.193   6.585
16537SOL    HW251053   4.422   6.299   6.588
16538SOL     OW51054   5.463   6.559   7.437
16538SOL    HW151055   5.428   6.485   7.388
16538SOL    HW251056   5.409   6.562   7.517
16539SOL     OW51057   4.043   5.648   6.213
16539SOL    HW151058   4.020   5.737   6.241
16539SOL    HW251059   4.049   5.597   6.294
16540SOL     OW51060   5.365   5.971   5.949
16540SOL    HW151061   5.387   5.897   6.004
16540SOL    HW251062   5.339   6.040   6.010
16541SOL     OW51063   4.754   6.348   6.548
16541SOL    HW151064   4.743   6.362   6.642
16541SOL    HW251065   4.725   6.257   6.535
16542SOL     OW51066   4.699   7.136   7.301
16542SOL    HW151067   4.677   7.183   7.220
16542SOL    HW251068   4.749   7.060   7.272
16543SOL     OW51069   5.575   7.091   7.192
16543SOL    HW151070   5.598   7.114   7.103
16543SOL    HW251071   5.658   7.095   7.240
16544SOL     OW51072   4.094   6.509   7.411
16544SOL    HW151073   4.184   6.515   7.442
16544SOL    HW251074   4.098   6.446   7.339
16545SOL     OW51075   5.230   5.877   5.717
16545SOL    HW151076   5.178   5.799   5.737
16545SOL    HW251077   5.277   5.896   5.798
16546SOL     OW51078   5.023   6.408   5.624
16546SOL    HW151079   5.062   6.321   5.625
16546SOL    HW251080   5.049   6.445   5.540
16547SOL     OW51081   4.792   6.927   6.445
16547SOL    HW151082   4.792   6.852   6.385
16547SOL    HW251083   4.836   6.996   6.396
16548SOL     OW51084   4.012   6.371   6.510
16548SOL    HW151085   4.104   6.397   6.517
16548SOL    HW251086   4.010   6.282   6.546
16549SOL     OW51087   4.033   6.100   6.591
16549SOL    HW151088   4.005   6.009   6.581
16549SOL    HW251089   4.114   6.106   6.541
16550SOL     OW51090   4.859   5.988   7.248
16550SOL    HW151091   4.811   6.022   7.324
16550SOL    HW251092   4.949   6.017   7.262
16551SOL     OW51093   4.880   5.790   7.060
16551SOL    HW151094   4.868   5.861   7.123
16551SOL    HW251095   4.922   5.832   6.985
16552SOL     OW51096   3.738   6.905   5.777
16552SOL    HW151097   3.650   6.925   5.747
16552SOL    HW251098   3.733   6.817   5.814
16553SOL     OW51099   3.816   7.365   6.533
16553SOL    HW151100   3.784   7.289   6.486
16553SOL    HW251101   3.908   7.372   6.508
16554SOL     OW51102   4.250   7.162   6.480
16554SOL    HW151103   4.328   7.217   6.488
16554SOL    HW251104   4.276   7.092   6.420
16555SOL     OW51105   4.684   6.380   6.815
16555SOL    HW151106   4.738   6.347   6.888
16555SOL    HW251107   4.611   6.319   6.810
16556SOL     OW51108   3.762   6.168   6.689
16556SOL    HW151109   3.831   6.119   6.644
16556SOL    HW251110   3.783   6.158   6.782
16557SOL     OW51111   3.928   6.094   7.309
16557SOL    HW151112   3.934   6.025   7.243
16557SOL    HW251113   3.875   6.162   7.268
16558SOL     OW51114   5.098   6.525   7.246
16558SOL    HW151115   5.127   6.615   7.235
16558SOL    HW251116   5.094   6.491   7.156
16559SOL     OW51117   4.542   6.158   5.953
16559SOL    HW151118   4.554   6.080   5.898
16559SOL    HW251119   4.468   6.204   5.914
16560SOL     OW51120   5.364   6.193   6.766
16560SOL    HW151121   5.356   6.126   6.834
16560SOL    HW251122   5.452   6.178   6.729
16561SOL     OW51123   3.971   7.157   7.301
16561SOL    HW151124   3.942   7.221   7.367
16561SOL    HW251125   3.973   7.074   7.349
16562SOL     OW51126   4.442   6.036   6.842
16562SOL    HW151127   4.391   5.958   6.819
16562SOL    HW251128   4.428   6.095   6.768
16563SOL     OW51129   4.630   7.266   7.063
16563SOL    HW151130   4.621   7.218   6.980
16563SOL    HW251131   4.628   7.358   7.038
16564SOL     OW51132   4.180   6.081   5.765
16564SOL    HW151133   4.245   6.148   5.784
16564SOL    HW251134   4.099   6.129   5.751
16565SOL     OW51135   3.891   6.712   7.049
16565SOL    HW151136   3.872   6.666   7.130
16565SOL    HW251137   3.896   6.644   6.982
16566SOL     OW51138   5.039   6.635   6.804
16566SOL    HW151139   5.058   6.567   6.739
16566SOL    HW251140   4.979   6.695   6.760
16567SOL     OW51141   5.046   6.436   5.897
16567SOL    HW151142   4.968   6.406   5.944
16567SOL    HW251143   5.024   6.425   5.805
16568SOL     OW51144   5.517   7.316   6.755
16568SOL    HW151145   5.572   7.340   6.680
16568SOL    HW251146   5.475   7.234   6.729
16569SOL     OW51147   4.971   7.323   6.712
16569SOL    HW151148   5.051   7.346   6.663
16569SOL    HW251149   4.974   7.227   6.719
16570SOL     OW51150   3.813   6.852   6.604
16570SOL    HW151151   3.810   6.866   6.698
16570SOL    HW251152   3.735   6.801   6.584
16571SOL     OW51153   4.401   7.255   7.328
16571SOL    HW151154   4.344   7.331   7.326
16571SOL    HW251155   4.475   7.278   7.271
16572SOL     OW51156   5.468   5.751   6.095
16572SOL    HW151157   5.530   5.727   6.025
16572SOL    HW251158   5.437   5.667   6.129
16573SOL     OW51159   5.130   7.165   6.093
16573SOL    HW151160   5.176   7.192   6.013
16573SOL    HW251161   5.068   7.236   6.110
16574SOL     OW51162   3.854   7.404   7.428
16574SOL    HW151163   3.809   7.331   7.470
16574SOL    HW251164   3.910   7.440   7.497
16575SOL     OW51165   4.999   6.513   6.270
16575SOL    HW151166   5.071   6.452   6.280
16575SOL    HW251167   5.036   6.585   6.217
16576SOL     OW51168   4.528   6.865   7.004
16576SOL    HW151169   4.497   6.904   7.086
16576SOL    HW251170   4.452   6.870   6.946
16577SOL     OW51171   4.391   7.225   5.746
16577SOL    HW151172   4.413   7.235   5.654
16577SOL    HW251173   4.345   7.141   5.751
16578SOL     OW51174   5.342   7.311   6.982
16578SOL    HW151175   5.395   7.310   6.902
16578SOL    HW251176   5.326   7.404   6.999
16579SOL     OW51177   5.576   5.753   6.560
16579SOL    HW151178   5.599   5.664   6.534
16579SOL    HW251179   5.490   5.767   6.521
16580SOL     OW51180   3.975   5.912   6.306
16580SOL    HW151181   3.884   5.930   6.282
16580SOL    HW251182   3.971   5.891   6.400
16581SOL     OW51183   4.935   7.220   5.615
16581SOL    HW151184   4.931   7.132   5.653
16581SOL    HW251185   4.868   7.220   5.547
16582SOL     OW51186   4.544   6.587   6.967
16582SOL    HW151187   4.592   6.558   6.889
16582SOL    HW251188   4.552   6.682   6.965
16583SOL     OW51189   4.648   6.505   5.897
16583SOL    HW151190   4.697   6.526   5.817
16583SOL    HW251191   4.693   6.428   5.933
16584SOL     OW51192   5.207   7.237   5.643
16584SOL    HW151193   5.114   7.218   5.633
16584SOL    HW251194   5.241   7.236   5.553
16585SOL     OW51195   4.085   6.902   7.056
16585SOL    HW151196   4.026   6.968   7.093
16585SOL    HW251197   4.031   6.824   7.047
16586SOL     OW51198   5.329   6.867   6.865
16586SOL    HW151199   5.389   6.848   6.938
16586SOL    HW251200   5.270   6.933   6.900
16587SOL     OW51201   4.783   6.694   6.313
16587SOL    HW151202   4.707   6.641   6.338
16587SOL    HW251203   4.844   6.632   6.275
16588SOL     OW51204   4.735   5.835   6.566
16588SOL    HW151205   4.693   5.796   6.489
16588SOL    HW251206   4.738   5.763   6.629
16589SOL     OW51207   4.327   7.064   6.064
16589SOL    HW151208   4.388   7.017   6.008
16589SOL    HW251209   4.252   7.082   6.007
16590SOL     OW51210   5.452   5.986   6.947
16590SOL    HW151211   5.533   6.038   6.953
16590SOL    HW251212   5.479   5.904   6.907
16591SOL     OW51213   3.995   6.916   5.893
16591SOL    HW151214   3.907   6.919   5.856
16591SOL    HW251215   3.988   6.965   5.975
16592SOL     OW51216   3.831   6.590   7.288
16592SOL    HW151217   3.754   6.582   7.345
16592SOL    HW251218   3.906   6.587   7.348
16593SOL     OW51219   4.396   5.811   7.087
16593SOL    HW151220   4.474   5.784   7.039
16593SOL    HW251221   4.424   5.816   7.178
16594SOL     OW51222   3.752   5.936   5.645
16594SOL    HW151223   3.725   5.864   5.588
16594SOL    HW251224   3.794   5.999   5.586
16595SOL     OW51225   5.150   6.450   6.988
16595SOL    HW151226   5.096   6.503   6.930
16595SOL    HW251227   5.235   6.446   6.945
16596SOL     OW51228   3.791   5.758   5.887
16596SOL    HW151229   3.788   5.816   5.811
16596SOL    HW251230   3.874   5.712   5.878
16597SOL     OW51231   4.340   6.416   7.029
16597SOL    HW151232   4.401   6.487   7.011
16597SOL    HW251233   4.395   6.338   7.034
16598SOL     OW51234   5.207   7.383   6.582
16598SOL    HW151235   5.224   7.436   6.504
16598SOL    HW251236   5.278   7.319   6.584
16599SOL     OW51237   4.463   6.134   7.309
16599SOL    HW151238   4.534   6.160   7.367
16599SOL    HW251239   4.460   6.038   7.315
16600SOL     OW51240   5.197   6.788   7.222
16600SOL    HW151241   5.196   6.790   7.318
16600SOL    HW251242   5.288   6.803   7.199
16601SOL     OW51243   4.088   7.335   7.138
16601SOL    HW151244   4.005   7.380   7.122
16601SOL    HW251245   4.064   7.257   7.188
16602SOL     OW51246   5.385   6.462   6.841
16602SOL    HW151247   5.381   6.374   6.804
16602SOL    HW251248   5.376   6.520   6.766
16603SOL     OW51249   4.956   5.914   6.039
16603SOL    HW151250   5.009   5.835   6.029
16603SOL    HW251251   4.989   5.955   6.119
16604SOL     OW51252   4.305   6.328   6.267
16604SOL    HW151253   4.351   6.409   6.244
16604SOL    HW251254   4.246   6.312   6.194
16605SOL     OW51255   5.475   5.955   7.222
16605SOL    HW151256   5.452   5.965   7.130
16605SOL    HW251257   5.412   5.890   7.255
16606SOL     OW51258   5.483   6.522   7.089
16606SOL    HW151259   5.460   6.615   7.095
16606SOL    HW251260   5.460   6.497   6.999
16607SOL     OW51261   4.541   6.979   5.618
16607SOL    HW151262   4.557   6.966   5.712
16607SOL    HW251263   4.614   7.033   5.588
16608SOL     OW51264   4.399   7.375   6.556
16608SOL    HW151265   4.380   7.460   6.517
16608SOL    HW251266   4.491   7.358   6.533
16609SOL     OW51267   4.585   6.549   6.444
16609SOL    HW151268   4.640   6.478   6.477
16609SOL    HW251269   4.558   6.596   6.523
16610SOL     OW51270   4.782   6.546   5.666
16610SOL    HW151271   4.777   6.622   5.607
16610SOL    HW251272   4.867   6.506   5.645
16611SOL     OW51273   5.570   7.141   6.432
16611SOL    HW151274   5.491   7.127   6.380
16611SOL    HW251275   5.586   7.056   6.474
16612SOL     OW51276   3.825   6.821   6.252
16612SOL    HW151277   3.853   6.771   6.328
16612SOL    HW251278   3.876   6.785   6.179
16613SOL     OW51279   4.416   6.988   7.229
16613SOL    HW151280   4.334   6.946   7.254
16613SOL    HW251281   4.409   7.078   7.263
16614SOL     OW51282   5.561   5.748   6.831
16614SOL    HW151283   5.487   5.687   6.842
16614SOL    HW251284   5.567   5.761   6.736
16615SOL     OW51285   4.142   6.020   6.105
16615SOL    HW151286   4.186   5.956   6.049
16615SOL    HW251287   4.101   5.968   6.173
16616SOL     OW51288   5.400   7.082   6.691
16616SOL    HW151289   5.333   7.058   6.628
16616SOL    HW251290   5.409   7.006   6.748
16617SOL     OW51291   4.071   6.142   6.876
16617SOL    HW151292   4.116   6.083   6.937
16617SOL    HW251293   4.077   6.099   6.791
16618SOL     OW51294   4.516   7.198   6.285
16618SOL    HW151295   4.543   7.247   6.208
16618SOL    HW251296   4.488   7.113   6.251
16619SOL     OW51297   5.151   5.808   6.691
16619SOL    HW151298   5.149   5.712   6.700
16619SOL    HW251299   5.098   5.840   6.764
16620SOL     OW51300   4.728   5.616   6.729
16620SOL    HW151301   4.661   5.559   6.692
16620SOL    HW251302   4.808   5.564   6.728
16621SOL     OW51303   4.498   6.916   5.910
16621SOL    HW151304   4.475   6.823   5.916
16621SOL    HW251305   4.574   6.925   5.966
16622SOL     OW51306   4.334   7.165   6.830
16622SOL    HW151307   4.336   7.237   6.893
16622SOL    HW251308   4.426   7.145   6.813
16623SOL     OW51309   5.087   5.631   5.750
16623SOL    HW151310   5.126   5.559   5.701
16623SOL    HW251311   4.997   5.603   5.766
16624SOL     OW51312   5.039   6.055   6.270
16624SOL    HW151313   4.978   6.128   6.266
16624SOL    HW251314   5.020   6.013   6.354
16625SOL     OW51315   5.328   5.796   6.471
16625SOL    HW151316   5.260   5.804   6.537
16625SOL    HW251317   5.313   5.869   6.412
16626SOL     OW51318   3.773   6.658   5.908
16626SOL    HW151319   3.862   6.652   5.874
16626SOL    HW251320   3.751   6.569   5.934
16627SOL     OW51321   4.615   7.257   5.919
16627SOL    HW151322   4.542   7.236   5.862
16627SOL    HW251323   4.580   7.321   5.981
16628SOL     OW51324   3.948   6.211   7.569
16628SOL    HW151325   3.862   6.190   7.604
16628SOL    HW251326   3.945   6.182   7.477
16629SOL     OW51327   3.939   5.895   8.455
16629SOL    HW151328   3.980   5.846   8.526
16629SOL    HW251329   3.858   5.848   8.436
16630SOL     OW51330   3.738   5.968   8.079
16630SOL    HW151331   3.670   5.920   8.127
16630SOL    HW251332   3.745   5.922   7.995
16631SOL     OW51333   4.298   6.886   8.637
16631SOL    HW151334   4.213   6.889   8.593
16631SOL    HW251335   4.312   6.976   8.667
16632SOL     OW51336   5.310   7.115   8.158
16632SOL    HW151337   5.264   7.084   8.236
16632SOL    HW251338   5.243   7.118   8.090
16633SOL     OW51339   4.842   6.297   8.146
16633SOL    HW151340   4.899   6.373   8.134
16633SOL    HW251341   4.805   6.308   8.233
16634SOL     OW51342   5.530   6.209   7.658
16634SOL    HW151343   5.499   6.194   7.568
16634SOL    HW251344   5.476   6.152   7.712
16635SOL     OW51345   4.469   6.722   8.495
16635SOL    HW151346   4.406   6.760   8.557
16635SOL    HW251347   4.506   6.797   8.449
16636SOL     OW51348   4.602   6.347   9.286
16636SOL    HW151349   4.551   6.406   9.341
16636SOL    HW251350   4.616   6.395   9.205
16637SOL     OW51351   4.389   6.530   8.092
16637SOL    HW151352   4.460   6.536   8.156
16637SOL    HW251353   4.326   6.596   8.119
16638SOL     OW51354   4.448   6.740   9.258
16638SOL    HW151355   4.488   6.819   9.294
16638SOL    HW251356   4.362   6.769   9.227
16639SOL     OW51357   4.054   7.004   8.508
16639SOL    HW151358   3.987   6.970   8.449
16639SOL    HW251359   4.110   7.058   8.452
16640SOL     OW51360   5.185   7.084   8.815
16640SOL    HW151361   5.235   7.165   8.822
16640SOL    HW251362   5.110   7.098   8.874
16641SOL     OW51363   4.170   5.982   8.933
16641SOL    HW151364   4.249   5.928   8.933
16641SOL    HW251365   4.098   5.920   8.949
16642SOL     OW51366   5.312   6.063   8.167
16642SOL    HW151367   5.253   6.035   8.097
16642SOL    HW251368   5.395   6.080   8.123
16643SOL     OW51369   3.939   7.312   7.914
16643SOL    HW151370   3.966   7.385   7.969
16643SOL    HW251371   4.014   7.295   7.857
16644SOL     OW51372   4.874   6.917   9.147
16644SOL    HW151373   4.894   6.926   9.240
16644SOL    HW251374   4.815   6.842   9.142
16645SOL     OW51375   3.958   7.044   7.998
16645SOL    HW151376   3.924   7.133   7.985
16645SOL    HW251377   3.888   6.999   8.045
16646SOL     OW51378   3.988   6.670   8.340
16646SOL    HW151379   4.007   6.576   8.348
16646SOL    HW251380   3.940   6.692   8.420
16647SOL     OW51381   4.322   7.378   8.871
16647SOL    HW151382   4.243   7.359   8.923
16647SOL    HW251383   4.349   7.465   8.901
16648SOL     OW51384   4.342   6.558   7.574
16648SOL    HW151385   4.378   6.619   7.510
16648SOL    HW251386   4.354   6.602   7.659
16649SOL     OW51387   5.322   5.716   8.912
16649SOL    HW151388   5.323   5.789   8.851
16649SOL    HW251389   5.292   5.754   8.995
16650SOL     OW51390   3.835   6.233   8.014
16650SOL    HW151391   3.804   6.144   8.031
16650SOL    HW251392   3.826   6.279   8.097
16651SOL     OW51393   3.771   7.182   7.554
16651SOL    HW151394   3.797   7.092   7.537
16651SOL    HW251395   3.730   7.180   7.640
16652SOL     OW51396   5.435   6.512   8.098
16652SOL    HW151397   5.506   6.453   8.074
16652SOL    HW251398   5.385   6.525   8.017
16653SOL     OW51399   5.372   6.699   7.872
16653SOL    HW151400   5.461   6.683   7.840
16653SOL    HW251401   5.384   6.757   7.947
16654SOL     OW51402   3.871   6.331   9.033
16654SOL    HW151403   3.967   6.332   9.032
16654SOL    HW251404   3.847   6.413   9.076
16655SOL     OW51405   4.335   6.975   8.182
16655SOL    HW151406   4.295   6.888   8.188
16655SOL    HW251407   4.321   7.001   8.091
16656SOL     OW51408   5.034   6.799   8.899
16656SOL    HW151409   5.051   6.751   8.818
16656SOL    HW251410   4.990   6.736   8.956
16657SOL     OW51411   4.549   5.600   7.972
16657SOL    HW151412   4.589   5.682   7.942
16657SOL    HW251413   4.455   5.620   7.978
16658SOL     OW51414   3.910   6.542   8.702
16658SOL    HW151415   3.999   6.507   8.699
16658SOL    HW251416   3.855   6.474   8.664
16659SOL     OW51417   5.274   6.574   7.648
16659SOL    HW151418   5.227   6.494   7.672
16659SOL    HW251419   5.306   6.608   7.732
16660SOL     OW51420   4.933   7.403   9.077
16660SOL    HW151421   4.921   7.462   9.003
16660SOL    HW251422   4.936   7.316   9.038
16661SOL     OW51423   4.055   5.840   9.303
16661SOL    HW151424   4.099   5.924   9.315
16661SOL    HW251425   3.963   5.859   9.320
16662SOL     OW51426   5.195   7.006   8.385
16662SOL    HW151427   5.130   7.020   8.453
16662SOL    HW251428   5.182   6.915   8.357
16663SOL     OW51429   5.430   7.308   7.975
16663SOL    HW151430   5.361   7.290   7.912
16663SOL    HW251431   5.407   7.256   8.052
16664SOL     OW51432   4.317   6.352   7.765
16664SOL    HW151433   4.328   6.412   7.691
16664SOL    HW251434   4.227   6.319   7.757
16665SOL     OW51435   4.996   5.955   8.385
16665SOL    HW151436   4.911   5.911   8.388
16665SOL    HW251437   5.053   5.900   8.439
16666SOL     OW51438   5.311   7.289   7.725
16666SOL    HW151439   5.267   7.370   7.696
16666SOL    HW251440   5.288   7.225   7.659
16667SOL     OW51441   4.514   6.204   8.894
16667SOL    HW151442   4.492   6.176   8.983
16667SOL    HW251443   4.483   6.133   8.838
16668SOL     OW51444   5.131   6.076   9.125
16668SOL    HW151445   5.128   6.105   9.216
16668SOL    HW251446   5.171   5.989   9.129
16669SOL     OW51447   4.677   6.469   9.039
16669SOL    HW151448   4.724   6.395   9.000
16669SOL    HW251449   4.621   6.501   8.968
16670SOL     OW51450   4.716   5.999   8.669
16670SOL    HW151451   4.626   6.000   8.702
16670SOL    HW251452   4.714   5.937   8.595
16671SOL     OW51453   4.764   6.287   7.879
16671SOL    HW151454   4.788   6.276   7.971
16671SOL    HW251455   4.687   6.232   7.868
16672SOL     OW51456   3.814   6.391   8.234
16672SOL    HW151457   3.895   6.390   8.286
16672SOL    HW251458   3.773   6.475   8.256
16673SOL     OW51459   3.846   7.441   9.029
16673SOL    HW151460   3.853   7.419   9.122
16673SOL    HW251461   3.752   7.446   9.012
16674SOL     OW51462   4.606   5.948   7.653
16674SOL    HW151463   4.659   5.989   7.585
16674SOL    HW251464   4.569   5.870   7.611
16675SOL     OW51465   5.439   6.171   9.279
16675SOL    HW151466   5.398   6.240   9.227
16675SOL    HW251467   5.455   6.100   9.217
16676SOL     OW51468   5.113   6.728   7.989
16676SOL    HW151469   5.193   6.709   7.941
16676SOL    HW251470   5.050   6.754   7.922
16677SOL     OW51471   4.219   5.764   8.334
16677SOL    HW151472   4.262   5.783   8.418
16677SOL    HW251473   4.268   5.816   8.270
16678SOL     OW51474   4.713   7.036   7.925
16678SOL    HW151475   4.685   7.108   7.868
16678SOL    HW251476   4.686   7.063   8.013
16679SOL     OW51477   4.076   7.401   8.322
16679SOL    HW151478   4.122   7.317   8.325
16679SOL    HW251479   4.143   7.466   8.340
16680SOL     OW51480   5.533   6.657   8.314
16680SOL    HW151481   5.490   6.619   8.236
16680SOL    HW251482   5.466   6.652   8.382
16681SOL     OW51483   4.954   7.123   8.962
16681SOL    HW151484   4.937   7.056   9.029
16681SOL    HW251485   4.879   7.116   8.902
16682SOL     OW51486   4.041   6.514   7.699
16682SOL    HW151487   4.071   6.551   7.616
16682SOL    HW251488   3.999   6.431   7.674
16683SOL     OW51489   5.199   6.354   8.194
16683SOL    HW151490   5.197   6.269   8.240
16683SOL    HW251491   5.290   6.381   8.196
16684SOL     OW51492   4.203   6.857   9.187
16684SOL    HW151493   4.173   6.862   9.096
16684SOL    HW251494   4.123   6.845   9.238
16685SOL     OW51495   4.868   7.341   7.697
16685SOL    HW151496   4.780   7.319   7.729
16685SOL    HW251497   4.876   7.295   7.614
16686SOL     OW51498   3.925   5.845   8.957
16686SOL    HW151499   3.839   5.879   8.935
16686SOL    HW251500   3.908   5.755   8.987
16687SOL     OW51501   5.343   6.975   7.548
16687SOL    HW151502   5.292   7.048   7.515
16687SOL    HW251503   5.287   6.898   7.536
16688SOL     OW51504   4.185   7.322   7.766
16688SOL    HW151505   4.235   7.374   7.828
16688SOL    HW251506   4.252   7.283   7.709
16689SOL     OW51507   5.121   5.711   7.879
16689SOL    HW151508   5.116   5.672   7.792
16689SOL    HW251509   5.212   5.741   7.887
16690SOL     OW51510   3.968   7.370   8.682
16690SOL    HW151511   4.026   7.309   8.728
16690SOL    HW251512   3.982   7.352   8.589
16691SOL     OW51513   4.663   7.285   8.342
16691SOL    HW151514   4.743   7.237   8.361
16691SOL    HW251515   4.620   7.235   8.272
16692SOL     OW51516   4.104   6.266   7.952
16692SOL    HW151517   4.121   6.172   7.954
16692SOL    HW251518   4.009   6.274   7.960
16693SOL     OW51519   5.241   5.815   9.169
16693SOL    HW151520   5.248   5.834   9.263
16693SOL    HW251521   5.194   5.732   9.165
16694SOL     OW51522   4.370   5.698   7.548
16694SOL    HW151523   4.411   5.616   7.574
16694SOL    HW251524   4.314   5.675   7.474
16695SOL     OW51525   4.493   5.867   9.209
16695SOL    HW151526   4.571   5.813   9.204
16695SOL    HW251527   4.436   5.821   9.271
16696SOL     OW51528   4.599   7.110   8.644
16696SOL    HW151529   4.582   7.071   8.558
16696SOL    HW251530   4.669   7.057   8.681
16697SOL     OW51531   5.056   6.173   8.880
16697SOL    HW151532   5.092   6.139   8.962
16697SOL    HW251533   5.100   6.257   8.867
16698SOL     OW51534   4.542   6.975   8.394
16698SOL    HW151535   4.627   6.962   8.352
16698SOL    HW251536   4.480   6.983   8.322
16699SOL     OW51537   4.647   6.094   8.344
16699SOL    HW151538   4.626   6.082   8.251
16699SOL    HW251539   4.679   6.008   8.372
16700SOL     OW51540   4.288   5.679   7.975
16700SOL    HW151541   4.200   5.655   8.002
16700SOL    HW251542   4.276   5.731   7.896
16701SOL     OW51543   5.154   6.765   7.497
16701SOL    HW151544   5.203   6.698   7.546
16701SOL    HW251545   5.064   6.734   7.497
16702SOL     OW51546   4.012   5.641   7.642
16702SOL    HW151547   4.061   5.690   7.576
16702SOL    HW251548   4.076   5.582   7.680
16703SOL     OW51549   4.668   5.849   7.909
16703SOL    HW151550   4.646   5.871   7.818
16703SOL    HW251551   4.764   5.856   7.913
16704SOL     OW51552   4.801   6.268   8.904
16704SOL    HW151553   4.733   6.200   8.904
16704SOL    HW251554   4.883   6.220   8.893
16705SOL     OW51555   4.937   7.161   8.246
16705SOL    HW151556   4.952   7.228   8.179
16705SOL    HW251557   5.011   7.169   8.306
16706SOL     OW51558   4.200   6.730   8.166
16706SOL    HW151559   4.130   6.714   8.229
16706SOL    HW251560   4.158   6.718   8.081
16707SOL     OW51561   4.985   7.376   8.066
16707SOL    HW151562   5.032   7.438   8.011
16707SOL    HW251563   4.912   7.426   8.102
16708SOL     OW51564   4.749   6.130   7.479
16708SOL    HW151565   4.725   6.222   7.469
16708SOL    HW251566   4.814   6.129   7.549
16709SOL     OW51567   3.814   6.146   8.838
16709SOL    HW151568   3.906   6.138   8.811
16709SOL    HW251569   3.814   6.213   8.905
16710SOL     OW51570   4.298   5.809   8.602
16710SOL    HW151571   4.342   5.724   8.593
16710SOL    HW251572   4.213   5.788   8.640
16711SOL     OW51573   4.563   6.050   8.081
16711SOL    HW151574   4.545   6.089   7.996
16711SOL    HW251575   4.598   5.963   8.062
16712SOL     OW51576   4.715   5.649   8.201
16712SOL    HW151577   4.667   5.627   8.121
16712SOL    HW251578   4.708   5.570   8.255
16713SOL     OW51579   5.160   6.746   8.296
16713SOL    HW151580   5.100   6.672   8.303
16713SOL    HW251581   5.180   6.753   8.203
16714SOL     OW51582   5.166   6.197   8.448
16714SOL    HW151583   5.126   6.113   8.425
16714SOL    HW251584   5.236   6.174   8.509
16715SOL     OW51585   5.578   6.408   7.842
16715SOL    HW151586   5.630   6.349   7.897
16715SOL    HW251587   5.541   6.352   7.775
16716SOL     OW51588   4.223   6.995   7.605
16716SOL    HW151589   4.174   6.955   7.677
16716SOL    HW251590   4.169   6.980   7.528
16717SOL     OW51591   5.412   6.864   8.079
16717SOL    HW151592   5.506   6.858   8.098
16717SOL    HW251593   5.387   6.952   8.109
16718SOL     OW51594   5.126   6.162   7.533
16718SOL    HW151595   5.056   6.137   7.594
16718SOL    HW251596   5.205   6.123   7.569
16719SOL     OW51597   4.260   5.855   7.764
16719SOL    HW151598   4.293   5.800   7.693
16719SOL    HW251599   4.228   5.934   7.720
16720SOL     OW51600   5.452   6.846   9.062
16720SOL    HW151601   5.527   6.788   9.074
16720SOL    HW251602   5.490   6.934   9.060
16721SOL     OW51603   4.781   6.947   8.792
16721SOL    HW151604   4.701   6.913   8.832
16721SOL    HW251605   4.852   6.902   8.837
16722SOL     OW51606   5.330   7.194   9.104
16722SOL    HW151607   5.320   7.236   9.019
16722SOL    HW251608   5.419   7.157   9.102
16723SOL     OW51609   4.866   6.812   8.549
16723SOL    HW151610   4.790   6.832   8.604
16723SOL    HW251611   4.838   6.837   8.460
16724SOL     OW51612   5.347   6.677   8.517
16724SOL    HW151613   5.331   6.736   8.591
16724SOL    HW251614   5.270   6.689   8.460
16725SOL     OW51615   4.629   5.701   8.830
16725SOL    HW151616   4.650   5.666   8.744
16725SOL    HW251617   4.714   5.720   8.870
16726SOL     OW51618   4.710   6.700   9.168
16726SOL    HW151619   4.620   6.719   9.197
16726SOL    HW251620   4.703   6.619   9.119
16727SOL     OW51621   4.447   6.650   7.825
16727SOL    HW151622   4.418   6.614   7.910
16727SOL    HW251623   4.523   6.597   7.802
16728SOL     OW51624   4.148   6.406   8.700
16728SOL    HW151625   4.213   6.414   8.769
16728SOL    HW251626   4.115   6.316   8.707
16729SOL     OW51627   4.981   5.949   8.736
16729SOL    HW151628   5.015   6.030   8.773
16729SOL    HW251629   4.893   5.971   8.705
16730SOL     OW51630   3.807   7.149   8.797
16730SOL    HW151631   3.793   7.237   8.760
16730SOL    HW251632   3.902   7.137   8.796
16731SOL     OW51633   4.085   6.682   7.925
16731SOL    HW151634   4.071   6.761   7.873
16731SOL    HW251635   4.070   6.610   7.864
16732SOL     OW51636   4.290   6.148   8.280
16732SOL    HW151637   4.333   6.081   8.227
16732SOL    HW251638   4.342   6.152   8.361
16733SOL     OW51639   4.928   6.922   7.807
16733SOL    HW151640   5.009   6.968   7.829
16733SOL    HW251641   4.862   6.963   7.862
16734SOL     OW51642   5.020   7.046   8.590
16734SOL    HW151643   5.070   7.043   8.672
16734SOL    HW251644   4.965   6.968   8.594
16735SOL     OW51645   5.264   6.332   7.896
16735SOL    HW151646   5.244   6.310   7.987
16735SOL    HW251647   5.284   6.248   7.855
16736SOL     OW51648   4.071   7.105   8.756
16736SOL    HW151649   4.063   7.066   8.670
16736SOL    HW251650   4.165   7.122   8.766
16737SOL     OW51651   4.143   6.312   9.046
16737SOL    HW151652   4.210   6.357   8.995
16737SOL    HW251653   4.177   6.224   9.059
16738SOL     OW51654   5.322   6.376   9.125
16738SOL    HW151655   5.271   6.313   9.074
16738SOL    HW251656   5.378   6.420   9.060
16739SOL     OW51657   4.725   5.719   9.212
16739SOL    HW151658   4.782   5.788   9.177
16739SOL    HW251659   4.761   5.638   9.177
16740SOL     OW51660   4.205   5.634   9.207
16740SOL    HW151661   4.168   5.575   9.142
16740SOL    HW251662   4.140   5.704   9.215
16741SOL     OW51663   4.307   6.465   8.478
16741SOL    HW151664   4.348   6.550   8.491
16741SOL    HW251665   4.257   6.450   8.558
16742SOL     OW51666   5.071   6.449   8.481
16742SOL    HW151667   4.998   6.440   8.420
16742SOL    HW251668   5.117   6.366   8.476
16743SOL     OW51669   4.912   6.120   7.705
16743SOL    HW151670   4.932   6.041   7.755
16743SOL    HW251671   4.873   6.179   7.769
16744SOL     OW51672   4.032   5.773   8.691
16744SOL    HW151673   3.996   5.794   8.777
16744SOL    HW251674   4.026   5.678   8.684
16745SOL     OW51675   3.743   6.887   8.734
16745SOL    HW151676   3.794   6.830   8.792
16745SOL    HW251677   3.777   6.975   8.753
16746SOL     OW51678   4.447   6.209   8.500
16746SOL    HW151679   4.525   6.186   8.450
16746SOL    HW251680   4.429   6.300   8.477
16747SOL     OW51681   5.446   6.565   9.299
16747SOL    HW151682   5.413   6.489   9.251
16747SOL    HW251683   5.389   6.572   9.376
16748SOL     OW51684   4.033   5.647   8.071
16748SOL    HW151685   4.014   5.737   8.098
16748SOL    HW251686   4.036   5.598   8.154
16749SOL     OW51687   4.739   6.346   8.405
16749SOL    HW151688   4.738   6.360   8.500
16749SOL    HW251689   4.722   6.252   8.395
16750SOL     OW51690   4.721   7.161   9.168
16750SOL    HW151691   4.696   7.201   9.084
16750SOL    HW251692   4.731   7.068   9.148
16751SOL     OW51693   5.583   7.090   9.052
16751SOL    HW151694   5.603   7.116   8.962
16751SOL    HW251695   5.664   7.103   9.100
16752SOL     OW51696   4.053   6.532   9.225
16752SOL    HW151697   4.066   6.531   9.320
16752SOL    HW251698   4.111   6.464   9.192
16753SOL     OW51699   5.242   5.861   7.564
16753SOL    HW151700   5.186   5.789   7.594
16753SOL    HW251701   5.270   5.906   7.643
16754SOL     OW51702   5.019   6.416   7.488
16754SOL    HW151703   5.055   6.328   7.496
16754SOL    HW251704   5.045   6.445   7.401
16755SOL     OW51705   4.792   6.924   8.303
16755SOL    HW151706   4.796   6.852   8.239
16755SOL    HW251707   4.848   6.992   8.265
16756SOL     OW51708   4.041   6.402   8.392
16756SOL    HW151709   4.135   6.418   8.401
16756SOL    HW251710   4.030   6.311   8.419
16757SOL     OW51711   4.066   6.131   8.449
16757SOL    HW151712   4.026   6.044   8.443
16757SOL    HW251713   4.135   6.130   8.383
16758SOL     OW51714   4.862   5.966   9.133
16758SOL    HW151715   4.812   6.015   9.198
16758SOL    HW251716   4.946   6.011   9.129
16759SOL     OW51717   4.878   5.779   8.929
16759SOL    HW151718   4.869   5.849   8.994
16759SOL    HW251719   4.921   5.821   8.855
16760SOL     OW51720   3.689   6.948   7.722
16760SOL    HW151721   3.615   6.959   7.662
16760SOL    HW251722   3.733   6.868   7.692
16761SOL     OW51723   3.809   7.364   8.390
16761SOL    HW151724   3.780   7.283   8.349
16761SOL    HW251725   3.899   7.377   8.359
16762SOL     OW51726   4.216   7.159   8.354
16762SOL    HW151727   4.285   7.222   8.374
16762SOL    HW251728   4.257   7.098   8.293
16763SOL     OW51729   4.687   6.377   8.676
16763SOL    HW151730   4.748   6.354   8.746
16763SOL    HW251731   4.611   6.321   8.690
16764SOL     OW51732   3.761   6.150   8.560
16764SOL    HW151733   3.820   6.100   8.504
16764SOL    HW251734   3.798   6.142   8.648
16765SOL     OW51735   3.910   6.095   9.178
16765SOL    HW151736   3.947   6.034   9.114
16765SOL    HW251737   3.885   6.172   9.127
16766SOL     OW51738   5.143   6.588   9.084
16766SOL    HW151739   5.192   6.526   9.138
16766SOL    HW251740   5.131   6.542   9.001
16767SOL     OW51741   4.524   6.153   7.826
16767SOL    HW151742   4.549   6.077   7.775
16767SOL    HW251743   4.457   6.197   7.774
16768SOL     OW51744   5.369   6.188   8.642
16768SOL    HW151745   5.363   6.114   8.704
16768SOL    HW251746   5.453   6.176   8.598
16769SOL     OW51747   3.959   7.128   9.174
16769SOL    HW151748   3.947   7.190   9.246
16769SOL    HW251749   3.971   7.043   9.216
16770SOL     OW51750   4.436   6.027   8.705
16770SOL    HW151751   4.388   5.948   8.681
16770SOL    HW251752   4.425   6.085   8.630
16771SOL     OW51753   4.652   7.261   8.917
16771SOL    HW151754   4.622   7.220   8.836
16771SOL    HW251755   4.642   7.355   8.901
16772SOL     OW51756   4.186   6.103   7.658
16772SOL    HW151757   4.236   6.131   7.581
16772SOL    HW251758   4.096   6.127   7.637
16773SOL     OW51759   3.876   6.724   8.901
16773SOL    HW151760   3.869   6.677   8.984
16773SOL    HW251761   3.894   6.655   8.837
16774SOL     OW51762   5.035   6.634   8.674
16774SOL    HW151763   5.057   6.568   8.608
16774SOL    HW251764   4.976   6.694   8.628
16775SOL     OW51765   4.990   6.484   7.756
16775SOL    HW151766   4.990   6.408   7.814
16775SOL    HW251767   5.002   6.448   7.669
16776SOL     OW51768   5.514   7.322   8.614
16776SOL    HW151769   5.570   7.347   8.539
16776SOL    HW251770   5.477   7.238   8.589
16777SOL     OW51771   4.964   7.316   8.557
16777SOL    HW151772   5.045   7.342   8.514
16777SOL    HW251773   4.974   7.223   8.575
16778SOL     OW51774   3.746   6.883   8.449
16778SOL    HW151775   3.763   6.855   8.539
16778SOL    HW251776   3.731   6.801   8.401
16779SOL     OW51777   4.402   7.262   9.183
16779SOL    HW151778   4.341   7.336   9.182
16779SOL    HW251779   4.470   7.286   9.120
16780SOL     OW51780   5.501   5.720   8.009
16780SOL    HW151781   5.541   5.711   7.922
16780SOL    HW251782   5.460   5.635   8.025
16781SOL     OW51783   5.132   7.166   7.944
16781SOL    HW151784   5.148   7.195   7.855
16781SOL    HW251785   5.065   7.226   7.977
16782SOL     OW51786   3.862   7.384   9.292
16782SOL    HW151787   3.813   7.317   9.339
16782SOL    HW251788   3.912   7.429   9.360
16783SOL     OW51789   5.000   6.525   8.135
16783SOL    HW151790   5.071   6.462   8.153
16783SOL    HW251791   5.038   6.586   8.072
16784SOL     OW51792   4.528   6.865   8.864
16784SOL    HW151793   4.500   6.906   8.945
16784SOL    HW251794   4.453   6.874   8.805
16785SOL     OW51795   4.394   7.201   7.607
16785SOL    HW151796   4.405   7.224   7.515
16785SOL    HW251797   4.338   7.123   7.606
16786SOL     OW51798   5.343   7.312   8.845
16786SOL    HW151799   5.398   7.318   8.767
16786SOL    HW251800   5.327   7.403   8.870
16787SOL     OW51801   5.573   5.755   8.416
16787SOL    HW151802   5.594   5.665   8.391
16787SOL    HW251803   5.487   5.771   8.377
16788SOL     OW51804   3.994   5.908   8.167
16788SOL    HW151805   3.904   5.934   8.144
16788SOL    HW251806   3.991   5.892   8.262
16789SOL     OW51807   4.933   7.212   7.456
16789SOL    HW151808   4.885   7.130   7.445
16789SOL    HW251809   4.903   7.268   7.385
16790SOL     OW51810   4.545   6.590   8.830
16790SOL    HW151811   4.591   6.570   8.749
16790SOL    HW251812   4.546   6.685   8.836
16791SOL     OW51813   4.673   6.520   7.747
16791SOL    HW151814   4.703   6.500   7.658
16791SOL    HW251815   4.710   6.450   7.801
16792SOL     OW51816   5.208   7.204   7.482
16792SOL    HW151817   5.113   7.204   7.468
16792SOL    HW251818   5.244   7.216   7.394
16793SOL     OW51819   4.091   6.892   8.945
16793SOL    HW151820   4.079   6.966   8.884
16793SOL    HW251821   4.018   6.833   8.925
16794SOL     OW51822   5.322   6.864   8.719
16794SOL    HW151823   5.410   6.872   8.757
16794SOL    HW251824   5.272   6.933   8.762
16795SOL     OW51825   4.780   6.696   8.157
16795SOL    HW151826   4.708   6.643   8.191
16795SOL    HW251827   4.850   6.633   8.140
16796SOL     OW51828   4.741   5.826   8.415
16796SOL    HW151829   4.733   5.780   8.331
16796SOL    HW251830   4.736   5.757   8.481
16797SOL     OW51831   4.331   7.070   7.924
16797SOL    HW151832   4.370   7.027   7.848
16797SOL    HW251833   4.246   7.101   7.894
16798SOL     OW51834   5.457   5.981   8.828
16798SOL    HW151835   5.533   6.039   8.824
16798SOL    HW251836   5.481   5.906   8.774
16799SOL     OW51837   4.031   6.899   7.774
16799SOL    HW151838   3.981   6.905   7.692
16799SOL    HW251839   3.984   6.957   7.834
16800SOL     OW51840   3.809   6.591   9.134
16800SOL    HW151841   3.746   6.586   9.205
16800SOL    HW251842   3.894   6.578   9.176
16801SOL     OW51843   4.395   5.805   8.945
16801SOL    HW151844   4.472   5.775   8.897
16801SOL    HW251845   4.428   5.825   9.033
16802SOL     OW51846   3.784   5.922   7.507
16802SOL    HW151847   3.690   5.913   7.516
16802SOL    HW251848   3.796   5.981   7.434
16803SOL     OW51849   5.151   6.444   8.852
16803SOL    HW151850   5.092   6.491   8.793
16803SOL    HW251851   5.235   6.442   8.805
16804SOL     OW51852   3.791   5.753   7.757
16804SOL    HW151853   3.768   5.813   7.686
16804SOL    HW251854   3.874   5.714   7.730
16805SOL     OW51855   4.343   6.414   8.886
16805SOL    HW151856   4.402   6.489   8.875
16805SOL    HW251857   4.401   6.338   8.890
16806SOL     OW51858   5.203   7.375   8.435
16806SOL    HW151859   5.225   7.445   8.374
16806SOL    HW251860   5.288   7.336   8.458
16807SOL     OW51861   4.451   6.139   9.147
16807SOL    HW151862   4.491   6.192   9.216
16807SOL    HW251863   4.462   6.049   9.176
16808SOL     OW51864   4.090   7.317   9.007
16808SOL    HW151865   4.006   7.360   8.998
16808SOL    HW251866   4.070   7.234   9.052
16809SOL     OW51867   5.383   6.457   8.703
16809SOL    HW151868   5.381   6.368   8.668
16809SOL    HW251869   5.375   6.513   8.626
16810SOL     OW51870   4.938   5.916   7.898
16810SOL    HW151871   5.000   5.845   7.886
16810SOL    HW251872   4.969   5.962   7.976
16811SOL     OW51873   5.467   5.964   9.103
16811SOL    HW151874   5.463   5.970   9.008
16811SOL    HW251875   5.401   5.898   9.126
16812SOL     OW51876   5.475   6.522   8.949
16812SOL    HW151877   5.512   6.609   8.935
16812SOL    HW251878   5.449   6.492   8.862
16813SOL     OW51879   4.661   6.971   7.530
16813SOL    HW151880   4.583   6.985   7.584
16813SOL    HW251881   4.653   7.034   7.458
16814SOL     OW51882   4.387   7.368   8.380
16814SOL    HW151883   4.370   7.461   8.366
16814SOL    HW251884   4.483   7.360   8.377
16815SOL     OW51885   4.585   6.551   8.294
16815SOL    HW151886   4.637   6.480   8.332
16815SOL    HW251887   4.548   6.596   8.369
16816SOL     OW51888   4.859   6.646   7.520
16816SOL    HW151889   4.808   6.644   7.440
16816SOL    HW251890   4.905   6.561   7.522
16817SOL     OW51891   5.574   7.135   8.283
16817SOL    HW151892   5.487   7.124   8.247
16817SOL    HW251893   5.588   7.058   8.338
16818SOL     OW51894   3.959   6.884   9.311
16818SOL    HW151895   3.902   6.807   9.314
16818SOL    HW251896   3.969   6.910   9.403
16819SOL     OW51897   3.805   6.825   8.108
16819SOL    HW151898   3.842   6.768   8.175
16819SOL    HW251899   3.835   6.787   8.025
16820SOL     OW51900   4.413   7.001   9.073
16820SOL    HW151901   4.340   6.952   9.112
16820SOL    HW251902   4.408   7.087   9.114
16821SOL     OW51903   5.542   5.768   8.687
16821SOL    HW151904   5.533   5.674   8.705
16821SOL    HW251905   5.551   5.774   8.592
16822SOL     OW51906   4.189   6.015   7.994
16822SOL    HW151907   4.213   5.952   7.926
16822SOL    HW251908   4.126   5.968   8.049
16823SOL     OW51909   5.410   7.084   8.543
16823SOL    HW151910   5.337   7.060   8.486
16823SOL    HW251911   5.424   7.007   8.598
16824SOL     OW51912   4.066   6.145   8.738
16824SOL    HW151913   4.114   6.087   8.796
16824SOL    HW251914   4.084   6.112   8.650
16825SOL     OW51915   4.553   7.173   8.118
16825SOL    HW151916   4.538   7.249   8.061
16825SOL    HW251917   4.476   7.119   8.106
16826SOL     OW51918   5.148   5.805   8.552
16826SOL    HW151919   5.155   5.710   8.556
16826SOL    HW251920   5.096   5.829   8.629
16827SOL     OW51921   4.731   5.606   8.586
16827SOL    HW151922   4.675   5.543   8.540
16827SOL    HW251923   4.816   5.562   8.592
16828SOL     OW51924   4.523   6.902   7.763
16828SOL    HW151925   4.480   6.819   7.783
16828SOL    HW251926   4.567   6.925   7.845
16829SOL     OW51927   4.342   7.146   8.730
16829SOL    HW151928   4.341   7.227   8.780
16829SOL    HW251929   4.431   7.138   8.697
16830SOL     OW51930   5.087   5.629   7.616
16830SOL    HW151931   5.126   5.554   7.572
16830SOL    HW251932   4.997   5.603   7.633
16831SOL     OW51933   4.997   6.055   8.127
16831SOL    HW151934   4.945   6.135   8.139
16831SOL    HW251935   5.004   6.017   8.215
16832SOL     OW51936   5.328   5.824   8.336
16832SOL    HW151937   5.259   5.816   8.402
16832SOL    HW251938   5.298   5.894   8.278
16833SOL     OW51939   3.763   6.654   7.781
16833SOL    HW151940   3.840   6.652   7.724
16833SOL    HW251941   3.744   6.562   7.799
16834SOL     OW51942   4.612   7.246   7.780
16834SOL    HW151943   4.539   7.232   7.719
16834SOL    HW251944   4.582   7.316   7.838
16835SOL     OW51945   3.955   6.206   9.430
16835SOL    HW151946   3.866   6.203   9.463
16835SOL    HW251947   3.948   6.178   9.339
16836SOL     OW51948   3.941   5.863  10.308
16836SOL    HW151949   3.977   5.836  10.392
16836SOL    HW251950   3.855   5.821  10.304
16837SOL     OW51951   3.724   5.960   9.957
16837SOL    HW151952   3.638   5.972   9.996
16837SOL    HW251953   3.711   5.890   9.892
16838SOL     OW51954   4.281   6.882  10.503
16838SOL    HW151955   4.202   6.891  10.450
16838SOL    HW251956   4.318   6.970  10.508
16839SOL     OW51957   5.286   7.107  10.023
16839SOL    HW151958   5.252   7.078  10.107
16839SOL    HW251959   5.209   7.113   9.967
16840SOL     OW51960   4.852   6.281  10.009
16840SOL    HW151961   4.899   6.362   9.990
16840SOL    HW251962   4.807   6.299  10.092
16841SOL     OW51963   5.501   6.191   9.539
16841SOL    HW151964   5.478   6.184   9.447
16841SOL    HW251965   5.464   6.112   9.579
16842SOL     OW51966   4.441   6.706  10.357
16842SOL    HW151967   4.381   6.756  10.413
16842SOL    HW251968   4.506   6.770  10.328
16843SOL     OW51969   4.605   6.345  11.131
16843SOL    HW151970   4.606   6.417  11.193
16843SOL    HW251971   4.621   6.386  11.046
16844SOL     OW51972   4.407   6.577   9.953
16844SOL    HW151973   4.474   6.577  10.021
16844SOL    HW251974   4.339   6.635   9.987
16845SOL     OW51975   4.399   6.771  11.122
16845SOL    HW151976   4.458   6.814  11.183
16845SOL    HW251977   4.405   6.822  11.041
16846SOL     OW51978   4.050   7.010  10.376
16846SOL    HW151979   3.979   6.970  10.325
16846SOL    HW251980   4.101   7.058  10.311
16847SOL     OW51981   5.180   7.085  10.669
16847SOL    HW151982   5.233   7.165  10.675
16847SOL    HW251983   5.112   7.095  10.735
16848SOL     OW51984   4.172   5.976  10.791
16848SOL    HW151985   4.250   5.922  10.798
16848SOL    HW251986   4.099   5.916  10.809
16849SOL     OW51987   5.328   6.033  10.062
16849SOL    HW151988   5.266   6.051   9.991
16849SOL    HW251989   5.300   6.091  10.132
16850SOL     OW51990   3.933   7.309   9.773
16850SOL    HW151991   3.960   7.379   9.832
16850SOL    HW251992   4.011   7.289   9.722
16851SOL     OW51993   4.870   6.931  11.014
16851SOL    HW151994   4.906   6.918  11.102
16851SOL    HW251995   4.830   6.847  10.991
16852SOL     OW51996   3.972   7.036   9.843
16852SOL    HW151997   3.932   7.122   9.849
16852SOL    HW251998   3.919   6.981   9.901
16853SOL     OW51999   3.982   6.679  10.202
16853SOL    HW152000   3.995   6.588  10.229
16853SOL    HW252001   3.934   6.720  10.274
16854SOL     OW52002   4.299   7.397  10.720
16854SOL    HW152003   4.229   7.370  10.780
16854SOL    HW252004   4.337   7.475  10.760
16855SOL     OW52005   4.366   6.540   9.439
16855SOL    HW152006   4.388   6.605   9.372
16855SOL    HW252007   4.373   6.588   9.522
16856SOL     OW52008   5.327   5.713  10.776
16856SOL    HW152009   5.309   5.781  10.711
16856SOL    HW252010   5.293   5.749  10.858
16857SOL     OW52011   3.827   6.251   9.869
16857SOL    HW152012   3.823   6.160   9.896
16857SOL    HW252013   3.828   6.301   9.950
16858SOL     OW52014   5.571   7.337   9.635
16858SOL    HW152015   5.635   7.312   9.702
16858SOL    HW252016   5.589   7.430   9.619
16859SOL     OW52017   3.746   7.179   9.425
16859SOL    HW152018   3.743   7.087   9.448
16859SOL    HW252019   3.730   7.225   9.508
16860SOL     OW52020   5.419   6.514   9.955
16860SOL    HW152021   5.485   6.453   9.922
16860SOL    HW252022   5.381   6.554   9.877
16861SOL     OW52023   5.372   6.692   9.732
16861SOL    HW152024   5.461   6.675   9.703
16861SOL    HW252025   5.380   6.764   9.794
16862SOL     OW52026   3.847   6.329  10.892
16862SOL    HW152027   3.935   6.368  10.889
16862SOL    HW252028   3.788   6.404  10.881
16863SOL     OW52029   4.320   6.982  10.032
16863SOL    HW152030   4.282   6.895  10.038
16863SOL    HW252031   4.307   7.009   9.941
16864SOL     OW52032   5.009   6.823  10.753
16864SOL    HW152033   5.034   6.767  10.679
16864SOL    HW252034   5.080   6.810  10.816
16865SOL     OW52035   4.539   5.545   9.759
16865SOL    HW152036   4.591   5.625   9.750
16865SOL    HW252037   4.451   5.576   9.778
16866SOL     OW52038   3.908   6.550  10.591
16866SOL    HW152039   3.994   6.511  10.578
16866SOL    HW252040   3.850   6.500  10.535
16867SOL     OW52041   5.255   6.592   9.504
16867SOL    HW152042   5.186   6.532   9.533
16867SOL    HW252043   5.292   6.626   9.586
16868SOL     OW52044   4.896   7.388  10.936
16868SOL    HW152045   4.910   7.452  10.867
16868SOL    HW252046   4.919   7.304  10.896
16869SOL     OW52047   4.065   5.836  11.149
16869SOL    HW152048   4.105   5.921  11.167
16869SOL    HW252049   3.972   5.850  11.167
16870SOL     OW52050   5.212   6.995  10.261
16870SOL    HW152051   5.136   7.018  10.314
16870SOL    HW252052   5.191   6.908  10.226
16871SOL     OW52053   5.375   7.342   9.883
16871SOL    HW152054   5.351   7.305   9.798
16871SOL    HW252055   5.353   7.274   9.946
16872SOL     OW52056   4.329   6.299   9.578
16872SOL    HW152057   4.338   6.380   9.530
16872SOL    HW252058   4.263   6.317   9.645
16873SOL     OW52059   5.005   5.950  10.248
16873SOL    HW152060   4.916   5.916  10.256
16873SOL    HW252061   5.058   5.891  10.302
16874SOL     OW52062   5.300   7.275   9.617
16874SOL    HW152063   5.394   7.293   9.609
16874SOL    HW252064   5.272   7.251   9.528
16875SOL     OW52065   4.506   6.205  10.755
16875SOL    HW152066   4.483   6.175  10.842
16875SOL    HW252067   4.478   6.134  10.697
16876SOL     OW52068   5.119   6.058  10.984
16876SOL    HW152069   5.126   6.099  11.070
16876SOL    HW252070   5.169   5.977  10.992
16877SOL     OW52071   4.670   6.471  10.893
16877SOL    HW152072   4.723   6.400  10.858
16877SOL    HW252073   4.626   6.509  10.817
16878SOL     OW52074   4.718   5.999  10.540
16878SOL    HW152075   4.626   6.009  10.564
16878SOL    HW252076   4.715   5.956  10.454
16879SOL     OW52077   4.778   6.284   9.736
16879SOL    HW152078   4.795   6.280   9.830
16879SOL    HW252079   4.693   6.241   9.725
16880SOL     OW52080   3.800   6.410  10.095
16880SOL    HW152081   3.886   6.402  10.136
16880SOL    HW252082   3.765   6.492  10.131
16881SOL     OW52083   3.841   7.460  10.889
16881SOL    HW152084   3.848   7.442  10.983
16881SOL    HW252085   3.762   7.412  10.862
16882SOL     OW52086   4.624   5.936   9.507
16882SOL    HW152087   4.668   5.998   9.447
16882SOL    HW252088   4.603   5.861   9.452
16883SOL     OW52089   5.419   6.165  11.142
16883SOL    HW152090   5.388   6.238  11.087
16883SOL    HW252091   5.443   6.097  11.080
16884SOL     OW52092   5.105   6.733   9.858
16884SOL    HW152093   5.177   6.720   9.796
16884SOL    HW252094   5.046   6.795   9.815
16885SOL     OW52095   4.260   5.764  10.211
16885SOL    HW152096   4.273   5.791  10.302
16885SOL    HW252097   4.275   5.844  10.161
16886SOL     OW52098   4.728   7.029   9.756
16886SOL    HW152099   4.704   7.107   9.707
16886SOL    HW252100   4.689   7.041   9.842
16887SOL     OW52101   4.076   7.399  10.195
16887SOL    HW152102   4.123   7.316  10.196
16887SOL    HW252103   4.144   7.465  10.208
16888SOL     OW52104   5.508   6.668  10.163
16888SOL    HW152105   5.459   6.616  10.099
16888SOL    HW252106   5.451   6.670  10.240
16889SOL     OW52107   4.943   7.127  10.824
16889SOL    HW152108   4.941   7.052  10.883
16889SOL    HW252109   4.893   7.099  10.747
16890SOL     OW52110   4.034   6.526   9.500
16890SOL    HW152111   4.037   6.577   9.580
16890SOL    HW252112   4.034   6.435   9.529
16891SOL     OW52113   5.209   6.335  10.022
16891SOL    HW152114   5.182   6.307  10.109
16891SOL    HW252115   5.278   6.399  10.038
16892SOL     OW52116   4.858   7.368   9.534
16892SOL    HW152117   4.778   7.338   9.577
16892SOL    HW252118   4.877   7.300   9.469
16893SOL     OW52119   3.923   5.845  10.814
16893SOL    HW152120   3.841   5.894  10.814
16893SOL    HW252121   3.900   5.759  10.848
16894SOL     OW52122   5.356   6.965   9.396
16894SOL    HW152123   5.317   7.053   9.387
16894SOL    HW252124   5.281   6.906   9.394
16895SOL     OW52125   4.185   7.323   9.630
16895SOL    HW152126   4.229   7.368   9.702
16895SOL    HW252127   4.255   7.281   9.581
16896SOL     OW52128   5.124   5.692   9.742
16896SOL    HW152129   5.122   5.663   9.651
16896SOL    HW252130   5.216   5.687   9.767
16897SOL     OW52131   3.995   7.381  10.532
16897SOL    HW152132   4.042   7.312  10.578
16897SOL    HW252133   3.995   7.354  10.440
16898SOL     OW52134   4.124   6.282   9.769
16898SOL    HW152135   4.127   6.187   9.784
16898SOL    HW252136   4.034   6.306   9.791
16899SOL     OW52137   5.243   5.807  11.041
16899SOL    HW152138   5.261   5.813  11.134
16899SOL    HW252139   5.185   5.732  11.032
16900SOL     OW52140   4.374   5.696   9.404
16900SOL    HW152141   4.436   5.624   9.401
16900SOL    HW252142   4.309   5.675   9.337
16901SOL     OW52143   4.489   5.867  11.071
16901SOL    HW152144   4.570   5.817  11.063
16901SOL    HW252145   4.440   5.823  11.141
16902SOL     OW52146   4.602   7.123  10.535
16902SOL    HW152147   4.611   7.160  10.448
16902SOL    HW252148   4.671   7.058  10.542
16903SOL     OW52149   5.057   6.176  10.742
16903SOL    HW152150   5.092   6.143  10.825
16903SOL    HW252151   5.100   6.261  10.730
16904SOL     OW52152   4.511   6.962  10.244
16904SOL    HW152153   4.596   7.001  10.223
16904SOL    HW252154   4.462   6.968  10.162
16905SOL     OW52155   4.646   6.085  10.211
16905SOL    HW152156   4.623   6.078  10.118
16905SOL    HW252157   4.681   5.999  10.234
16906SOL     OW52158   4.283   5.643   9.797
16906SOL    HW152159   4.203   5.647   9.849
16906SOL    HW252160   4.280   5.721   9.742
16907SOL     OW52161   5.149   6.787   9.340
16907SOL    HW152162   5.176   6.714   9.394
16907SOL    HW252163   5.062   6.811   9.373
16908SOL     OW52164   4.008   5.638   9.501
16908SOL    HW152165   4.058   5.693   9.441
16908SOL    HW252166   4.071   5.572   9.531
16909SOL     OW52167   4.671   5.818   9.759
16909SOL    HW152168   4.645   5.860   9.677
16909SOL    HW252169   4.764   5.842   9.769
16910SOL     OW52170   4.802   6.265  10.779
16910SOL    HW152171   4.741   6.192  10.766
16910SOL    HW252172   4.888   6.227  10.763
16911SOL     OW52173   4.976   7.139  10.089
16911SOL    HW152174   4.965   7.215  10.032
16911SOL    HW252175   4.940   7.167  10.173
16912SOL     OW52176   4.187   6.737  10.023
16912SOL    HW152177   4.123   6.716  10.090
16912SOL    HW252178   4.143   6.721   9.940
16913SOL     OW52179   4.985   7.377   9.917
16913SOL    HW152180   5.022   7.449   9.866
16913SOL    HW252181   4.909   7.416   9.961
16914SOL     OW52182   4.754   6.122   9.340
16914SOL    HW152183   4.706   6.203   9.326
16914SOL    HW252184   4.812   6.141   9.414
16915SOL     OW52185   3.814   6.141  10.697
16915SOL    HW152186   3.906   6.141  10.671
16915SOL    HW252187   3.808   6.208  10.765
16916SOL     OW52188   4.286   5.809  10.483
16916SOL    HW152189   4.331   5.740  10.532
16916SOL    HW252190   4.195   5.805  10.513
16917SOL     OW52191   4.586   6.032   9.946
16917SOL    HW152192   4.552   6.093   9.881
16917SOL    HW252193   4.610   5.954   9.896
16918SOL     OW52194   4.750   5.649  10.064
16918SOL    HW152195   4.690   5.649   9.990
16918SOL    HW252196   4.724   5.574  10.117
16919SOL     OW52197   5.160   6.756  10.140
16919SOL    HW152198   5.112   6.687  10.186
16919SOL    HW252199   5.130   6.749  10.049
16920SOL     OW52200   5.196   6.169  10.271
16920SOL    HW152201   5.130   6.100  10.282
16920SOL    HW252202   5.244   6.170  10.353
16921SOL     OW52203   5.566   6.402   9.697
16921SOL    HW152204   5.621   6.351   9.756
16921SOL    HW252205   5.535   6.339   9.633
16922SOL     OW52206   4.224   7.012   9.453
16922SOL    HW152207   4.143   6.992   9.501
16922SOL    HW252208   4.228   6.946   9.384
16923SOL     OW52209   5.423   6.886   9.911
16923SOL    HW152210   5.465   6.856   9.993
16923SOL    HW252211   5.363   6.954   9.939
16924SOL     OW52212   5.118   6.156   9.387
16924SOL    HW152213   5.051   6.139   9.453
16924SOL    HW252214   5.194   6.105   9.416
16925SOL     OW52215   4.260   5.846   9.619
16925SOL    HW152216   4.304   5.799   9.548
16925SOL    HW252217   4.231   5.928   9.578
16926SOL     OW52218   5.473   6.833  10.868
16926SOL    HW152219   5.559   6.796  10.849
16926SOL    HW252220   5.491   6.922  10.898
16927SOL     OW52221   4.795   6.952  10.658
16927SOL    HW152222   4.716   6.904  10.685
16927SOL    HW252223   4.868   6.898  10.690
16928SOL     OW52224   5.333   7.216  10.970
16928SOL    HW152225   5.322   7.250  10.881
16928SOL    HW252226   5.417   7.170  10.968
16929SOL     OW52227   4.722   6.795  10.406
16929SOL    HW152228   4.802   6.791  10.460
16929SOL    HW252229   4.751   6.832  10.323
16930SOL     OW52230   5.367   6.691  10.403
16930SOL    HW152231   5.379   6.761  10.466
16930SOL    HW252232   5.273   6.673  10.404
16931SOL     OW52233   4.634   5.685  10.700
16931SOL    HW152234   4.655   5.664  10.609
16931SOL    HW252235   4.714   5.723  10.736
16932SOL     OW52236   4.719   6.697  11.035
16932SOL    HW152237   4.629   6.729  11.040
16932SOL    HW252238   4.714   6.621  10.977
16933SOL     OW52239   4.446   6.658   9.683
16933SOL    HW152240   4.422   6.632   9.772
16933SOL    HW252241   4.519   6.600   9.660
16934SOL     OW52242   4.142   6.412  10.570
16934SOL    HW152243   4.214   6.421  10.631
16934SOL    HW252244   4.114   6.321  10.578
16935SOL     OW52245   4.987   5.961  10.589
16935SOL    HW152246   5.018   6.041  10.632
16935SOL    HW252247   4.896   5.981  10.564
16936SOL     OW52248   3.805   7.159  10.669
16936SOL    HW152249   3.778   7.220  10.602
16936SOL    HW252250   3.900   7.152  10.658
16937SOL     OW52251   4.262   6.117  10.169
16937SOL    HW152252   4.274   6.176  10.095
16937SOL    HW252253   4.330   6.141  10.231
16938SOL     OW52254   4.978   6.937   9.698
16938SOL    HW152255   5.030   7.009   9.734
16938SOL    HW252256   4.889   6.955   9.728
16939SOL     OW52257   5.018   7.055  10.449
16939SOL    HW152258   5.075   7.055  10.525
16939SOL    HW252259   4.963   6.978  10.461
16940SOL     OW52260   5.295   6.200   9.798
16940SOL    HW152261   5.254   6.241   9.874
16940SOL    HW252262   5.309   6.272   9.737
16941SOL     OW52263   4.073   7.113  10.624
16941SOL    HW152264   4.058   7.067  10.541
16941SOL    HW252265   4.168   7.123  10.629
16942SOL     OW52266   4.142   6.350  10.919
16942SOL    HW152267   4.208   6.383  10.858
16942SOL    HW252268   4.168   6.260  10.936
16943SOL     OW52269   5.334   6.377  10.998
16943SOL    HW152270   5.247   6.416  10.984
16943SOL    HW252271   5.388   6.413  10.928
16944SOL     OW52272   4.720   5.724  11.063
16944SOL    HW152273   4.779   5.793  11.034
16944SOL    HW252274   4.764   5.643  11.039
16945SOL     OW52275   4.221   5.630  11.060
16945SOL    HW152276   4.175   5.573  10.999
16945SOL    HW252277   4.160   5.703  11.075
16946SOL     OW52278   4.306   6.462  10.340
16946SOL    HW152279   4.353   6.546  10.336
16946SOL    HW252280   4.255   6.467  10.420
16947SOL     OW52281   5.101   6.455  10.268
16947SOL    HW152282   5.077   6.511  10.342
16947SOL    HW252283   5.100   6.366  10.305
16948SOL     OW52284   4.921   6.117   9.573
16948SOL    HW152285   4.929   6.037   9.626
16948SOL    HW252286   4.878   6.180   9.631
16949SOL     OW52287   4.023   5.782  10.556
16949SOL    HW152288   3.984   5.810  10.639
16949SOL    HW252289   4.009   5.688  10.554
16950SOL     OW52290   3.785   6.894  10.579
16950SOL    HW152291   3.818   6.837  10.648
16950SOL    HW252292   3.782   6.981  10.618
16951SOL     OW52293   4.437   6.212  10.358
16951SOL    HW152294   4.517   6.199  10.307
16951SOL    HW252295   4.413   6.304  10.343
16952SOL     OW52296   5.470   6.538  11.179
16952SOL    HW152297   5.425   6.480  11.118
16952SOL    HW252298   5.404   6.560  11.244
16953SOL     OW52299   4.038   5.643   9.935
16953SOL    HW152300   4.014   5.734   9.952
16953SOL    HW252301   4.067   5.610  10.020
16954SOL     OW52302   5.354   5.969   9.665
16954SOL    HW152303   5.382   5.900   9.726
16954SOL    HW252304   5.326   6.041   9.722
16955SOL     OW52305   4.731   6.340  10.261
16955SOL    HW152306   4.734   6.359  10.355
16955SOL    HW252307   4.713   6.247  10.255
16956SOL     OW52308   4.694   7.137  11.026
16956SOL    HW152309   4.681   7.185  10.944
16956SOL    HW252310   4.755   7.067  11.003
16957SOL     OW52311   5.574   7.086  10.916
16957SOL    HW152312   5.590   7.117  10.827
16957SOL    HW252313   5.654   7.107  10.964
16958SOL     OW52314   4.115   6.566  11.094
16958SOL    HW152315   4.171   6.540  11.168
16958SOL    HW252316   4.122   6.492  11.033
16959SOL     OW52317   5.239   5.870   9.435
16959SOL    HW152318   5.190   5.793   9.462
16959SOL    HW252319   5.283   5.900   9.515
16960SOL     OW52320   5.008   6.406   9.332
16960SOL    HW152321   5.051   6.322   9.350
16960SOL    HW252322   5.013   6.414   9.236
16961SOL     OW52323   4.814   6.914  10.172
16961SOL    HW152324   4.807   6.842  10.108
16961SOL    HW252325   4.868   6.980  10.127
16962SOL     OW52326   4.035   6.400  10.253
16962SOL    HW152327   4.128   6.420  10.247
16962SOL    HW252328   4.031   6.310  10.285
16963SOL     OW52329   4.041   6.115  10.323
16963SOL    HW152330   4.009   6.025  10.312
16963SOL    HW252331   4.119   6.119  10.267
16964SOL     OW52332   4.858   5.963  10.993
16964SOL    HW152333   4.811   6.016  11.057
16964SOL    HW252334   4.944   6.005  10.985
16965SOL     OW52335   4.873   5.792  10.775
16965SOL    HW152336   4.868   5.856  10.847
16965SOL    HW252337   4.920   5.838  10.706
16966SOL     OW52338   3.715   6.914   9.509
16966SOL    HW152339   3.630   6.918   9.466
16966SOL    HW252340   3.720   6.824   9.543
16967SOL     OW52341   3.813   7.370  10.256
16967SOL    HW152342   3.783   7.289  10.214
16967SOL    HW252343   3.903   7.382  10.225
16968SOL     OW52344   4.216   7.162  10.216
16968SOL    HW152345   4.291   7.211  10.250
16968SOL    HW252346   4.254   7.100  10.153
16969SOL     OW52347   4.691   6.361  10.534
16969SOL    HW152348   4.759   6.356  10.602
16969SOL    HW252349   4.616   6.315  10.573
16970SOL     OW52350   3.769   6.143  10.420
16970SOL    HW152351   3.852   6.138  10.374
16970SOL    HW252352   3.792   6.133  10.512
16971SOL     OW52353   3.923   6.111  11.043
16971SOL    HW152354   3.968   6.059  10.977
16971SOL    HW252355   3.884   6.183  10.994
16972SOL     OW52356   5.101   6.521  10.964
16972SOL    HW152357   5.125   6.614  10.957
16972SOL    HW252358   5.096   6.491  10.873
16973SOL     OW52359   4.543   6.152   9.683
16973SOL    HW152360   4.549   6.080   9.621
16973SOL    HW252361   4.471   6.206   9.650
16974SOL     OW52362   5.359   6.184  10.496
16974SOL    HW152363   5.352   6.121  10.567
16974SOL    HW252364   5.446   6.169  10.459
16975SOL     OW52365   3.963   7.135  11.038
16975SOL    HW152366   3.945   7.196  11.109
16975SOL    HW252367   3.963   7.049  11.081
16976SOL     OW52368   4.437   6.031  10.559
16976SOL    HW152369   4.383   5.957  10.533
16976SOL    HW252370   4.429   6.094  10.487
16977SOL     OW52371   4.613   7.262  10.789
16977SOL    HW152372   4.617   7.214  10.707
16977SOL    HW252373   4.625   7.354  10.763
16978SOL     OW52374   4.188   6.077   9.494
16978SOL    HW152375   4.249   6.147   9.518
16978SOL    HW252376   4.104   6.122   9.481
16979SOL     OW52377   3.880   6.731  10.791
16979SOL    HW152378   3.868   6.680  10.871
16979SOL    HW252379   3.892   6.665  10.722
16980SOL     OW52380   5.051   6.447   9.614
16980SOL    HW152381   4.988   6.425   9.683
16980SOL    HW252382   5.005   6.427   9.532
16981SOL     OW52383   5.463   7.323  10.435
16981SOL    HW152384   5.543   7.347  10.388
16981SOL    HW252385   5.460   7.227  10.430
16982SOL     OW52386   4.988   7.337  10.458
16982SOL    HW152387   5.067   7.354  10.407
16982SOL    HW252388   4.977   7.242  10.454
16983SOL     OW52389   3.790   6.877  10.307
16983SOL    HW152390   3.784   6.879  10.403
16983SOL    HW252391   3.741   6.800  10.281
16984SOL     OW52392   4.401   7.241  11.023
16984SOL    HW152393   4.358   7.326  11.025
16984SOL    HW252394   4.479   7.255  10.969
16985SOL     OW52395   5.451   5.751   9.814
16985SOL    HW152396   5.519   5.730   9.750
16985SOL    HW252397   5.430   5.666   9.854
16986SOL     OW52398   5.116   7.159   9.793
16986SOL    HW152399   5.169   7.203   9.727
16986SOL    HW252400   5.061   7.228   9.831
16987SOL     OW52401   3.865   7.393  11.149
16987SOL    HW152402   3.816   7.323  11.192
16987SOL    HW252403   3.916   7.434  11.219
16988SOL     OW52404   4.993   6.503   9.952
16988SOL    HW152405   5.068   6.454   9.986
16988SOL    HW252406   5.032   6.583   9.916
16989SOL     OW52407   4.538   6.862  10.735
16989SOL    HW152408   4.492   6.905  10.808
16989SOL    HW252409   4.493   6.893  10.657
16990SOL     OW52410   4.393   7.221   9.462
16990SOL    HW152411   4.405   7.235   9.368
16990SOL    HW252412   4.341   7.141   9.467
16991SOL     OW52413   5.332   7.310  10.699
16991SOL    HW152414   5.390   7.315  10.623
16991SOL    HW252415   5.312   7.401  10.719
16992SOL     OW52416   5.568   5.754  10.277
16992SOL    HW152417   5.594   5.664  10.255
16992SOL    HW252418   5.480   5.763  10.241
16993SOL     OW52419   3.982   5.889  10.031
16993SOL    HW152420   3.899   5.931  10.008
16993SOL    HW252421   3.984   5.890  10.126
16994SOL     OW52422   4.939   7.181   9.343
16994SOL    HW152423   4.921   7.094   9.378
16994SOL    HW252424   4.870   7.195   9.277
16995SOL     OW52425   4.553   6.593  10.677
16995SOL    HW152426   4.595   6.579  10.592
16995SOL    HW252427   4.553   6.688  10.689
16996SOL     OW52428   4.651   6.502   9.603
16996SOL    HW152429   4.713   6.536   9.538
16996SOL    HW252430   4.699   6.432   9.647
16997SOL     OW52431   5.215   7.211   9.355
16997SOL    HW152432   5.120   7.201   9.345
16997SOL    HW252433   5.249   7.213   9.265
16998SOL     OW52434   4.095   6.894  10.857
16998SOL    HW152435   4.092   6.963  10.790
16998SOL    HW252436   4.027   6.833  10.831
16999SOL     OW52437   5.366   6.891  10.601
16999SOL    HW152438   5.395   6.862  10.688
16999SOL    HW252439   5.289   6.944  10.618
17000SOL     OW52440   4.790   6.693  10.013
17000SOL    HW152441   4.715   6.651  10.056
17000SOL    HW252442   4.848   6.621   9.990
17001SOL     OW52443   4.748   5.831  10.280
17001SOL    HW152444   4.754   5.783  10.198
17001SOL    HW252445   4.742   5.763  10.347
17002SOL     OW52446   4.311   7.068   9.774
17002SOL    HW152447   4.363   7.019   9.711
17002SOL    HW252448   4.225   7.078   9.732
17003SOL     OW52449   5.459   5.982  10.698
17003SOL    HW152450   5.532   6.043  10.690
17003SOL    HW252451   5.483   5.908  10.642
17004SOL     OW52452   3.981   6.962   9.571
17004SOL    HW152453   3.886   6.951   9.567
17004SOL    HW252454   4.002   6.949   9.664
17005SOL     OW52455   3.835   6.628  11.043
17005SOL    HW152456   3.758   6.593  11.087
17005SOL    HW252457   3.908   6.582  11.083
17006SOL     OW52458   4.399   5.785  10.810
17006SOL    HW152459   4.482   5.761  10.770
17006SOL    HW252460   4.423   5.815  10.898
17007SOL     OW52461   3.787   5.920   9.356
17007SOL    HW152462   3.727   5.871   9.300
17007SOL    HW252463   3.818   5.993   9.301
17008SOL     OW52464   5.164   6.429  10.712
17008SOL    HW152465   5.117   6.490  10.655
17008SOL    HW252466   5.253   6.428  10.678
17009SOL     OW52467   3.783   5.752   9.603
17009SOL    HW152468   3.770   5.819   9.536
17009SOL    HW252469   3.869   5.714   9.582
17010SOL     OW52470   4.903   6.917   9.429
17010SOL    HW152471   4.816   6.878   9.434
17010SOL    HW252472   4.932   6.920   9.520
17011SOL     OW52473   4.347   6.424  10.747
17011SOL    HW152474   4.407   6.495  10.724
17011SOL    HW252475   4.403   6.346  10.751
17012SOL     OW52476   5.219   7.395  10.324
17012SOL    HW152477   5.240   7.413  10.232
17012SOL    HW252478   5.302   7.365  10.362
17013SOL     OW52479   4.439   6.140  11.010
17013SOL    HW152480   4.488   6.196  11.070
17013SOL    HW252481   4.457   6.051  11.041
17014SOL     OW52482   5.207   6.775  10.946
17014SOL    HW152483   5.198   6.795  11.039
17014SOL    HW252484   5.298   6.799  10.925
17015SOL     OW52485   4.087   7.329  10.882
17015SOL    HW152486   4.003   7.373  10.868
17015SOL    HW252487   4.065   7.247  10.925
17016SOL     OW52488   5.407   6.457  10.570
17016SOL    HW152489   5.389   6.376  10.524
17016SOL    HW252490   5.385   6.526  10.507
17017SOL     OW52491   4.940   5.905   9.764
17017SOL    HW152492   5.005   5.834   9.759
17017SOL    HW252493   4.966   5.954   9.842
17018SOL     OW52494   4.300   6.319   9.983
17018SOL    HW152495   4.345   6.402   9.974
17018SOL    HW252496   4.243   6.313   9.906
17019SOL     OW52497   5.471   5.952  10.973
17019SOL    HW152498   5.467   5.967  10.879
17019SOL    HW252499   5.400   5.890  10.990
17020SOL     OW52500   5.490   6.514  10.822
17020SOL    HW152501   5.470   6.607  10.833
17020SOL    HW252502   5.471   6.495  10.730
17021SOL     OW52503   4.589   6.955   9.359
17021SOL    HW152504   4.556   6.952   9.449
17021SOL    HW252505   4.593   7.048   9.337
17022SOL     OW52506   4.358   7.406  10.295
17022SOL    HW152507   4.362   7.470  10.225
17022SOL    HW252508   4.444   7.365  10.296
17023SOL     OW52509   4.595   6.561  10.159
17023SOL    HW152510   4.644   6.487  10.193
17023SOL    HW252511   4.559   6.604  10.237
17024SOL     OW52512   4.820   6.595   9.404
17024SOL    HW152513   4.782   6.630   9.324
17024SOL    HW252514   4.882   6.529   9.375
17025SOL     OW52515   5.564   7.126  10.145
17025SOL    HW152516   5.481   7.124  10.098
17025SOL    HW252517   5.545   7.087  10.230
17026SOL     OW52518   3.931   6.874  11.143
17026SOL    HW152519   3.874   6.807  11.106
17026SOL    HW252520   3.890   6.897  11.226
17027SOL     OW52521   3.816   6.823   9.982
17027SOL    HW152522   3.857   6.788  10.061
17027SOL    HW252523   3.863   6.782   9.910
17028SOL     OW52524   4.367   6.973  10.939
17028SOL    HW152525   4.296   6.987  10.877
17028SOL    HW252526   4.387   7.060  10.974
17029SOL     OW52527   5.549   5.773  10.550
17029SOL    HW152528   5.531   5.680  10.567
17029SOL    HW252529   5.553   5.780  10.455
17030SOL     OW52530   4.133   6.018   9.826
17030SOL    HW152531   4.181   5.954   9.772
17030SOL    HW252532   4.102   5.967   9.901
17031SOL     OW52533   5.441   7.056  10.388
17031SOL    HW152534   5.358   7.037  10.344
17031SOL    HW252535   5.440   7.001  10.467
17032SOL     OW52536   4.068   6.149  10.605
17032SOL    HW152537   4.118   6.089  10.660
17032SOL    HW252538   4.083   6.117  10.515
17033SOL     OW52539   4.561   7.130   9.943
17033SOL    HW152540   4.542   7.224   9.941
17033SOL    HW252541   4.478   7.090   9.970
17034SOL     OW52542   5.150   5.804  10.427
17034SOL    HW152543   5.116   5.715  10.427
17034SOL    HW252544   5.100   5.849  10.495
17035SOL     OW52545   4.718   5.609  10.449
17035SOL    HW152546   4.680   5.537  10.398
17035SOL    HW252547   4.812   5.591  10.451
17036SOL     OW52548   4.506   6.919   9.618
17036SOL    HW152549   4.478   6.829   9.638
17036SOL    HW252550   4.580   6.935   9.677
17037SOL     OW52551   4.344   7.146  10.613
17037SOL    HW152552   4.341   7.237  10.644
17037SOL    HW252553   4.432   7.135  10.579
17038SOL     OW52554   5.095   5.627   9.469
17038SOL    HW152555   5.139   5.549   9.435
17038SOL    HW252556   5.008   5.625   9.428
17039SOL     OW52557   5.012   6.047   9.988
17039SOL    HW152558   4.960   6.127   9.995
17039SOL    HW252559   5.013   6.012  10.077
17040SOL     OW52560   5.312   5.780  10.199
17040SOL    HW152561   5.255   5.796  10.274
17040SOL    HW252562   5.304   5.860  10.146
17041SOL     OW52563   3.737   6.663   9.619
17041SOL    HW152564   3.822   6.678   9.662
17041SOL    HW252565   3.727   6.568   9.620
17042SOL     OW52566   4.623   7.254   9.629
17042SOL    HW152567   4.542   7.234   9.581
17042SOL    HW252568   4.593   7.308   9.703
17043SOL     OW52569   3.941   6.224  11.299
17043SOL    HW152570   3.855   6.197  11.332
17043SOL    HW252571   3.941   6.195  11.208
17044SOL     OW52572   3.956   5.864  12.156
17044SOL    HW152573   4.002   5.780  12.159
17044SOL    HW252574   3.863   5.840  12.156
17045SOL     OW52575   3.714   5.969  11.810
17045SOL    HW152576   3.633   5.995  11.855
17045SOL    HW252577   3.690   5.890  11.762
17046SOL     OW52578   4.267   6.836  12.323
17046SOL    HW152579   4.186   6.869  12.283
17046SOL    HW252580   4.283   6.896  12.396
17047SOL     OW52581   5.300   7.102  11.884
17047SOL    HW152582   5.256   7.080  11.966
17047SOL    HW252583   5.229   7.106  11.819
17048SOL     OW52584   4.870   6.274  11.860
17048SOL    HW152585   4.910   6.361  11.856
17048SOL    HW252586   4.814   6.277  11.938
17049SOL     OW52587   5.500   6.192  11.395
17049SOL    HW152588   5.468   6.200  11.305
17049SOL    HW252589   5.528   6.101  11.403
17050SOL     OW52590   4.491   6.723  12.229
17050SOL    HW152591   4.408   6.750  12.268
17050SOL    HW252592   4.521   6.800  12.181
17051SOL     OW52593   4.408   6.578  11.817
17051SOL    HW152594   4.474   6.574  11.886
17051SOL    HW252595   4.340   6.635  11.852
17052SOL     OW52596   4.055   7.002  12.222
17052SOL    HW152597   3.971   6.985  12.181
17052SOL    HW252598   4.101   7.059  12.160
17053SOL     OW52599   5.299   6.022  11.886
17053SOL    HW152600   5.205   6.034  11.872
17053SOL    HW252601   5.327   6.102  11.931
17054SOL     OW52602   3.944   7.299  11.630
17054SOL    HW152603   3.971   7.372  11.687
17054SOL    HW252604   4.020   7.284  11.574
17055SOL     OW52605   3.926   7.035  11.720
17055SOL    HW152606   3.928   7.129  11.703
17055SOL    HW252607   3.878   7.027  11.802
17056SOL     OW52608   3.986   6.674  12.058
17056SOL    HW152609   3.990   6.587  12.096
17056SOL    HW252610   3.923   6.721  12.114
17057SOL     OW52611   4.293   6.578  11.316
17057SOL    HW152612   4.340   6.626  11.248
17057SOL    HW252613   4.335   6.604  11.398
17058SOL     OW52614   3.828   6.231  11.740
17058SOL    HW152615   3.823   6.142  11.775
17058SOL    HW252616   3.831   6.288  11.817
17059SOL     OW52617   5.566   7.340  11.506
17059SOL    HW152618   5.638   7.315  11.564
17059SOL    HW252619   5.585   7.431  11.482
17060SOL     OW52620   3.766   7.184  11.285
17060SOL    HW152621   3.751   7.091  11.305
17060SOL    HW252622   3.739   7.230  11.364
17061SOL     OW52623   5.414   6.505  11.806
17061SOL    HW152624   5.485   6.459  11.759
17061SOL    HW252625   5.380   6.567  11.742
17062SOL     OW52626   5.371   6.695  11.602
17062SOL    HW152627   5.458   6.693  11.561
17062SOL    HW252628   5.380   6.758  11.673
17063SOL     OW52629   3.897   6.330   0.221
17063SOL    HW152630   3.889   6.314   0.314
17063SOL    HW252631   3.817   6.376   0.196
17064SOL     OW52632   4.333   6.979  11.906
17064SOL    HW152633   4.288   6.895  11.911
17064SOL    HW252634   4.317   7.009  11.816
17065SOL     OW52635   4.546   5.604  11.697
17065SOL    HW152636   4.583   5.686  11.667
17065SOL    HW252637   4.451   5.618  11.697
17066SOL     OW52638   3.926   6.576  12.443
17066SOL    HW152639   3.997   6.514  12.426
17066SOL    HW252640   3.847   6.527  12.425
17067SOL     OW52641   5.257   6.584  11.374
17067SOL    HW152642   5.188   6.526  11.407
17067SOL    HW252643   5.297   6.620  11.453
17068SOL     OW52644   5.202   6.996  12.125
17068SOL    HW152645   5.129   7.017  12.184
17068SOL    HW252646   5.182   6.909  12.093
17069SOL     OW52647   5.370   7.349  11.747
17069SOL    HW152648   5.356   7.310  11.661
17069SOL    HW252649   5.357   7.276  11.808
17070SOL     OW52650   4.318   6.299  11.444
17070SOL    HW152651   4.324   6.385  11.402
17070SOL    HW252652   4.255   6.311  11.515
17071SOL     OW52653   5.021   5.949  12.092
17071SOL    HW152654   4.929   5.923  12.095
17071SOL    HW252655   5.062   5.901  12.164
17072SOL     OW52656   5.299   7.264  11.483
17072SOL    HW152657   5.392   7.285  11.474
17072SOL    HW252658   5.270   7.246  11.393
17073SOL     OW52659   4.782   6.282  11.592
17073SOL    HW152660   4.800   6.274  11.686
17073SOL    HW252661   4.698   6.237  11.580
17074SOL     OW52662   3.813   6.400  11.951
17074SOL    HW152663   3.891   6.406  12.006
17074SOL    HW252664   3.756   6.470  11.983
17075SOL     OW52665   4.624   5.938  11.365
17075SOL    HW152666   4.666   5.998  11.303
17075SOL    HW252667   4.614   5.856  11.316
17076SOL     OW52668   5.105   6.728  11.711
17076SOL    HW152669   5.183   6.720  11.656
17076SOL    HW252670   5.049   6.791  11.665
17077SOL     OW52671   4.264   5.770  12.074
17077SOL    HW152672   4.244   5.817  12.154
17077SOL    HW252673   4.282   5.838  12.009
17078SOL     OW52674   4.723   7.032  11.644
17078SOL    HW152675   4.696   7.105  11.589
17078SOL    HW252676   4.689   7.052  11.731
17079SOL     OW52677   4.083   7.403  12.036
17079SOL    HW152678   4.123   7.317  12.047
17079SOL    HW252679   4.153   7.465  12.056
17080SOL     OW52680   5.526   6.623  12.043
17080SOL    HW152681   5.476   6.611  11.962
17080SOL    HW252682   5.460   6.638  12.110
17081SOL     OW52683   4.026   6.536  11.422
17081SOL    HW152684   4.112   6.558  11.386
17081SOL    HW252685   4.012   6.445  11.396
17082SOL     OW52686   5.220   6.319  11.876
17082SOL    HW152687   5.208   6.297  11.968
17082SOL    HW252688   5.290   6.384  11.876
17083SOL     OW52689   4.857   7.366  11.401
17083SOL    HW152690   4.779   7.331  11.445
17083SOL    HW252691   4.877   7.301  11.333
17084SOL     OW52692   5.356   6.973  11.276
17084SOL    HW152693   5.319   7.057  11.250
17084SOL    HW252694   5.289   6.909  11.253
17085SOL     OW52695   5.160   5.717  11.600
17085SOL    HW152696   5.132   5.686  11.514
17085SOL    HW252697   5.208   5.644  11.638
17086SOL     OW52698   3.981   7.365  12.389
17086SOL    HW152699   3.975   7.292  12.450
17086SOL    HW252700   3.932   7.336  12.312
17087SOL     OW52701   4.664   7.283  12.069
17087SOL    HW152702   4.742   7.230  12.085
17087SOL    HW252703   4.619   7.237  11.999
17088SOL     OW52704   4.122   6.281  11.644
17088SOL    HW152705   4.137   6.187  11.656
17088SOL    HW252706   4.030   6.294  11.666
17089SOL     OW52707   4.374   5.699  11.272
17089SOL    HW152708   4.428   5.622  11.292
17089SOL    HW252709   4.319   5.671  11.199
17090SOL     OW52710   4.535   6.957  12.102
17090SOL    HW152711   4.622   6.961  12.062
17090SOL    HW252712   4.475   6.971  12.029
17091SOL     OW52713   4.651   6.118  12.068
17091SOL    HW152714   4.627   6.095  11.978
17091SOL    HW252715   4.683   6.035  12.106
17092SOL     OW52716   4.279   5.653  11.667
17092SOL    HW152717   4.197   5.650  11.715
17092SOL    HW252718   4.270   5.727  11.607
17093SOL     OW52719   5.158   6.793  11.218
17093SOL    HW152720   5.183   6.714  11.266
17093SOL    HW252721   5.069   6.813  11.249
17094SOL     OW52722   4.014   5.637  11.360
17094SOL    HW152723   4.070   5.694  11.308
17094SOL    HW252724   4.073   5.574  11.400
17095SOL     OW52725   4.665   5.843  11.622
17095SOL    HW152726   4.640   5.874  11.535
17095SOL    HW252727   4.760   5.852  11.625
17096SOL     OW52728   4.947   7.165  11.970
17096SOL    HW152729   4.954   7.225  11.895
17096SOL    HW252730   5.015   7.193  12.030
17097SOL     OW52731   4.196   6.738  11.896
17097SOL    HW152732   4.129   6.719  11.961
17097SOL    HW252733   4.152   6.729  11.812
17098SOL     OW52734   4.983   7.379  11.785
17098SOL    HW152735   5.031   7.440  11.729
17098SOL    HW252736   4.913   7.431  11.824
17099SOL     OW52737   4.750   6.122  11.199
17099SOL    HW152738   4.701   6.200  11.173
17099SOL    HW252739   4.817   6.154  11.259
17100SOL     OW52740   4.198   5.795  12.366
17100SOL    HW152741   4.269   5.732  12.354
17100SOL    HW252742   4.243   5.878  12.384
17101SOL     OW52743   4.594   6.047  11.807
17101SOL    HW152744   4.548   6.101  11.743
17101SOL    HW252745   4.615   5.966  11.761
17102SOL     OW52746   4.743   5.621  11.904
17102SOL    HW152747   4.678   5.615  11.834
17102SOL    HW252748   4.719   5.551  11.965
17103SOL     OW52749   5.162   6.741  12.024
17103SOL    HW152750   5.087   6.683  12.017
17103SOL    HW252751   5.191   6.755  11.934
17104SOL     OW52752   5.184   6.186  12.133
17104SOL    HW152753   5.123   6.112  12.132
17104SOL    HW252754   5.231   6.177  12.216
17105SOL     OW52755   5.565   6.397  11.568
17105SOL    HW152756   5.626   6.345  11.620
17105SOL    HW252757   5.538   6.340  11.497
17106SOL     OW52758   4.181   6.964  11.280
17106SOL    HW152759   4.124   6.940  11.353
17106SOL    HW252760   4.214   7.051  11.303
17107SOL     OW52761   5.400   6.848  11.821
17107SOL    HW152762   5.495   6.846  11.833
17107SOL    HW252763   5.375   6.938  11.839
17108SOL     OW52764   5.121   6.153  11.240
17108SOL    HW152765   5.066   6.144  11.317
17108SOL    HW252766   5.209   6.168  11.275
17109SOL     OW52767   4.254   5.849  11.479
17109SOL    HW152768   4.302   5.803  11.411
17109SOL    HW252769   4.223   5.929  11.436
17110SOL     OW52770   4.843   6.818  12.287
17110SOL    HW152771   4.759   6.821  12.332
17110SOL    HW252772   4.823   6.846  12.198
17111SOL     OW52773   5.338   6.681  12.237
17111SOL    HW152774   5.312   6.734  12.313
17111SOL    HW252775   5.269   6.698  12.172
17112SOL     OW52776   4.430   6.639  11.545
17112SOL    HW152777   4.416   6.620  11.638
17112SOL    HW252778   4.508   6.588  11.522
17113SOL     OW52779   4.162   6.400  12.445
17113SOL    HW152780   4.202   6.450  12.516
17113SOL    HW252781   4.200   6.313  12.452
17114SOL     OW52782   5.006   5.995  12.389
17114SOL    HW152783   5.020   6.042  12.472
17114SOL    HW252784   4.911   5.980  12.386
17115SOL     OW52785   4.062   6.708  11.657
17115SOL    HW152786   4.053   6.782  11.597
17115SOL    HW252787   4.059   6.631  11.600
17116SOL     OW52788   4.266   6.116  12.040
17116SOL    HW152789   4.282   6.174  11.966
17116SOL    HW252790   4.333   6.141  12.104
17117SOL     OW52791   4.970   6.935  11.570
17117SOL    HW152792   5.025   7.007  11.600
17117SOL    HW252793   4.882   6.959  11.601
17118SOL     OW52794   5.008   7.037  12.313
17118SOL    HW152795   5.059   7.035  12.394
17118SOL    HW252796   4.952   6.959  12.318
17119SOL     OW52797   5.299   6.152  11.623
17119SOL    HW152798   5.260   6.213  11.685
17119SOL    HW252799   5.348   6.207  11.561
17120SOL     OW52800   4.105   7.113  12.464
17120SOL    HW152801   4.068   7.063  12.391
17120SOL    HW252802   4.155   7.183  12.422
17121SOL     OW52803   4.302   6.467  12.207
17121SOL    HW152804   4.322   6.560  12.200
17121SOL    HW252805   4.248   6.460  12.286
17122SOL     OW52806   5.049   6.428  12.176
17122SOL    HW152807   4.960   6.409  12.148
17122SOL    HW252808   5.096   6.346  12.165
17123SOL     OW52809   4.945   6.116  11.443
17123SOL    HW152810   4.936   6.035  11.493
17123SOL    HW252811   4.893   6.180  11.492
17124SOL     OW52812   3.774   6.925  12.434
17124SOL    HW152813   3.809   6.849  12.482
17124SOL    HW252814   3.781   6.998  12.496
17125SOL     OW52815   4.440   6.222  12.227
17125SOL    HW152816   4.519   6.204  12.176
17125SOL    HW252817   4.416   6.311  12.203
17126SOL     OW52818   4.036   5.648  11.794
17126SOL    HW152819   4.008   5.738  11.814
17126SOL    HW252820   4.044   5.606  11.879
17127SOL     OW52821   4.771   6.352  12.133
17127SOL    HW152822   4.755   6.372  12.225
17127SOL    HW252823   4.733   6.266  12.120
17128SOL     OW52824   5.229   5.855  11.325
17128SOL    HW152825   5.184   5.771  11.332
17128SOL    HW252826   5.159   5.918  11.305
17129SOL     OW52827   5.014   6.410  11.197
17129SOL    HW152828   5.050   6.322  11.191
17129SOL    HW252829   5.041   6.453  11.116
17130SOL     OW52830   4.800   6.929  12.031
17130SOL    HW152831   4.804   6.857  11.969
17130SOL    HW252832   4.856   6.997  11.993
17131SOL     OW52833   4.035   6.400  12.116
17131SOL    HW152834   4.129   6.415  12.115
17131SOL    HW252835   4.026   6.309  12.143
17132SOL     OW52836   4.032   6.125  12.176
17132SOL    HW152837   4.005   6.033  12.178
17132SOL    HW252838   4.115   6.126  12.128
17133SOL     OW52839   4.902   5.823   0.141
17133SOL    HW152840   4.857   5.862   0.216
17133SOL    HW252841   4.847   5.846   0.066
17134SOL     OW52842   3.741   6.912  11.350
17134SOL    HW152843   3.651   6.928  11.321
17134SOL    HW252844   3.737   6.825  11.391
17135SOL     OW52845   3.820   7.371  12.112
17135SOL    HW152846   3.795   7.285  12.078
17135SOL    HW252847   3.910   7.384  12.079
17136SOL     OW52848   4.225   7.171  12.079
17136SOL    HW152849   4.299   7.224  12.107
17136SOL    HW252850   4.264   7.105  12.020
17137SOL     OW52851   4.704   6.404  12.392
17137SOL    HW152852   4.740   6.339  12.452
17137SOL    HW252853   4.610   6.404  12.410
17138SOL     OW52854   3.775   6.148  12.288
17138SOL    HW152855   3.856   6.150  12.236
17138SOL    HW252856   3.803   6.121  12.375
17139SOL     OW52857   4.545   6.157  11.535
17139SOL    HW152858   4.552   6.081  11.477
17139SOL    HW252859   4.468   6.205  11.504
17140SOL     OW52860   5.323   6.186  12.377
17140SOL    HW152861   5.253   6.177  12.442
17140SOL    HW252862   5.390   6.125  12.408
17141SOL     OW52863   4.381   6.002  12.382
17141SOL    HW152864   4.470   5.977  12.408
17141SOL    HW252865   4.392   6.084  12.335
17142SOL     OW52866   4.612   7.233   0.030
17142SOL    HW152867   4.621   7.301  -0.036
17142SOL    HW252868   4.646   7.272   0.111
17143SOL     OW52869   4.175   6.078  11.351
17143SOL    HW152870   4.238   6.146  11.374
17143SOL    HW252871   4.092   6.125  11.343
17144SOL     OW52872   5.037   6.616  12.373
17144SOL    HW152873   5.046   6.559  12.297
17144SOL    HW252874   4.971   6.681  12.347
17145SOL     OW52875   5.045   6.435  11.472
17145SOL    HW152876   4.966   6.411  11.522
17145SOL    HW252877   5.019   6.427  11.380
17146SOL     OW52878   5.491   7.339  12.311
17146SOL    HW152879   5.555   7.355  12.241
17146SOL    HW252880   5.471   7.246  12.303
17147SOL     OW52881   4.965   7.306  12.275
17147SOL    HW152882   5.045   7.342  12.237
17147SOL    HW252883   4.982   7.212  12.282
17148SOL     OW52884   3.799   6.824  12.181
17148SOL    HW152885   3.788   6.852  12.271
17148SOL    HW252886   3.774   6.900  12.128
17149SOL     OW52887   5.460   5.763  11.677
17149SOL    HW152888   5.522   5.745  11.606
17149SOL    HW252889   5.436   5.677  11.710
17150SOL     OW52890   5.119   7.154  11.667
17150SOL    HW152891   5.174   7.188  11.597
17150SOL    HW252892   5.065   7.229  11.693
17151SOL     OW52893   5.008   6.510  11.839
17151SOL    HW152894   5.081   6.449  11.839
17151SOL    HW252895   5.039   6.584  11.787
17152SOL     OW52896   4.452   7.190  11.300
17152SOL    HW152897   4.434   7.202  11.207
17152SOL    HW252898   4.369   7.213  11.343
17153SOL     OW52899   5.351   7.372   0.048
17153SOL    HW152900   5.407   7.362  -0.028
17153SOL    HW252901   5.367   7.462   0.078
17154SOL     OW52902   5.561   5.752  12.125
17154SOL    HW152903   5.586   5.662  12.104
17154SOL    HW252904   5.471   5.759  12.095
17155SOL     OW52905   3.974   5.901  11.877
17155SOL    HW152906   3.885   5.929  11.854
17155SOL    HW252907   3.977   5.907  11.972
17156SOL     OW52908   4.933   7.186  11.206
17156SOL    HW152909   4.919   7.094  11.229
17156SOL    HW252910   4.874   7.203  11.133
17157SOL     OW52911   4.520   6.630  12.494
17157SOL    HW152912   4.526   6.652  12.401
17157SOL    HW252913   4.566   6.701  12.538
17158SOL     OW52914   4.644   6.497  11.469
17158SOL    HW152915   4.702   6.528  11.399
17158SOL    HW252916   4.693   6.426  11.511
17159SOL     OW52917   5.212   7.225  11.218
17159SOL    HW152918   5.119   7.208  11.202
17159SOL    HW252919   5.252   7.227  11.131
17160SOL     OW52920   4.793   6.698  11.888
17160SOL    HW152921   4.716   6.651  11.922
17160SOL    HW252922   4.851   6.629  11.857
17161SOL     OW52923   4.767   5.851  12.099
17161SOL    HW152924   4.753   5.772  12.047
17161SOL    HW252925   4.736   5.827  12.187
17162SOL     OW52926   4.335   7.086  11.656
17162SOL    HW152927   4.379   7.027  11.594
17162SOL    HW252928   4.283   7.144  11.600
17163SOL     OW52929   5.561   6.036  12.469
17163SOL    HW152930   5.527   6.064  12.554
17163SOL    HW252931   5.544   5.941  12.467
17164SOL     OW52932   3.991   6.916  11.482
17164SOL    HW152933   3.903   6.923  11.445
17164SOL    HW252934   3.986   6.965  11.564
17165SOL     OW52935   3.801   5.921  11.206
17165SOL    HW152936   3.721   5.893  11.162
17165SOL    HW252937   3.832   5.996  11.156
17166SOL     OW52938   3.786   5.742  11.467
17166SOL    HW152939   3.773   5.816  11.406
17166SOL    HW252940   3.871   5.707  11.444
17167SOL     OW52941   4.902   6.916  11.295
17167SOL    HW152942   4.809   6.894  11.295
17167SOL    HW252943   4.926   6.918  11.388
17168SOL     OW52944   5.206   7.367  12.150
17168SOL    HW152945   5.226   7.441  12.093
17168SOL    HW252946   5.287   7.352  12.199
17169SOL     OW52947   5.431   6.462  12.395
17169SOL    HW152948   5.382   6.384  12.369
17169SOL    HW252949   5.400   6.530  12.335
17170SOL     OW52950   4.943   5.903  11.624
17170SOL    HW152951   4.999   5.826  11.623
17170SOL    HW252952   4.963   5.947  11.706
17171SOL     OW52953   4.309   6.316  11.850
17171SOL    HW152954   4.349   6.402  11.837
17171SOL    HW252955   4.246   6.308  11.779
17172SOL     OW52956   5.469   6.478   0.164
17172SOL    HW152957   5.519   6.557   0.184
17172SOL    HW252958   5.462   6.478   0.069
17173SOL     OW52959   4.591   6.953  11.215
17173SOL    HW152960   4.543   7.003  11.282
17173SOL    HW252961   4.620   7.019  11.153
17174SOL     OW52962   4.398   7.387  12.138
17174SOL    HW152963   4.377   7.469  12.094
17174SOL    HW252964   4.487   7.367  12.110
17175SOL     OW52965   4.596   6.558  12.025
17175SOL    HW152966   4.648   6.487  12.062
17175SOL    HW252967   4.560   6.603  12.101
17176SOL     OW52968   4.800   6.566  11.261
17176SOL    HW152969   4.780   6.622  11.185
17176SOL    HW252970   4.875   6.515  11.233
17177SOL     OW52971   5.565   7.139  12.014
17177SOL    HW152972   5.485   7.128  11.964
17177SOL    HW252973   5.554   7.083  12.091
17178SOL     OW52974   3.813   6.770  11.835
17178SOL    HW152975   3.858   6.755  11.918
17178SOL    HW252976   3.884   6.773  11.770
17179SOL     OW52977   5.560   5.772  12.416
17179SOL    HW152978   5.519   5.707  12.473
17179SOL    HW252979   5.542   5.739  12.327
17180SOL     OW52980   4.150   6.019  11.691
17180SOL    HW152981   4.185   5.950  11.635
17180SOL    HW252982   4.099   5.972  11.757
17181SOL     OW52983   5.430   7.078  12.272
17181SOL    HW152984   5.349   7.047  12.231
17181SOL    HW252985   5.440   7.023  12.350
17182SOL     OW52986   4.551   7.178  11.844
17182SOL    HW152987   4.539   7.252  11.785
17182SOL    HW252988   4.476   7.121  11.828
17183SOL     OW52989   5.164   5.803  12.281
17183SOL    HW152990   5.132   5.716  12.303
17183SOL    HW252991   5.118   5.861  12.342
17184SOL     OW52992   4.725   5.538  12.345
17184SOL    HW152993   4.704   5.514  12.255
17184SOL    HW252994   4.820   5.548  12.346
17185SOL     OW52995   4.486   6.911  11.509
17185SOL    HW152996   4.464   6.818  11.516
17185SOL    HW252997   4.575   6.917  11.545
17186SOL     OW52998   5.073   5.632  11.349
17186SOL    HW152999   5.098   5.553  11.301
17186SOL    HW253000   4.981   5.618  11.372
17187SOL     OW53001   5.032   6.044  11.842
17187SOL    HW153002   4.979   6.124  11.840
17187SOL    HW253003   5.017   6.007  11.929
17188SOL     OW53004   5.306   5.790  12.054
17188SOL    HW153005   5.255   5.793  12.135
17188SOL    HW253006   5.277   5.866  12.004
17189SOL     OW53007   3.765   6.664  11.461
17189SOL    HW153008   3.858   6.643  11.463
17189SOL    HW253009   3.723   6.585  11.426
17190SOL     OW53010   4.626   7.248  11.507
17190SOL    HW153011   4.563   7.224  11.439
17190SOL    HW253012   4.578   7.310  11.563
17191SOL     OW53013   3.956   7.715   0.986
17191SOL    HW153014   3.981   7.686   1.073
17191SOL    HW253015   3.865   7.685   0.976
17192SOL     OW53016   3.712   7.827   0.646
17192SOL    HW153017   3.630   7.865   0.679
17192SOL    HW253018   3.686   7.743   0.607
17193SOL     OW53019   5.485   0.055   0.224
17193SOL    HW153020   5.412   0.108   0.193
17193SOL    HW253021   5.445  -0.022   0.265
17194SOL     OW53022   4.160   7.858   1.505
17194SOL    HW153023   4.237   7.803   1.492
17194SOL    HW253024   4.087   7.797   1.516
17195SOL     OW53025   5.317   7.924   0.711
17195SOL    HW153026   5.228   7.908   0.679
17195SOL    HW253027   5.304   7.958   0.800
17196SOL     OW53028   5.318   7.578   1.464
17196SOL    HW153029   5.349   7.659   1.424
17196SOL    HW253030   5.291   7.604   1.552
17197SOL     OW53031   3.832   0.075   0.585
17197SOL    HW153032   3.795  -0.013   0.582
17197SOL    HW253033   3.805   0.110   0.669
17198SOL     OW53034   4.545   7.447   0.523
17198SOL    HW153035   4.586   7.529   0.497
17198SOL    HW253036   4.451   7.466   0.526
17199SOL     OW53037   4.076   7.713   1.789
17199SOL    HW153038   4.122   7.786   1.832
17199SOL    HW253039   3.987   7.718   1.822
17200SOL     OW53040   4.988   7.799   0.933
17200SOL    HW153041   4.900   7.763   0.942
17200SOL    HW253042   5.042   7.744   0.990
17201SOL     OW53043   5.122   7.935   1.701
17201SOL    HW153044   5.103   7.964   1.791
17201SOL    HW253045   5.176   7.857   1.712
17202SOL     OW53046   4.651   0.399   1.479
17202SOL    HW153047   4.703   0.319   1.483
17202SOL    HW253048   4.560   0.369   1.484
17203SOL     OW53049   4.711   7.822   1.251
17203SOL    HW153050   4.628   7.848   1.290
17203SOL    HW253051   4.690   7.746   1.197
17204SOL     OW53052   4.599   7.792   0.214
17204SOL    HW153053   4.665   7.836   0.160
17204SOL    HW253054   4.599   7.701   0.183
17205SOL     OW53055   5.468   0.014   1.837
17205SOL    HW153056   5.401   0.076   1.806
17205SOL    HW253057   5.475  -0.050   1.766
17206SOL     OW53058   4.280   7.635   0.904
17206SOL    HW153059   4.279   7.650   0.999
17206SOL    HW253060   4.276   7.723   0.866
17207SOL     OW53061   3.900   7.725   1.510
17207SOL    HW153062   3.845   7.770   1.573
17207SOL    HW253063   3.897   7.633   1.537
17208SOL     OW53064   5.134   7.550   0.452
17208SOL    HW153065   5.125   7.507   0.367
17208SOL    HW253066   5.228   7.547   0.471
17209SOL     OW53067   5.244   7.670   1.724
17209SOL    HW153068   5.255   7.692   1.817
17209SOL    HW253069   5.178   7.601   1.724
17210SOL     OW53070   4.348   7.555   0.108
17210SOL    HW153071   4.440   7.528   0.116
17210SOL    HW253072   4.339   7.583   0.017
17211SOL     OW53073   4.493   7.723   1.742
17211SOL    HW153074   4.572   7.669   1.741
17211SOL    HW253075   4.455   7.709   1.829
17212SOL     OW53076   5.073   0.015   1.437
17212SOL    HW153077   5.100  -0.013   1.524
17212SOL    HW253078   5.008   0.084   1.453
17213SOL     OW53079   4.279   7.506   0.498
17213SOL    HW153080   4.199   7.510   0.552
17213SOL    HW253081   4.272   7.581   0.439
17214SOL     OW53082   4.027   7.518   0.208
17214SOL    HW153083   4.100   7.553   0.157
17214SOL    HW253084   4.060   7.437   0.246
17215SOL     OW53085   4.671   7.677   0.456
17215SOL    HW153086   4.646   7.725   0.377
17215SOL    HW253087   4.764   7.697   0.467
17216SOL     OW53088   3.824   7.998   1.389
17216SOL    HW153089   3.875   7.926   1.426
17216SOL    HW253090   3.833   8.069   1.453
17217SOL     OW53091   4.276   7.667   1.178
17217SOL    HW153092   4.317   7.605   1.239
17217SOL    HW253093   4.184   7.669   1.205
17218SOL     OW53094   4.748   7.491   0.737
17218SOL    HW153095   4.683   7.491   0.667
17218SOL    HW253096   4.720   7.421   0.796
17219SOL     OW53097   5.216   7.963   0.958
17219SOL    HW153098   5.130   7.924   0.972
17219SOL    HW253099   5.246   7.987   1.046
17220SOL     OW53100   4.270   7.707   0.314
17220SOL    HW153101   4.293   7.650   0.240
17220SOL    HW253102   4.325   7.784   0.303
17221SOL     OW53103   4.643   7.536   1.392
17221SOL    HW153104   4.672   7.515   1.304
17221SOL    HW253105   4.721   7.574   1.434
17222SOL     OW53106   4.986   7.815   1.275
17222SOL    HW153107   5.017   7.888   1.328
17222SOL    HW253108   4.891   7.827   1.271
17223SOL     OW53109   4.271   7.932   0.868
17223SOL    HW153110   4.241   8.002   0.810
17223SOL    HW253111   4.345   7.970   0.916
17224SOL     OW53112   4.723   7.578   1.737
17224SOL    HW153113   4.785   7.651   1.734
17224SOL    HW253114   4.777   7.500   1.723
17225SOL     OW53115   4.223   7.483   1.741
17225SOL    HW153116   4.171   7.428   1.682
17225SOL    HW253117   4.171   7.562   1.751
17226SOL     OW53118   4.011   7.647   1.251
17226SOL    HW153119   3.970   7.677   1.331
17226SOL    HW253120   3.998   7.552   1.251
17227SOL     OW53121   4.466   0.056   1.019
17227SOL    HW153122   4.540   0.092   0.971
17227SOL    HW253123   4.419   0.132   1.053
17228SOL     OW53124   4.035   7.519   0.626
17228SOL    HW153125   4.011   7.609   0.649
17228SOL    HW253126   4.043   7.474   0.710
17229SOL     OW53127   5.353   7.828   0.359
17229SOL    HW153128   5.382   7.752   0.410
17229SOL    HW253129   5.295   7.876   0.416
17230SOL     OW53130   5.228   7.667   0.089
17230SOL    HW153131   5.195   7.645   0.177
17230SOL    HW253132   5.288   7.740   0.104
17231SOL     OW53133   4.028   7.969   1.012
17231SOL    HW153134   4.011   7.876   1.002
17231SOL    HW253135   4.115   7.982   0.973
17232SOL     OW53136   4.870   7.822   1.678
17232SOL    HW153137   4.813   7.895   1.703
17232SOL    HW253138   4.959   7.856   1.685
17233SOL     OW53139   4.889   7.637   1.471
17233SOL    HW153140   4.877   7.699   1.543
17233SOL    HW253141   4.935   7.687   1.404
17234SOL     OW53142   3.771   7.966   1.114
17234SOL    HW153143   3.856   7.962   1.071
17234SOL    HW253144   3.789   7.955   1.207
17235SOL     OW53145   3.910   7.998   1.672
17235SOL    HW153146   3.972   7.929   1.699
17235SOL    HW253147   3.915   8.062   1.743
17236SOL     OW53148   4.425   7.956   0.339
17236SOL    HW153149   4.492   7.897   0.304
17236SOL    HW253150   4.405   8.015   0.266
17237SOL     OW53151   5.350   8.022   1.194
17237SOL    HW153152   5.340   7.974   1.276
17237SOL    HW253153   5.427   7.983   1.153
17238SOL     OW53154   4.443   7.886   1.236
17238SOL    HW153155   4.376   7.818   1.223
17238SOL    HW253156   4.439   7.939   1.157
17239SOL     OW53157   4.628   7.534   0.113
17239SOL    HW153158   4.680   7.558   0.037
17239SOL    HW253159   4.691   7.497   0.175
17240SOL     OW53160   5.444   7.603   0.504
17240SOL    HW153161   5.516   7.584   0.444
17240SOL    HW253162   5.427   7.520   0.548
17241SOL     OW53163   5.567   7.620   0.960
17241SOL    HW153164   5.592   7.530   0.937
17241SOL    HW253165   5.479   7.630   0.923
17242SOL     OW53166   3.980   7.778   0.708
17242SOL    HW153167   3.887   7.797   0.693
17242SOL    HW253168   3.987   7.763   0.802
17243SOL     OW53169   4.752   7.669   0.957
17243SOL    HW153170   4.746   7.621   0.874
17243SOL    HW253171   4.742   7.602   1.025
17244SOL     OW53172   5.451   7.825   1.379
17244SOL    HW153173   5.520   7.891   1.382
17244SOL    HW253174   5.485   7.756   1.322
17245SOL     OW53175   4.400   7.637   1.491
17245SOL    HW153176   4.486   7.614   1.457
17245SOL    HW253177   4.417   7.669   1.579
17246SOL     OW53178   3.784   7.595   0.305
17246SOL    HW153179   3.777   7.688   0.282
17246SOL    HW253180   3.871   7.570   0.275
17247SOL     OW53181   4.505   8.004   1.718
17247SOL    HW153182   4.411   8.020   1.727
17247SOL    HW253183   4.513   7.908   1.719
17248SOL     OW53184   4.942   7.746   0.452
17248SOL    HW153185   5.007   7.676   0.454
17248SOL    HW253186   4.971   7.809   0.518
17249SOL     OW53187   4.351   0.264   0.629
17249SOL    HW153188   4.409   0.340   0.634
17249SOL    HW253189   4.320   0.251   0.719
17250SOL     OW53190   5.472   7.814   1.650
17250SOL    HW153191   5.454   7.828   1.557
17250SOL    HW253192   5.404   7.753   1.679
17251SOL     OW53193   5.541   7.622   1.231
17251SOL    HW153194   5.556   7.528   1.243
17251SOL    HW253195   5.550   7.636   1.137
17252SOL     OW53196   4.156   7.870   0.499
17252SOL    HW153197   4.179   7.796   0.443
17252SOL    HW253198   4.103   7.832   0.569
17253SOL     OW53199   5.152   7.673   1.115
17253SOL    HW153200   5.177   7.593   1.162
17253SOL    HW253201   5.100   7.723   1.178
17254SOL     OW53202   4.733   7.461   1.140
17254SOL    HW153203   4.673   7.394   1.109
17254SOL    HW253204   4.820   7.421   1.134
17255SOL     OW53205   5.078   7.453   0.205
17255SOL    HW153206   5.093   7.469   0.112
17255SOL    HW253207   4.983   7.447   0.213
17256SOL     OW53208   5.040   7.894   0.678
17256SOL    HW153209   4.997   7.979   0.681
17256SOL    HW253210   5.022   7.855   0.764
17257SOL     OW53211   5.306   7.650   0.885
17257SOL    HW153212   5.254   7.669   0.964
17257SOL    HW253213   5.294   7.728   0.830
17258SOL     OW53214   3.964   7.719   2.854
17258SOL    HW153215   3.989   7.690   2.942
17258SOL    HW253216   3.874   7.688   2.843
17259SOL     OW53217   3.714   7.830   2.520
17259SOL    HW153218   3.630   7.871   2.540
17259SOL    HW253219   3.691   7.742   2.488
17260SOL     OW53220   5.511   0.031   2.118
17260SOL    HW153221   5.495   0.035   2.024
17260SOL    HW253222   5.449  -0.035   2.150
17261SOL     OW53223   4.174   7.839   3.407
17261SOL    HW153224   4.240   7.782   3.366
17261SOL    HW253225   4.091   7.795   3.389
17262SOL     OW53226   5.322   7.940   2.561
17262SOL    HW153227   5.236   7.934   2.518
17262SOL    HW253228   5.302   7.962   2.652
17263SOL     OW53229   5.295   7.582   3.322
17263SOL    HW153230   5.331   7.653   3.269
17263SOL    HW253231   5.286   7.619   3.410
17264SOL     OW53232   3.803   0.097   2.405
17264SOL    HW153233   3.792   0.016   2.454
17264SOL    HW253234   3.856   0.152   2.462
17265SOL     OW53235   4.544   7.441   2.373
17265SOL    HW153236   4.584   7.523   2.344
17265SOL    HW253237   4.451   7.462   2.381
17266SOL     OW53238   4.066   7.702   3.693
17266SOL    HW153239   4.078   7.787   3.650
17266SOL    HW253240   3.975   7.704   3.723
17267SOL     OW53241   4.999   7.810   2.817
17267SOL    HW153242   4.918   7.758   2.821
17267SOL    HW253243   5.061   7.761   2.871
17268SOL     OW53244   5.123   7.921   3.552
17268SOL    HW153245   5.113   7.958   3.640
17268SOL    HW253246   5.176   7.842   3.566
17269SOL     OW53247   4.662   0.358   3.388
17269SOL    HW153248   4.657   0.281   3.331
17269SOL    HW253249   4.583   0.408   3.367
17270SOL     OW53250   4.686   7.780   3.145
17270SOL    HW153251   4.609   7.836   3.153
17270SOL    HW253252   4.699   7.770   3.050
17271SOL     OW53253   4.611   7.788   2.044
17271SOL    HW153254   4.699   7.808   2.011
17271SOL    HW253255   4.626   7.725   2.114
17272SOL     OW53256   5.471   0.021   3.683
17272SOL    HW153257   5.404   0.081   3.652
17272SOL    HW253258   5.469  -0.053   3.622
17273SOL     OW53259   4.291   7.636   2.763
17273SOL    HW153260   4.284   7.654   2.856
17273SOL    HW253261   4.289   7.722   2.721
17274SOL     OW53262   3.917   7.723   3.371
17274SOL    HW153263   3.830   7.752   3.343
17274SOL    HW253264   3.903   7.635   3.404
17275SOL     OW53265   5.132   7.557   2.299
17275SOL    HW153266   5.127   7.528   2.208
17275SOL    HW253267   5.225   7.555   2.320
17276SOL     OW53268   5.253   7.672   3.597
17276SOL    HW153269   5.249   7.696   3.689
17276SOL    HW253270   5.211   7.586   3.593
17277SOL     OW53271   4.360   7.573   1.960
17277SOL    HW153272   4.426   7.507   1.981
17277SOL    HW253273   4.314   7.538   1.884
17278SOL     OW53274   4.495   7.729   3.621
17278SOL    HW153275   4.572   7.672   3.611
17278SOL    HW253276   4.442   7.686   3.689
17279SOL     OW53277   5.113   0.026   3.297
17279SOL    HW153278   5.120  -0.008   3.386
17279SOL    HW253279   5.043   0.091   3.302
17280SOL     OW53280   4.278   7.504   2.359
17280SOL    HW153281   4.199   7.511   2.412
17280SOL    HW253282   4.278   7.585   2.307
17281SOL     OW53283   4.025   7.500   2.044
17281SOL    HW153284   4.089   7.569   2.034
17281SOL    HW253285   4.072   7.430   2.091
17282SOL     OW53286   4.662   7.684   2.304
17282SOL    HW153287   4.625   7.765   2.340
17282SOL    HW253288   4.756   7.694   2.314
17283SOL     OW53289   3.818  -0.005   3.258
17283SOL    HW153290   3.905   0.006   3.296
17283SOL    HW253291   3.775   0.080   3.272
17284SOL     OW53292   4.283   7.666   3.036
17284SOL    HW153293   4.311   7.581   3.069
17284SOL    HW253294   4.192   7.674   3.064
17285SOL     OW53295   4.732   7.512   2.615
17285SOL    HW153296   4.681   7.499   2.535
17285SOL    HW253297   4.718   7.432   2.666
17286SOL     OW53298   5.212   7.994   2.808
17286SOL    HW153299   5.138   7.934   2.820
17286SOL    HW253300   5.249   8.003   2.896
17287SOL     OW53301   4.282   7.716   2.187
17287SOL    HW153302   4.318   7.679   2.106
17287SOL    HW253303   4.300   7.810   2.181
17288SOL     OW53304   4.643   7.538   3.242
17288SOL    HW153305   4.667   7.484   3.167
17288SOL    HW253306   4.628   7.625   3.205
17289SOL     OW53307   4.978   7.801   3.204
17289SOL    HW153308   5.032   7.876   3.229
17289SOL    HW253309   4.943   7.823   3.118
17290SOL     OW53310   4.288   7.938   2.724
17290SOL    HW153311   4.242   7.956   2.642
17290SOL    HW253312   4.298   8.024   2.764
17291SOL     OW53313   4.721   7.584   3.597
17291SOL    HW153314   4.799   7.638   3.612
17291SOL    HW253315   4.751   7.494   3.609
17292SOL     OW53316   4.217   7.487   3.616
17292SOL    HW153317   4.167   7.433   3.555
17292SOL    HW253318   4.161   7.563   3.633
17293SOL     OW53319   4.026   7.647   3.116
17293SOL    HW153320   3.980   7.675   3.195
17293SOL    HW253321   4.008   7.553   3.111
17294SOL     OW53322   4.499   0.075   2.894
17294SOL    HW153323   4.508   0.059   2.800
17294SOL    HW253324   4.429   0.141   2.900
17295SOL     OW53325   4.033   7.519   2.484
17295SOL    HW153326   3.996   7.605   2.506
17295SOL    HW253327   4.042   7.474   2.568
17296SOL     OW53328   5.332   7.837   2.217
17296SOL    HW153329   5.351   7.784   2.295
17296SOL    HW253330   5.277   7.908   2.249
17297SOL     OW53331   5.234   7.735   1.985
17297SOL    HW153332   5.181   7.660   2.012
17297SOL    HW253333   5.276   7.765   2.066
17298SOL     OW53334   5.037   0.251   1.871
17298SOL    HW153335   5.016   0.173   1.922
17298SOL    HW253336   4.952   0.284   1.842
17299SOL     OW53337   4.022   7.979   2.904
17299SOL    HW153338   4.017   7.886   2.881
17299SOL    HW253339   4.089   8.014   2.846
17300SOL     OW53340   4.869   7.819   3.510
17300SOL    HW153341   4.814   7.892   3.536
17300SOL    HW253342   4.959   7.853   3.516
17301SOL     OW53343   3.758   7.932   2.996
17301SOL    HW153344   3.838   7.942   2.944
17301SOL    HW253345   3.785   7.949   3.086
17302SOL     OW53346   3.936   7.950   3.573
17302SOL    HW153347   3.910   7.888   3.505
17302SOL    HW253348   3.863   8.011   3.579
17303SOL     OW53349   4.511   0.036   2.108
17303SOL    HW153350   4.546  -0.052   2.092
17303SOL    HW253351   4.468   0.029   2.193
17304SOL     OW53352   5.354   8.009   3.056
17304SOL    HW153353   5.318   7.938   3.108
17304SOL    HW253354   5.430   7.971   3.013
17305SOL     OW53355   4.444   7.887   3.099
17305SOL    HW153356   4.378   7.821   3.077
17305SOL    HW253357   4.438   7.951   3.028
17306SOL     OW53358   5.442   7.603   2.368
17306SOL    HW153359   5.512   7.590   2.305
17306SOL    HW253360   5.427   7.517   2.407
17307SOL     OW53361   5.581   7.625   2.830
17307SOL    HW153362   5.591   7.533   2.805
17307SOL    HW253363   5.497   7.650   2.792
17308SOL     OW53364   3.974   7.784   2.581
17308SOL    HW153365   3.881   7.800   2.566
17308SOL    HW253366   3.980   7.761   2.674
17309SOL     OW53367   4.762   7.671   2.849
17309SOL    HW153368   4.748   7.637   2.761
17309SOL    HW253369   4.750   7.595   2.906
17310SOL     OW53370   5.460   7.804   3.250
17310SOL    HW153371   5.510   7.884   3.234
17310SOL    HW253372   5.497   7.740   3.190
17311SOL     OW53373   4.390   7.638   3.370
17311SOL    HW153374   4.477   7.615   3.338
17311SOL    HW253375   4.406   7.677   3.456
17312SOL     OW53376   3.827   7.772   1.880
17312SOL    HW153377   3.765   7.729   1.939
17312SOL    HW253378   3.804   7.865   1.884
17313SOL     OW53379   3.779   7.604   2.149
17313SOL    HW153380   3.787   7.685   2.200
17313SOL    HW253381   3.869   7.583   2.125
17314SOL     OW53382   4.500   8.007   3.593
17314SOL    HW153383   4.407   8.025   3.579
17314SOL    HW253384   4.506   7.912   3.596
17315SOL     OW53385   4.928   7.741   2.337
17315SOL    HW153386   4.998   7.679   2.320
17315SOL    HW253387   4.965   7.802   2.401
17316SOL     OW53388   4.360   0.239   2.496
17316SOL    HW153389   4.341   0.332   2.498
17316SOL    HW253390   4.279   0.197   2.526
17317SOL     OW53391   5.483   7.805   3.521
17317SOL    HW153392   5.474   7.810   3.426
17317SOL    HW253393   5.411   7.747   3.548
17318SOL     OW53394   5.574   7.609   3.103
17318SOL    HW153395   5.542   7.519   3.108
17318SOL    HW253396   5.569   7.632   3.010
17319SOL     OW53397   4.044   7.809   2.308
17319SOL    HW153398   4.132   7.773   2.297
17319SOL    HW253399   4.027   7.803   2.402
17320SOL     OW53400   5.169   7.708   3.010
17320SOL    HW153401   5.194   7.627   2.965
17320SOL    HW253402   5.127   7.679   3.090
17321SOL     OW53403   4.724   7.440   3.002
17321SOL    HW153404   4.675   7.380   2.946
17321SOL    HW253405   4.812   7.402   3.008
17322SOL     OW53406   5.089   7.500   2.027
17322SOL    HW153407   5.125   7.420   1.988
17322SOL    HW253408   4.999   7.477   2.048
17323SOL     OW53409   5.035   7.893   2.548
17323SOL    HW153410   5.002   7.982   2.545
17323SOL    HW253411   5.021   7.865   2.639
17324SOL     OW53412   5.341   7.676   2.725
17324SOL    HW153413   5.296   7.600   2.762
17324SOL    HW253414   5.277   7.715   2.666
17325SOL     OW53415   3.940   7.746   4.730
17325SOL    HW153416   3.979   7.699   4.804
17325SOL    HW253417   3.860   7.697   4.710
17326SOL     OW53418   3.706   7.823   4.372
17326SOL    HW153419   3.622   7.861   4.399
17326SOL    HW253420   3.682   7.743   4.325
17327SOL     OW53421   5.526   8.001   3.966
17327SOL    HW153422   5.501   8.019   3.875
17327SOL    HW253423   5.455   7.946   4.000
17328SOL     OW53424   4.156   7.840   5.274
17328SOL    HW153425   4.236   7.800   5.238
17328SOL    HW253426   4.085   7.782   5.245
17329SOL     OW53427   5.323   7.943   4.426
17329SOL    HW153428   5.232   7.928   4.400
17329SOL    HW253429   5.317   7.974   4.516
17330SOL     OW53430   5.305   7.589   5.193
17330SOL    HW153431   5.325   7.668   5.144
17330SOL    HW253432   5.265   7.620   5.274
17331SOL     OW53433   3.847   0.067   4.376
17331SOL    HW153434   3.804  -0.015   4.353
17331SOL    HW253435   3.775   0.126   4.397
17332SOL     OW53436   4.547   7.440   4.230
17332SOL    HW153437   4.589   7.524   4.212
17332SOL    HW253438   4.455   7.461   4.240
17333SOL     OW53439   4.061   7.702   5.568
17333SOL    HW153440   4.084   7.779   5.516
17333SOL    HW253441   3.968   7.713   5.587
17334SOL     OW53442   4.998   7.799   4.654
17334SOL    HW153443   4.909   7.764   4.660
17334SOL    HW253444   5.049   7.743   4.713
17335SOL     OW53445   5.126   7.938   5.420
17335SOL    HW153446   5.110   7.961   5.512
17335SOL    HW253447   5.174   7.855   5.424
17336SOL     OW53448   4.649   0.366   5.267
17336SOL    HW153449   4.686   0.296   5.213
17336SOL    HW253450   4.570   0.394   5.220
17337SOL     OW53451   4.721   7.818   4.973
17337SOL    HW153452   4.635   7.845   5.006
17337SOL    HW253453   4.703   7.738   4.923
17338SOL     OW53454   4.616   7.782   3.925
17338SOL    HW153455   4.630   7.819   3.837
17338SOL    HW253456   4.600   7.689   3.909
17339SOL     OW53457   5.468   0.016   5.549
17339SOL    HW153458   5.406   0.081   5.516
17339SOL    HW253459   5.470  -0.052   5.482
17340SOL     OW53460   4.280   7.644   4.618
17340SOL    HW153461   4.283   7.660   4.713
17340SOL    HW253462   4.273   7.732   4.580
17341SOL     OW53463   3.916   7.712   5.224
17341SOL    HW153464   3.827   7.746   5.211
17341SOL    HW253465   3.903   7.622   5.255
17342SOL     OW53466   5.128   7.559   4.149
17342SOL    HW153467   5.109   7.530   4.060
17342SOL    HW253468   5.211   7.515   4.171
17343SOL     OW53469   5.230   7.674   5.452
17343SOL    HW153470   5.236   7.694   5.546
17343SOL    HW253471   5.162   7.607   5.447
17344SOL     OW53472   4.380   7.562   3.820
17344SOL    HW153473   4.407   7.480   3.860
17344SOL    HW253474   4.319   7.536   3.751
17345SOL     OW53475   4.494   7.720   5.485
17345SOL    HW153476   4.574   7.668   5.478
17345SOL    HW253477   4.441   7.674   5.551
17346SOL     OW53478   5.089   0.022   5.153
17346SOL    HW153479   5.107  -0.007   5.243
17346SOL    HW253480   5.021   0.089   5.163
17347SOL     OW53481   4.282   7.506   4.224
17347SOL    HW153482   4.204   7.508   4.280
17347SOL    HW253483   4.272   7.583   4.167
17348SOL     OW53484   4.012   7.502   3.906
17348SOL    HW153485   4.069   7.566   3.864
17348SOL    HW253486   4.072   7.441   3.948
17349SOL     OW53487   4.679   7.675   4.178
17349SOL    HW153488   4.647   7.734   4.109
17349SOL    HW253489   4.769   7.703   4.193
17350SOL     OW53490   3.827  -0.009   5.109
17350SOL    HW153491   3.918  -0.030   5.127
17350SOL    HW253492   3.815   0.080   5.141
17351SOL     OW53493   4.288   7.668   4.894
17351SOL    HW153494   4.322   7.582   4.919
17351SOL    HW253495   4.197   7.667   4.923
17352SOL     OW53496   4.757   7.480   4.455
17352SOL    HW153497   4.686   7.475   4.391
17352SOL    HW253498   4.736   7.413   4.520
17353SOL     OW53499   5.226   7.952   4.686
17353SOL    HW153500   5.140   7.911   4.684
17353SOL    HW253501   5.217   8.026   4.747
17354SOL     OW53502   4.262   7.705   4.034
17354SOL    HW153503   4.299   7.661   3.958
17354SOL    HW253504   4.288   7.796   4.024
17355SOL     OW53505   4.633   7.547   5.124
17355SOL    HW153506   4.659   7.520   5.036
17355SOL    HW253507   4.713   7.580   5.164
17356SOL     OW53508   4.994   7.803   5.008
17356SOL    HW153509   5.026   7.886   5.046
17356SOL    HW253510   4.901   7.819   4.991
17357SOL     OW53511   4.263   7.933   4.591
17357SOL    HW153512   4.226   7.987   4.522
17357SOL    HW253513   4.332   7.988   4.630
17358SOL     OW53514   4.727   7.584   5.485
17358SOL    HW153515   4.793   7.646   5.454
17358SOL    HW253516   4.764   7.498   5.466
17359SOL     OW53517   4.214   7.491   5.482
17359SOL    HW153518   4.170   7.435   5.417
17359SOL    HW253519   4.154   7.565   5.494
17360SOL     OW53520   4.027   7.642   4.973
17360SOL    HW153521   3.983   7.665   5.055
17360SOL    HW253522   4.014   7.547   4.965
17361SOL     OW53523   4.489   0.061   4.740
17361SOL    HW153524   4.536   0.064   4.657
17361SOL    HW253525   4.430   0.136   4.736
17362SOL     OW53526   4.039   7.515   4.352
17362SOL    HW153527   4.006   7.601   4.377
17362SOL    HW253528   4.047   7.468   4.436
17363SOL     OW53529   5.340   7.817   4.094
17363SOL    HW153530   5.376   7.744   4.145
17363SOL    HW253531   5.284   7.864   4.156
17364SOL     OW53532   5.215   7.740   3.858
17364SOL    HW153533   5.168   7.659   3.878
17364SOL    HW253534   5.263   7.760   3.938
17365SOL     OW53535   5.056   0.246   3.756
17365SOL    HW153536   5.012   0.172   3.799
17365SOL    HW253537   4.986   0.290   3.708
17366SOL     OW53538   4.045   7.990   4.775
17366SOL    HW153539   4.016   7.900   4.759
17366SOL    HW253540   4.112   8.006   4.709
17367SOL     OW53541   4.871   7.831   5.400
17367SOL    HW153542   4.816   7.905   5.427
17367SOL    HW253543   4.960   7.867   5.400
17368SOL     OW53544   4.881   7.640   5.204
17368SOL    HW153545   4.872   7.710   5.268
17368SOL    HW253546   4.926   7.680   5.129
17369SOL     OW53547   3.745   7.942   4.843
17369SOL    HW153548   3.811   7.895   4.792
17369SOL    HW253549   3.786   7.957   4.928
17370SOL     OW53550   3.923   7.946   5.451
17370SOL    HW153551   3.957   7.907   5.370
17370SOL    HW253552   3.894   8.033   5.425
17371SOL     OW53553   4.512   0.034   3.969
17371SOL    HW153554   4.559  -0.049   3.977
17371SOL    HW253555   4.456   0.038   4.046
17372SOL     OW53556   5.358   8.034   4.937
17372SOL    HW153557   5.336   7.971   5.006
17372SOL    HW253558   5.397   7.981   4.868
17373SOL     OW53559   4.447   7.888   4.963
17373SOL    HW153560   4.387   7.816   4.946
17373SOL    HW253561   4.443   7.942   4.884
17374SOL     OW53562   5.456   7.593   4.232
17374SOL    HW153563   5.496   7.536   4.166
17374SOL    HW253564   5.423   7.533   4.299
17375SOL     OW53565   5.572   7.619   4.686
17375SOL    HW153566   5.591   7.528   4.663
17375SOL    HW253567   5.485   7.636   4.650
17376SOL     OW53568   3.965   7.760   4.444
17376SOL    HW153569   3.876   7.788   4.426
17376SOL    HW253570   3.972   7.763   4.540
17377SOL     OW53571   4.763   7.667   4.675
17377SOL    HW153572   4.751   7.615   4.595
17377SOL    HW253573   4.755   7.604   4.746
17378SOL     OW53574   5.457   7.817   5.111
17378SOL    HW153575   5.521   7.888   5.104
17378SOL    HW253576   5.489   7.750   5.051
17379SOL     OW53577   4.394   7.647   5.229
17379SOL    HW153578   4.474   7.623   5.183
17379SOL    HW253579   4.423   7.675   5.316
17380SOL     OW53580   3.806   7.770   3.773
17380SOL    HW153581   3.733   7.768   3.710
17380SOL    HW253582   3.836   7.861   3.771
17381SOL     OW53583   3.787   7.604   4.021
17381SOL    HW153584   3.771   7.677   3.961
17381SOL    HW253585   3.871   7.568   3.993
17382SOL     OW53586   4.511   7.998   5.454
17382SOL    HW153587   4.420   8.022   5.436
17382SOL    HW253588   4.511   7.903   5.455
17383SOL     OW53589   4.949   7.768   4.180
17383SOL    HW153590   5.010   7.695   4.172
17383SOL    HW253591   4.981   7.818   4.256
17384SOL     OW53592   4.312   0.297   4.341
17384SOL    HW153593   4.397   0.326   4.374
17384SOL    HW253594   4.288   0.223   4.398
17385SOL     OW53595   5.474   7.795   5.385
17385SOL    HW153596   5.465   7.811   5.291
17385SOL    HW253597   5.397   7.743   5.408
17386SOL     OW53598   5.549   7.617   4.959
17386SOL    HW153599   5.536   7.523   4.966
17386SOL    HW253600   5.556   7.634   4.865
17387SOL     OW53601   4.129   7.853   4.244
17387SOL    HW153602   4.145   7.780   4.183
17387SOL    HW253603   4.072   7.815   4.311
17388SOL     OW53604   5.151   7.658   4.832
17388SOL    HW153605   5.146   7.565   4.851
17388SOL    HW253606   5.103   7.700   4.904
17389SOL     OW53607   4.756   7.484   4.885
17389SOL    HW153608   4.714   7.420   4.827
17389SOL    HW253609   4.842   7.446   4.904
17390SOL     OW53610   5.088   7.494   3.882
17390SOL    HW153611   5.128   7.415   3.846
17390SOL    HW253612   4.998   7.468   3.902
17391SOL     OW53613   5.048   7.902   4.405
17391SOL    HW153614   4.994   7.982   4.404
17391SOL    HW253615   5.027   7.860   4.489
17392SOL     OW53616   5.317   7.669   4.606
17392SOL    HW153617   5.264   7.655   4.685
17392SOL    HW253618   5.292   7.756   4.576
17393SOL     OW53619   3.949   7.730   6.578
17393SOL    HW153620   3.982   7.690   6.658
17393SOL    HW253621   3.861   7.694   6.568
17394SOL     OW53622   3.709   7.822   6.232
17394SOL    HW153623   3.626   7.852   6.271
17394SOL    HW253624   3.685   7.743   6.183
17395SOL     OW53625   5.454   8.023   5.835
17395SOL    HW153626   5.463   8.035   5.741
17395SOL    HW253627   5.425   7.932   5.845
17396SOL     OW53628   4.147   7.863   7.132
17396SOL    HW153629   4.231   7.833   7.096
17396SOL    HW253630   4.086   7.792   7.112
17397SOL     OW53631   5.326   7.902   6.303
17397SOL    HW153632   5.239   7.903   6.263
17397SOL    HW253633   5.315   7.948   6.386
17398SOL     OW53634   5.323   7.576   7.046
17398SOL    HW153635   5.349   7.660   7.006
17398SOL    HW253636   5.292   7.599   7.133
17399SOL     OW53637   3.833   0.072   6.232
17399SOL    HW153638   3.796  -0.014   6.211
17399SOL    HW253639   3.757   0.129   6.240
17400SOL     OW53640   4.548   7.451   6.114
17400SOL    HW153641   4.589   7.531   6.082
17400SOL    HW253642   4.454   7.470   6.114
17401SOL     OW53643   4.095   7.713   7.403
17401SOL    HW153644   4.180   7.757   7.400
17401SOL    HW253645   4.032   7.781   7.378
17402SOL     OW53646   4.981   7.815   6.527
17402SOL    HW153647   4.895   7.773   6.534
17402SOL    HW253648   5.040   7.757   6.576
17403SOL     OW53649   5.138   7.965   7.292
17403SOL    HW153650   5.108   7.969   7.383
17403SOL    HW253651   5.170   7.876   7.281
17404SOL     OW53652   4.642   0.385   7.103
17404SOL    HW153653   4.716   0.328   7.084
17404SOL    HW253654   4.569   0.348   7.054
17405SOL     OW53655   4.706   7.824   6.829
17405SOL    HW153656   4.627   7.839   6.880
17405SOL    HW253657   4.683   7.754   6.768
17406SOL     OW53658   4.619   7.776   5.781
17406SOL    HW153659   4.642   7.823   5.701
17406SOL    HW253660   4.616   7.684   5.755
17407SOL     OW53661   5.461   0.018   7.413
17407SOL    HW153662   5.411   0.084   7.364
17407SOL    HW253663   5.474  -0.053   7.350
17408SOL     OW53664   4.261   7.611   6.483
17408SOL    HW153665   4.270   7.648   6.571
17408SOL    HW253666   4.269   7.686   6.425
17409SOL     OW53667   3.926   7.707   7.089
17409SOL    HW153668   3.841   7.751   7.090
17409SOL    HW253669   3.907   7.618   7.118
17410SOL     OW53670   5.122   7.546   6.022
17410SOL    HW153671   5.108   7.520   5.931
17410SOL    HW253672   5.217   7.540   6.034
17411SOL     OW53673   5.233   7.679   7.302
17411SOL    HW153674   5.239   7.695   7.396
17411SOL    HW253675   5.152   7.628   7.292
17412SOL     OW53676   4.371   7.551   5.691
17412SOL    HW153677   4.420   7.470   5.709
17412SOL    HW253678   4.314   7.528   5.617
17413SOL     OW53679   5.080   0.019   7.018
17413SOL    HW153680   5.105  -0.002   7.107
17413SOL    HW253681   5.009   0.083   7.028
17414SOL     OW53682   4.282   7.515   6.089
17414SOL    HW153683   4.197   7.511   6.133
17414SOL    HW253684   4.273   7.588   6.028
17415SOL     OW53685   4.011   7.503   5.772
17415SOL    HW153686   4.063   7.559   5.714
17415SOL    HW253687   4.074   7.441   5.808
17416SOL     OW53688   4.670   7.680   6.039
17416SOL    HW153689   4.649   7.724   5.957
17416SOL    HW253690   4.762   7.703   6.056
17417SOL     OW53691   3.824  -0.007   6.971
17417SOL    HW153692   3.911  -0.017   7.010
17417SOL    HW253693   3.798   0.082   6.995
17418SOL     OW53694   4.276   7.670   6.756
17418SOL    HW153695   4.327   7.612   6.812
17418SOL    HW253696   4.186   7.657   6.784
17419SOL     OW53697   4.733   7.502   6.331
17419SOL    HW153698   4.677   7.497   6.254
17419SOL    HW253699   4.713   7.424   6.381
17420SOL     OW53700   5.216   7.969   6.543
17420SOL    HW153701   5.129   7.931   6.552
17420SOL    HW253702   5.232   8.012   6.627
17421SOL     OW53703   4.262   7.711   5.895
17421SOL    HW153704   4.292   7.651   5.827
17421SOL    HW253705   4.293   7.797   5.866
17422SOL     OW53706   4.641   7.535   6.968
17422SOL    HW153707   4.668   7.508   6.880
17422SOL    HW253708   4.721   7.570   7.008
17423SOL     OW53709   4.985   7.802   6.872
17423SOL    HW153710   5.018   7.880   6.916
17423SOL    HW253711   4.892   7.821   6.859
17424SOL     OW53712   4.270  -0.015   6.480
17424SOL    HW153713   4.280   0.010   6.388
17424SOL    HW253714   4.354   0.009   6.521
17425SOL     OW53715   4.790   7.556   7.401
17425SOL    HW153716   4.708   7.597   7.374
17425SOL    HW253717   4.814   7.499   7.328
17426SOL     OW53718   4.207   7.463   7.344
17426SOL    HW153719   4.164   7.420   7.271
17426SOL    HW253720   4.162   7.548   7.352
17427SOL     OW53721   4.005   7.632   6.832
17427SOL    HW153722   4.003   7.671   6.920
17427SOL    HW253723   3.922   7.586   6.824
17428SOL     OW53724   4.497   0.065   6.601
17428SOL    HW153725   4.569   0.055   6.539
17428SOL    HW253726   4.491   0.160   6.616
17429SOL     OW53727   4.036   7.504   6.219
17429SOL    HW153728   4.007   7.593   6.237
17429SOL    HW253729   4.036   7.460   6.304
17430SOL     OW53730   5.332   7.799   5.955
17430SOL    HW153731   5.375   7.733   6.009
17430SOL    HW253732   5.305   7.867   6.017
17431SOL     OW53733   5.215   7.733   5.718
17431SOL    HW153734   5.164   7.654   5.736
17431SOL    HW253735   5.261   7.751   5.799
17432SOL     OW53736   5.028   0.256   5.656
17432SOL    HW153737   5.003   0.163   5.652
17432SOL    HW253738   4.970   0.298   5.592
17433SOL     OW53739   4.039   7.978   6.630
17433SOL    HW153740   4.016   7.888   6.606
17433SOL    HW253741   4.117   7.998   6.579
17434SOL     OW53742   4.880   7.831   7.236
17434SOL    HW153743   4.801   7.830   7.290
17434SOL    HW253744   4.921   7.915   7.257
17435SOL     OW53745   4.887   7.623   7.063
17435SOL    HW153746   4.879   7.690   7.131
17435SOL    HW253747   4.931   7.667   6.990
17436SOL     OW53748   3.758   7.950   6.705
17436SOL    HW153749   3.840   7.939   6.656
17436SOL    HW253750   3.786   7.963   6.795
17437SOL     OW53751   3.922   7.942   7.312
17437SOL    HW153752   3.985   7.922   7.243
17437SOL    HW253753   3.923   8.037   7.318
17438SOL     OW53754   4.519   0.029   5.838
17438SOL    HW153755   4.563  -0.056   5.842
17438SOL    HW253756   4.486   0.043   5.926
17439SOL     OW53757   5.354   8.023   6.791
17439SOL    HW153758   5.343   7.954   6.857
17439SOL    HW253759   5.421   7.989   6.732
17440SOL     OW53760   4.411   7.912   6.818
17440SOL    HW153761   4.361   7.835   6.788
17440SOL    HW253762   4.441   7.954   6.737
17441SOL     OW53763   5.461   7.599   6.093
17441SOL    HW153764   5.529   7.584   6.027
17441SOL    HW253765   5.440   7.512   6.126
17442SOL     OW53766   5.574   7.618   6.555
17442SOL    HW153767   5.593   7.529   6.525
17442SOL    HW253768   5.488   7.638   6.516
17443SOL     OW53769   3.968   7.753   6.301
17443SOL    HW153770   3.880   7.784   6.281
17443SOL    HW253771   3.972   7.754   6.397
17444SOL     OW53772   4.750   7.669   6.554
17444SOL    HW153773   4.742   7.629   6.468
17444SOL    HW253774   4.746   7.595   6.615
17445SOL     OW53775   5.466   7.812   6.971
17445SOL    HW153776   5.525   7.887   6.972
17445SOL    HW253777   5.503   7.752   6.907
17446SOL     OW53778   4.403   7.631   7.078
17446SOL    HW153779   4.487   7.609   7.038
17446SOL    HW253780   4.425   7.662   7.166
17447SOL     OW53781   3.794   7.779   5.629
17447SOL    HW153782   3.729   7.749   5.566
17447SOL    HW253783   3.832   7.858   5.590
17448SOL     OW53784   3.785   7.609   5.879
17448SOL    HW153785   3.768   7.679   5.816
17448SOL    HW253786   3.870   7.573   5.854
17449SOL     OW53787   4.510   0.032   7.303
17449SOL    HW153788   4.415   0.034   7.316
17449SOL    HW253789   4.533  -0.061   7.302
17450SOL     OW53790   4.937   7.749   6.062
17450SOL    HW153791   5.000   7.680   6.043
17450SOL    HW253792   4.981   7.804   6.127
17451SOL     OW53793   4.375   0.239   6.282
17451SOL    HW153794   4.432   0.312   6.261
17451SOL    HW253795   4.362   0.194   6.198
17452SOL     OW53796   5.477   7.794   7.251
17452SOL    HW153797   5.477   7.811   7.156
17452SOL    HW253798   5.395   7.747   7.267
17453SOL     OW53799   5.575   7.595   6.826
17453SOL    HW153800   5.519   7.517   6.819
17453SOL    HW253801   5.577   7.630   6.737
17454SOL     OW53802   4.146   7.862   6.120
17454SOL    HW153803   4.164   7.801   6.048
17454SOL    HW253804   4.082   7.817   6.174
17455SOL     OW53805   5.147   7.669   6.691
17455SOL    HW153806   5.150   7.576   6.710
17455SOL    HW253807   5.099   7.707   6.765
17456SOL     OW53808   4.732   7.449   6.721
17456SOL    HW153809   4.685   7.386   6.666
17456SOL    HW253810   4.820   7.413   6.729
17457SOL     OW53811   5.082   7.495   5.752
17457SOL    HW153812   5.114   7.420   5.701
17457SOL    HW253813   4.992   7.471   5.775
17458SOL     OW53814   5.050   7.898   6.267
17458SOL    HW153815   5.011   7.985   6.258
17458SOL    HW253816   5.024   7.869   6.354
17459SOL     OW53817   5.320   7.662   6.469
17459SOL    HW153818   5.260   7.682   6.541
17459SOL    HW253819   5.310   7.735   6.408
17460SOL     OW53820   3.946   7.735   8.448
17460SOL    HW153821   3.976   7.702   8.533
17460SOL    HW253822   3.859   7.697   8.437
17461SOL     OW53823   3.712   7.808   8.097
17461SOL    HW153824   3.629   7.846   8.127
17461SOL    HW253825   3.686   7.730   8.048
17462SOL     OW53826   5.438   0.028   7.695
17462SOL    HW153827   5.454   0.041   7.601
17462SOL    HW253828   5.423  -0.066   7.704
17463SOL     OW53829   4.158   7.850   8.878
17463SOL    HW153830   4.248   7.839   8.909
17463SOL    HW253831   4.104   7.805   8.943
17464SOL     OW53832   5.321   7.925   8.160
17464SOL    HW153833   5.230   7.922   8.129
17464SOL    HW253834   5.314   7.964   8.248
17465SOL     OW53835   5.318   7.574   8.917
17465SOL    HW153836   5.348   7.654   8.874
17465SOL    HW253837   5.288   7.603   9.003
17466SOL     OW53838   3.788   0.075   8.100
17466SOL    HW153839   3.777  -0.020   8.090
17466SOL    HW253840   3.861   0.097   8.043
17467SOL     OW53841   4.544   7.437   7.973
17467SOL    HW153842   4.588   7.515   7.942
17467SOL    HW253843   4.451   7.460   7.973
17468SOL     OW53844   4.065   7.706   9.232
17468SOL    HW153845   4.102   7.794   9.230
17468SOL    HW253846   3.983   7.716   9.280
17469SOL     OW53847   4.994   7.804   8.385
17469SOL    HW153848   4.905   7.771   8.392
17469SOL    HW253849   5.045   7.746   8.442
17470SOL     OW53850   5.128   7.928   9.136
17470SOL    HW153851   5.120   7.961   9.226
17470SOL    HW253852   5.176   7.846   9.145
17471SOL     OW53853   4.656   0.405   8.965
17471SOL    HW153854   4.636   0.369   9.051
17471SOL    HW253855   4.594   0.362   8.906
17472SOL     OW53856   4.719   7.816   8.702
17472SOL    HW153857   4.639   7.848   8.744
17472SOL    HW253858   4.688   7.751   8.638
17473SOL     OW53859   4.626   7.777   7.649
17473SOL    HW153860   4.630   7.827   7.567
17473SOL    HW253861   4.619   7.685   7.620
17474SOL     OW53862   5.468   0.021   9.270
17474SOL    HW153863   5.409   0.087   9.234
17474SOL    HW253864   5.466  -0.051   9.207
17475SOL     OW53865   4.269   7.623   8.351
17475SOL    HW153866   4.271   7.646   8.443
17475SOL    HW253867   4.273   7.706   8.304
17476SOL     OW53868   3.906   7.734   8.964
17476SOL    HW153869   3.867   7.791   9.029
17476SOL    HW253870   3.915   7.649   9.008
17477SOL     OW53871   5.130   7.547   7.892
17477SOL    HW153872   5.110   7.528   7.801
17477SOL    HW253873   5.214   7.593   7.890
17478SOL     OW53874   5.241   7.672   9.178
17478SOL    HW153875   5.244   7.693   9.271
17478SOL    HW253876   5.173   7.604   9.171
17479SOL     OW53877   4.345   7.564   7.558
17479SOL    HW153878   4.410   7.611   7.505
17479SOL    HW253879   4.302   7.505   7.495
17480SOL     OW53880   4.512   7.722   9.202
17480SOL    HW153881   4.590   7.667   9.197
17480SOL    HW253882   4.458   7.681   9.271
17481SOL     OW53883   5.095   0.022   8.876
17481SOL    HW153884   5.112  -0.011   8.965
17481SOL    HW253885   5.029   0.090   8.889
17482SOL     OW53886   4.281   7.505   7.949
17482SOL    HW153887   4.199   7.509   7.999
17482SOL    HW253888   4.280   7.584   7.895
17483SOL     OW53889   4.019   7.502   7.630
17483SOL    HW153890   4.082   7.555   7.581
17483SOL    HW253891   4.073   7.435   7.672
17484SOL     OW53892   4.676   7.664   7.899
17484SOL    HW153893   4.652   7.712   7.819
17484SOL    HW253894   4.764   7.693   7.920
17485SOL     OW53895   3.832   8.000   8.828
17485SOL    HW153896   3.889   7.928   8.853
17485SOL    HW253897   3.848   8.068   8.894
17486SOL     OW53898   4.273   7.671   8.621
17486SOL    HW153899   4.319   7.614   8.683
17486SOL    HW253900   4.184   7.678   8.657
17487SOL     OW53901   4.751   7.495   8.188
17487SOL    HW153902   4.690   7.500   8.114
17487SOL    HW253903   4.719   7.423   8.241
17488SOL     OW53904   5.223   7.958   8.421
17488SOL    HW153905   5.138   7.915   8.412
17488SOL    HW253906   5.203   8.043   8.458
17489SOL     OW53907   4.277   7.714   7.772
17489SOL    HW153908   4.296   7.654   7.699
17489SOL    HW253909   4.334   7.789   7.756
17490SOL     OW53910   4.646   7.532   8.839
17490SOL    HW153911   4.669   7.512   8.748
17490SOL    HW253912   4.725   7.573   8.875
17491SOL     OW53913   4.992   7.810   8.731
17491SOL    HW153914   5.025   7.890   8.772
17491SOL    HW253915   4.898   7.825   8.720
17492SOL     OW53916   4.275   7.962   8.305
17492SOL    HW153917   4.289   8.018   8.229
17492SOL    HW253918   4.345   7.986   8.366
17493SOL     OW53919   4.738   7.576   9.199
17493SOL    HW153920   4.798   7.649   9.182
17493SOL    HW253921   4.790   7.498   9.179
17494SOL     OW53922   4.215   7.478   9.192
17494SOL    HW153923   4.166   7.424   9.130
17494SOL    HW253924   4.162   7.557   9.202
17495SOL     OW53925   4.004   7.642   8.700
17495SOL    HW153926   3.980   7.677   8.785
17495SOL    HW253927   3.989   7.548   8.707
17496SOL     OW53928   4.461   0.075   8.468
17496SOL    HW153929   4.538   0.116   8.428
17496SOL    HW253930   4.424   0.143   8.524
17497SOL     OW53931   4.035   7.516   8.076
17497SOL    HW153932   4.013   7.606   8.100
17497SOL    HW253933   4.042   7.470   8.159
17498SOL     OW53934   5.307   7.801   7.818
17498SOL    HW153935   5.359   7.763   7.889
17498SOL    HW253936   5.267   7.879   7.857
17499SOL     OW53937   5.220   7.727   7.572
17499SOL    HW153938   5.163   7.654   7.595
17499SOL    HW253939   5.261   7.753   7.654
17500SOL     OW53940   5.034   0.265   7.510
17500SOL    HW153941   5.018   0.171   7.522
17500SOL    HW253942   4.971   0.292   7.443
17501SOL     OW53943   4.024   7.990   8.421
17501SOL    HW153944   4.007   7.897   8.434
17501SOL    HW253945   4.115   7.994   8.393
17502SOL     OW53946   4.873   7.816   9.128
17502SOL    HW153947   4.813   7.886   9.155
17502SOL    HW253948   4.958   7.859   9.122
17503SOL     OW53949   4.889   7.634   8.921
17503SOL    HW153950   4.875   7.698   8.991
17503SOL    HW253951   4.931   7.683   8.851
17504SOL     OW53952   3.749   7.975   8.557
17504SOL    HW153953   3.821   7.967   8.495
17504SOL    HW253954   3.790   7.968   8.643
17505SOL     OW53955   3.884  -0.014   9.136
17505SOL    HW153956   3.978  -0.032   9.132
17505SOL    HW253957   3.878   0.070   9.181
17506SOL     OW53958   4.500   8.013   7.709
17506SOL    HW153959   4.557   7.936   7.708
17506SOL    HW253960   4.473   8.022   7.800
17507SOL     OW53961   5.357   8.028   8.669
17507SOL    HW153962   5.338   7.954   8.727
17507SOL    HW253963   5.377   7.987   8.585
17508SOL     OW53964   4.452   7.885   8.673
17508SOL    HW153965   4.378   7.825   8.662
17508SOL    HW253966   4.445   7.946   8.600
17509SOL     OW53967   5.456   7.604   7.962
17509SOL    HW153968   5.522   7.586   7.896
17509SOL    HW253969   5.436   7.518   8.000
17510SOL     OW53970   5.570   7.619   8.414
17510SOL    HW153971   5.594   7.531   8.387
17510SOL    HW253972   5.483   7.633   8.377
17511SOL     OW53973   3.977   7.769   8.170
17511SOL    HW153974   3.884   7.784   8.150
17511SOL    HW253975   3.980   7.758   8.265
17512SOL     OW53976   4.757   7.670   8.410
17512SOL    HW153977   4.753   7.625   8.326
17512SOL    HW253978   4.747   7.601   8.475
17513SOL     OW53979   5.458   7.810   8.839
17513SOL    HW153980   5.517   7.885   8.829
17513SOL    HW253981   5.491   7.745   8.777
17514SOL     OW53982   4.409   7.631   8.946
17514SOL    HW153983   4.494   7.609   8.909
17514SOL    HW253984   4.429   7.673   9.029
17515SOL     OW53985   3.807   7.612   7.762
17515SOL    HW153986   3.846   7.692   7.799
17515SOL    HW253987   3.879   7.570   7.715
17516SOL     OW53988   4.412   7.966   9.121
17516SOL    HW153989   4.457   8.043   9.155
17516SOL    HW253990   4.463   7.892   9.153
17517SOL     OW53991   4.937   7.750   7.927
17517SOL    HW153992   5.002   7.681   7.919
17517SOL    HW253993   4.975   7.811   7.990
17518SOL     OW53994   4.343   0.248   8.157
17518SOL    HW153995   4.407   0.318   8.150
17518SOL    HW253996   4.330   0.217   8.067
17519SOL     OW53997   5.479   7.804   9.113
17519SOL    HW153998   5.469   7.818   9.018
17519SOL    HW253999   5.407   7.746   9.136
17520SOL     OW54000   5.552   7.613   8.686
17520SOL    HW154001   5.539   7.518   8.686
17520SOL    HW254002   5.560   7.636   8.593
17521SOL     OW54003   4.047   7.825   7.885
17521SOL    HW154004   4.128   7.782   7.858
17521SOL    HW254005   4.048   7.819   7.981
17522SOL     OW54006   5.150   7.663   8.564
17522SOL    HW154007   5.152   7.575   8.601
17522SOL    HW254008   5.103   7.716   8.629
17523SOL     OW54009   4.731   7.456   8.585
17523SOL    HW154010   4.676   7.391   8.541
17523SOL    HW254011   4.818   7.416   8.587
17524SOL     OW54012   5.085   7.488   7.625
17524SOL    HW154013   5.088   7.457   7.534
17524SOL    HW254014   5.000   7.458   7.658
17525SOL     OW54015   5.045   7.906   8.132
17525SOL    HW154016   5.003   7.991   8.129
17525SOL    HW254017   5.020   7.870   8.217
17526SOL     OW54018   5.309   7.652   8.335
17526SOL    HW154019   5.258   7.668   8.415
17526SOL    HW254020   5.296   7.730   8.282
17527SOL     OW54021   3.967   7.685  10.352
17527SOL    HW154022   4.030   7.660  10.284
17527SOL    HW254023   3.882   7.682  10.308
17528SOL     OW54024   3.689   7.853   9.926
17528SOL    HW154025   3.603   7.863   9.968
17528SOL    HW254026   3.694   7.759   9.906
17529SOL     OW54027   5.491   0.028   9.544
17529SOL    HW154028   5.472   0.025   9.451
17529SOL    HW254029   5.438  -0.042   9.582
17530SOL     OW54030   4.153   7.851  10.863
17530SOL    HW154031   4.235   7.821  10.825
17530SOL    HW254032   4.087   7.789  10.831
17531SOL     OW54033   5.319   7.942  10.012
17531SOL    HW154034   5.229   7.920   9.988
17531SOL    HW254035   5.313   7.975  10.102
17532SOL     OW54036   5.294   7.574  10.762
17532SOL    HW154037   5.344   7.623  10.696
17532SOL    HW254038   5.336   7.596  10.845
17533SOL     OW54039   3.781   0.107   9.948
17533SOL    HW154040   3.764   0.014   9.933
17533SOL    HW254041   3.873   0.118   9.924
17534SOL     OW54042   4.546   7.437   9.826
17534SOL    HW154043   4.586   7.521   9.802
17534SOL    HW254044   4.453   7.457   9.833
17535SOL     OW54045   4.061   7.696  11.129
17535SOL    HW154046   4.080   7.783  11.094
17535SOL    HW254047   3.971   7.701  11.160
17536SOL     OW54048   4.988   7.800  10.245
17536SOL    HW154049   4.901   7.760  10.251
17536SOL    HW254050   5.043   7.744  10.300
17537SOL     OW54051   5.137   7.943  11.010
17537SOL    HW154052   5.124   7.950  11.105
17537SOL    HW254053   5.188   7.863  10.999
17538SOL     OW54054   4.644   0.404  10.830
17538SOL    HW154055   4.710   0.339  10.806
17538SOL    HW254056   4.561   0.366  10.802
17539SOL     OW54057   4.717   7.816  10.554
17539SOL    HW154058   4.630   7.830  10.592
17539SOL    HW254059   4.706   7.741  10.495
17540SOL     OW54060   4.625   7.788   9.510
17540SOL    HW154061   4.636   7.828   9.424
17540SOL    HW254062   4.621   7.694   9.493
17541SOL     OW54063   5.461   0.034  11.134
17541SOL    HW154064   5.409   0.097  11.084
17541SOL    HW254065   5.466  -0.043  11.078
17542SOL     OW54066   4.222   7.648  10.219
17542SOL    HW154067   4.259   7.664  10.306
17542SOL    HW254068   4.244   7.726  10.169
17543SOL     OW54069   3.924   7.706  10.784
17543SOL    HW154070   3.861   7.776  10.799
17543SOL    HW254071   3.894   7.634  10.839
17544SOL     OW54072   5.129   7.561   9.745
17544SOL    HW154073   5.119   7.527   9.656
17544SOL    HW254074   5.219   7.538   9.769
17545SOL     OW54075   5.251   7.685  11.045
17545SOL    HW154076   5.240   7.695  11.139
17545SOL    HW254077   5.204   7.605  11.023
17546SOL     OW54078   4.380   7.573   9.387
17546SOL    HW154079   4.398   7.500   9.447
17546SOL    HW254080   4.319   7.536   9.323
17547SOL     OW54081   4.493   7.725  11.059
17547SOL    HW154082   4.574   7.674  11.052
17547SOL    HW254083   4.446   7.685  11.132
17548SOL     OW54084   5.080   0.022  10.740
17548SOL    HW154085   5.107  -0.007  10.827
17548SOL    HW254086   5.008   0.083  10.757
17549SOL     OW54087   4.276   7.498   9.825
17549SOL    HW154088   4.193   7.504   9.871
17549SOL    HW254089   4.275   7.571   9.763
17550SOL     OW54090   4.018   7.494   9.498
17550SOL    HW154091   4.079   7.567   9.488
17550SOL    HW254092   4.069   7.426   9.541
17551SOL     OW54093   4.675   7.673   9.766
17551SOL    HW154094   4.641   7.732   9.699
17551SOL    HW254095   4.766   7.699   9.777
17552SOL     OW54096   3.812  -0.008  10.766
17552SOL    HW154097   3.889   0.016  10.713
17552SOL    HW254098   3.750   0.064  10.751
17553SOL     OW54099   4.299   7.643  10.499
17553SOL    HW154100   4.321   7.557  10.464
17553SOL    HW254101   4.321   7.637  10.592
17554SOL     OW54102   4.754   7.481  10.048
17554SOL    HW154103   4.688   7.474   9.978
17554SOL    HW254104   4.726   7.417  10.114
17555SOL     OW54105   5.213   7.961  10.266
17555SOL    HW154106   5.128   7.918  10.274
17555SOL    HW254107   5.239   7.978  10.357
17556SOL     OW54108   4.261   7.686   9.635
17556SOL    HW154109   4.301   7.714   9.553
17556SOL    HW254110   4.206   7.759   9.662
17557SOL     OW54111   4.634   7.547  10.712
17557SOL    HW154112   4.663   7.521  10.624
17557SOL    HW254113   4.713   7.579  10.755
17558SOL     OW54114   4.990   7.802  10.596
17558SOL    HW154115   5.022   7.884  10.634
17558SOL    HW254116   4.897   7.816  10.581
17559SOL     OW54117   4.265   7.921  10.183
17559SOL    HW154118   4.210   7.956  10.113
17559SOL    HW254119   4.310   7.998  10.218
17560SOL     OW54120   4.727   7.587  11.059
17560SOL    HW154121   4.793   7.652  11.033
17560SOL    HW254122   4.766   7.503  11.034
17561SOL     OW54123   4.227   7.491  11.052
17561SOL    HW154124   4.177   7.431  10.998
17561SOL    HW254125   4.167   7.562  11.073
17562SOL     OW54126   4.492   0.069  10.332
17562SOL    HW154127   4.540   0.059  10.250
17562SOL    HW254128   4.426   0.135  10.315
17563SOL     OW54129   4.024   7.501   9.945
17563SOL    HW154130   4.000   7.591   9.969
17563SOL    HW254131   4.038   7.457  10.029
17564SOL     OW54132   5.341   7.821   9.677
17564SOL    HW154133   5.379   7.747   9.724
17564SOL    HW254134   5.289   7.866   9.743
17565SOL     OW54135   5.215   7.743   9.442
17565SOL    HW154136   5.167   7.663   9.463
17565SOL    HW254137   5.265   7.762   9.521
17566SOL     OW54138   5.049   0.245   9.324
17566SOL    HW154139   5.001   0.182   9.378
17566SOL    HW254140   4.982   0.292   9.275
17567SOL     OW54141   4.028   7.978  10.356
17567SOL    HW154142   4.051   7.885  10.351
17567SOL    HW254143   4.078   8.019  10.286
17568SOL     OW54144   4.877   7.835  10.990
17568SOL    HW154145   4.828   7.912  11.018
17568SOL    HW254146   4.968   7.864  10.987
17569SOL     OW54147   4.881   7.638  10.795
17569SOL    HW154148   4.878   7.713  10.855
17569SOL    HW254149   4.932   7.670  10.720
17570SOL     OW54150   3.779   7.923  10.472
17570SOL    HW154151   3.852   7.922  10.410
17570SOL    HW254152   3.751   8.015  10.474
17571SOL     OW54153   3.921   7.953  11.024
17571SOL    HW154154   3.987   7.936  10.957
17571SOL    HW254155   3.844   7.984  10.975
17572SOL     OW54156   4.490   8.021   9.570
17572SOL    HW154157   4.545   7.943   9.569
17572SOL    HW254158   4.460   8.028   9.660
17573SOL     OW54159   5.344   8.009  10.511
17573SOL    HW154160   5.339   7.944  10.581
17573SOL    HW254161   5.420   7.982  10.458
17574SOL     OW54162   4.415   7.907  10.543
17574SOL    HW154163   4.371   7.828  10.510
17574SOL    HW254164   4.440   7.955  10.464
17575SOL     OW54165   5.451   7.604   9.813
17575SOL    HW154166   5.524   7.585   9.753
17575SOL    HW254167   5.432   7.519   9.853
17576SOL     OW54168   5.568   7.609  10.283
17576SOL    HW154169   5.591   7.519  10.257
17576SOL    HW254170   5.483   7.624  10.244
17577SOL     OW54171   3.964   7.754  10.039
17577SOL    HW154172   3.965   7.784   9.948
17577SOL    HW254173   3.982   7.834  10.090
17578SOL     OW54174   4.754   7.665  10.269
17578SOL    HW154175   4.745   7.616  10.187
17578SOL    HW254176   4.754   7.598  10.337
17579SOL     OW54177   5.450   7.837  10.704
17579SOL    HW154178   5.524   7.899  10.703
17579SOL    HW254179   5.478   7.766  10.647
17580SOL     OW54180   4.395   7.652  10.798
17580SOL    HW154181   4.479   7.622  10.763
17580SOL    HW254182   4.414   7.676  10.889
17581SOL     OW54183   3.812   7.779   9.329
17581SOL    HW154184   3.740   7.765   9.266
17581SOL    HW254185   3.839   7.870   9.315
17582SOL     OW54186   3.785   7.600   9.618
17582SOL    HW154187   3.783   7.687   9.579
17582SOL    HW254188   3.871   7.566   9.596
17583SOL     OW54189   4.498   8.015  11.027
17583SOL    HW154190   4.404   8.017  11.045
17583SOL    HW254191   4.519   7.922  11.021
17584SOL     OW54192   4.945   7.765   9.769
17584SOL    HW154193   5.005   7.691   9.759
17584SOL    HW254194   4.978   7.813   9.845
17585SOL     OW54195   4.341   0.251   9.993
17585SOL    HW154196   4.386   0.328   9.957
17585SOL    HW254197   4.334   0.190   9.920
17586SOL     OW54198   5.475   7.821  10.974
17586SOL    HW154199   5.468   7.828  10.879
17586SOL    HW254200   5.406   7.760  11.000
17587SOL     OW54201   5.528   7.635  10.558
17587SOL    HW154202   5.579   7.568  10.604
17587SOL    HW254203   5.543   7.616  10.465
17588SOL     OW54204   5.153   7.666  10.417
17588SOL    HW154205   5.163   7.573  10.434
17588SOL    HW254206   5.106   7.701  10.493
17589SOL     OW54207   4.758   7.483  10.479
17589SOL    HW154208   4.709   7.425  10.421
17589SOL    HW254209   4.845   7.443  10.486
17590SOL     OW54210   5.086   7.501   9.474
17590SOL    HW154211   5.117   7.427   9.422
17590SOL    HW254212   4.997   7.477   9.499
17591SOL     OW54213   5.047   7.897   9.992
17591SOL    HW154214   4.999   7.980   9.991
17591SOL    HW254215   5.025   7.858  10.077
17592SOL     OW54216   5.318   7.663  10.192
17592SOL    HW154217   5.264   7.662  10.271
17592SOL    HW254218   5.290   7.741  10.144
17593SOL     OW54219   3.963   7.716  12.162
17593SOL    HW154220   3.989   7.682  12.248
17593SOL    HW254221   3.872   7.689  12.152
17594SOL     OW54222   3.728   7.843  11.782
17594SOL    HW154223   3.652   7.872  11.833
17594SOL    HW254224   3.702   7.757  11.748
17595SOL     OW54225   5.498   0.029  11.412
17595SOL    HW154226   5.482   0.036  11.317
17595SOL    HW254227   5.448  -0.048  11.439
17596SOL     OW54228   5.322   7.932  11.872
17596SOL    HW154229   5.231   7.914  11.847
17596SOL    HW254230   5.316   7.963  11.962
17597SOL     OW54231   4.540   7.440  11.702
17597SOL    HW154232   4.587   7.517  11.669
17597SOL    HW254233   4.449   7.469  11.708
17598SOL     OW54234   4.983   7.788  12.102
17598SOL    HW154235   4.895   7.758  12.124
17598SOL    HW254236   5.041   7.738  12.159
17599SOL     OW54237   4.681   7.824  12.414
17599SOL    HW154238   4.591   7.846  12.435
17599SOL    HW254239   4.675   7.768  12.336
17600SOL     OW54240   4.615   7.778  11.366
17600SOL    HW154241   4.670   7.801  11.290
17600SOL    HW254242   4.605   7.683  11.359
17601SOL     OW54243   4.280   7.627  12.059
17601SOL    HW154244   4.270   7.688  12.132
17601SOL    HW254245   4.279   7.684  11.981
17602SOL     OW54246   5.125   7.550  11.611
17602SOL    HW154247   5.116   7.523  11.520
17602SOL    HW254248   5.218   7.539  11.631
17603SOL     OW54249   4.369   7.560  11.273
17603SOL    HW154250   4.383   7.479  11.322
17603SOL    HW254251   4.322   7.532  11.194
17604SOL     OW54252   4.287   7.548  11.703
17604SOL    HW154253   4.202   7.514  11.731
17604SOL    HW254254   4.271   7.589  11.618
17605SOL     OW54255   4.012   7.504  11.356
17605SOL    HW154256   4.077   7.563  11.317
17605SOL    HW254257   4.063   7.429  11.386
17606SOL     OW54258   4.677   7.667  11.629
17606SOL    HW154259   4.644   7.731  11.566
17606SOL    HW254260   4.769   7.691  11.641
17607SOL     OW54261   3.822   0.019   0.032
17607SOL    HW154262   3.904   0.010   0.081
17607SOL    HW254263   3.754   0.018   0.100
17608SOL     OW54264   4.291   7.650  12.349
17608SOL    HW154265   4.303   7.569  12.300
17608SOL    HW254266   4.199   7.650  12.373
17609SOL     OW54267   4.741   7.503  11.922
17609SOL    HW154268   4.684   7.505  11.845
17609SOL    HW254269   4.716   7.424  11.968
17610SOL     OW54270   5.225   7.944  12.127
17610SOL    HW154271   5.136   7.924  12.154
17610SOL    HW254272   5.266   7.982  12.205
17611SOL     OW54273   4.259   7.718  11.474
17611SOL    HW154274   4.289   7.661  11.404
17611SOL    HW254275   4.326   7.787  11.479
17612SOL     OW54276   4.967   7.835  12.418
17612SOL    HW154277   5.002   7.889  12.489
17612SOL    HW254278   4.874   7.826  12.437
17613SOL     OW54279   4.283   7.951  12.019
17613SOL    HW154280   4.284   8.027  11.962
17613SOL    HW254281   4.346   7.972  12.088
17614SOL     OW54282   4.028   7.628  12.415
17614SOL    HW154283   3.959   7.660  12.472
17614SOL    HW254284   4.013   7.533  12.410
17615SOL     OW54285   4.471   0.055  12.198
17615SOL    HW154286   4.558   0.053  12.159
17615SOL    HW254287   4.449   0.148  12.203
17616SOL     OW54288   4.026   7.507  11.792
17616SOL    HW154289   4.003   7.595  11.819
17616SOL    HW254290   4.036   7.458  11.874
17617SOL     OW54291   5.341   7.818  11.542
17617SOL    HW154292   5.380   7.743  11.587
17617SOL    HW254293   5.311   7.875  11.613
17618SOL     OW54294   5.205   7.747  11.311
17618SOL    HW154295   5.159   7.665  11.329
17618SOL    HW254296   5.258   7.763  11.389
17619SOL     OW54297   5.024   0.263  11.244
17619SOL    HW154298   5.015   0.169  11.258
17619SOL    HW254299   4.963   0.283  11.172
17620SOL     OW54300   4.026   7.981  12.184
17620SOL    HW154301   4.026   7.886  12.169
17620SOL    HW254302   4.107   8.011  12.143
17621SOL     OW54303   4.883   7.697   0.167
17621SOL    HW154304   4.905   7.723   0.256
17621SOL    HW254305   4.957   7.728   0.114
17622SOL     OW54306   3.765   7.966  12.271
17622SOL    HW154307   3.854   7.964  12.235
17622SOL    HW254308   3.777   7.962  12.365
17623SOL     OW54309   4.496   8.013  11.432
17623SOL    HW154310   4.544   7.933  11.410
17623SOL    HW254311   4.503   8.020  11.527
17624SOL     OW54312   5.374   8.025  12.344
17624SOL    HW154313   5.359   7.981  12.428
17624SOL    HW254314   5.458   7.991  12.313
17625SOL     OW54315   4.406   7.898  12.414
17625SOL    HW154316   4.361   7.817  12.388
17625SOL    HW254317   4.423   7.943  12.332
17626SOL     OW54318   5.454   7.604  11.676
17626SOL    HW154319   5.525   7.586  11.614
17626SOL    HW254320   5.432   7.519  11.714
17627SOL     OW54321   5.567   7.621  12.132
17627SOL    HW154322   5.591   7.532  12.106
17627SOL    HW254323   5.477   7.632  12.099
17628SOL     OW54324   3.978   7.759  11.891
17628SOL    HW154325   3.888   7.789  11.878
17628SOL    HW254326   3.985   7.744  11.985
17629SOL     OW54327   4.738   7.668  12.156
17629SOL    HW154328   4.736   7.630  12.068
17629SOL    HW254329   4.737   7.593  12.215
17630SOL     OW54330   5.456   7.825   0.029
17630SOL    HW154331   5.537   7.873   0.048
17630SOL    HW254332   5.486   7.742  -0.009
17631SOL     OW54333   3.805   7.780  11.214
17631SOL    HW154334   3.727   7.758  11.163
17631SOL    HW254335   3.838   7.861  11.174
17632SOL     OW54336   3.787   7.609  11.465
17632SOL    HW154337   3.775   7.676  11.398
17632SOL    HW254338   3.872   7.570  11.445
17633SOL     OW54339   4.940   7.756  11.639
17633SOL    HW154340   5.004   7.685  11.627
17633SOL    HW254341   4.977   7.809  11.710
17634SOL     OW54342   4.364   0.241  11.857
17634SOL    HW154343   4.401   0.327  11.835
17634SOL    HW254344   4.331   0.207  11.774
17635SOL     OW54345   5.551   7.601  12.406
17635SOL    HW154346   5.536   7.507  12.393
17635SOL    HW254347   5.559   7.636  12.317
17636SOL     OW54348   4.075   7.858  11.648
17636SOL    HW154349   4.125   7.794  11.598
17636SOL    HW254350   4.065   7.817  11.734
17637SOL     OW54351   5.158   7.681  12.303
17637SOL    HW154352   5.214   7.651  12.375
17637SOL    HW254353   5.091   7.735  12.345
17638SOL     OW54354   4.727   7.434  12.309
17638SOL    HW154355   4.684   7.384  12.240
17638SOL    HW254356   4.817   7.403  12.310
17639SOL     OW54357   5.088   7.498  11.340
17639SOL    HW154358   5.126   7.425  11.291
17639SOL    HW254359   4.999   7.470  11.360
17640SOL     OW54360   5.046   7.897  11.855
17640SOL    HW154361   5.005   7.983  11.862
17640SOL    HW254362   5.028   7.855  11.939
17641SOL     OW54363   5.302   7.651  12.067
17641SOL    HW154364   5.253   7.665  12.149
17641SOL    HW254365   5.289   7.732  12.018
17642SOL     OW54366   5.859   0.609   0.022
17642SOL    HW154367   5.819   0.653   0.097
17642SOL    HW254368   5.786   0.591  -0.037
17643SOL     OW54369   5.807   0.302   0.988
17643SOL    HW154370   5.844   0.256   1.064
17643SOL    HW254371   5.723   0.258   0.972
17644SOL     OW54372   5.597   0.401   0.627
17644SOL    HW154373   5.513   0.404   0.674
17644SOL    HW254374   5.575   0.368   0.540
17645SOL     OW54375   6.155   1.295   1.184
17645SOL    HW154376   6.069   1.296   1.142
17645SOL    HW254377   6.167   1.385   1.216
17646SOL     OW54378   7.156   1.522   0.713
17646SOL    HW154379   7.112   1.494   0.793
17646SOL    HW254380   7.087   1.523   0.646
17647SOL     OW54381   6.724   0.697   0.692
17647SOL    HW154382   6.768   0.781   0.680
17647SOL    HW254383   6.675   0.707   0.773
17648SOL     OW54384   7.315   0.627   0.268
17648SOL    HW154385   7.298   0.619   0.174
17648SOL    HW254386   7.294   0.541   0.303
17649SOL     OW54387   6.344   1.140   1.059
17649SOL    HW154388   6.272   1.175   1.113
17649SOL    HW254389   6.379   1.217   1.013
17650SOL     OW54390   6.455   0.784   1.814
17650SOL    HW154391   6.405   0.857   1.850
17650SOL    HW254392   6.495   0.818   1.734
17651SOL     OW54393   6.275   0.989   0.644
17651SOL    HW154394   6.342   0.985   0.712
17651SOL    HW254395   6.208   1.048   0.679
17652SOL     OW54396   5.917   1.417   1.070
17652SOL    HW154397   5.838   1.379   1.032
17652SOL    HW254398   5.957   1.465   0.998
17653SOL     OW54399   7.049   1.499   1.371
17653SOL    HW154400   7.097   1.582   1.381
17653SOL    HW254401   6.971   1.511   1.425
17654SOL     OW54402   6.030   0.391   1.477
17654SOL    HW154403   6.111   0.341   1.488
17654SOL    HW254404   5.960   0.328   1.493
17655SOL     OW54405   7.197   0.457   0.729
17655SOL    HW154406   7.138   0.484   0.659
17655SOL    HW254407   7.187   0.525   0.796
17656SOL     OW54408   5.799   1.725   0.461
17656SOL    HW154409   5.824   1.796   0.520
17656SOL    HW254410   5.876   1.711   0.406
17657SOL     OW54411   6.737   1.342   1.692
17657SOL    HW154412   6.765   1.342   1.784
17657SOL    HW254413   6.685   1.263   1.683
17658SOL     OW54414   5.844   1.444   0.534
17658SOL    HW154415   5.810   1.533   0.544
17658SOL    HW254416   5.789   1.390   0.591
17659SOL     OW54417   5.876   1.097   0.915
17659SOL    HW154418   5.848   1.007   0.929
17659SOL    HW254419   5.801   1.139   0.873
17660SOL     OW54420   6.193   1.786   1.431
17660SOL    HW154421   6.111   1.769   1.477
17660SOL    HW254422   6.215   1.876   1.455
17661SOL     OW54423   6.166   0.966   0.144
17661SOL    HW154424   6.230   0.988   0.077
17661SOL    HW254425   6.199   1.007   0.223
17662SOL     OW54426   7.237   0.128   1.490
17662SOL    HW154427   7.165   0.108   1.430
17662SOL    HW254428   7.194   0.150   1.573
17663SOL     OW54429   5.708   0.656   0.558
17663SOL    HW154430   5.677   0.568   0.579
17663SOL    HW254431   5.696   0.705   0.639
17664SOL     OW54432   7.432   1.739   0.323
17664SOL    HW154433   7.493   1.717   0.393
17664SOL    HW254434   7.450   1.830   0.303
17665SOL     OW54435   5.593   1.569   0.097
17665SOL    HW154436   5.517   1.513   0.113
17665SOL    HW254437   5.604   1.618   0.178
17666SOL     OW54438   7.277   0.938   0.653
17666SOL    HW154439   7.334   0.887   0.596
17666SOL    HW254440   7.234   1.000   0.594
17667SOL     OW54441   7.229   1.119   0.434
17667SOL    HW154442   7.319   1.116   0.399
17667SOL    HW254443   7.233   1.183   0.505
17668SOL     OW54444   5.703   0.752   1.579
17668SOL    HW154445   5.792   0.788   1.580
17668SOL    HW254446   5.646   0.829   1.570
17669SOL     OW54447   6.207   1.394   0.743
17669SOL    HW154448   6.166   1.307   0.751
17669SOL    HW254449   6.185   1.423   0.654
17670SOL     OW54450   6.870   1.239   1.413
17670SOL    HW154451   6.896   1.166   1.356
17670SOL    HW254452   6.920   1.225   1.494
17671SOL     OW54453   6.429   0.025   0.577
17671SOL    HW154454   6.461   0.105   0.535
17671SOL    HW254455   6.334   0.035   0.579
17672SOL     OW54456   5.771   0.958   1.286
17672SOL    HW154457   5.858   0.921   1.270
17672SOL    HW254458   5.718   0.926   1.212
17673SOL     OW54459   7.098   1.008   0.222
17673SOL    HW154460   7.029   0.951   0.255
17673SOL    HW254461   7.139   1.045   0.300
17674SOL     OW54462   6.803   1.827   1.628
17674SOL    HW154463   6.787   1.884   1.553
17674SOL    HW254464   6.800   1.738   1.592
17675SOL     OW54465   5.892   0.253   1.772
17675SOL    HW154466   5.961   0.296   1.823
17675SOL    HW254467   5.813   0.264   1.824
17676SOL     OW54468   7.058   1.416   0.947
17676SOL    HW154469   6.989   1.434   1.010
17676SOL    HW254470   7.041   1.326   0.918
17677SOL     OW54471   7.236   1.759   0.580
17677SOL    HW154472   7.219   1.724   0.492
17677SOL    HW254473   7.213   1.687   0.639
17678SOL     OW54474   6.176   0.718   0.281
17678SOL    HW154475   6.181   0.804   0.240
17678SOL    HW254476   6.111   0.728   0.350
17679SOL     OW54477   6.889   0.377   0.933
17679SOL    HW154478   6.798   0.347   0.933
17679SOL    HW254479   6.932   0.321   0.997
17680SOL     OW54480   7.164   1.678   0.317
17680SOL    HW154481   7.258   1.693   0.306
17680SOL    HW254482   7.133   1.654   0.229
17681SOL     OW54483   6.418   0.552   1.478
17681SOL    HW154484   6.363   0.571   1.554
17681SOL    HW254485   6.356   0.532   1.408
17682SOL     OW54486   6.986   0.482   1.669
17682SOL    HW154487   6.985   0.521   1.756
17682SOL    HW254488   7.034   0.400   1.679
17683SOL     OW54489   6.556   0.885   1.576
17683SOL    HW154490   6.603   0.816   1.529
17683SOL    HW254491   6.502   0.927   1.509
17684SOL     OW54492   6.576   0.411   1.239
17684SOL    HW154493   6.488   0.445   1.250
17684SOL    HW254494   6.564   0.326   1.195
17685SOL     OW54495   6.641   0.699   0.426
17685SOL    HW154496   6.658   0.691   0.520
17685SOL    HW254497   6.556   0.657   0.413
17686SOL     OW54498   5.662   0.805   0.781
17686SOL    HW154499   5.744   0.799   0.830
17686SOL    HW254500   5.618   0.882   0.816
17687SOL     OW54501   5.715   1.871   1.588
17687SOL    HW154502   5.718   1.845   1.680
17687SOL    HW254503   5.626   1.847   1.560
17688SOL     OW54504   6.470   0.359   0.205
17688SOL    HW154505   6.521   0.427   0.161
17688SOL    HW254506   6.407   0.329   0.140
17689SOL     OW54507   7.306   0.573   1.826
17689SOL    HW154508   7.265   0.647   1.781
17689SOL    HW254509   7.318   0.507   1.758
17690SOL     OW54510   6.970   1.143   0.545
17690SOL    HW154511   7.046   1.135   0.488
17690SOL    HW254512   6.912   1.203   0.499
17691SOL     OW54513   6.115   0.233   0.919
17691SOL    HW154514   6.120   0.249   1.013
17691SOL    HW254515   6.128   0.319   0.879
17692SOL     OW54516   6.609   1.449   0.491
17692SOL    HW154517   6.566   1.519   0.443
17692SOL    HW254518   6.564   1.446   0.575
17693SOL     OW54519   5.936   1.812   0.869
17693SOL    HW154520   5.977   1.726   0.875
17693SOL    HW254521   6.005   1.873   0.895
17694SOL     OW54522   7.395   1.055   0.872
17694SOL    HW154523   7.346   1.028   0.795
17694SOL    HW254524   7.330   1.062   0.942
17695SOL     OW54525   6.816   1.542   1.508
17695SOL    HW154526   6.800   1.471   1.570
17695SOL    HW254527   6.734   1.550   1.459
17696SOL     OW54528   5.902   0.989   0.255
17696SOL    HW154529   5.982   0.991   0.201
17696SOL    HW254530   5.865   0.903   0.239
17697SOL     OW54531   7.069   0.759   0.724
17697SOL    HW154532   7.061   0.714   0.808
17697SOL    HW254533   7.148   0.813   0.733
17698SOL     OW54534   6.027   1.331   1.756
17698SOL    HW154535   6.024   1.321   1.661
17698SOL    HW254536   5.944   1.296   1.787
17699SOL     OW54537   6.708   1.789   0.265
17699SOL    HW154538   6.643   1.748   0.323
17699SOL    HW254539   6.725   1.722   0.198
17700SOL     OW54540   5.775   0.248   1.513
17700SOL    HW154541   5.702   0.309   1.508
17700SOL    HW254542   5.803   0.251   1.604
17701SOL     OW54543   7.239   1.424   0.092
17701SOL    HW154544   7.175   1.494   0.077
17701SOL    HW254545   7.187   1.343   0.087
17702SOL     OW54546   6.041   1.743   0.311
17702SOL    HW154547   6.090   1.784   0.383
17702SOL    HW254548   6.105   1.687   0.268
17703SOL     OW54549   6.988   0.115   0.415
17703SOL    HW154550   6.982   0.053   0.342
17703SOL    HW254551   7.080   0.114   0.440
17704SOL     OW54552   5.846   1.790   1.227
17704SOL    HW154553   5.892   1.720   1.275
17704SOL    HW254554   5.838   1.756   1.138
17705SOL     OW54555   6.520   1.703   0.892
17705SOL    HW154556   6.585   1.644   0.929
17705SOL    HW254557   6.482   1.653   0.820
17706SOL     OW54558   5.982   0.683   0.480
17706SOL    HW154559   6.002   0.590   0.491
17706SOL    HW254560   5.890   0.691   0.505
17707SOL     OW54561   7.126   0.208   1.736
17707SOL    HW154562   7.129   0.238   1.827
17707SOL    HW254563   7.041   0.164   1.729
17708SOL     OW54564   6.204   0.104   0.087
17708SOL    HW154565   6.269   0.086   0.155
17708SOL    HW254566   6.211   0.029   0.028
17709SOL     OW54567   6.395   0.275   1.775
17709SOL    HW154568   6.392   0.181   1.758
17709SOL    HW254569   6.333   0.289   1.847
17710SOL     OW54570   6.462   1.527   1.191
17710SOL    HW154571   6.440   1.485   1.108
17710SOL    HW254572   6.526   1.469   1.232
17711SOL     OW54573   6.924   0.594   1.430
17711SOL    HW154574   6.955   0.560   1.514
17711SOL    HW254575   6.962   0.682   1.425
17712SOL     OW54576   6.408   1.390   0.950
17712SOL    HW154577   6.491   1.379   0.904
17712SOL    HW254578   6.342   1.395   0.880
17713SOL     OW54579   6.514   0.518   0.894
17713SOL    HW154580   6.488   0.506   0.802
17713SOL    HW254581   6.552   0.433   0.918
17714SOL     OW54582   6.162   0.027   0.435
17714SOL    HW154583   6.094  -0.001   0.497
17714SOL    HW254584   6.138   0.116   0.412
17715SOL     OW54585   7.055   1.229   0.061
17715SOL    HW154586   7.066   1.144   0.105
17715SOL    HW254587   6.962   1.250   0.074
17716SOL     OW54588   5.916   0.011   0.203
17716SOL    HW154589   5.976   0.085   0.194
17716SOL    HW254590   5.933  -0.024   0.290
17717SOL     OW54591   6.534   0.253   0.462
17717SOL    HW154592   6.504   0.278   0.375
17717SOL    HW254593   6.628   0.272   0.461
17718SOL     OW54594   6.664   0.681   1.439
17718SOL    HW154595   6.598   0.614   1.458
17718SOL    HW254596   6.747   0.635   1.443
17719SOL     OW54597   6.815   1.568   0.793
17719SOL    HW154598   6.819   1.633   0.723
17719SOL    HW254599   6.872   1.602   0.862
17720SOL     OW54600   6.078   1.153   0.740
17720SOL    HW154601   6.011   1.136   0.806
17720SOL    HW254602   6.033   1.138   0.657
17721SOL     OW54603   6.845   1.790   0.614
17721SOL    HW154604   6.890   1.855   0.561
17721SOL    HW254605   6.770   1.837   0.651
17722SOL     OW54606   6.606   0.558   0.079
17722SOL    HW154607   6.596   0.637   0.025
17722SOL    HW254608   6.681   0.577   0.135
17723SOL     OW54609   5.677   0.557   1.393
17723SOL    HW154610   5.768   0.559   1.365
17723SOL    HW254611   5.671   0.626   1.460
17724SOL     OW54612   6.168   0.214   1.193
17724SOL    HW154613   6.205   0.137   1.235
17724SOL    HW254614   6.075   0.212   1.216
17725SOL     OW54615   6.455   0.469   0.633
17725SOL    HW154616   6.419   0.520   0.561
17725SOL    HW254617   6.465   0.381   0.597
17726SOL     OW54618   6.620   0.031   0.769
17726SOL    HW154619   6.556   0.030   0.698
17726SOL    HW254620   6.581  -0.023   0.838
17727SOL     OW54621   7.025   1.157   0.856
17727SOL    HW154622   6.947   1.101   0.859
17727SOL    HW254623   7.044   1.166   0.762
17728SOL     OW54624   7.051   0.610   0.959
17728SOL    HW154625   6.993   0.533   0.959
17728SOL    HW254626   7.104   0.599   1.038
17729SOL     OW54627   7.413   0.822   0.435
17729SOL    HW154628   7.463   0.756   0.482
17729SOL    HW254629   7.369   0.774   0.365
17730SOL     OW54630   6.048   1.400   0.152
17730SOL    HW154631   5.969   1.378   0.202
17730SOL    HW254632   6.081   1.316   0.120
17731SOL     OW54633   7.256   1.272   0.649
17731SOL    HW154634   7.351   1.273   0.664
17731SOL    HW254635   7.228   1.362   0.669
17732SOL     OW54636   6.993   0.553   0.084
17732SOL    HW154637   6.935   0.552   0.160
17732SOL    HW254638   7.040   0.469   0.089
17733SOL     OW54639   6.092   0.256   0.298
17733SOL    HW154640   6.139   0.215   0.225
17733SOL    HW254641   6.072   0.344   0.267
17734SOL     OW54642   7.397   1.236   1.584
17734SOL    HW154643   7.373   1.203   1.671
17734SOL    HW254644   7.403   1.331   1.596
17735SOL     OW54645   6.632   1.352   1.326
17735SOL    HW154646   6.556   1.320   1.376
17735SOL    HW254647   6.708   1.315   1.371
17736SOL     OW54648   7.205   1.625   1.673
17736SOL    HW154649   7.187   1.661   1.587
17736SOL    HW254650   7.287   1.578   1.662
17737SOL     OW54651   6.729   1.218   1.100
17737SOL    HW154652   6.664   1.247   1.164
17737SOL    HW254653   6.695   1.248   1.015
17738SOL     OW54654   7.210   1.099   1.070
17738SOL    HW154655   7.197   1.162   1.142
17738SOL    HW254656   7.135   1.113   1.013
17739SOL     OW54657   6.524   0.156   1.427
17739SOL    HW154658   6.462   0.089   1.396
17739SOL    HW254659   6.610   0.121   1.404
17740SOL     OW54660   6.593   1.112   1.720
17740SOL    HW154661   6.501   1.123   1.745
17740SOL    HW254662   6.594   1.033   1.666
17741SOL     OW54663   6.291   1.056   0.370
17741SOL    HW154664   6.275   1.035   0.462
17741SOL    HW254665   6.372   1.009   0.349
17742SOL     OW54666   6.010   0.821   1.253
17742SOL    HW154667   6.078   0.828   1.320
17742SOL    HW254668   5.973   0.734   1.264
17743SOL     OW54669   6.848   0.391   1.268
17743SOL    HW154670   6.879   0.468   1.315
17743SOL    HW254671   6.757   0.410   1.248
17744SOL     OW54672   5.660   1.570   1.361
17744SOL    HW154673   5.633   1.641   1.304
17744SOL    HW254674   5.755   1.567   1.354
17745SOL     OW54675   5.963   1.115   0.498
17745SOL    HW154676   5.890   1.176   0.497
17745SOL    HW254677   5.952   1.063   0.418
17746SOL     OW54678   6.142   0.518   0.854
17746SOL    HW154679   6.150   0.579   0.781
17746SOL    HW254680   6.206   0.550   0.919
17747SOL     OW54681   6.840   1.345   0.401
17747SOL    HW154682   6.896   1.416   0.432
17747SOL    HW254683   6.753   1.367   0.434
17748SOL     OW54684   6.878   1.461   1.147
17748SOL    HW154685   6.924   1.459   1.231
17748SOL    HW254686   6.819   1.386   1.150
17749SOL     OW54687   7.136   0.611   0.496
17749SOL    HW154688   7.094   0.669   0.559
17749SOL    HW254689   7.160   0.668   0.423
17750SOL     OW54690   5.930   1.529   1.311
17750SOL    HW154691   5.920   1.485   1.226
17750SOL    HW254692   6.025   1.541   1.320
17751SOL     OW54693   5.997   0.748   1.605
17751SOL    HW154694   6.061   0.791   1.548
17751SOL    HW254695   6.036   0.664   1.627
17752SOL     OW54696   7.208   0.787   1.686
17752SOL    HW154697   7.118   0.821   1.684
17752SOL    HW254698   7.240   0.799   1.597
17753SOL     OW54699   6.643   0.054   1.736
17753SOL    HW154700   6.672   0.136   1.776
17753SOL    HW254701   6.548   0.056   1.742
17754SOL     OW54702   6.100   0.063   1.706
17754SOL    HW154703   6.067  -0.006   1.648
17754SOL    HW254704   6.021   0.101   1.743
17755SOL     OW54705   6.171   0.871   1.033
17755SOL    HW154706   6.187   0.965   1.024
17755SOL    HW254707   6.111   0.863   1.107
17756SOL     OW54708   6.927   0.854   1.022
17756SOL    HW154709   6.839   0.841   0.986
17756SOL    HW254710   6.972   0.771   1.008
17757SOL     OW54711   6.803   0.534   0.280
17757SOL    HW154712   6.812   0.456   0.335
17757SOL    HW254713   6.752   0.596   0.333
17758SOL     OW54714   5.896   0.199   1.237
17758SOL    HW154715   5.838   0.213   1.312
17758SOL    HW254716   5.875   0.111   1.207
17759SOL     OW54717   5.600   1.310   1.289
17759SOL    HW154718   5.648   1.254   1.350
17759SOL    HW254719   5.624   1.399   1.316
17760SOL     OW54720   6.302   0.627   1.049
17760SOL    HW154721   6.381   0.617   0.995
17760SOL    HW254722   6.273   0.716   1.033
17761SOL     OW54723   7.321   0.980   1.847
17761SOL    HW154724   7.283   0.906   1.800
17761SOL    HW254725   7.264   0.992   1.923
17762SOL     OW54726   5.997   0.082   0.668
17762SOL    HW154727   5.938   0.155   0.687
17762SOL    HW254728   5.941   0.005   0.674
17763SOL     OW54729   7.228   0.382   0.373
17763SOL    HW154730   7.223   0.301   0.424
17763SOL    HW254731   7.184   0.447   0.428
17764SOL     OW54732   6.622   0.759   0.950
17764SOL    HW154733   6.612   0.775   1.044
17764SOL    HW254734   6.589   0.670   0.937
17765SOL     OW54735   6.589   1.580   1.713
17765SOL    HW154736   6.560   1.618   1.630
17765SOL    HW254737   6.612   1.490   1.692
17766SOL     OW54738   7.446   1.502   1.599
17766SOL    HW154739   7.459   1.537   1.511
17766SOL    HW254740   7.527   1.524   1.645
17767SOL     OW54741   5.951   0.936   1.803
17767SOL    HW154742   6.035   0.981   1.800
17767SOL    HW254743   5.962   0.861   1.745
17768SOL     OW54744   7.092   0.285   0.149
17768SOL    HW154745   7.134   0.199   0.150
17768SOL    HW254746   7.136   0.334   0.219
17769SOL     OW54747   6.892   0.813   0.050
17769SOL    HW154748   6.941   0.731   0.041
17769SOL    HW254749   6.933   0.872  -0.014
17770SOL     OW54750   6.658   1.344   0.857
17770SOL    HW154751   6.663   1.270   0.795
17770SOL    HW254752   6.716   1.410   0.820
17771SOL     OW54753   5.890   0.804   0.937
17771SOL    HW154754   5.982   0.829   0.929
17771SOL    HW254755   5.892   0.716   0.976
17772SOL     OW54756   5.927   0.536   1.016
17772SOL    HW154757   5.883   0.452   1.001
17772SOL    HW254758   6.002   0.535   0.956
17773SOL     OW54759   6.673   0.414   1.646
17773SOL    HW154760   6.638   0.455   1.726
17773SOL    HW254761   6.768   0.418   1.657
17774SOL     OW54762   6.804   0.217   1.472
17774SOL    HW154763   6.753   0.264   1.539
17774SOL    HW254764   6.814   0.281   1.401
17775SOL     OW54765   5.669   1.782   0.941
17775SOL    HW154766   5.640   1.700   0.903
17775SOL    HW254767   5.759   1.793   0.909
17776SOL     OW54768   6.073   1.576   0.902
17776SOL    HW154769   6.143   1.638   0.926
17776SOL    HW254770   6.117   1.511   0.848
17777SOL     OW54771   6.567   0.790   1.210
17777SOL    HW154772   6.618   0.757   1.284
17777SOL    HW254773   6.477   0.790   1.240
17778SOL     OW54774   5.622   0.555   1.116
17778SOL    HW154775   5.701   0.535   1.066
17778SOL    HW254776   5.649   0.547   1.207
17779SOL     OW54777   5.766   0.538   1.738
17779SOL    HW154778   5.839   0.508   1.685
17779SOL    HW254779   5.729   0.611   1.689
17780SOL     OW54780   6.973   0.923   1.657
17780SOL    HW154781   6.985   1.018   1.654
17780SOL    HW254782   6.961   0.898   1.566
17781SOL     OW54783   6.401   0.577   0.375
17781SOL    HW154784   6.406   0.501   0.318
17781SOL    HW254785   6.325   0.626   0.343
17782SOL     OW54786   7.223   0.608   1.174
17782SOL    HW154787   7.214   0.549   1.249
17782SOL    HW254788   7.311   0.591   1.140
17783SOL     OW54789   5.812   1.551   1.713
17783SOL    HW154790   5.801   1.619   1.780
17783SOL    HW254791   5.838   1.473   1.762
17784SOL     OW54792   6.294   0.456   1.260
17784SOL    HW154793   6.245   0.377   1.237
17784SOL    HW254794   6.284   0.514   1.184
17785SOL     OW54795   6.530   1.677   1.457
17785SOL    HW154796   6.489   1.635   1.381
17785SOL    HW254797   6.509   1.770   1.448
17786SOL     OW54798   6.051   0.492   0.187
17786SOL    HW154799   6.100   0.570   0.213
17786SOL    HW254800   5.985   0.525   0.125
17787SOL     OW54801   5.724   1.145   1.476
17787SOL    HW154802   5.729   1.101   1.561
17787SOL    HW254803   5.741   1.075   1.412
17788SOL     OW54804   6.908   1.044   1.216
17788SOL    HW154805   6.922   0.977   1.148
17788SOL    HW254806   6.843   1.103   1.177
17789SOL     OW54807   6.895   0.849   0.323
17789SOL    HW154808   6.816   0.817   0.369
17789SOL    HW254809   6.880   0.825   0.231
17790SOL     OW54810   7.365   1.733   1.159
17790SOL    HW154811   7.425   1.758   1.089
17790SOL    HW254812   7.335   1.646   1.134
17791SOL     OW54813   6.827   1.732   1.105
17791SOL    HW154814   6.910   1.754   1.063
17791SOL    HW254815   6.835   1.640   1.127
17792SOL     OW54816   5.660   1.321   1.020
17792SOL    HW154817   5.638   1.297   1.110
17792SOL    HW254818   5.631   1.247   0.967
17793SOL     OW54819   6.254   1.672   1.748
17793SOL    HW154820   6.198   1.749   1.750
17793SOL    HW254821   6.319   1.691   1.680
17794SOL     OW54822   6.540   0.061   0.055
17794SOL    HW154823   6.613   0.117   0.081
17794SOL    HW254824   6.479   0.065   0.128
17795SOL     OW54825   7.256   0.111   0.497
17795SOL    HW154826   7.351   0.113   0.502
17795SOL    HW254827   7.228   0.075   0.581
17796SOL     OW54828   6.983   1.568   0.498
17796SOL    HW154829   7.037   1.606   0.429
17796SOL    HW254830   6.925   1.639   0.524
17797SOL     OW54831   5.730   1.787   1.846
17797SOL    HW154832   5.673   1.728   1.895
17797SOL    HW254833   5.777   1.837   1.913
17798SOL     OW54834   6.862   0.929   0.671
17798SOL    HW154835   6.937   0.870   0.683
17798SOL    HW254836   6.897   1.000   0.617
17799SOL     OW54837   6.386   1.276   1.423
17799SOL    HW154838   6.365   1.312   1.509
17799SOL    HW254839   6.308   1.291   1.371
17800SOL     OW54840   6.247   1.594   0.173
17800SOL    HW154841   6.321   1.547   0.133
17800SOL    HW254842   6.175   1.530   0.173
17801SOL     OW54843   7.208   1.727   1.400
17801SOL    HW154844   7.257   1.731   1.318
17801SOL    HW254845   7.192   1.818   1.424
17802SOL     OW54846   7.435   0.170   0.960
17802SOL    HW154847   7.435   0.075   0.971
17802SOL    HW254848   7.350   0.189   0.920
17803SOL     OW54849   5.836   0.299   0.712
17803SOL    HW154850   5.754   0.342   0.687
17803SOL    HW254851   5.840   0.307   0.807
17804SOL     OW54852   6.801   1.604   0.073
17804SOL    HW154853   6.794   1.511   0.096
17804SOL    HW254854   6.715   1.627   0.039
17805SOL     OW54855   6.414   1.008   1.371
17805SOL    HW154856   6.432   1.021   1.278
17805SOL    HW254857   6.404   1.096   1.406
17806SOL     OW54858   6.515   0.922   0.303
17806SOL    HW154859   6.567   0.942   0.226
17806SOL    HW254860   6.560   0.848   0.344
17807SOL     OW54861   7.068   1.639   0.042
17807SOL    HW154862   6.974   1.626   0.056
17807SOL    HW254863   7.081   1.624  -0.052
17808SOL     OW54864   5.953   1.309   1.495
17808SOL    HW154865   5.940   1.381   1.434
17808SOL    HW254866   5.879   1.250   1.479
17809SOL     OW54867   7.203   1.293   1.277
17809SOL    HW154868   7.259   1.274   1.352
17809SOL    HW254869   7.137   1.353   1.312
17810SOL     OW54870   6.653   1.113   0.718
17810SOL    HW154871   6.577   1.065   0.751
17810SOL    HW254872   6.712   1.044   0.688
17811SOL     OW54873   6.638   0.264   0.934
17811SOL    HW154874   6.628   0.207   0.858
17811SOL    HW254875   6.633   0.205   1.009
17812SOL     OW54876   6.180   1.499   0.492
17812SOL    HW154877   6.233   1.442   0.436
17812SOL    HW254878   6.091   1.486   0.461
17813SOL     OW54879   7.306   0.429   1.374
17813SOL    HW154880   7.387   0.479   1.381
17813SOL    HW254881   7.331   0.350   1.326
17814SOL     OW54882   5.822   1.332   0.289
17814SOL    HW154883   5.746   1.274   0.299
17814SOL    HW254884   5.830   1.375   0.375
17815SOL     OW54885   5.703   1.046   1.734
17815SOL    HW154886   5.625   1.013   1.779
17815SOL    HW254887   5.776   0.996   1.771
17816SOL     OW54888   6.244   0.219   1.520
17816SOL    HW154889   6.263   0.149   1.458
17816SOL    HW254890   6.201   0.175   1.593
17817SOL     OW54891   7.014   0.860   1.394
17817SOL    HW154892   6.957   0.916   1.343
17817SOL    HW254893   7.095   0.855   1.344
17818SOL     OW54894   5.692   0.236   0.263
17818SOL    HW154895   5.609   0.188   0.260
17818SOL    HW254896   5.746   0.187   0.325
17819SOL     OW54897   6.798   1.334   0.118
17819SOL    HW154898   6.706   1.328   0.093
17819SOL    HW254899   6.798   1.321   0.213
17820SOL     OW54900   6.208   0.827   1.441
17820SOL    HW154901   6.252   0.911   1.434
17820SOL    HW254902   6.277   0.767   1.471
17821SOL     OW54903   7.068   1.786   0.982
17821SOL    HW154904   7.087   1.853   0.915
17821SOL    HW254905   7.154   1.763   1.017
17822SOL     OW54906   6.305   0.575   1.717
17822SOL    HW154907   6.346   0.651   1.759
17822SOL    HW254908   6.306   0.507   1.784
17823SOL     OW54909   7.056   1.191   1.633
17823SOL    HW154910   7.030   1.198   1.725
17823SOL    HW254911   7.120   1.260   1.620
17824SOL     OW54912   5.956   1.739   1.559
17824SOL    HW154913   5.873   1.787   1.549
17824SOL    HW254914   5.931   1.655   1.597
17825SOL     OW54915   7.244   0.875   1.244
17825SOL    HW154916   7.240   0.788   1.204
17825SOL    HW254917   7.231   0.935   1.170
17826SOL     OW54918   6.806   0.317   0.446
17826SOL    HW154919   6.867   0.243   0.439
17826SOL    HW254920   6.832   0.362   0.527
17827SOL     OW54921   6.169   0.731   0.678
17827SOL    HW154922   6.211   0.816   0.663
17827SOL    HW254923   6.105   0.723   0.607
17828SOL     OW54924   7.335   0.378   1.641
17828SOL    HW154925   7.313   0.392   1.548
17828SOL    HW254926   7.277   0.307   1.668
17829SOL     OW54927   7.338   0.963   1.478
17829SOL    HW154928   7.263   1.012   1.510
17829SOL    HW254929   7.309   0.926   1.395
17830SOL     OW54930   6.247   1.784   0.934
17830SOL    HW154931   6.231   1.877   0.918
17830SOL    HW254932   6.342   1.775   0.927
17831SOL     OW54933   6.457   0.976   0.856
17831SOL    HW154934   6.506   0.901   0.891
17831SOL    HW254935   6.418   1.017   0.933
17832SOL     OW54936   6.675   0.976   0.085
17832SOL    HW154937   6.689   1.064   0.049
17832SOL    HW254938   6.760   0.932   0.073
17833SOL     OW54939   7.427   1.558   0.845
17833SOL    HW154940   7.354   1.549   0.785
17833SOL    HW254941   7.407   1.498   0.917
17834SOL     OW54942   5.778   1.285   1.851
17834SOL    HW154943   5.749   1.206   1.806
17834SOL    HW254944   5.713   1.299   1.920
17835SOL     OW54945   6.296   1.401   1.649
17835SOL    HW154946   6.246   1.332   1.692
17835SOL    HW254947   6.260   1.482   1.682
17836SOL     OW54948   7.415   0.223   1.236
17836SOL    HW154949   7.345   0.158   1.245
17836SOL    HW254950   7.435   0.222   1.142
17837SOL     OW54951   6.022   0.418   0.534
17837SOL    HW154952   6.032   0.356   0.461
17837SOL    HW254953   5.959   0.376   0.592
17838SOL     OW54954   7.281   1.482   1.089
17838SOL    HW154955   7.205   1.470   1.032
17838SOL    HW254956   7.269   1.418   1.159
17839SOL     OW54957   5.927   0.564   1.293
17839SOL    HW154958   5.975   0.502   1.347
17839SOL    HW254959   5.942   0.535   1.203
17840SOL     OW54960   6.417   1.571   0.678
17840SOL    HW154961   6.400   1.613   0.593
17840SOL    HW254962   6.342   1.514   0.692
17841SOL     OW54963   7.020   0.229   1.121
17841SOL    HW154964   7.077   0.174   1.174
17841SOL    HW254965   6.965   0.275   1.184
17842SOL     OW54966   6.596   0.079   1.127
17842SOL    HW154967   6.509   0.076   1.088
17842SOL    HW254968   6.605  -0.004   1.173
17843SOL     OW54969   6.335   1.329   0.349
17843SOL    HW154970   6.310   1.237   0.355
17843SOL    HW254971   6.421   1.329   0.307
17844SOL     OW54972   6.205   1.555   1.285
17844SOL    HW154973   6.205   1.636   1.336
17844SOL    HW254974   6.292   1.550   1.248
17845SOL     OW54975   6.918  -0.007   0.132
17845SOL    HW154976   7.005   0.032   0.125
17845SOL    HW254977   6.859   0.067   0.144
17846SOL     OW54978   6.878   0.461   0.669
17846SOL    HW154979   6.825   0.541   0.675
17846SOL    HW254980   6.884   0.430   0.759
17847SOL     OW54981   7.192   0.220   0.862
17847SOL    HW154982   7.114   0.214   0.918
17847SOL    HW254983   7.180   0.301   0.813
17848SOL     OW54984   5.644   1.085   0.319
17848SOL    HW154985   5.733   1.066   0.288
17848SOL    HW254986   5.620   1.007   0.370
17849SOL     OW54987   6.476   1.663   0.378
17849SOL    HW154988   6.401   1.638   0.323
17849SOL    HW254989   6.446   1.741   0.424
17850SOL     OW54990   5.795   0.633   1.999
17850SOL    HW154991   5.709   0.618   2.040
17850SOL    HW254992   5.783   0.606   1.908
17851SOL     OW54993   5.813   0.298   2.842
17851SOL    HW154994   5.846   0.258   2.923
17851SOL    HW254995   5.729   0.255   2.827
17852SOL     OW54996   5.582   0.400   2.490
17852SOL    HW154997   5.500   0.428   2.532
17852SOL    HW254998   5.558   0.323   2.438
17853SOL     OW54999   6.153   1.297   3.043
17853SOL    HW155000   6.067   1.309   3.002
17853SOL    HW255001   6.174   1.383   3.080
17854SOL     OW55002   7.151   1.512   2.598
17854SOL    HW155003   7.129   1.483   2.687
17854SOL    HW255004   7.067   1.532   2.558
17855SOL     OW55005   6.717   0.702   2.551
17855SOL    HW155006   6.761   0.787   2.542
17855SOL    HW255007   6.668   0.708   2.633
17856SOL     OW55008   7.383   0.603   2.082
17856SOL    HW155009   7.351   0.593   1.992
17856SOL    HW255010   7.340   0.533   2.131
17857SOL     OW55011   6.321   1.133   2.904
17857SOL    HW155012   6.257   1.173   2.964
17857SOL    HW255013   6.366   1.208   2.865
17858SOL     OW55014   6.465   0.763   3.686
17858SOL    HW155015   6.492   0.828   3.750
17858SOL    HW255016   6.481   0.805   3.601
17859SOL     OW55017   6.276   0.998   2.521
17859SOL    HW155018   6.347   0.982   2.584
17859SOL    HW255019   6.221   1.064   2.564
17860SOL     OW55020   6.294   1.153   3.674
17860SOL    HW155021   6.339   1.231   3.707
17860SOL    HW255022   6.213   1.187   3.635
17861SOL     OW55023   5.922   1.411   2.928
17861SOL    HW155024   5.843   1.378   2.885
17861SOL    HW255025   5.961   1.469   2.863
17862SOL     OW55026   7.047   1.507   3.221
17862SOL    HW155027   7.102   1.584   3.238
17862SOL    HW255028   6.976   1.514   3.284
17863SOL     OW55029   6.025   0.389   3.340
17863SOL    HW155030   6.103   0.335   3.350
17863SOL    HW255031   5.952   0.329   3.353
17864SOL     OW55032   7.200   0.460   2.592
17864SOL    HW155033   7.114   0.464   2.552
17864SOL    HW255034   7.199   0.530   2.658
17865SOL     OW55035   5.817   1.707   2.330
17865SOL    HW155036   5.831   1.781   2.389
17865SOL    HW255037   5.896   1.704   2.276
17866SOL     OW55038   6.733   1.344   3.545
17866SOL    HW155039   6.807   1.315   3.598
17866SOL    HW255040   6.672   1.269   3.546
17867SOL     OW55041   5.797   1.442   2.407
17867SOL    HW155042   5.804   1.536   2.392
17867SOL    HW255043   5.734   1.434   2.478
17868SOL     OW55044   5.852   1.094   2.753
17868SOL    HW155045   5.848   1.007   2.793
17868SOL    HW255046   5.792   1.148   2.805
17869SOL     OW55047   6.199   1.763   3.301
17869SOL    HW155048   6.112   1.761   3.341
17869SOL    HW255049   6.232   1.851   3.321
17870SOL     OW55050   6.156   0.989   2.036
17870SOL    HW155051   6.196   1.010   1.951
17870SOL    HW255052   6.227   0.996   2.099
17871SOL     OW55053   7.228   0.140   3.337
17871SOL    HW155054   7.150   0.105   3.293
17871SOL    HW255055   7.199   0.158   3.426
17872SOL     OW55056   5.709   0.655   2.423
17872SOL    HW155057   5.675   0.567   2.440
17872SOL    HW255058   5.699   0.702   2.506
17873SOL     OW55059   7.370   1.760   2.168
17873SOL    HW155060   7.390   1.731   2.257
17873SOL    HW255061   7.420   1.841   2.157
17874SOL     OW55062   5.599   1.593   1.983
17874SOL    HW155063   5.602   1.502   2.014
17874SOL    HW255064   5.590   1.645   2.063
17875SOL     OW55065   7.293   0.938   2.501
17875SOL    HW155066   7.342   0.867   2.461
17875SOL    HW255067   7.251   0.983   2.428
17876SOL     OW55068   7.233   1.110   2.284
17876SOL    HW155069   7.320   1.104   2.246
17876SOL    HW255070   7.241   1.179   2.350
17877SOL     OW55071   5.697   0.753   3.436
17877SOL    HW155072   5.767   0.812   3.462
17877SOL    HW255073   5.621   0.810   3.422
17878SOL     OW55074   6.200   1.392   2.594
17878SOL    HW155075   6.153   1.309   2.603
17878SOL    HW255076   6.179   1.422   2.505
17879SOL     OW55077   6.867   1.237   3.256
17879SOL    HW155078   6.899   1.165   3.202
17879SOL    HW255079   6.931   1.242   3.328
17880SOL     OW55080   6.423   0.026   2.426
17880SOL    HW155081   6.459   0.106   2.389
17880SOL    HW255082   6.330   0.030   2.405
17881SOL     OW55083   5.774   0.959   3.149
17881SOL    HW155084   5.860   0.922   3.129
17881SOL    HW255085   5.714   0.915   3.089
17882SOL     OW55086   7.121   1.000   2.057
17882SOL    HW155087   7.051   0.942   2.087
17882SOL    HW255088   7.158   1.036   2.138
17883SOL     OW55089   6.766   1.820   3.491
17883SOL    HW155090   6.771   1.887   3.423
17883SOL    HW255091   6.794   1.739   3.447
17884SOL     OW55092   5.897   0.255   3.642
17884SOL    HW155093   5.963   0.302   3.692
17884SOL    HW255094   5.816   0.266   3.693
17885SOL     OW55095   7.064   1.402   2.830
17885SOL    HW155096   6.994   1.423   2.891
17885SOL    HW255097   7.040   1.316   2.795
17886SOL     OW55098   7.234   1.736   2.419
17886SOL    HW155099   7.140   1.727   2.407
17886SOL    HW255100   7.254   1.681   2.496
17887SOL     OW55101   6.173   0.715   2.138
17887SOL    HW155102   6.166   0.800   2.093
17887SOL    HW255103   6.109   0.719   2.208
17888SOL     OW55104   6.881   0.365   2.799
17888SOL    HW155105   6.790   0.336   2.797
17888SOL    HW255106   6.922   0.310   2.865
17889SOL     OW55107   6.379   0.630   3.317
17889SOL    HW155108   6.350   0.601   3.403
17889SOL    HW255109   6.348   0.562   3.257
17890SOL     OW55110   7.000   0.480   3.546
17890SOL    HW155111   6.998   0.525   3.631
17890SOL    HW255112   7.068   0.414   3.556
17891SOL     OW55113   6.533   0.887   3.448
17891SOL    HW155114   6.592   0.824   3.407
17891SOL    HW255115   6.485   0.926   3.375
17892SOL     OW55116   6.577   0.404   3.096
17892SOL    HW155117   6.488   0.435   3.108
17892SOL    HW255118   6.576   0.360   3.011
17893SOL     OW55119   6.639   0.701   2.283
17893SOL    HW155120   6.658   0.693   2.377
17893SOL    HW255121   6.555   0.656   2.272
17894SOL     OW55122   5.680   0.830   2.634
17894SOL    HW155123   5.758   0.817   2.689
17894SOL    HW255124   5.633   0.902   2.676
17895SOL     OW55125   5.691   1.825   3.431
17895SOL    HW155126   5.697   1.820   3.526
17895SOL    HW255127   5.673   1.917   3.413
17896SOL     OW55128   6.464   0.353   2.074
17896SOL    HW155129   6.520   0.384   2.003
17896SOL    HW255130   6.452   0.259   2.056
17897SOL     OW55131   7.302   0.565   3.685
17897SOL    HW155132   7.260   0.641   3.643
17897SOL    HW255133   7.326   0.507   3.613
17898SOL     OW55134   6.971   1.146   2.406
17898SOL    HW155135   7.048   1.133   2.351
17898SOL    HW255136   6.907   1.188   2.347
17899SOL     OW55137   6.150   0.198   2.800
17899SOL    HW155138   6.126   0.269   2.860
17899SOL    HW255139   6.169   0.242   2.717
17900SOL     OW55140   6.587   1.457   2.325
17900SOL    HW155141   6.555   1.529   2.272
17900SOL    HW255142   6.549   1.472   2.412
17901SOL     OW55143   5.934   1.817   2.737
17901SOL    HW155144   5.986   1.736   2.744
17901SOL    HW255145   5.998   1.887   2.750
17902SOL     OW55146   7.391   1.063   2.723
17902SOL    HW155147   7.339   1.029   2.651
17902SOL    HW255148   7.330   1.071   2.796
17903SOL     OW55149   6.809   1.546   3.365
17903SOL    HW155150   6.798   1.474   3.426
17903SOL    HW255151   6.720   1.568   3.337
17904SOL     OW55152   5.885   0.967   2.102
17904SOL    HW155153   5.948   0.953   2.031
17904SOL    HW255154   5.846   0.881   2.116
17905SOL     OW55155   7.064   0.758   2.572
17905SOL    HW155156   7.034   0.692   2.634
17905SOL    HW255157   7.135   0.803   2.617
17906SOL     OW55158   6.047   1.258   3.602
17906SOL    HW155159   6.022   1.266   3.510
17906SOL    HW255160   5.964   1.263   3.649
17907SOL     OW55161   6.730   1.749   2.112
17907SOL    HW155162   6.642   1.733   2.148
17907SOL    HW255163   6.733   1.697   2.032
17908SOL     OW55164   5.776   0.253   3.377
17908SOL    HW155165   5.701   0.311   3.372
17908SOL    HW255166   5.796   0.247   3.470
17909SOL     OW55167   7.215   1.377   1.947
17909SOL    HW155168   7.174   1.463   1.939
17909SOL    HW255169   7.143   1.315   1.934
17910SOL     OW55170   6.058   1.724   2.188
17910SOL    HW155171   6.095   1.791   2.246
17910SOL    HW255172   6.127   1.707   2.124
17911SOL     OW55173   7.046   0.043   2.280
17911SOL    HW155174   6.964   0.086   2.255
17911SOL    HW255175   7.105   0.115   2.304
17912SOL     OW55176   5.832   1.788   3.094
17912SOL    HW155177   5.896   1.738   3.144
17912SOL    HW255178   5.854   1.771   3.002
17913SOL     OW55179   6.525   1.702   2.752
17913SOL    HW155180   6.573   1.645   2.813
17913SOL    HW255181   6.492   1.642   2.685
17914SOL     OW55182   5.982   0.692   2.338
17914SOL    HW155183   6.006   0.600   2.355
17914SOL    HW255184   5.888   0.696   2.357
17915SOL     OW55185   7.140   0.208   3.592
17915SOL    HW155186   7.139   0.239   3.683
17915SOL    HW255187   7.056   0.164   3.581
17916SOL     OW55188   6.211   0.173   1.952
17916SOL    HW155189   6.272   0.119   2.002
17916SOL    HW255190   6.138   0.114   1.931
17917SOL     OW55191   6.305   0.286   3.628
17917SOL    HW155192   6.400   0.283   3.640
17917SOL    HW255193   6.269   0.247   3.707
17918SOL     OW55194   6.464   1.519   3.040
17918SOL    HW155195   6.441   1.470   2.961
17918SOL    HW255196   6.530   1.465   3.083
17919SOL     OW55197   6.935   0.592   3.298
17919SOL    HW155198   6.970   0.569   3.384
17919SOL    HW255199   6.963   0.682   3.284
17920SOL     OW55200   6.410   1.379   2.803
17920SOL    HW155201   6.495   1.372   2.759
17920SOL    HW255202   6.348   1.393   2.732
17921SOL     OW55203   6.513   0.522   2.755
17921SOL    HW155204   6.486   0.514   2.663
17921SOL    HW255205   6.546   0.436   2.778
17922SOL     OW55206   6.170   0.037   2.297
17922SOL    HW155207   6.099  -0.012   2.337
17922SOL    HW255208   6.131   0.121   2.274
17923SOL     OW55209   7.007   1.202   1.900
17923SOL    HW155210   7.031   1.126   1.953
17923SOL    HW255211   6.922   1.229   1.933
17924SOL     OW55212   5.956   0.039   2.034
17924SOL    HW155213   5.893   0.107   2.057
17924SOL    HW255214   5.940  -0.032   2.096
17925SOL     OW55215   6.543   0.255   2.325
17925SOL    HW155216   6.503   0.294   2.247
17925SOL    HW255217   6.633   0.236   2.298
17926SOL     OW55218   6.671   0.690   3.315
17926SOL    HW155219   6.604   0.625   3.336
17926SOL    HW255220   6.754   0.642   3.323
17927SOL     OW55221   6.851   1.555   2.631
17927SOL    HW155222   6.837   1.635   2.580
17927SOL    HW255223   6.861   1.585   2.721
17928SOL     OW55224   6.054   1.149   2.588
17928SOL    HW155225   5.989   1.154   2.658
17928SOL    HW255226   6.033   1.068   2.542
17929SOL     OW55227   6.853   1.788   2.474
17929SOL    HW155228   6.902   1.862   2.438
17929SOL    HW255229   6.776   1.829   2.513
17930SOL     OW55230   6.604   0.546   1.879
17930SOL    HW155231   6.561   0.631   1.872
17930SOL    HW255232   6.662   0.555   1.955
17931SOL     OW55233   5.686   0.551   3.253
17931SOL    HW155234   5.777   0.557   3.224
17931SOL    HW255235   5.676   0.623   3.316
17932SOL     OW55236   6.148   0.248   3.085
17932SOL    HW155237   6.180   0.200   3.161
17932SOL    HW255238   6.053   0.235   3.087
17933SOL     OW55239   6.459   0.474   2.493
17933SOL    HW155240   6.419   0.520   2.419
17933SOL    HW255241   6.477   0.386   2.460
17934SOL     OW55242   6.565   0.032   2.655
17934SOL    HW155243   6.514   0.037   2.574
17934SOL    HW255244   6.581  -0.061   2.668
17935SOL     OW55245   7.018   1.154   2.716
17935SOL    HW155246   6.953   1.087   2.738
17935SOL    HW255247   7.015   1.160   2.620
17936SOL     OW55248   7.047   0.610   2.817
17936SOL    HW155249   6.991   0.532   2.822
17936SOL    HW255250   7.101   0.606   2.896
17937SOL     OW55251   7.435   0.812   2.251
17937SOL    HW155252   7.488   0.760   2.311
17937SOL    HW255253   7.405   0.749   2.185
17938SOL     OW55254   6.082   1.374   2.018
17938SOL    HW155255   5.993   1.400   2.043
17938SOL    HW255256   6.078   1.364   1.923
17939SOL     OW55257   7.271   1.291   2.476
17939SOL    HW155258   7.358   1.289   2.515
17939SOL    HW255259   7.227   1.363   2.521
17940SOL     OW55260   6.980   0.560   1.930
17940SOL    HW155261   6.909   0.553   1.994
17940SOL    HW255262   7.058   0.529   1.976
17941SOL     OW55263   6.099   0.285   2.174
17941SOL    HW155264   6.140   0.236   2.103
17941SOL    HW255265   6.067   0.365   2.132
17942SOL     OW55266   7.344   1.241   3.409
17942SOL    HW155267   7.432   1.204   3.407
17942SOL    HW255268   7.355   1.328   3.446
17943SOL     OW55269   6.633   1.339   3.169
17943SOL    HW155270   6.559   1.319   3.226
17943SOL    HW255271   6.710   1.311   3.220
17944SOL     OW55272   7.196   1.629   3.522
17944SOL    HW155273   7.193   1.664   3.433
17944SOL    HW255274   7.276   1.575   3.524
17945SOL     OW55275   6.711   1.189   2.952
17945SOL    HW155276   6.670   1.235   3.025
17945SOL    HW255277   6.690   1.242   2.875
17946SOL     OW55278   7.219   1.106   2.936
17946SOL    HW155279   7.215   1.168   3.009
17946SOL    HW255280   7.137   1.120   2.889
17947SOL     OW55281   6.498   0.093   3.241
17947SOL    HW155282   6.538   0.103   3.155
17947SOL    HW255283   6.562   0.128   3.303
17948SOL     OW55284   6.561   1.130   3.573
17948SOL    HW155285   6.470   1.141   3.602
17948SOL    HW255286   6.562   1.045   3.529
17949SOL     OW55287   6.290   1.061   2.258
17949SOL    HW155288   6.283   1.039   2.351
17949SOL    HW255289   6.368   1.014   2.228
17950SOL     OW55290   6.013   0.825   3.113
17950SOL    HW155291   6.076   0.837   3.185
17950SOL    HW255292   5.980   0.736   3.124
17951SOL     OW55293   6.848   0.383   3.146
17951SOL    HW155294   6.880   0.460   3.192
17951SOL    HW255295   6.758   0.405   3.122
17952SOL     OW55296   5.666   1.569   3.214
17952SOL    HW155297   5.641   1.654   3.178
17952SOL    HW255298   5.761   1.567   3.211
17953SOL     OW55299   6.136   0.530   2.723
17953SOL    HW155300   6.149   0.587   2.648
17953SOL    HW255301   6.205   0.556   2.785
17954SOL     OW55302   6.833   1.365   2.261
17954SOL    HW155303   6.881   1.389   2.341
17954SOL    HW255304   6.742   1.385   2.282
17955SOL     OW55305   6.874   1.458   3.019
17955SOL    HW155306   6.935   1.471   3.092
17955SOL    HW255307   6.803   1.407   3.057
17956SOL     OW55308   7.161   0.641   2.335
17956SOL    HW155309   7.117   0.668   2.415
17956SOL    HW255310   7.151   0.716   2.276
17957SOL     OW55311   5.936   1.517   3.176
17957SOL    HW155312   5.924   1.477   3.089
17957SOL    HW255313   6.029   1.534   3.181
17958SOL     OW55314   6.032   0.763   3.518
17958SOL    HW155315   6.078   0.809   3.448
17958SOL    HW255316   6.048   0.670   3.500
17959SOL     OW55317   7.189   0.754   3.521
17959SOL    HW155318   7.108   0.804   3.533
17959SOL    HW255319   7.245   0.811   3.469
17960SOL     OW55320   6.627   0.063   3.614
17960SOL    HW155321   6.673   0.146   3.626
17960SOL    HW255322   6.554   0.083   3.557
17961SOL     OW55323   6.064   0.019   3.600
17961SOL    HW155324   6.106   0.064   3.527
17961SOL    HW255325   5.983   0.068   3.616
17962SOL     OW55326   6.171   0.880   2.893
17962SOL    HW155327   6.209   0.968   2.899
17962SOL    HW255328   6.117   0.872   2.971
17963SOL     OW55329   6.926   0.859   2.860
17963SOL    HW155330   6.834   0.839   2.843
17963SOL    HW255331   6.970   0.775   2.851
17964SOL     OW55332   6.775   0.535   2.103
17964SOL    HW155333   6.784   0.446   2.137
17964SOL    HW255334   6.736   0.585   2.175
17965SOL     OW55335   5.880   0.204   3.097
17965SOL    HW155336   5.814   0.221   3.164
17965SOL    HW255337   5.858   0.118   3.062
17966SOL     OW55338   5.646   1.308   3.136
17966SOL    HW155339   5.675   1.257   3.212
17966SOL    HW255340   5.648   1.399   3.166
17967SOL     OW55341   6.306   0.634   2.913
17967SOL    HW155342   6.382   0.622   2.855
17967SOL    HW255343   6.275   0.723   2.894
17968SOL     OW55344   7.324   0.954   3.720
17968SOL    HW155345   7.247   0.946   3.664
17968SOL    HW255346   7.289   0.950   3.809
17969SOL     OW55347   5.984   0.098   2.532
17969SOL    HW155348   5.933   0.178   2.550
17969SOL    HW255349   5.920   0.038   2.494
17970SOL     OW55350   7.232   0.403   2.215
17970SOL    HW155351   7.250   0.332   2.276
17970SOL    HW255352   7.198   0.474   2.270
17971SOL     OW55353   6.624   0.761   2.822
17971SOL    HW155354   6.609   0.776   2.915
17971SOL    HW255355   6.591   0.673   2.806
17972SOL     OW55356   6.563   1.552   3.587
17972SOL    HW155357   6.550   1.591   3.500
17972SOL    HW255358   6.621   1.478   3.571
17973SOL     OW55359   7.438   1.494   3.466
17973SOL    HW155360   7.459   1.528   3.379
17973SOL    HW255361   7.515   1.515   3.520
17974SOL     OW55362   7.122   0.283   1.994
17974SOL    HW155363   7.047   0.238   2.034
17974SOL    HW255364   7.168   0.322   2.069
17975SOL     OW55365   6.876   0.821   1.893
17975SOL    HW155366   6.912   0.733   1.896
17975SOL    HW255367   6.905   0.857   1.809
17976SOL     OW55368   6.664   1.344   2.710
17976SOL    HW155369   6.665   1.268   2.653
17976SOL    HW255370   6.729   1.404   2.673
17977SOL     OW55371   5.897   0.811   2.806
17977SOL    HW155372   5.990   0.831   2.809
17977SOL    HW255373   5.891   0.721   2.837
17978SOL     OW55374   5.919   0.538   2.877
17978SOL    HW155375   5.877   0.454   2.858
17978SOL    HW255376   5.995   0.540   2.819
17979SOL     OW55377   6.733   0.426   3.509
17979SOL    HW155378   6.693   0.453   3.591
17979SOL    HW255379   6.826   0.444   3.520
17980SOL     OW55380   6.762   0.208   3.337
17980SOL    HW155381   6.754   0.269   3.409
17980SOL    HW255382   6.785   0.262   3.261
17981SOL     OW55383   5.598   1.314   2.059
17981SOL    HW155384   5.506   1.333   2.039
17981SOL    HW255385   5.597   1.227   2.097
17982SOL     OW55386   5.669   1.779   2.797
17982SOL    HW155387   5.645   1.699   2.751
17982SOL    HW255388   5.760   1.795   2.772
17983SOL     OW55389   6.075   1.574   2.765
17983SOL    HW155390   6.142   1.639   2.785
17983SOL    HW255391   6.118   1.512   2.707
17984SOL     OW55392   6.557   0.783   3.083
17984SOL    HW155393   6.617   0.764   3.156
17984SOL    HW255394   6.471   0.759   3.116
17985SOL     OW55395   5.619   0.556   2.980
17985SOL    HW155396   5.694   0.533   2.926
17985SOL    HW255397   5.651   0.549   3.070
17986SOL     OW55398   5.776   0.538   3.591
17986SOL    HW155399   5.832   0.491   3.529
17986SOL    HW255400   5.732   0.604   3.539
17987SOL     OW55401   6.984   0.933   3.548
17987SOL    HW155402   6.978   1.012   3.600
17987SOL    HW255403   6.958   0.959   3.460
17988SOL     OW55404   6.402   0.575   2.231
17988SOL    HW155405   6.409   0.498   2.175
17988SOL    HW255406   6.324   0.621   2.199
17989SOL     OW55407   7.215   0.615   3.030
17989SOL    HW155408   7.190   0.569   3.110
17989SOL    HW255409   7.307   0.593   3.018
17990SOL     OW55410   5.816   1.548   3.585
17990SOL    HW155411   5.801   1.627   3.637
17990SOL    HW255412   5.833   1.479   3.650
17991SOL     OW55413   6.312   0.460   3.119
17991SOL    HW155414   6.250   0.389   3.106
17991SOL    HW255415   6.296   0.520   3.047
17992SOL     OW55416   6.542   1.646   3.324
17992SOL    HW155417   6.480   1.618   3.257
17992SOL    HW255418   6.545   1.741   3.317
17993SOL     OW55419   6.038   0.504   2.022
17993SOL    HW155420   6.096   0.572   2.055
17993SOL    HW255421   5.952   0.545   2.020
17994SOL     OW55422   5.724   1.136   3.347
17994SOL    HW155423   5.730   1.086   3.428
17994SOL    HW255424   5.741   1.071   3.278
17995SOL     OW55425   6.912   1.038   3.064
17995SOL    HW155426   6.927   0.974   2.995
17995SOL    HW255427   6.840   1.092   3.032
17996SOL     OW55428   6.910   0.858   2.168
17996SOL    HW155429   6.840   0.828   2.225
17996SOL    HW255430   6.877   0.845   2.079
17997SOL     OW55431   7.336   1.744   2.995
17997SOL    HW155432   7.411   1.766   2.939
17997SOL    HW255433   7.328   1.649   2.988
17998SOL     OW55434   6.824   1.716   2.929
17998SOL    HW155435   6.912   1.747   2.909
17998SOL    HW255436   6.837   1.633   2.975
17999SOL     OW55437   5.678   1.260   2.876
17999SOL    HW155438   5.667   1.279   2.969
17999SOL    HW255439   5.594   1.222   2.848
18000SOL     OW55440   6.260   1.673   3.607
18000SOL    HW155441   6.195   1.744   3.606
18000SOL    HW255442   6.324   1.699   3.541
18001SOL     OW55443   7.298   0.169   2.362
18001SOL    HW155444   7.340   0.130   2.286
18001SOL    HW255445   7.276   0.095   2.418
18002SOL     OW55446   6.983   1.640   2.282
18002SOL    HW155447   6.920   1.582   2.239
18002SOL    HW255448   6.931   1.687   2.347
18003SOL     OW55449   5.732   1.789   3.700
18003SOL    HW155450   5.681   1.727   3.753
18003SOL    HW255451   5.777   1.843   3.764
18004SOL     OW55452   6.860   0.933   2.528
18004SOL    HW155453   6.933   0.871   2.540
18004SOL    HW255454   6.898   1.006   2.479
18005SOL     OW55455   6.386   1.280   3.283
18005SOL    HW155456   6.362   1.319   3.367
18005SOL    HW255457   6.314   1.303   3.224
18006SOL     OW55458   6.254   1.610   2.024
18006SOL    HW155459   6.260   1.635   1.931
18006SOL    HW255460   6.212   1.524   2.023
18007SOL     OW55461   7.210   1.730   3.252
18007SOL    HW155462   7.253   1.739   3.166
18007SOL    HW255463   7.195   1.820   3.280
18008SOL     OW55464   7.444   0.174   2.815
18008SOL    HW155465   7.442   0.080   2.833
18008SOL    HW255466   7.357   0.193   2.781
18009SOL     OW55467   5.845   0.334   2.569
18009SOL    HW155468   5.755   0.350   2.540
18009SOL    HW255469   5.838   0.326   2.664
18010SOL     OW55470   6.809   1.602   1.889
18010SOL    HW155471   6.795   1.512   1.919
18010SOL    HW255472   6.741   1.616   1.823
18011SOL     OW55473   6.407   1.010   3.236
18011SOL    HW155474   6.454   1.009   3.153
18011SOL    HW255475   6.401   1.103   3.258
18012SOL     OW55476   6.501   0.927   2.164
18012SOL    HW155477   6.557   0.955   2.092
18012SOL    HW255478   6.546   0.852   2.202
18013SOL     OW55479   7.086   1.635   1.924
18013SOL    HW155480   6.993   1.624   1.907
18013SOL    HW255481   7.126   1.639   1.837
18014SOL     OW55482   5.952   1.298   3.356
18014SOL    HW155483   5.944   1.375   3.299
18014SOL    HW255484   5.872   1.248   3.339
18015SOL     OW55485   7.209   1.291   3.149
18015SOL    HW155486   7.248   1.263   3.232
18015SOL    HW255487   7.141   1.354   3.174
18016SOL     OW55488   6.651   1.112   2.572
18016SOL    HW155489   6.578   1.065   2.614
18016SOL    HW255490   6.714   1.043   2.552
18017SOL     OW55491   6.621   0.267   2.805
18017SOL    HW155492   6.596   0.214   2.729
18017SOL    HW255493   6.630   0.203   2.876
18018SOL     OW55494   6.170   1.481   2.340
18018SOL    HW155495   6.228   1.436   2.279
18018SOL    HW255496   6.126   1.548   2.286
18019SOL     OW55497   7.360   0.444   3.239
18019SOL    HW155498   7.387   0.491   3.160
18019SOL    HW255499   7.353   0.353   3.210
18020SOL     OW55500   5.860   1.309   2.181
18020SOL    HW155501   5.773   1.312   2.140
18020SOL    HW255502   5.848   1.354   2.265
18021SOL     OW55503   5.708   1.009   3.602
18021SOL    HW155504   5.618   0.990   3.627
18021SOL    HW255505   5.751   1.034   3.684
18022SOL     OW55506   6.233   0.196   3.368
18022SOL    HW155507   6.307   0.143   3.338
18022SOL    HW255508   6.265   0.242   3.445
18023SOL     OW55509   5.658   0.329   1.892
18023SOL    HW155510   5.563   0.318   1.896
18023SOL    HW255511   5.671   0.408   1.840
18024SOL     OW55512   7.015   0.850   3.244
18024SOL    HW155513   6.967   0.915   3.194
18024SOL    HW255514   7.107   0.874   3.233
18025SOL     OW55515   5.745   0.184   2.130
18025SOL    HW155516   5.705   0.253   2.077
18025SOL    HW255517   5.672   0.125   2.150
18026SOL     OW55518   6.775   1.342   1.981
18026SOL    HW155519   6.679   1.343   1.972
18026SOL    HW255520   6.790   1.337   2.075
18027SOL     OW55521   6.202   0.839   3.309
18027SOL    HW155522   6.259   0.914   3.289
18027SOL    HW255523   6.263   0.765   3.315
18028SOL     OW55524   7.084   1.783   2.844
18028SOL    HW155525   7.098   1.865   2.796
18028SOL    HW255526   7.162   1.773   2.898
18029SOL     OW55527   6.290   0.575   3.568
18029SOL    HW155528   6.346   0.628   3.624
18029SOL    HW255529   6.303   0.485   3.598
18030SOL     OW55530   7.071   1.214   3.432
18030SOL    HW155531   7.035   1.216   3.521
18030SOL    HW255532   7.165   1.227   3.445
18031SOL     OW55533   5.950   1.736   3.418
18031SOL    HW155534   5.864   1.775   3.404
18031SOL    HW255535   5.932   1.653   3.462
18032SOL     OW55536   7.271   0.888   3.107
18032SOL    HW155537   7.240   0.807   3.066
18032SOL    HW255538   7.251   0.956   3.042
18033SOL     OW55539   6.172   0.734   2.540
18033SOL    HW155540   6.213   0.819   2.526
18033SOL    HW255541   6.109   0.725   2.469
18034SOL     OW55542   7.362   0.365   3.499
18034SOL    HW155543   7.336   0.391   3.410
18034SOL    HW255544   7.294   0.304   3.527
18035SOL     OW55545   7.336   0.930   3.370
18035SOL    HW155546   7.323   1.023   3.393
18035SOL    HW255547   7.324   0.926   3.276
18036SOL     OW55548   6.514   1.392   1.931
18036SOL    HW155549   6.433   1.341   1.936
18036SOL    HW255550   6.494   1.464   1.870
18037SOL     OW55551   6.249   1.778   2.782
18037SOL    HW155552   6.224   1.871   2.778
18037SOL    HW255553   6.344   1.780   2.794
18038SOL     OW55554   6.463   0.972   2.719
18038SOL    HW155555   6.514   0.901   2.758
18038SOL    HW255556   6.420   1.014   2.793
18039SOL     OW55557   6.674   0.997   1.964
18039SOL    HW155558   6.643   1.042   1.885
18039SOL    HW255559   6.737   0.933   1.931
18040SOL     OW55560   7.421   1.544   2.706
18040SOL    HW155561   7.337   1.537   2.661
18040SOL    HW255562   7.404   1.509   2.794
18041SOL     OW55563   5.812   1.298   3.735
18041SOL    HW155564   5.721   1.287   3.707
18041SOL    HW255565   5.806   1.314   3.829
18042SOL     OW55566   5.635   1.226   2.542
18042SOL    HW155567   5.625   1.170   2.619
18042SOL    HW255568   5.729   1.222   2.522
18043SOL     OW55569   6.260   1.412   3.487
18043SOL    HW155570   6.182   1.372   3.526
18043SOL    HW255571   6.268   1.496   3.531
18044SOL     OW55572   7.407   0.229   3.085
18044SOL    HW155573   7.343   0.161   3.106
18044SOL    HW255574   7.432   0.210   2.994
18045SOL     OW55575   6.033   0.433   2.396
18045SOL    HW155576   6.041   0.369   2.326
18045SOL    HW255577   5.966   0.398   2.454
18046SOL     OW55578   7.300   1.474   2.947
18046SOL    HW155579   7.214   1.456   2.910
18046SOL    HW255580   7.304   1.419   3.025
18047SOL     OW55581   5.935   0.568   3.153
18047SOL    HW155582   5.981   0.502   3.205
18047SOL    HW255583   5.945   0.538   3.063
18048SOL     OW55584   6.424   1.573   2.528
18048SOL    HW155585   6.400   1.655   2.484
18048SOL    HW255586   6.342   1.525   2.535
18049SOL     OW55587   7.012   0.222   2.989
18049SOL    HW155588   7.072   0.166   3.039
18049SOL    HW255589   6.961   0.267   3.056
18050SOL     OW55590   6.612   0.075   2.991
18050SOL    HW155591   6.521   0.066   2.963
18050SOL    HW255592   6.639  -0.014   3.015
18051SOL     OW55593   6.345   1.326   2.200
18051SOL    HW155594   6.342   1.231   2.215
18051SOL    HW255595   6.437   1.349   2.214
18052SOL     OW55596   6.211   1.546   3.144
18052SOL    HW155597   6.209   1.624   3.200
18052SOL    HW255598   6.297   1.549   3.102
18053SOL     OW55599   6.952  -0.001   1.968
18053SOL    HW155600   6.994  -0.056   2.035
18053SOL    HW255601   6.896   0.058   2.018
18054SOL     OW55602   6.926   0.494   2.561
18054SOL    HW155603   6.848   0.545   2.539
18054SOL    HW255604   6.900   0.442   2.637
18055SOL     OW55605   7.197   0.229   2.738
18055SOL    HW155606   7.112   0.220   2.782
18055SOL    HW255607   7.187   0.304   2.680
18056SOL     OW55608   5.627   1.063   2.165
18056SOL    HW155609   5.718   1.048   2.139
18056SOL    HW255610   5.596   0.977   2.192
18057SOL     OW55611   6.476   1.667   2.191
18057SOL    HW155612   6.402   1.649   2.133
18057SOL    HW255613   6.444   1.735   2.250
18058SOL     OW55614   5.823   0.664   3.826
18058SOL    HW155615   5.744   0.658   3.880
18058SOL    HW255616   5.803   0.617   3.746
18059SOL     OW55617   5.813   0.295   4.703
18059SOL    HW155618   5.842   0.256   4.785
18059SOL    HW255619   5.729   0.254   4.685
18060SOL     OW55620   5.597   0.400   4.355
18060SOL    HW155621   5.511   0.415   4.394
18060SOL    HW255622   5.580   0.342   4.281
18061SOL     OW55623   6.160   1.304   4.899
18061SOL    HW155624   6.067   1.302   4.876
18061SOL    HW255625   6.173   1.391   4.939
18062SOL     OW55626   7.151   1.511   4.420
18062SOL    HW155627   7.114   1.458   4.490
18062SOL    HW255628   7.101   1.486   4.342
18063SOL     OW55629   6.715   0.690   4.417
18063SOL    HW155630   6.774   0.765   4.419
18063SOL    HW255631   6.657   0.702   4.492
18064SOL     OW55632   7.388   0.592   3.945
18064SOL    HW155633   7.350   0.593   3.857
18064SOL    HW255634   7.332   0.533   3.996
18065SOL     OW55635   6.335   1.146   4.765
18065SOL    HW155636   6.269   1.185   4.823
18065SOL    HW255637   6.376   1.220   4.721
18066SOL     OW55638   6.453   0.756   5.551
18066SOL    HW155639   6.442   0.817   5.624
18066SOL    HW255640   6.478   0.812   5.477
18067SOL     OW55641   6.255   0.997   4.370
18067SOL    HW155642   6.327   0.986   4.433
18067SOL    HW255643   6.197   1.061   4.411
18068SOL     OW55644   6.305   1.153   5.541
18068SOL    HW155645   6.347   1.232   5.576
18068SOL    HW255646   6.222   1.185   5.506
18069SOL     OW55647   5.910   1.432   4.767
18069SOL    HW155648   5.845   1.362   4.760
18069SOL    HW255649   5.861   1.512   4.748
18070SOL     OW55650   7.044   1.504   5.089
18070SOL    HW155651   7.099   1.582   5.101
18070SOL    HW255652   6.973   1.515   5.152
18071SOL     OW55653   6.033   0.368   5.204
18071SOL    HW155654   6.064   0.381   5.294
18071SOL    HW255655   5.947   0.327   5.214
18072SOL     OW55656   7.200   0.453   4.444
18072SOL    HW155657   7.117   0.464   4.398
18072SOL    HW255658   7.219   0.539   4.481
18073SOL     OW55659   5.818   1.697   4.199
18073SOL    HW155660   5.827   1.778   4.250
18073SOL    HW255661   5.888   1.702   4.133
18074SOL     OW55662   6.725   1.343   5.416
18074SOL    HW155663   6.763   1.338   5.504
18074SOL    HW255664   6.671   1.264   5.409
18075SOL     OW55665   5.846   1.442   4.295
18075SOL    HW155666   5.815   1.530   4.273
18075SOL    HW255667   5.770   1.399   4.334
18076SOL     OW55668   5.871   1.089   4.624
18076SOL    HW155669   5.857   1.000   4.657
18076SOL    HW255670   5.806   1.142   4.670
18077SOL     OW55671   6.198   1.782   5.156
18077SOL    HW155672   6.113   1.765   5.198
18077SOL    HW255673   6.218   1.873   5.180
18078SOL     OW55674   6.172   0.982   3.846
18078SOL    HW155675   6.219   1.034   3.781
18078SOL    HW255676   6.207   1.010   3.930
18079SOL     OW55677   7.204   0.150   5.186
18079SOL    HW155678   7.217   0.234   5.141
18079SOL    HW255679   7.205   0.172   5.279
18080SOL     OW55680   5.714   0.657   4.289
18080SOL    HW155681   5.676   0.572   4.312
18080SOL    HW255682   5.700   0.711   4.367
18081SOL     OW55683   7.431   1.749   4.051
18081SOL    HW155684   7.502   1.725   4.110
18081SOL    HW255685   7.445   1.842   4.032
18082SOL     OW55686   5.620   1.586   3.840
18082SOL    HW155687   5.599   1.497   3.867
18082SOL    HW255688   5.599   1.641   3.916
18083SOL     OW55689   7.307   0.948   4.368
18083SOL    HW155690   7.348   0.872   4.325
18083SOL    HW255691   7.264   0.995   4.297
18084SOL     OW55692   7.238   1.101   4.149
18084SOL    HW155693   7.325   1.128   4.120
18084SOL    HW255694   7.213   1.167   4.213
18085SOL     OW55695   5.697   0.752   5.299
18085SOL    HW155696   5.778   0.798   5.320
18085SOL    HW255697   5.629   0.820   5.301
18086SOL     OW55698   6.868   1.238   5.143
18086SOL    HW155699   6.896   1.168   5.084
18086SOL    HW255700   6.927   1.232   5.217
18087SOL     OW55701   6.414   0.036   4.265
18087SOL    HW155702   6.467   0.111   4.237
18087SOL    HW255703   6.332   0.074   4.296
18088SOL     OW55704   5.776   0.957   5.004
18088SOL    HW155705   5.858   0.914   4.983
18088SOL    HW255706   5.711   0.916   4.947
18089SOL     OW55707   7.170   0.924   3.951
18089SOL    HW155708   7.079   0.901   3.968
18089SOL    HW255709   7.190   0.992   4.015
18090SOL     OW55710   6.779   1.822   5.355
18090SOL    HW155711   6.776   1.883   5.282
18090SOL    HW255712   6.791   1.736   5.315
18091SOL     OW55713   5.911   0.258   5.515
18091SOL    HW155714   5.967   0.315   5.568
18091SOL    HW255715   5.825   0.265   5.555
18092SOL     OW55716   6.989   1.443   4.629
18092SOL    HW155717   6.950   1.452   4.715
18092SOL    HW255718   7.002   1.349   4.618
18093SOL     OW55719   7.232   1.754   4.304
18093SOL    HW155720   7.212   1.736   4.212
18093SOL    HW255721   7.230   1.668   4.346
18094SOL     OW55722   6.170   0.720   3.986
18094SOL    HW155723   6.229   0.796   3.986
18094SOL    HW255724   6.121   0.728   4.067
18095SOL     OW55725   6.880   0.358   4.657
18095SOL    HW155726   6.788   0.332   4.660
18095SOL    HW255727   6.922   0.304   4.724
18096SOL     OW55728   7.167   1.663   4.038
18096SOL    HW155729   7.258   1.690   4.029
18096SOL    HW255730   7.136   1.650   3.949
18097SOL     OW55731   6.395   0.609   5.176
18097SOL    HW155732   6.353   0.595   5.261
18097SOL    HW255733   6.345   0.557   5.114
18098SOL     OW55734   6.981   0.495   5.395
18098SOL    HW155735   6.990   0.535   5.481
18098SOL    HW255736   7.040   0.419   5.398
18099SOL     OW55737   6.529   0.887   5.315
18099SOL    HW155738   6.591   0.826   5.276
18099SOL    HW255739   6.484   0.927   5.241
18100SOL     OW55740   6.578   0.415   4.945
18100SOL    HW155741   6.487   0.431   4.969
18100SOL    HW255742   6.575   0.384   4.855
18101SOL     OW55743   6.638   0.698   4.148
18101SOL    HW155744   6.663   0.697   4.240
18101SOL    HW255745   6.555   0.650   4.145
18102SOL     OW55746   5.684   0.831   4.494
18102SOL    HW155747   5.756   0.825   4.556
18102SOL    HW255748   5.628   0.900   4.528
18103SOL     OW55749   5.715   1.869   5.306
18103SOL    HW155750   5.720   1.848   5.399
18103SOL    HW255751   5.642   1.816   5.274
18104SOL     OW55752   6.484   0.350   3.927
18104SOL    HW155753   6.534   0.398   3.862
18104SOL    HW255754   6.489   0.259   3.899
18105SOL     OW55755   7.266   0.567   5.562
18105SOL    HW155756   7.240   0.640   5.506
18105SOL    HW255757   7.337   0.524   5.514
18106SOL     OW55758   6.989   1.216   4.296
18106SOL    HW155759   6.962   1.125   4.309
18106SOL    HW255760   6.935   1.248   4.224
18107SOL     OW55761   6.149   0.249   4.646
18107SOL    HW155762   6.124   0.259   4.738
18107SOL    HW255763   6.144   0.338   4.610
18108SOL     OW55764   6.582   1.447   4.196
18108SOL    HW155765   6.552   1.521   4.144
18108SOL    HW255766   6.546   1.464   4.283
18109SOL     OW55767   5.941   1.817   4.592
18109SOL    HW155768   6.015   1.759   4.607
18109SOL    HW255769   5.971   1.903   4.622
18110SOL     OW55770   7.388   1.066   4.600
18110SOL    HW155771   7.346   1.036   4.519
18110SOL    HW255772   7.319   1.061   4.666
18111SOL     OW55773   6.813   1.544   5.237
18111SOL    HW155774   6.801   1.471   5.298
18111SOL    HW255775   6.734   1.544   5.183
18112SOL     OW55776   5.891   0.940   3.915
18112SOL    HW155777   5.973   0.967   3.957
18112SOL    HW255778   5.861   0.866   3.967
18113SOL     OW55779   7.088   0.713   4.449
18113SOL    HW155780   7.066   0.683   4.537
18113SOL    HW255781   7.041   0.796   4.439
18114SOL     OW55782   6.061   1.251   5.455
18114SOL    HW155783   6.028   1.259   5.365
18114SOL    HW255784   5.983   1.252   5.510
18115SOL     OW55785   6.714   1.766   3.967
18115SOL    HW155786   6.633   1.729   4.001
18115SOL    HW255787   6.737   1.711   3.893
18116SOL     OW55788   5.770   0.271   5.235
18116SOL    HW155789   5.703   0.335   5.212
18116SOL    HW255790   5.775   0.275   5.331
18117SOL     OW55791   7.202   1.364   3.810
18117SOL    HW155792   7.160   1.449   3.800
18117SOL    HW255793   7.132   1.301   3.791
18118SOL     OW55794   6.059   1.725   4.052
18118SOL    HW155795   6.098   1.794   4.106
18118SOL    HW255796   6.126   1.706   3.986
18119SOL     OW55797   6.998   0.128   4.129
18119SOL    HW155798   7.015   0.098   4.040
18119SOL    HW255799   7.085   0.135   4.169
18120SOL     OW55800   5.864   1.786   4.951
18120SOL    HW155801   5.904   1.727   5.016
18120SOL    HW255802   5.776   1.750   4.938
18121SOL     OW55803   6.508   1.703   4.623
18121SOL    HW155804   6.549   1.638   4.681
18121SOL    HW255805   6.475   1.652   4.549
18122SOL     OW55806   5.975   0.698   4.191
18122SOL    HW155807   6.000   0.607   4.206
18122SOL    HW255808   5.884   0.703   4.220
18123SOL     OW55809   7.123   0.268   5.438
18123SOL    HW155810   7.143   0.286   5.529
18123SOL    HW255811   7.103   0.174   5.436
18124SOL     OW55812   6.191   0.137   3.822
18124SOL    HW155813   6.250   0.085   3.877
18124SOL    HW255814   6.140   0.071   3.773
18125SOL     OW55815   6.335   0.255   5.487
18125SOL    HW155816   6.424   0.230   5.513
18125SOL    HW255817   6.289   0.267   5.570
18126SOL     OW55818   6.475   1.528   4.909
18126SOL    HW155819   6.455   1.477   4.831
18126SOL    HW255820   6.536   1.473   4.959
18127SOL     OW55821   6.924   0.595   5.149
18127SOL    HW155822   6.959   0.568   5.234
18127SOL    HW255823   6.961   0.682   5.134
18128SOL     OW55824   6.431   1.398   4.666
18128SOL    HW155825   6.512   1.378   4.619
18128SOL    HW255826   6.373   1.434   4.599
18129SOL     OW55827   6.505   0.502   4.620
18129SOL    HW155828   6.473   0.496   4.530
18129SOL    HW255829   6.547   0.417   4.636
18130SOL     OW55830   6.095   0.023   4.142
18130SOL    HW155831   6.067   0.029   4.233
18130SOL    HW255832   6.116   0.113   4.117
18131SOL     OW55833   5.907  -0.025   3.935
18131SOL    HW155834   5.864   0.058   3.915
18131SOL    HW255835   5.965  -0.006   4.009
18132SOL     OW55836   6.539   0.262   4.186
18132SOL    HW155837   6.507   0.296   4.103
18132SOL    HW255838   6.633   0.279   4.185
18133SOL     OW55839   6.674   0.701   5.182
18133SOL    HW155840   6.607   0.632   5.182
18133SOL    HW255841   6.757   0.655   5.172
18134SOL     OW55842   6.050   1.181   4.448
18134SOL    HW155843   5.996   1.148   4.519
18134SOL    HW255844   6.008   1.149   4.368
18135SOL     OW55845   6.859   1.820   4.365
18135SOL    HW155846   6.899   1.876   4.299
18135SOL    HW255847   6.779   1.866   4.390
18136SOL     OW55848   6.617   0.526   3.747
18136SOL    HW155849   6.576   0.610   3.730
18136SOL    HW255850   6.677   0.543   3.820
18137SOL     OW55851   5.682   0.554   5.117
18137SOL    HW155852   5.774   0.559   5.090
18137SOL    HW255853   5.672   0.625   5.180
18138SOL     OW55854   6.147   0.225   4.927
18138SOL    HW155855   6.178   0.136   4.943
18138SOL    HW255856   6.055   0.224   4.951
18139SOL     OW55857   6.428   0.451   4.361
18139SOL    HW155858   6.403   0.512   4.291
18139SOL    HW255859   6.467   0.376   4.315
18140SOL     OW55860   6.543   0.032   4.515
18140SOL    HW155861   6.501   0.032   4.429
18140SOL    HW255862   6.579  -0.056   4.524
18141SOL     OW55863   7.041   1.182   4.576
18141SOL    HW155864   6.982   1.108   4.563
18141SOL    HW255865   7.081   1.196   4.490
18142SOL     OW55866   7.033   0.605   4.697
18142SOL    HW155867   6.987   0.521   4.701
18142SOL    HW255868   7.099   0.599   4.766
18143SOL     OW55869   7.449   0.813   4.109
18143SOL    HW155870   7.497   0.757   4.169
18143SOL    HW255871   7.409   0.753   4.046
18144SOL     OW55872   6.072   1.422   3.881
18144SOL    HW155873   5.998   1.390   3.933
18144SOL    HW255874   6.068   1.371   3.800
18145SOL     OW55875   7.277   1.270   4.369
18145SOL    HW155876   7.371   1.260   4.383
18145SOL    HW255877   7.262   1.364   4.374
18146SOL     OW55878   6.981   0.565   3.806
18146SOL    HW155879   6.914   0.554   3.873
18146SOL    HW255880   7.063   0.577   3.855
18147SOL     OW55881   6.107   0.281   4.036
18147SOL    HW155882   6.141   0.231   3.962
18147SOL    HW255883   6.073   0.362   3.997
18148SOL     OW55884   7.333   1.244   5.281
18148SOL    HW155885   7.420   1.207   5.269
18148SOL    HW255886   7.348   1.333   5.313
18149SOL     OW55887   6.630   1.352   5.058
18149SOL    HW155888   6.557   1.321   5.111
18149SOL    HW255889   6.708   1.315   5.101
18150SOL     OW55890   7.196   1.631   5.385
18150SOL    HW155891   7.186   1.664   5.296
18150SOL    HW255892   7.277   1.580   5.382
18151SOL     OW55893   6.729   1.222   4.833
18151SOL    HW155894   6.667   1.254   4.898
18151SOL    HW255895   6.679   1.222   4.751
18152SOL     OW55896   7.203   1.093   4.802
18152SOL    HW155897   7.192   1.155   4.874
18152SOL    HW255898   7.131   1.112   4.742
18153SOL     OW55899   6.523   0.093   5.119
18153SOL    HW155900   6.532   0.086   5.024
18153SOL    HW255901   6.605   0.133   5.148
18154SOL     OW55902   6.569   1.120   5.446
18154SOL    HW155903   6.479   1.137   5.475
18154SOL    HW255904   6.562   1.038   5.395
18155SOL     OW55905   6.279   1.041   4.093
18155SOL    HW155906   6.271   1.032   4.188
18155SOL    HW255907   6.361   0.996   4.073
18156SOL     OW55908   6.012   0.815   4.975
18156SOL    HW155909   6.077   0.828   5.044
18156SOL    HW255910   5.977   0.727   4.992
18157SOL     OW55911   6.845   0.375   5.010
18157SOL    HW155912   6.881   0.454   5.048
18157SOL    HW255913   6.757   0.400   4.980
18158SOL     OW55914   5.658   1.612   5.034
18158SOL    HW155915   5.566   1.628   5.055
18158SOL    HW255916   5.697   1.580   5.115
18159SOL     OW55917   5.927   1.125   4.215
18159SOL    HW155918   5.904   1.184   4.143
18159SOL    HW255919   5.909   1.038   4.181
18160SOL     OW55920   6.142   0.519   4.578
18160SOL    HW155921   6.150   0.577   4.503
18160SOL    HW255922   6.204   0.554   4.643
18161SOL     OW55923   6.832   1.357   4.123
18161SOL    HW155924   6.880   1.435   4.148
18161SOL    HW255925   6.741   1.377   4.143
18162SOL     OW55926   6.880   1.460   4.874
18162SOL    HW155927   6.931   1.464   4.955
18162SOL    HW255928   6.829   1.379   4.882
18163SOL     OW55929   7.164   0.643   4.194
18163SOL    HW155930   7.139   0.667   4.283
18163SOL    HW255931   7.154   0.723   4.143
18164SOL     OW55932   5.951   1.512   5.043
18164SOL    HW155933   5.919   1.486   4.956
18164SOL    HW255934   6.043   1.534   5.029
18165SOL     OW55935   6.020   0.735   5.343
18165SOL    HW155936   6.065   0.785   5.275
18165SOL    HW255937   6.087   0.676   5.378
18166SOL     OW55938   7.197   0.780   5.410
18166SOL    HW155939   7.112   0.822   5.402
18166SOL    HW255940   7.250   0.821   5.341
18167SOL     OW55941   6.613   0.125   5.483
18167SOL    HW155942   6.691   0.158   5.527
18167SOL    HW255943   6.637   0.119   5.391
18168SOL     OW55944   6.089   0.045   5.451
18168SOL    HW155945   6.058  -0.019   5.386
18168SOL    HW255946   6.015   0.103   5.465
18169SOL     OW55947   6.166   0.876   4.756
18169SOL    HW155948   6.201   0.965   4.761
18169SOL    HW255949   6.112   0.867   4.835
18170SOL     OW55950   6.937   0.858   4.755
18170SOL    HW155951   6.909   0.887   4.668
18170SOL    HW255952   6.968   0.768   4.741
18171SOL     OW55953   6.776   0.524   3.981
18171SOL    HW155954   6.787   0.451   4.042
18171SOL    HW255955   6.744   0.596   4.035
18172SOL     OW55956   5.878   0.202   4.960
18172SOL    HW155957   5.816   0.227   5.028
18172SOL    HW255958   5.847   0.116   4.929
18173SOL     OW55959   5.663   1.321   5.001
18173SOL    HW155960   5.677   1.268   5.079
18173SOL    HW255961   5.651   1.410   5.034
18174SOL     OW55962   6.297   0.630   4.774
18174SOL    HW155963   6.379   0.624   4.724
18174SOL    HW255964   6.268   0.720   4.762
18175SOL     OW55965   7.331   0.953   5.586
18175SOL    HW155966   7.284   0.891   5.530
18175SOL    HW255967   7.268   0.978   5.653
18176SOL     OW55968   5.976   0.070   4.393
18176SOL    HW155969   5.932   0.155   4.397
18176SOL    HW255970   5.904   0.007   4.389
18177SOL     OW55971   7.213   0.405   4.074
18177SOL    HW155972   7.227   0.337   4.140
18177SOL    HW255973   7.190   0.483   4.125
18178SOL     OW55974   6.579   0.757   4.674
18178SOL    HW155975   6.594   0.776   4.766
18178SOL    HW255976   6.571   0.662   4.669
18179SOL     OW55977   6.574   1.571   5.448
18179SOL    HW155978   6.553   1.613   5.365
18179SOL    HW255979   6.611   1.486   5.424
18180SOL     OW55980   7.435   1.502   5.326
18180SOL    HW155981   7.459   1.529   5.237
18180SOL    HW255982   7.515   1.514   5.377
18181SOL     OW55983   5.944   0.903   5.554
18181SOL    HW155984   6.026   0.935   5.591
18181SOL    HW255985   5.970   0.848   5.480
18182SOL     OW55986   7.134   0.270   3.851
18182SOL    HW155987   7.164   0.184   3.880
18182SOL    HW255988   7.152   0.328   3.925
18183SOL     OW55989   6.853   0.808   3.754
18183SOL    HW155990   6.905   0.728   3.764
18183SOL    HW255991   6.898   0.857   3.685
18184SOL     OW55992   6.665   1.331   4.553
18184SOL    HW155993   6.643   1.258   4.496
18184SOL    HW255994   6.760   1.339   4.546
18185SOL     OW55995   5.896   0.809   4.670
18185SOL    HW155996   5.989   0.833   4.673
18185SOL    HW255997   5.893   0.719   4.702
18186SOL     OW55998   5.922   0.536   4.738
18186SOL    HW155999   5.878   0.453   4.720
18186SOL    HW256000   5.997   0.537   4.679
18187SOL     OW56001   6.722   0.414   5.393
18187SOL    HW156002   6.680   0.460   5.466
18187SOL    HW256003   6.808   0.455   5.386
18188SOL     OW56004   6.757   0.213   5.210
18188SOL    HW156005   6.753   0.277   5.281
18188SOL    HW256006   6.785   0.264   5.133
18189SOL     OW56007   5.586   1.318   3.915
18189SOL    HW156008   5.500   1.333   3.875
18189SOL    HW256009   5.580   1.231   3.953
18190SOL     OW56010   5.669   1.779   4.663
18190SOL    HW156011   5.643   1.699   4.617
18190SOL    HW256012   5.761   1.791   4.641
18191SOL     OW56013   6.139   1.522   4.587
18191SOL    HW156014   6.176   1.609   4.603
18191SOL    HW256015   6.104   1.495   4.672
18192SOL     OW56016   6.561   0.792   4.946
18192SOL    HW156017   6.626   0.781   5.014
18192SOL    HW256018   6.480   0.758   4.985
18193SOL     OW56019   5.621   0.532   4.846
18193SOL    HW156020   5.701   0.546   4.796
18193SOL    HW256021   5.648   0.543   4.938
18194SOL     OW56022   5.765   0.534   5.453
18194SOL    HW156023   5.850   0.544   5.411
18194SOL    HW256024   5.711   0.603   5.415
18195SOL     OW56025   6.971   0.931   5.375
18195SOL    HW156026   6.991   1.025   5.371
18195SOL    HW256027   6.967   0.904   5.283
18196SOL     OW56028   6.401   0.560   4.095
18196SOL    HW156029   6.417   0.487   4.035
18196SOL    HW256030   6.325   0.605   4.058
18197SOL     OW56031   7.228   0.607   4.889
18197SOL    HW156032   7.222   0.548   4.964
18197SOL    HW256033   7.316   0.592   4.853
18198SOL     OW56034   5.886   1.562   5.474
18198SOL    HW156035   5.843   1.630   5.524
18198SOL    HW256036   5.815   1.516   5.429
18199SOL     OW56037   6.300   0.451   4.981
18199SOL    HW156038   6.242   0.377   4.963
18199SOL    HW256039   6.286   0.510   4.907
18200SOL     OW56040   6.524   1.678   5.193
18200SOL    HW156041   6.482   1.641   5.115
18200SOL    HW256042   6.513   1.772   5.183
18201SOL     OW56043   6.039   0.500   3.890
18201SOL    HW156044   6.097   0.569   3.922
18201SOL    HW256045   5.953   0.541   3.885
18202SOL     OW56046   5.728   1.136   5.201
18202SOL    HW156047   5.729   1.087   5.283
18202SOL    HW256048   5.745   1.070   5.133
18203SOL     OW56049   6.901   1.041   4.946
18203SOL    HW156050   6.919   0.975   4.880
18203SOL    HW256051   6.842   1.103   4.904
18204SOL     OW56052   6.918   0.831   4.025
18204SOL    HW156053   6.849   0.845   4.090
18204SOL    HW256054   6.874   0.845   3.941
18205SOL     OW56055   7.372   1.740   4.884
18205SOL    HW156056   7.434   1.763   4.814
18205SOL    HW256057   7.341   1.653   4.860
18206SOL     OW56058   6.820   1.722   4.803
18206SOL    HW156059   6.909   1.754   4.789
18206SOL    HW256060   6.832   1.633   4.836
18207SOL     OW56061   5.693   1.254   4.746
18207SOL    HW156062   5.677   1.275   4.838
18207SOL    HW256063   5.607   1.230   4.712
18208SOL     OW56064   6.260   1.678   5.468
18208SOL    HW156065   6.191   1.743   5.466
18208SOL    HW256066   6.318   1.701   5.395
18209SOL     OW56067   7.260   0.137   4.207
18209SOL    HW156068   7.351   0.142   4.176
18209SOL    HW256069   7.268   0.108   4.298
18210SOL     OW56070   6.970   1.587   4.217
18210SOL    HW156071   7.036   1.602   4.149
18210SOL    HW256072   6.908   1.660   4.206
18211SOL     OW56073   5.743   1.790   5.563
18211SOL    HW156074   5.688   1.722   5.603
18211SOL    HW256075   5.777   1.840   5.638
18212SOL     OW56076   6.379   1.277   5.152
18212SOL    HW156077   6.356   1.318   5.235
18212SOL    HW256078   6.304   1.293   5.095
18213SOL     OW56079   6.259   1.622   3.883
18213SOL    HW156080   6.273   1.637   3.790
18213SOL    HW256081   6.203   1.545   3.887
18214SOL     OW56082   7.203   1.731   5.116
18214SOL    HW156083   7.261   1.731   5.040
18214SOL    HW256084   7.191   1.823   5.138
18215SOL     OW56085   7.444   0.180   4.681
18215SOL    HW156086   7.443   0.084   4.681
18215SOL    HW256087   7.358   0.204   4.644
18216SOL     OW56088   5.851   0.313   4.431
18216SOL    HW156089   5.765   0.347   4.403
18216SOL    HW256090   5.847   0.313   4.526
18217SOL     OW56091   6.797   1.616   3.753
18217SOL    HW156092   6.769   1.530   3.787
18217SOL    HW256093   6.735   1.634   3.682
18218SOL     OW56094   6.411   1.009   5.100
18218SOL    HW156095   6.455   1.008   5.015
18218SOL    HW256096   6.402   1.102   5.121
18219SOL     OW56097   6.489   0.895   4.014
18219SOL    HW156098   6.544   0.930   3.944
18219SOL    HW256099   6.548   0.838   4.063
18220SOL     OW56100   7.074   1.629   3.774
18220SOL    HW156101   6.981   1.616   3.759
18220SOL    HW256102   7.113   1.634   3.687
18221SOL     OW56103   5.961   1.289   5.208
18221SOL    HW156104   5.947   1.374   5.166
18221SOL    HW256105   5.875   1.247   5.206
18222SOL     OW56106   7.183   1.279   5.007
18222SOL    HW156107   7.246   1.263   5.077
18222SOL    HW256108   7.127   1.348   5.041
18223SOL     OW56109   6.616   1.108   4.417
18223SOL    HW156110   6.554   1.050   4.461
18223SOL    HW256111   6.698   1.058   4.416
18224SOL     OW56112   6.617   0.256   4.670
18224SOL    HW156113   6.596   0.201   4.594
18224SOL    HW256114   6.619   0.195   4.744
18225SOL     OW56115   6.176   1.491   4.224
18225SOL    HW156116   6.232   1.436   4.169
18225SOL    HW256117   6.134   1.551   4.162
18226SOL     OW56118   7.290   0.416   5.086
18226SOL    HW156119   7.360   0.477   5.107
18226SOL    HW256120   7.331   0.349   5.031
18227SOL     OW56121   5.842   1.334   4.031
18227SOL    HW156122   5.748   1.338   4.011
18227SOL    HW256123   5.851   1.382   4.113
18228SOL     OW56124   5.710   1.006   5.436
18228SOL    HW156125   5.631   0.994   5.489
18228SOL    HW256126   5.782   0.988   5.496
18229SOL     OW56127   5.654   0.329   3.754
18229SOL    HW156128   5.559   0.321   3.761
18229SOL    HW256129   5.667   0.408   3.702
18230SOL     OW56130   7.012   0.855   5.116
18230SOL    HW156131   6.961   0.917   5.063
18230SOL    HW256132   7.099   0.859   5.078
18231SOL     OW56133   5.734   0.201   4.003
18231SOL    HW156134   5.690   0.257   3.940
18231SOL    HW256135   5.669   0.134   4.026
18232SOL     OW56136   6.710   1.384   3.865
18232SOL    HW156137   6.685   1.308   3.814
18232SOL    HW256138   6.780   1.353   3.922
18233SOL     OW56139   6.213   0.826   5.158
18233SOL    HW156140   6.262   0.908   5.146
18233SOL    HW256141   6.280   0.759   5.170
18234SOL     OW56142   7.087   1.786   4.664
18234SOL    HW156143   7.106   1.877   4.639
18234SOL    HW256144   7.160   1.761   4.720
18235SOL     OW56145   6.291   0.568   5.423
18235SOL    HW156146   6.335   0.634   5.477
18235SOL    HW256147   6.311   0.485   5.467
18236SOL     OW56148   7.059   1.193   5.350
18236SOL    HW156149   7.047   1.211   5.443
18236SOL    HW256150   7.151   1.213   5.333
18237SOL     OW56151   5.961   1.745   5.285
18237SOL    HW156152   5.875   1.786   5.274
18237SOL    HW256153   5.945   1.666   5.335
18238SOL     OW56154   7.249   0.878   4.976
18238SOL    HW156155   7.244   0.794   4.931
18238SOL    HW256156   7.237   0.943   4.907
18239SOL     OW56157   6.805   0.321   4.171
18239SOL    HW156158   6.870   0.252   4.160
18239SOL    HW256159   6.832   0.368   4.250
18240SOL     OW56160   6.169   0.727   4.396
18240SOL    HW156161   6.207   0.815   4.391
18240SOL    HW256162   6.099   0.727   4.331
18241SOL     OW56163   7.399   0.350   5.336
18241SOL    HW156164   7.323   0.377   5.286
18241SOL    HW256165   7.364   0.320   5.419
18242SOL     OW56166   7.338   0.930   5.232
18242SOL    HW156167   7.327   1.024   5.245
18242SOL    HW256168   7.318   0.916   5.140
18243SOL     OW56169   6.417   1.377   3.758
18243SOL    HW156170   6.423   1.413   3.847
18243SOL    HW256171   6.464   1.440   3.704
18244SOL     OW56172   6.230   1.774   4.633
18244SOL    HW156173   6.204   1.866   4.630
18244SOL    HW256174   6.325   1.776   4.646
18245SOL     OW56175   6.439   0.968   4.572
18245SOL    HW156176   6.490   0.895   4.606
18245SOL    HW256177   6.409   1.014   4.650
18246SOL     OW56178   6.635   0.967   3.799
18246SOL    HW156179   6.641   1.044   3.742
18246SOL    HW256180   6.718   0.920   3.784
18247SOL     OW56181   7.443   1.556   4.576
18247SOL    HW156182   7.368   1.537   4.520
18247SOL    HW256183   7.456   1.477   4.627
18248SOL     OW56184   5.815   1.272   5.580
18248SOL    HW156185   5.754   1.274   5.506
18248SOL    HW256186   5.764   1.301   5.655
18249SOL     OW56187   5.686   1.234   4.401
18249SOL    HW156188   5.651   1.190   4.479
18249SOL    HW256189   5.741   1.168   4.358
18250SOL     OW56190   6.269   1.412   5.363
18250SOL    HW156191   6.191   1.365   5.391
18250SOL    HW256192   6.260   1.500   5.400
18251SOL     OW56193   7.410   0.220   4.955
18251SOL    HW156194   7.343   0.152   4.948
18251SOL    HW256195   7.443   0.231   4.866
18252SOL     OW56196   6.023   0.440   4.251
18252SOL    HW156197   6.050   0.370   4.192
18252SOL    HW256198   5.964   0.397   4.313
18253SOL     OW56199   7.277   1.491   4.830
18253SOL    HW156200   7.195   1.456   4.795
18253SOL    HW256201   7.308   1.424   4.890
18254SOL     OW56202   5.933   0.555   5.016
18254SOL    HW156203   5.984   0.489   5.063
18254SOL    HW256204   5.943   0.532   4.924
18255SOL     OW56205   6.403   1.594   4.389
18255SOL    HW156206   6.419   1.676   4.342
18255SOL    HW256207   6.322   1.559   4.350
18256SOL     OW56208   7.007   0.215   4.848
18256SOL    HW156209   7.077   0.165   4.891
18256SOL    HW256210   6.966   0.265   4.918
18257SOL     OW56211   6.629   0.063   4.856
18257SOL    HW156212   6.583  -0.021   4.863
18257SOL    HW256213   6.721   0.041   4.870
18258SOL     OW56214   6.345   1.330   4.083
18258SOL    HW156215   6.331   1.237   4.069
18258SOL    HW256216   6.438   1.338   4.103
18259SOL     OW56217   6.216   1.560   4.996
18259SOL    HW156218   6.211   1.637   5.052
18259SOL    HW256219   6.307   1.558   4.965
18260SOL     OW56220   6.948   7.996   3.840
18260SOL    HW156221   7.018   7.936   3.864
18260SOL    HW256222   6.874   7.971   3.896
18261SOL     OW56223   6.876   0.454   4.397
18261SOL    HW156224   6.830   0.538   4.401
18261SOL    HW256225   6.882   0.426   4.489
18262SOL     OW56226   7.195   0.224   4.589
18262SOL    HW156227   7.114   0.223   4.642
18262SOL    HW256228   7.190   0.306   4.540
18263SOL     OW56229   5.638   1.069   4.022
18263SOL    HW156230   5.717   1.053   3.970
18263SOL    HW256231   5.611   0.982   4.051
18264SOL     OW56232   6.470   1.662   4.066
18264SOL    HW156233   6.399   1.649   4.003
18264SOL    HW256234   6.442   1.738   4.118
18265SOL     OW56235   5.796   0.612   5.724
18265SOL    HW156236   5.710   0.615   5.765
18265SOL    HW256237   5.778   0.604   5.631
18266SOL     OW56238   5.798   0.309   6.570
18266SOL    HW156239   5.842   0.261   6.641
18266SOL    HW256240   5.716   0.262   6.557
18267SOL     OW56241   5.591   0.395   6.210
18267SOL    HW156242   5.503   0.408   6.245
18267SOL    HW256243   5.579   0.334   6.136
18268SOL     OW56244   6.124   1.294   6.777
18268SOL    HW156245   6.076   1.324   6.700
18268SOL    HW256246   6.163   1.374   6.813
18269SOL     OW56247   7.162   1.518   6.293
18269SOL    HW156248   7.117   1.491   6.373
18269SOL    HW256249   7.094   1.522   6.226
18270SOL     OW56250   6.773   0.691   6.331
18270SOL    HW156251   6.739   0.703   6.243
18270SOL    HW256252   6.705   0.727   6.388
18271SOL     OW56253   7.380   0.605   5.804
18271SOL    HW156254   7.334   0.605   5.720
18271SOL    HW256255   7.387   0.513   5.828
18272SOL     OW56256   6.324   1.141   6.647
18272SOL    HW156257   6.257   1.178   6.705
18272SOL    HW256258   6.358   1.215   6.598
18273SOL     OW56259   6.465   0.761   7.406
18273SOL    HW156260   6.452   0.837   7.463
18273SOL    HW256261   6.487   0.798   7.321
18274SOL     OW56262   6.272   0.996   6.226
18274SOL    HW156263   6.338   0.992   6.296
18274SOL    HW256264   6.203   1.053   6.261
18275SOL     OW56265   6.305   1.163   7.410
18275SOL    HW156266   6.349   1.244   7.435
18275SOL    HW256267   6.227   1.191   7.362
18276SOL     OW56268   5.913   1.410   6.643
18276SOL    HW156269   5.835   1.382   6.594
18276SOL    HW256270   5.958   1.471   6.585
18277SOL     OW56271   7.045   1.499   6.955
18277SOL    HW156272   7.099   1.578   6.960
18277SOL    HW256273   6.971   1.516   7.013
18278SOL     OW56274   6.025   0.391   7.078
18278SOL    HW156275   6.108   0.344   7.077
18278SOL    HW256276   5.959   0.323   7.066
18279SOL     OW56277   7.194   0.456   6.307
18279SOL    HW156278   7.109   0.449   6.263
18279SOL    HW256279   7.200   0.547   6.334
18280SOL     OW56280   5.808   1.714   6.054
18280SOL    HW156281   5.829   1.791   6.107
18280SOL    HW256282   5.877   1.710   5.988
18281SOL     OW56283   6.728   1.340   7.280
18281SOL    HW156284   6.809   1.305   7.316
18281SOL    HW256285   6.669   1.265   7.273
18282SOL     OW56286   5.815   1.453   6.138
18282SOL    HW156287   5.805   1.546   6.119
18282SOL    HW256288   5.749   1.434   6.205
18283SOL     OW56289   5.848   1.089   6.469
18283SOL    HW156290   5.852   0.999   6.501
18283SOL    HW256291   5.788   1.134   6.529
18284SOL     OW56292   6.190   1.782   7.019
18284SOL    HW156293   6.106   1.770   7.062
18284SOL    HW256294   6.215   1.872   7.039
18285SOL     OW56295   6.171   0.985   5.721
18285SOL    HW156296   6.218   1.035   5.653
18285SOL    HW256297   6.206   1.018   5.803
18286SOL     OW56298   7.245   0.132   7.071
18286SOL    HW156299   7.180   0.104   7.007
18286SOL    HW256300   7.194   0.155   7.149
18287SOL     OW56301   5.718   0.643   6.150
18287SOL    HW156302   5.675   0.558   6.164
18287SOL    HW256303   5.701   0.692   6.231
18288SOL     OW56304   7.428   1.753   5.914
18288SOL    HW156305   7.496   1.728   5.977
18288SOL    HW256306   7.446   1.844   5.893
18289SOL     OW56307   5.630   1.596   5.712
18289SOL    HW156308   5.611   1.504   5.726
18289SOL    HW256309   5.598   1.640   5.790
18290SOL     OW56310   7.287   0.938   6.227
18290SOL    HW156311   7.343   0.877   6.179
18290SOL    HW256312   7.248   0.993   6.159
18291SOL     OW56313   7.234   1.113   6.012
18291SOL    HW156314   7.322   1.111   5.975
18291SOL    HW256315   7.239   1.176   6.084
18292SOL     OW56316   5.708   0.751   7.170
18292SOL    HW156317   5.797   0.784   7.168
18292SOL    HW256318   5.653   0.828   7.158
18293SOL     OW56319   6.195   1.391   6.324
18293SOL    HW156320   6.152   1.305   6.325
18293SOL    HW256321   6.184   1.421   6.234
18294SOL     OW56322   6.870   1.232   7.007
18294SOL    HW156323   6.896   1.165   6.944
18294SOL    HW256324   6.941   1.234   7.071
18295SOL     OW56325   6.429   0.032   6.147
18295SOL    HW156326   6.463   0.113   6.108
18295SOL    HW256327   6.336   0.031   6.125
18296SOL     OW56328   5.779   0.978   6.857
18296SOL    HW156329   5.858   0.923   6.849
18296SOL    HW256330   5.719   0.943   6.791
18297SOL     OW56331   7.131   1.006   5.779
18297SOL    HW156332   7.061   0.948   5.810
18297SOL    HW256333   7.168   1.043   5.859
18298SOL     OW56334   6.766   1.809   7.222
18298SOL    HW156335   6.771   1.881   7.159
18298SOL    HW256336   6.782   1.731   7.169
18299SOL     OW56337   5.892   0.236   7.364
18299SOL    HW156338   5.954   0.308   7.380
18299SOL    HW256339   5.816   0.258   7.417
18300SOL     OW56340   7.054   1.420   6.527
18300SOL    HW156341   6.987   1.436   6.593
18300SOL    HW256342   7.041   1.329   6.502
18301SOL     OW56343   7.241   1.760   6.161
18301SOL    HW156344   7.220   1.729   6.073
18301SOL    HW256345   7.220   1.685   6.218
18302SOL     OW56346   6.176   0.717   5.853
18302SOL    HW156347   6.184   0.803   5.812
18302SOL    HW256348   6.113   0.730   5.924
18303SOL     OW56349   6.885   0.360   6.527
18303SOL    HW156350   6.793   0.336   6.527
18303SOL    HW256351   6.924   0.305   6.594
18304SOL     OW56352   7.163   1.675   5.899
18304SOL    HW156353   7.255   1.698   5.887
18304SOL    HW256354   7.131   1.659   5.810
18305SOL     OW56355   6.351   0.639   7.040
18305SOL    HW156356   6.344   0.599   7.127
18305SOL    HW256357   6.345   0.565   6.980
18306SOL     OW56358   7.011   0.483   7.255
18306SOL    HW156359   7.008   0.513   7.346
18306SOL    HW256360   7.066   0.405   7.257
18307SOL     OW56361   6.534   0.882   7.169
18307SOL    HW156362   6.586   0.811   7.131
18307SOL    HW256363   6.485   0.918   7.095
18308SOL     OW56364   6.587   0.411   6.804
18308SOL    HW156365   6.498   0.431   6.833
18308SOL    HW256366   6.576   0.376   6.715
18309SOL     OW56367   5.670   0.786   6.377
18309SOL    HW156368   5.749   0.808   6.427
18309SOL    HW256369   5.613   0.862   6.388
18310SOL     OW56370   5.691   1.814   7.156
18310SOL    HW156371   5.697   1.814   7.251
18310SOL    HW256372   5.638   1.891   7.135
18311SOL     OW56373   6.456   0.346   5.739
18311SOL    HW156374   6.521   0.402   5.697
18311SOL    HW256375   6.502   0.264   5.755
18312SOL     OW56376   7.309   0.581   7.415
18312SOL    HW156377   7.263   0.651   7.370
18312SOL    HW256378   7.324   0.515   7.348
18313SOL     OW56379   6.963   1.142   6.116
18313SOL    HW156380   7.038   1.128   6.059
18313SOL    HW256381   6.908   1.204   6.068
18314SOL     OW56382   6.103   0.210   6.520
18314SOL    HW156383   6.110   0.288   6.574
18314SOL    HW256384   6.140   0.235   6.435
18315SOL     OW56385   6.586   1.451   6.055
18315SOL    HW156386   6.555   1.523   6.000
18315SOL    HW256387   6.552   1.472   6.142
18316SOL     OW56388   5.944   1.820   6.461
18316SOL    HW156389   5.995   1.739   6.465
18316SOL    HW256390   6.008   1.890   6.473
18317SOL     OW56391   7.387   1.049   6.463
18317SOL    HW156392   7.343   1.028   6.381
18317SOL    HW256393   7.317   1.054   6.527
18318SOL     OW56394   6.810   1.544   7.096
18318SOL    HW156395   6.797   1.468   7.152
18318SOL    HW256396   6.744   1.535   7.027
18319SOL     OW56397   5.902   0.955   5.845
18319SOL    HW156398   5.977   0.988   5.796
18319SOL    HW256399   5.870   0.881   5.793
18320SOL     OW56400   7.110   0.719   6.303
18320SOL    HW156401   7.048   0.707   6.374
18320SOL    HW256402   7.132   0.812   6.305
18321SOL     OW56403   6.049   1.248   7.316
18321SOL    HW156404   5.985   1.239   7.246
18321SOL    HW256405   5.997   1.272   7.393
18322SOL     OW56406   6.717   1.772   5.821
18322SOL    HW156407   6.635   1.739   5.858
18322SOL    HW256408   6.738   1.710   5.751
18323SOL     OW56409   5.772   0.257   7.088
18323SOL    HW156410   5.714   0.331   7.069
18323SOL    HW256411   5.785   0.261   7.183
18324SOL     OW56412   7.217   1.384   5.682
18324SOL    HW156413   7.176   1.469   5.666
18324SOL    HW256414   7.150   1.320   5.658
18325SOL     OW56415   6.049   1.736   5.904
18325SOL    HW156416   6.096   1.794   5.965
18325SOL    HW256417   6.117   1.700   5.848
18326SOL     OW56418   5.833   1.763   6.806
18326SOL    HW156419   5.928   1.774   6.803
18326SOL    HW256420   5.804   1.776   6.716
18327SOL     OW56421   6.535   1.693   6.479
18327SOL    HW156422   6.621   1.651   6.478
18327SOL    HW256423   6.485   1.647   6.412
18328SOL     OW56424   5.989   0.684   6.065
18328SOL    HW156425   6.006   0.592   6.084
18328SOL    HW256426   5.895   0.693   6.075
18329SOL     OW56427   7.126   0.212   7.314
18329SOL    HW156428   7.125   0.237   7.406
18329SOL    HW256429   7.051   0.155   7.303
18330SOL     OW56430   6.161   0.130   5.697
18330SOL    HW156431   6.243   0.092   5.728
18330SOL    HW256432   6.147   0.092   5.611
18331SOL     OW56433   6.328   0.298   7.357
18331SOL    HW156434   6.417   0.263   7.362
18331SOL    HW256435   6.282   0.258   7.431
18332SOL     OW56436   6.457   1.508   6.782
18332SOL    HW156437   6.448   1.482   6.691
18332SOL    HW256438   6.539   1.468   6.811
18333SOL     OW56439   6.923   0.598   7.019
18333SOL    HW156440   6.967   0.570   7.099
18333SOL    HW256441   6.959   0.684   7.000
18334SOL     OW56442   6.398   1.380   6.530
18334SOL    HW156443   6.484   1.372   6.489
18334SOL    HW256444   6.338   1.394   6.456
18335SOL     OW56445   6.511   0.517   6.486
18335SOL    HW156446   6.485   0.515   6.393
18335SOL    HW256447   6.552   0.432   6.501
18336SOL     OW56448   6.180   0.046   6.023
18336SOL    HW156449   6.108   0.003   6.069
18336SOL    HW256450   6.145   0.131   5.997
18337SOL     OW56451   7.014   1.205   5.622
18337SOL    HW156452   7.044   1.130   5.674
18337SOL    HW256453   6.928   1.225   5.657
18338SOL     OW56454   5.880   0.033   5.782
18338SOL    HW156455   5.949   0.092   5.749
18338SOL    HW256456   5.918  -0.007   5.860
18339SOL     OW56457   6.528   0.265   6.041
18339SOL    HW156458   6.484   0.334   5.992
18339SOL    HW256459   6.621   0.285   6.032
18340SOL     OW56460   6.660   0.670   7.050
18340SOL    HW156461   6.608   0.591   7.062
18340SOL    HW256462   6.750   0.639   7.041
18341SOL     OW56463   6.793   1.587   6.391
18341SOL    HW156464   6.807   1.645   6.316
18341SOL    HW256465   6.872   1.597   6.444
18342SOL     OW56466   6.059   1.152   6.309
18342SOL    HW156467   5.989   1.130   6.370
18342SOL    HW256468   6.020   1.143   6.222
18343SOL     OW56469   6.846   1.793   6.203
18343SOL    HW156470   6.893   1.854   6.146
18343SOL    HW256471   6.773   1.845   6.238
18344SOL     OW56472   6.618   0.538   5.612
18344SOL    HW156473   6.566   0.617   5.598
18344SOL    HW256474   6.672   0.557   5.689
18345SOL     OW56475   5.689   0.542   6.996
18345SOL    HW156476   5.776   0.552   6.958
18345SOL    HW256477   5.679   0.616   7.055
18346SOL     OW56478   6.160   0.242   6.800
18346SOL    HW156479   6.193   0.171   6.855
18346SOL    HW256480   6.065   0.230   6.801
18347SOL     OW56481   6.451   0.473   6.227
18347SOL    HW156482   6.432   0.529   6.152
18347SOL    HW256483   6.459   0.385   6.189
18348SOL     OW56484   6.574   0.032   6.374
18348SOL    HW156485   6.524   0.036   6.293
18348SOL    HW256486   6.584  -0.062   6.392
18349SOL     OW56487   7.038   1.161   6.438
18349SOL    HW156488   6.975   1.091   6.420
18349SOL    HW256489   7.079   1.179   6.354
18350SOL     OW56490   7.030   0.610   6.564
18350SOL    HW156491   6.984   0.527   6.558
18350SOL    HW256492   7.093   0.597   6.635
18351SOL     OW56493   7.425   0.809   5.985
18351SOL    HW156494   7.487   0.759   6.037
18351SOL    HW256495   7.404   0.751   5.912
18352SOL     OW56496   6.065   1.430   5.732
18352SOL    HW156497   6.002   1.388   5.791
18352SOL    HW256498   6.022   1.429   5.647
18353SOL     OW56499   7.262   1.264   6.235
18353SOL    HW156500   7.356   1.261   6.246
18353SOL    HW256501   7.238   1.355   6.248
18354SOL     OW56502   6.975   0.577   5.653
18354SOL    HW156503   6.916   0.562   5.727
18354SOL    HW256504   7.061   0.588   5.693
18355SOL     OW56505   6.086   0.280   5.905
18355SOL    HW156506   6.120   0.227   5.832
18355SOL    HW256507   6.069   0.366   5.866
18356SOL     OW56508   7.337   1.245   7.149
18356SOL    HW156509   7.422   1.205   7.131
18356SOL    HW256510   7.357   1.334   7.177
18357SOL     OW56511   6.645   1.363   6.929
18357SOL    HW156512   6.572   1.326   6.977
18357SOL    HW256513   6.722   1.314   6.960
18358SOL     OW56514   7.203   1.623   7.253
18358SOL    HW156515   7.187   1.659   7.166
18358SOL    HW256516   7.285   1.575   7.244
18359SOL     OW56517   6.730   1.225   6.688
18359SOL    HW156518   6.653   1.245   6.741
18359SOL    HW256519   6.704   1.250   6.599
18360SOL     OW56520   7.201   1.091   6.661
18360SOL    HW156521   7.188   1.156   6.731
18360SOL    HW256522   7.129   1.106   6.601
18361SOL     OW56523   6.504   0.125   6.979
18361SOL    HW156524   6.517   0.110   6.885
18361SOL    HW256525   6.593   0.135   7.013
18362SOL     OW56526   6.568   1.114   7.305
18362SOL    HW156527   6.475   1.129   7.324
18362SOL    HW256528   6.569   1.036   7.249
18363SOL     OW56529   6.301   1.062   5.954
18363SOL    HW156530   6.285   1.039   6.045
18363SOL    HW256531   6.371   1.004   5.926
18364SOL     OW56532   6.003   0.828   6.844
18364SOL    HW156533   6.074   0.838   6.907
18364SOL    HW256534   5.976   0.737   6.851
18365SOL     OW56535   6.847   0.377   6.876
18365SOL    HW156536   6.879   0.459   6.913
18365SOL    HW256537   6.760   0.399   6.842
18366SOL     OW56538   5.645   1.581   6.922
18366SOL    HW156539   5.584   1.639   6.876
18366SOL    HW256540   5.727   1.629   6.923
18367SOL     OW56541   5.934   1.121   6.070
18367SOL    HW156542   5.920   1.196   6.012
18367SOL    HW256543   5.926   1.044   6.014
18368SOL     OW56544   6.136   0.536   6.451
18368SOL    HW156545   6.143   0.595   6.377
18368SOL    HW256546   6.210   0.558   6.507
18369SOL     OW56547   6.831   1.354   5.976
18369SOL    HW156548   6.887   1.424   6.008
18369SOL    HW256549   6.744   1.377   6.008
18370SOL     OW56550   6.879   1.460   6.731
18370SOL    HW156551   6.929   1.457   6.813
18370SOL    HW256552   6.826   1.380   6.732
18371SOL     OW56553   7.156   0.615   6.047
18371SOL    HW156554   7.128   0.653   6.130
18371SOL    HW256555   7.192   0.688   5.998
18372SOL     OW56556   5.942   1.487   6.910
18372SOL    HW156557   5.916   1.515   6.823
18372SOL    HW256558   6.028   1.526   6.924
18373SOL     OW56559   6.007   0.746   7.197
18373SOL    HW156560   6.065   0.794   7.137
18373SOL    HW256561   6.053   0.663   7.212
18374SOL     OW56562   7.191   0.787   7.283
18374SOL    HW156563   7.104   0.825   7.283
18374SOL    HW256564   7.232   0.822   7.203
18375SOL     OW56565   6.606   0.103   7.348
18375SOL    HW156566   6.662   0.177   7.325
18375SOL    HW256567   6.547   0.094   7.273
18376SOL     OW56568   6.061   0.016   7.353
18376SOL    HW156569   6.072  -0.022   7.265
18376SOL    HW256570   6.009   0.094   7.339
18377SOL     OW56571   6.187   0.871   6.627
18377SOL    HW156572   6.213   0.962   6.617
18377SOL    HW256573   6.115   0.873   6.691
18378SOL     OW56574   6.934   0.862   6.605
18378SOL    HW156575   6.883   0.876   6.525
18378SOL    HW256576   6.967   0.773   6.597
18379SOL     OW56577   6.780   0.528   5.842
18379SOL    HW156578   6.783   0.453   5.902
18379SOL    HW256579   6.755   0.601   5.898
18380SOL     OW56580   5.891   0.201   6.819
18380SOL    HW156581   5.823   0.207   6.887
18380SOL    HW256582   5.876   0.116   6.779
18381SOL     OW56583   5.641   1.313   6.886
18381SOL    HW156584   5.627   1.281   6.975
18381SOL    HW256585   5.637   1.409   6.893
18382SOL     OW56586   6.312   0.628   6.647
18382SOL    HW156587   6.386   0.616   6.586
18382SOL    HW256588   6.281   0.717   6.629
18383SOL     OW56589   7.344   0.957   7.437
18383SOL    HW156590   7.296   0.892   7.386
18383SOL    HW256591   7.285   0.979   7.510
18384SOL     OW56592   6.000   0.078   6.254
18384SOL    HW156593   5.938   0.150   6.269
18384SOL    HW256594   5.952   0.016   6.200
18385SOL     OW56595   7.127   0.354   6.003
18385SOL    HW156596   7.202   0.322   6.053
18385SOL    HW256597   7.130   0.449   6.012
18386SOL     OW56598   6.593   0.771   6.545
18386SOL    HW156599   6.596   0.781   6.640
18386SOL    HW256600   6.576   0.678   6.531
18387SOL     OW56601   6.560   1.555   7.300
18387SOL    HW156602   6.540   1.606   7.221
18387SOL    HW256603   6.616   1.484   7.270
18388SOL     OW56604   7.446   1.498   7.194
18388SOL    HW156605   7.466   1.528   7.105
18388SOL    HW256606   7.529   1.508   7.241
18389SOL     OW56607   5.936   0.921   7.397
18389SOL    HW156608   6.022   0.950   7.430
18389SOL    HW256609   5.957   0.855   7.331
18390SOL     OW56610   7.106   0.258   5.719
18390SOL    HW156611   7.170   0.186   5.714
18390SOL    HW256612   7.157   0.334   5.745
18391SOL     OW56613   6.865   0.829   5.603
18391SOL    HW156614   6.904   0.741   5.608
18391SOL    HW256615   6.901   0.866   5.522
18392SOL     OW56616   6.655   1.342   6.448
18392SOL    HW156617   6.657   1.270   6.385
18392SOL    HW256618   6.708   1.410   6.408
18393SOL     OW56619   5.900   0.817   6.532
18393SOL    HW156620   5.987   0.823   6.494
18393SOL    HW256621   5.895   0.729   6.567
18394SOL     OW56622   5.921   0.542   6.607
18394SOL    HW156623   5.876   0.461   6.585
18394SOL    HW256624   5.997   0.544   6.549
18395SOL     OW56625   6.751   0.391   7.270
18395SOL    HW156626   6.694   0.445   7.325
18395SOL    HW256627   6.832   0.441   7.262
18396SOL     OW56628   6.753   0.213   7.069
18396SOL    HW156629   6.761   0.272   7.144
18396SOL    HW256630   6.783   0.265   6.994
18397SOL     OW56631   5.608   1.319   5.783
18397SOL    HW156632   5.519   1.334   5.750
18397SOL    HW256633   5.606   1.230   5.818
18398SOL     OW56634   5.689   1.774   6.543
18398SOL    HW156635   5.658   1.700   6.492
18398SOL    HW256636   5.773   1.798   6.503
18399SOL     OW56637   6.082   1.573   6.500
18399SOL    HW156638   6.151   1.638   6.516
18399SOL    HW256639   6.120   1.514   6.434
18400SOL     OW56640   6.553   0.788   6.820
18400SOL    HW156641   6.610   0.760   6.892
18400SOL    HW256642   6.469   0.744   6.838
18401SOL     OW56643   5.619   0.551   6.706
18401SOL    HW156644   5.681   0.534   6.635
18401SOL    HW256645   5.670   0.539   6.786
18402SOL     OW56646   5.784   0.529   7.317
18402SOL    HW156647   5.854   0.507   7.255
18402SOL    HW256648   5.737   0.602   7.275
18403SOL     OW56649   6.983   0.956   7.217
18403SOL    HW156650   7.001   1.048   7.202
18403SOL    HW256651   6.976   0.918   7.130
18404SOL     OW56652   6.364   0.507   5.950
18404SOL    HW156653   6.374   0.465   5.865
18404SOL    HW256654   6.315   0.588   5.931
18405SOL     OW56655   7.221   0.605   6.767
18405SOL    HW156656   7.214   0.550   6.845
18405SOL    HW256657   7.305   0.582   6.728
18406SOL     OW56658   5.875   1.548   7.334
18406SOL    HW156659   5.831   1.624   7.372
18406SOL    HW256660   5.831   1.473   7.374
18407SOL     OW56661   6.319   0.453   6.849
18407SOL    HW156662   6.259   0.380   6.832
18407SOL    HW256663   6.305   0.513   6.776
18408SOL     OW56664   6.509   1.676   7.056
18408SOL    HW156665   6.482   1.638   6.972
18408SOL    HW256666   6.506   1.771   7.042
18409SOL     OW56667   6.042   0.500   5.751
18409SOL    HW156668   6.099   0.572   5.780
18409SOL    HW256669   5.955   0.538   5.747
18410SOL     OW56670   5.803   1.145   7.066
18410SOL    HW156671   5.767   1.117   7.150
18410SOL    HW256672   5.781   1.074   7.005
18411SOL     OW56673   6.902   1.045   6.800
18411SOL    HW156674   6.919   0.980   6.732
18411SOL    HW256675   6.841   1.106   6.760
18412SOL     OW56676   6.929   0.858   5.875
18412SOL    HW156677   6.864   0.831   5.940
18412SOL    HW256678   6.882   0.855   5.792
18413SOL     OW56679   7.381   1.726   6.757
18413SOL    HW156680   7.434   1.755   6.684
18413SOL    HW256681   7.341   1.645   6.728
18414SOL     OW56682   6.833   1.734   6.704
18414SOL    HW156683   6.911   1.756   6.653
18414SOL    HW256684   6.839   1.639   6.716
18415SOL     OW56685   5.680   1.242   6.620
18415SOL    HW156686   5.644   1.270   6.704
18415SOL    HW256687   5.603   1.222   6.566
18416SOL     OW56688   6.252   1.673   7.320
18416SOL    HW156689   6.188   1.744   7.325
18416SOL    HW256690   6.310   1.699   7.247
18417SOL     OW56691   7.271   0.123   6.085
18417SOL    HW156692   7.357   0.122   6.041
18417SOL    HW256693   7.289   0.091   6.173
18418SOL     OW56694   6.982   1.570   6.083
18418SOL    HW156695   7.037   1.603   6.012
18418SOL    HW256696   6.927   1.644   6.107
18419SOL     OW56697   5.744   1.771   7.423
18419SOL    HW156698   5.685   1.718   7.476
18419SOL    HW256699   5.782   1.835   7.484
18420SOL     OW56700   6.904   0.953   6.306
18420SOL    HW156701   6.870   0.872   6.268
18420SOL    HW256702   6.919   1.011   6.231
18421SOL     OW56703   6.394   1.288   7.014
18421SOL    HW156704   6.355   1.319   7.096
18421SOL    HW256705   6.359   1.348   6.948
18422SOL     OW56706   6.256   1.622   5.742
18422SOL    HW156707   6.266   1.640   5.648
18422SOL    HW256708   6.197   1.547   5.746
18423SOL     OW56709   7.209   1.722   6.984
18423SOL    HW156710   7.261   1.724   6.904
18423SOL    HW256711   7.198   1.815   7.007
18424SOL     OW56712   7.435   0.186   6.549
18424SOL    HW156713   7.436   0.090   6.555
18424SOL    HW256714   7.351   0.206   6.509
18425SOL     OW56715   5.829   0.288   6.293
18425SOL    HW156716   5.751   0.336   6.266
18425SOL    HW256717   5.837   0.304   6.386
18426SOL     OW56718   6.796   1.599   5.620
18426SOL    HW156719   6.784   1.508   5.647
18426SOL    HW256720   6.728   1.614   5.555
18427SOL     OW56721   6.406   1.014   6.964
18427SOL    HW156722   6.449   0.998   6.880
18427SOL    HW256723   6.405   1.109   6.972
18428SOL     OW56724   6.494   0.898   5.862
18428SOL    HW156725   6.559   0.939   5.804
18428SOL    HW256726   6.546   0.847   5.924
18429SOL     OW56727   7.074   1.630   5.634
18429SOL    HW156728   6.981   1.619   5.619
18429SOL    HW256729   7.112   1.636   5.547
18430SOL     OW56730   7.188   1.283   6.863
18430SOL    HW156731   7.256   1.272   6.930
18430SOL    HW256732   7.130   1.350   6.900
18431SOL     OW56733   6.640   1.118   6.300
18431SOL    HW156734   6.568   1.066   6.335
18431SOL    HW256735   6.693   1.056   6.251
18432SOL     OW56736   6.621   0.265   6.528
18432SOL    HW156737   6.606   0.210   6.451
18432SOL    HW256738   6.622   0.203   6.601
18433SOL     OW56739   6.197   1.492   6.071
18433SOL    HW156740   6.244   1.440   6.005
18433SOL    HW256741   6.119   1.525   6.025
18434SOL     OW56742   7.325   0.430   6.971
18434SOL    HW156743   7.403   0.484   6.959
18434SOL    HW256744   7.342   0.351   6.920
18435SOL     OW56745   5.864   1.334   5.902
18435SOL    HW156746   5.777   1.331   5.861
18435SOL    HW256747   5.850   1.382   5.984
18436SOL     OW56748   5.703   1.059   7.316
18436SOL    HW156749   5.626   1.022   7.358
18436SOL    HW256750   5.776   1.008   7.350
18437SOL     OW56751   6.249   0.223   7.093
18437SOL    HW156752   6.313   0.158   7.064
18437SOL    HW256753   6.277   0.247   7.181
18438SOL     OW56754   5.664   0.324   5.614
18438SOL    HW156755   5.568   0.320   5.618
18438SOL    HW256756   5.683   0.405   5.566
18439SOL     OW56757   7.014   0.856   6.966
18439SOL    HW156758   6.961   0.913   6.911
18439SOL    HW256759   7.101   0.857   6.925
18440SOL     OW56760   5.697   0.217   5.904
18440SOL    HW156761   5.674   0.276   5.832
18440SOL    HW256762   5.736   0.141   5.862
18441SOL     OW56763   6.760   1.333   5.701
18441SOL    HW156764   6.667   1.312   5.699
18441SOL    HW256765   6.783   1.332   5.794
18442SOL     OW56766   6.198   0.851   7.028
18442SOL    HW156767   6.259   0.922   7.008
18442SOL    HW256768   6.252   0.773   7.034
18443SOL     OW56769   7.062   1.788   6.564
18443SOL    HW156770   7.076   1.853   6.495
18443SOL    HW256771   7.150   1.754   6.583
18444SOL     OW56772   6.280   0.569   7.303
18444SOL    HW156773   6.347   0.620   7.347
18444SOL    HW256774   6.305   0.478   7.318
18445SOL     OW56775   7.066   1.219   7.207
18445SOL    HW156776   7.062   1.220   7.303
18445SOL    HW256777   7.158   1.231   7.187
18446SOL     OW56778   5.955   1.737   7.145
18446SOL    HW156779   5.867   1.772   7.126
18446SOL    HW256780   5.939   1.659   7.198
18447SOL     OW56781   7.258   0.879   6.835
18447SOL    HW156782   7.247   0.794   6.793
18447SOL    HW256783   7.240   0.943   6.766
18448SOL     OW56784   6.836   0.329   6.034
18448SOL    HW156785   6.925   0.353   6.009
18448SOL    HW256786   6.825   0.363   6.122
18449SOL     OW56787   6.155   0.746   6.275
18449SOL    HW156788   6.206   0.823   6.252
18449SOL    HW256789   6.099   0.730   6.198
18450SOL     OW56790   7.344   0.374   7.235
18450SOL    HW156791   7.328   0.396   7.144
18450SOL    HW256792   7.278   0.308   7.257
18451SOL     OW56793   7.343   0.927   7.092
18451SOL    HW156794   7.320   1.018   7.108
18451SOL    HW256795   7.321   0.912   7.000
18452SOL     OW56796   6.462   1.368   5.640
18452SOL    HW156797   6.411   1.389   5.718
18452SOL    HW256798   6.463   1.449   5.589
18453SOL     OW56799   6.252   1.782   6.524
18453SOL    HW156800   6.226   1.872   6.508
18453SOL    HW256801   6.348   1.782   6.516
18454SOL     OW56802   6.446   0.981   6.442
18454SOL    HW156803   6.495   0.905   6.473
18454SOL    HW256804   6.412   1.021   6.522
18455SOL     OW56805   6.665   0.998   5.675
18455SOL    HW156806   6.642   1.048   5.598
18455SOL    HW256807   6.735   0.939   5.646
18456SOL     OW56808   7.430   1.564   6.431
18456SOL    HW156809   7.355   1.553   6.373
18456SOL    HW256810   7.435   1.483   6.481
18457SOL     OW56811   5.796   1.303   7.444
18457SOL    HW156812   5.755   1.229   7.399
18457SOL    HW256813   5.738   1.321   7.518
18458SOL     OW56814   5.665   1.206   6.258
18458SOL    HW156815   5.737   1.177   6.314
18458SOL    HW256816   5.696   1.192   6.169
18459SOL     OW56817   6.261   1.404   7.226
18459SOL    HW156818   6.178   1.366   7.253
18459SOL    HW256819   6.257   1.495   7.254
18460SOL     OW56820   7.421   0.223   6.824
18460SOL    HW156821   7.351   0.159   6.834
18460SOL    HW256822   7.435   0.230   6.730
18461SOL     OW56823   6.024   0.421   6.132
18461SOL    HW156824   6.037   0.367   6.054
18461SOL    HW256825   5.952   0.378   6.179
18462SOL     OW56826   7.271   1.490   6.686
18462SOL    HW156827   7.199   1.473   6.625
18462SOL    HW256828   7.269   1.415   6.746
18463SOL     OW56829   5.929   0.566   6.880
18463SOL    HW156830   5.982   0.504   6.928
18463SOL    HW256831   5.941   0.543   6.788
18464SOL     OW56832   6.417   1.590   6.253
18464SOL    HW156833   6.407   1.668   6.198
18464SOL    HW256834   6.340   1.536   6.233
18465SOL     OW56835   7.008   0.215   6.719
18465SOL    HW156836   7.074   0.165   6.767
18465SOL    HW256837   6.962   0.265   6.786
18466SOL     OW56838   6.622   0.078   6.718
18466SOL    HW156839   6.553   0.012   6.708
18466SOL    HW256840   6.703   0.027   6.730
18467SOL     OW56841   6.358   1.333   5.911
18467SOL    HW156842   6.330   1.242   5.915
18467SOL    HW256843   6.443   1.334   5.956
18468SOL     OW56844   6.211   1.548   6.882
18468SOL    HW156845   6.209   1.631   6.929
18468SOL    HW256846   6.295   1.548   6.836
18469SOL     OW56847   6.939   8.005   5.804
18469SOL    HW156848   6.967   7.922   5.764
18469SOL    HW256849   6.865   8.033   5.750
18470SOL     OW56850   6.899   0.452   6.272
18470SOL    HW156851   6.859   0.538   6.277
18470SOL    HW256852   6.894   0.418   6.361
18471SOL     OW56853   7.191   0.227   6.450
18471SOL    HW156854   7.108   0.219   6.496
18471SOL    HW256855   7.185   0.310   6.403
18472SOL     OW56856   5.648   1.076   5.908
18472SOL    HW156857   5.735   1.045   5.880
18472SOL    HW256858   5.600   0.996   5.930
18473SOL     OW56859   6.475   1.664   5.919
18473SOL    HW156860   6.400   1.645   5.863
18473SOL    HW256861   6.444   1.735   5.976
18474SOL     OW56862   5.806   0.635   7.579
18474SOL    HW156863   5.720   0.619   7.619
18474SOL    HW256864   5.796   0.607   7.488
18475SOL     OW56865   5.807   0.301   8.431
18475SOL    HW156866   5.840   0.259   8.511
18475SOL    HW256867   5.724   0.256   8.413
18476SOL     OW56868   5.603   0.392   8.071
18476SOL    HW156869   5.522   0.419   8.114
18476SOL    HW256870   5.575   0.335   8.000
18477SOL     OW56871   6.159   1.298   8.637
18477SOL    HW156872   6.076   1.301   8.592
18477SOL    HW256873   6.174   1.388   8.668
18478SOL     OW56874   7.159   1.518   8.147
18478SOL    HW156875   7.116   1.491   8.228
18478SOL    HW256876   7.089   1.520   8.082
18479SOL     OW56877   6.723   0.703   8.152
18479SOL    HW156878   6.772   0.785   8.147
18479SOL    HW256879   6.673   0.710   8.234
18480SOL     OW56880   7.352   0.607   7.680
18480SOL    HW156881   7.333   0.604   7.586
18480SOL    HW256882   7.318   0.525   7.713
18481SOL     OW56883   6.338   1.142   8.499
18481SOL    HW156884   6.271   1.175   8.557
18481SOL    HW256885   6.370   1.219   8.452
18482SOL     OW56886   6.472   0.755   9.274
18482SOL    HW156887   6.447   0.825   9.335
18482SOL    HW256888   6.492   0.800   9.192
18483SOL     OW56889   6.258   0.976   8.107
18483SOL    HW156890   6.329   0.967   8.171
18483SOL    HW256891   6.201   1.043   8.144
18484SOL     OW56892   6.291   1.162   9.275
18484SOL    HW156893   6.331   1.249   9.275
18484SOL    HW256894   6.205   1.175   9.235
18485SOL     OW56895   5.928   1.406   8.513
18485SOL    HW156896   5.848   1.371   8.474
18485SOL    HW256897   5.962   1.467   8.447
18486SOL     OW56898   7.044   1.509   8.809
18486SOL    HW156899   7.102   1.582   8.831
18486SOL    HW256900   6.972   1.516   8.872
18487SOL     OW56901   6.037   0.395   8.919
18487SOL    HW156902   6.118   0.344   8.921
18487SOL    HW256903   5.972   0.338   8.960
18488SOL     OW56904   7.197   0.448   8.171
18488SOL    HW156905   7.125   0.466   8.111
18488SOL    HW256906   7.220   0.533   8.207
18489SOL     OW56907   5.819   1.700   7.925
18489SOL    HW156908   5.830   1.781   7.975
18489SOL    HW256909   5.872   1.712   7.846
18490SOL     OW56910   6.728   1.336   9.136
18490SOL    HW156911   6.774   1.327   9.220
18490SOL    HW256912   6.675   1.256   9.129
18491SOL     OW56913   5.819   1.439   8.003
18491SOL    HW156914   5.820   1.533   7.985
18491SOL    HW256915   5.748   1.426   8.066
18492SOL     OW56916   5.868   1.090   8.342
18492SOL    HW156917   5.849   1.002   8.374
18492SOL    HW256918   5.806   1.147   8.389
18493SOL     OW56919   6.207   1.776   8.899
18493SOL    HW156920   6.117   1.763   8.929
18493SOL    HW256921   6.223   1.870   8.909
18494SOL     OW56922   6.169   0.986   7.572
18494SOL    HW156923   6.216   1.038   7.508
18494SOL    HW256924   6.204   1.015   7.657
18495SOL     OW56925   7.240   0.133   8.928
18495SOL    HW156926   7.168   0.116   8.868
18495SOL    HW256927   7.199   0.152   9.012
18496SOL     OW56928   5.706   0.652   8.012
18496SOL    HW156929   5.673   0.565   8.031
18496SOL    HW256930   5.693   0.701   8.094
18497SOL     OW56931   7.423   1.752   7.779
18497SOL    HW156932   7.492   1.730   7.841
18497SOL    HW256933   7.440   1.844   7.756
18498SOL     OW56934   5.623   1.583   7.574
18498SOL    HW156935   5.601   1.497   7.610
18498SOL    HW256936   5.599   1.645   7.642
18499SOL     OW56937   7.289   0.922   8.100
18499SOL    HW156938   7.351   0.862   8.059
18499SOL    HW256939   7.251   0.970   8.027
18500SOL     OW56940   7.216   1.098   7.893
18500SOL    HW156941   7.295   1.101   7.838
18500SOL    HW256942   7.232   1.163   7.962
18501SOL     OW56943   5.715   0.739   9.084
18501SOL    HW156944   5.805   0.765   9.066
18501SOL    HW256945   5.663   0.817   9.064
18502SOL     OW56946   6.201   1.393   8.191
18502SOL    HW156947   6.153   1.309   8.193
18502SOL    HW256948   6.183   1.428   8.103
18503SOL     OW56949   6.875   1.241   8.864
18503SOL    HW156950   6.899   1.169   8.805
18503SOL    HW256951   6.931   1.229   8.941
18504SOL     OW56952   6.422   0.036   8.018
18504SOL    HW156953   6.458   0.115   7.976
18504SOL    HW256954   6.331   0.033   7.989
18505SOL     OW56955   5.771   0.949   8.746
18505SOL    HW156956   5.855   0.912   8.716
18505SOL    HW256957   5.714   0.942   8.670
18506SOL     OW56958   7.157   1.004   7.631
18506SOL    HW156959   7.085   0.945   7.608
18506SOL    HW256960   7.157   1.007   7.726
18507SOL     OW56961   6.772   1.822   9.081
18507SOL    HW156962   6.770   1.888   9.012
18507SOL    HW256963   6.783   1.739   9.035
18508SOL     OW56964   5.887   0.323   9.198
18508SOL    HW156965   5.969   0.335   9.244
18508SOL    HW256966   5.820   0.321   9.267
18509SOL     OW56967   7.044   1.417   8.382
18509SOL    HW156968   6.983   1.423   8.456
18509SOL    HW256969   7.040   1.325   8.355
18510SOL     OW56970   7.251   1.756   8.029
18510SOL    HW156971   7.235   1.733   7.938
18510SOL    HW256972   7.224   1.679   8.079
18511SOL     OW56973   6.172   0.753   7.734
18511SOL    HW156974   6.183   0.814   7.662
18511SOL    HW256975   6.079   0.730   7.733
18512SOL     OW56976   6.880   0.375   8.382
18512SOL    HW156977   6.790   0.343   8.383
18512SOL    HW256978   6.926   0.319   8.445
18513SOL     OW56979   7.162   1.663   7.762
18513SOL    HW156980   7.252   1.692   7.751
18513SOL    HW256981   7.128   1.654   7.673
18514SOL     OW56982   6.354   0.646   8.899
18514SOL    HW156983   6.346   0.609   8.987
18514SOL    HW256984   6.348   0.570   8.841
18515SOL     OW56985   7.000   0.485   9.127
18515SOL    HW156986   7.002   0.526   9.213
18515SOL    HW256987   7.061   0.411   9.135
18516SOL     OW56988   6.541   0.884   9.034
18516SOL    HW156989   6.587   0.808   8.997
18516SOL    HW256990   6.488   0.917   8.961
18517SOL     OW56991   6.593   0.419   8.656
18517SOL    HW156992   6.507   0.437   8.696
18517SOL    HW256993   6.573   0.359   8.584
18518SOL     OW56994   6.641   0.702   7.885
18518SOL    HW156995   6.656   0.684   7.978
18518SOL    HW256996   6.560   0.655   7.864
18519SOL     OW56997   5.679   0.818   8.225
18519SOL    HW156998   5.755   0.814   8.284
18519SOL    HW256999   5.627   0.891   8.258
18520SOL     OW57000   5.710   1.844   9.020
18520SOL    HW157001   5.705   1.829   9.114
18520SOL    HW257002   5.619   1.849   8.991
18521SOL     OW57003   6.485   0.361   7.654
18521SOL    HW157004   6.533   0.414   7.591
18521SOL    HW257005   6.490   0.272   7.619
18522SOL     OW57006   7.300   0.570   9.275
18522SOL    HW157007   7.262   0.644   9.229
18522SOL    HW257008   7.322   0.506   9.207
18523SOL     OW57009   6.934   1.191   7.891
18523SOL    HW157010   7.027   1.167   7.893
18523SOL    HW257011   6.888   1.108   7.883
18524SOL     OW57012   6.136   0.189   8.387
18524SOL    HW157013   6.117   0.260   8.449
18524SOL    HW257014   6.153   0.234   8.304
18525SOL     OW57015   6.620   1.477   7.919
18525SOL    HW157016   6.574   1.538   7.862
18525SOL    HW257017   6.564   1.469   7.996
18526SOL     OW57018   5.936   1.820   8.319
18526SOL    HW157019   5.988   1.740   8.327
18526SOL    HW257020   5.999   1.891   8.333
18527SOL     OW57021   7.394   1.056   8.320
18527SOL    HW157022   7.348   1.021   8.244
18527SOL    HW257023   7.327   1.059   8.389
18528SOL     OW57024   6.810   1.542   8.954
18528SOL    HW157025   6.803   1.466   9.012
18528SOL    HW257026   6.727   1.545   8.907
18529SOL     OW57027   5.917   0.931   7.705
18529SOL    HW157028   5.977   0.966   7.639
18529SOL    HW257029   5.865   0.866   7.659
18530SOL     OW57030   7.060   0.771   8.194
18530SOL    HW157031   7.061   0.710   8.267
18530SOL    HW257032   7.151   0.797   8.182
18531SOL     OW57033   6.045   1.267   9.192
18531SOL    HW157034   6.023   1.274   9.099
18531SOL    HW257035   5.961   1.267   9.237
18532SOL     OW57036   6.737   1.727   7.709
18532SOL    HW157037   6.644   1.721   7.730
18532SOL    HW257038   6.744   1.689   7.621
18533SOL     OW57039   5.770   0.242   8.939
18533SOL    HW157040   5.680   0.274   8.945
18533SOL    HW257041   5.793   0.218   9.028
18534SOL     OW57042   7.205   1.376   7.557
18534SOL    HW157043   7.172   1.463   7.533
18534SOL    HW257044   7.138   1.315   7.526
18535SOL     OW57045   6.094   1.722   7.782
18535SOL    HW157046   6.106   1.792   7.845
18535SOL    HW257047   6.134   1.754   7.701
18536SOL     OW57048   6.997   0.133   7.877
18536SOL    HW157049   6.990   0.083   7.796
18536SOL    HW257050   7.091   0.143   7.891
18537SOL     OW57051   5.844   1.787   8.668
18537SOL    HW157052   5.886   1.703   8.685
18537SOL    HW257053   5.801   1.775   8.583
18538SOL     OW57054   6.544   1.686   8.341
18538SOL    HW157055   6.613   1.621   8.327
18538SOL    HW257056   6.472   1.657   8.286
18539SOL     OW57057   5.973   0.698   7.948
18539SOL    HW157058   6.003   0.608   7.957
18539SOL    HW257059   5.878   0.694   7.962
18540SOL     OW57060   7.129   0.207   9.175
18540SOL    HW157061   7.136   0.240   9.265
18540SOL    HW257062   7.062   0.140   9.179
18541SOL     OW57063   6.196   0.146   7.544
18541SOL    HW157064   6.261   0.093   7.591
18541SOL    HW257065   6.152   0.084   7.485
18542SOL     OW57066   6.346   0.297   9.228
18542SOL    HW157067   6.396   0.218   9.207
18542SOL    HW257068   6.284   0.269   9.296
18543SOL     OW57069   6.475   1.535   8.633
18543SOL    HW157070   6.448   1.494   8.550
18543SOL    HW257071   6.530   1.470   8.676
18544SOL     OW57072   6.922   0.597   8.888
18544SOL    HW157073   6.962   0.563   8.969
18544SOL    HW257074   6.963   0.683   8.876
18545SOL     OW57075   6.404   1.391   8.392
18545SOL    HW157076   6.484   1.381   8.341
18545SOL    HW257077   6.335   1.402   8.327
18546SOL     OW57078   6.511   0.524   8.336
18546SOL    HW157079   6.485   0.513   8.244
18546SOL    HW257080   6.547   0.439   8.361
18547SOL     OW57081   6.176   0.039   7.891
18547SOL    HW157082   6.103  -0.008   7.930
18547SOL    HW257083   6.138   0.123   7.863
18548SOL     OW57084   7.012   1.180   7.480
18548SOL    HW157085   7.072   1.129   7.534
18548SOL    HW257086   6.942   1.119   7.457
18549SOL     OW57087   5.867   0.040   7.640
18549SOL    HW157088   5.934   0.094   7.598
18549SOL    HW257089   5.913  -0.003   7.712
18550SOL     OW57090   6.532   0.265   7.913
18550SOL    HW157091   6.507   0.294   7.825
18550SOL    HW257092   6.627   0.275   7.915
18551SOL     OW57093   6.658   0.667   8.912
18551SOL    HW157094   6.604   0.589   8.925
18551SOL    HW257095   6.747   0.633   8.906
18552SOL     OW57096   6.828   1.608   8.266
18552SOL    HW157097   6.825   1.673   8.196
18552SOL    HW257098   6.894   1.545   8.238
18553SOL     OW57099   6.065   1.153   8.172
18553SOL    HW157100   5.998   1.136   8.238
18553SOL    HW257101   6.019   1.145   8.088
18554SOL     OW57102   6.853   1.798   8.071
18554SOL    HW157103   6.902   1.855   8.013
18554SOL    HW257104   6.774   1.848   8.094
18555SOL     OW57105   6.617   0.534   7.474
18555SOL    HW157106   6.575   0.617   7.450
18555SOL    HW257107   6.684   0.559   7.538
18556SOL     OW57108   5.680   0.550   8.880
18556SOL    HW157109   5.765   0.544   8.837
18556SOL    HW257110   5.667   0.644   8.893
18557SOL     OW57111   6.152   0.253   8.664
18557SOL    HW157112   6.188   0.189   8.725
18557SOL    HW257113   6.057   0.241   8.671
18558SOL     OW57114   6.442   0.477   8.077
18558SOL    HW157115   6.418   0.521   7.996
18558SOL    HW257116   6.464   0.388   8.050
18559SOL     OW57117   6.549   0.032   8.252
18559SOL    HW157118   6.504   0.036   8.168
18559SOL    HW257119   6.586  -0.056   8.256
18560SOL     OW57120   7.030   1.159   8.298
18560SOL    HW157121   6.962   1.094   8.281
18560SOL    HW257122   7.084   1.159   8.219
18561SOL     OW57123   7.045   0.611   8.418
18561SOL    HW157124   6.995   0.530   8.412
18561SOL    HW257125   7.104   0.598   8.492
18562SOL     OW57126   7.432   0.811   7.841
18562SOL    HW157127   7.489   0.757   7.895
18562SOL    HW257128   7.400   0.753   7.772
18563SOL     OW57129   6.063   1.418   7.588
18563SOL    HW157130   6.000   1.385   7.652
18563SOL    HW257131   6.009   1.461   7.522
18564SOL     OW57132   7.255   1.263   8.104
18564SOL    HW157133   7.350   1.259   8.112
18564SOL    HW257134   7.235   1.356   8.107
18565SOL     OW57135   6.981   0.528   7.521
18565SOL    HW157136   6.912   0.525   7.587
18565SOL    HW257137   7.018   0.617   7.529
18566SOL     OW57138   6.097   0.273   7.762
18566SOL    HW157139   6.141   0.230   7.689
18566SOL    HW257140   6.070   0.358   7.726
18567SOL     OW57141   7.328   1.250   9.002
18567SOL    HW157142   7.408   1.200   9.017
18567SOL    HW257143   7.352   1.341   9.023
18568SOL     OW57144   6.633   1.355   8.780
18568SOL    HW157145   6.557   1.323   8.829
18568SOL    HW257146   6.708   1.315   8.823
18569SOL     OW57147   7.192   1.623   9.111
18569SOL    HW157148   7.194   1.663   9.024
18569SOL    HW257149   7.266   1.563   9.112
18570SOL     OW57150   6.734   1.232   8.546
18570SOL    HW157151   6.663   1.247   8.608
18570SOL    HW257152   6.697   1.252   8.460
18571SOL     OW57153   7.212   1.101   8.524
18571SOL    HW157154   7.198   1.156   8.601
18571SOL    HW257155   7.131   1.108   8.474
18572SOL     OW57156   6.506   0.122   8.850
18572SOL    HW157157   6.517   0.104   8.757
18572SOL    HW257158   6.595   0.124   8.885
18573SOL     OW57159   6.560   1.117   9.170
18573SOL    HW157160   6.467   1.125   9.193
18573SOL    HW257161   6.564   1.039   9.114
18574SOL     OW57162   6.280   1.026   7.825
18574SOL    HW157163   6.300   1.067   7.909
18574SOL    HW257164   6.364   0.989   7.796
18575SOL     OW57165   6.010   0.816   8.691
18575SOL    HW157166   6.071   0.832   8.764
18575SOL    HW257167   5.974   0.729   8.708
18576SOL     OW57168   6.848   0.381   8.738
18576SOL    HW157169   6.878   0.462   8.780
18576SOL    HW257170   6.762   0.403   8.703
18577SOL     OW57171   5.650   1.576   8.803
18577SOL    HW157172   5.604   1.637   8.746
18577SOL    HW257173   5.742   1.601   8.795
18578SOL     OW57174   5.962   1.097   7.918
18578SOL    HW157175   5.941   1.185   7.885
18578SOL    HW257176   5.931   1.038   7.850
18579SOL     OW57177   6.140   0.519   8.315
18579SOL    HW157178   6.188   0.487   8.238
18579SOL    HW257179   6.209   0.550   8.374
18580SOL     OW57180   6.874   1.473   8.593
18580SOL    HW157181   6.922   1.469   8.675
18580SOL    HW257182   6.817   1.396   8.594
18581SOL     OW57183   7.168   0.631   7.939
18581SOL    HW157184   7.091   0.684   7.960
18581SOL    HW257185   7.203   0.669   7.858
18582SOL     OW57186   5.937   1.529   8.752
18582SOL    HW157187   5.922   1.480   8.671
18582SOL    HW257188   6.031   1.542   8.755
18583SOL     OW57189   6.007   0.737   9.060
18583SOL    HW157190   6.063   0.785   9.000
18583SOL    HW257191   6.050   0.652   9.070
18584SOL     OW57192   7.202   0.784   9.139
18584SOL    HW157193   7.114   0.820   9.132
18584SOL    HW257194   7.249   0.823   9.065
18585SOL     OW57195   6.629   0.077   9.197
18585SOL    HW157196   6.644   0.170   9.177
18585SOL    HW257197   6.536   0.063   9.178
18586SOL     OW57198   6.079   0.032   9.182
18586SOL    HW157199   6.069  -0.028   9.109
18586SOL    HW257200   5.990   0.065   9.198
18587SOL     OW57201   6.172   0.873   8.476
18587SOL    HW157202   6.193   0.966   8.478
18587SOL    HW257203   6.116   0.860   8.552
18588SOL     OW57204   6.928   0.857   8.476
18588SOL    HW157205   6.842   0.840   8.437
18588SOL    HW257206   6.977   0.776   8.463
18589SOL     OW57207   6.780   0.517   7.710
18589SOL    HW157208   6.787   0.445   7.772
18589SOL    HW257209   6.752   0.592   7.763
18590SOL     OW57210   5.885   0.206   8.681
18590SOL    HW157211   5.837   0.218   8.763
18590SOL    HW257212   5.868   0.115   8.657
18591SOL     OW57213   5.655   1.313   8.724
18591SOL    HW157214   5.676   1.262   8.803
18591SOL    HW257215   5.646   1.403   8.755
18592SOL     OW57216   6.311   0.632   8.501
18592SOL    HW157217   6.386   0.620   8.444
18592SOL    HW257218   6.279   0.720   8.482
18593SOL     OW57219   7.324   0.971   9.302
18593SOL    HW157220   7.287   0.896   9.255
18593SOL    HW257221   7.266   0.984   9.377
18594SOL     OW57222   5.991   0.096   8.119
18594SOL    HW157223   5.943   0.176   8.139
18594SOL    HW257224   5.926   0.037   8.082
18595SOL     OW57225   7.220   0.394   7.801
18595SOL    HW157226   7.241   0.317   7.854
18595SOL    HW257227   7.189   0.459   7.864
18596SOL     OW57228   6.616   0.763   8.414
18596SOL    HW157229   6.605   0.775   8.508
18596SOL    HW257230   6.587   0.673   8.397
18597SOL     OW57231   6.573   1.557   9.174
18597SOL    HW157232   6.549   1.605   9.095
18597SOL    HW257233   6.619   1.479   9.141
18598SOL     OW57234   7.459   1.525   9.024
18598SOL    HW157235   7.455   1.620   9.037
18598SOL    HW257236   7.533   1.497   9.078
18599SOL     OW57237   5.943   0.904   9.267
18599SOL    HW157238   6.027   0.924   9.310
18599SOL    HW257239   5.967   0.845   9.196
18600SOL     OW57240   7.131   0.245   7.581
18600SOL    HW157241   7.158   0.164   7.624
18600SOL    HW257242   7.153   0.314   7.644
18601SOL     OW57243   6.659   1.342   8.296
18601SOL    HW157244   6.652   1.261   8.246
18601SOL    HW257245   6.707   1.402   8.238
18602SOL     OW57246   5.892   0.809   8.397
18602SOL    HW157247   5.986   0.830   8.399
18602SOL    HW257248   5.888   0.718   8.427
18603SOL     OW57249   5.920   0.539   8.464
18603SOL    HW157250   5.877   0.455   8.447
18603SOL    HW257251   5.997   0.539   8.407
18604SOL     OW57252   6.752   0.362   9.153
18604SOL    HW157253   6.690   0.418   9.199
18604SOL    HW257254   6.829   0.417   9.140
18605SOL     OW57255   6.756   0.210   8.927
18605SOL    HW157256   6.759   0.264   9.006
18605SOL    HW257257   6.788   0.268   8.858
18606SOL     OW57258   5.601   1.309   7.642
18606SOL    HW157259   5.514   1.329   7.607
18606SOL    HW257260   5.592   1.223   7.683
18607SOL     OW57261   5.694   1.757   8.420
18607SOL    HW157262   5.658   1.690   8.363
18607SOL    HW257263   5.771   1.790   8.373
18608SOL     OW57264   6.085   1.582   8.360
18608SOL    HW157265   6.154   1.647   8.374
18608SOL    HW257266   6.122   1.522   8.295
18609SOL     OW57267   6.554   0.784   8.680
18609SOL    HW157268   6.610   0.755   8.752
18609SOL    HW257269   6.468   0.746   8.700
18610SOL     OW57270   5.622   0.545   8.574
18610SOL    HW157271   5.671   0.526   8.494
18610SOL    HW257272   5.687   0.538   8.644
18611SOL     OW57273   6.968   0.930   9.106
18611SOL    HW157274   6.989   1.023   9.100
18611SOL    HW257275   6.963   0.901   9.015
18612SOL     OW57276   6.402   0.576   7.819
18612SOL    HW157277   6.418   0.502   7.761
18612SOL    HW257278   6.327   0.621   7.782
18613SOL     OW57279   7.226   0.613   8.626
18613SOL    HW157280   7.219   0.552   8.699
18613SOL    HW257281   7.312   0.597   8.588
18614SOL     OW57282   5.844   1.549   9.180
18614SOL    HW157283   5.809   1.620   9.234
18614SOL    HW257284   5.827   1.470   9.230
18615SOL     OW57285   6.322   0.457   8.709
18615SOL    HW157286   6.259   0.386   8.697
18615SOL    HW257287   6.306   0.516   8.635
18616SOL     OW57288   6.528   1.672   8.915
18616SOL    HW157289   6.481   1.635   8.841
18616SOL    HW257290   6.514   1.766   8.909
18617SOL     OW57291   6.038   0.505   7.642
18617SOL    HW157292   6.104   0.568   7.611
18617SOL    HW257293   5.954   0.547   7.624
18618SOL     OW57294   5.731   1.143   8.933
18618SOL    HW157295   5.730   1.099   9.018
18618SOL    HW257296   5.743   1.073   8.870
18619SOL     OW57297   6.912   1.052   8.661
18619SOL    HW157298   6.924   0.982   8.597
18619SOL    HW257299   6.848   1.111   8.620
18620SOL     OW57300   6.847   0.900   7.873
18620SOL    HW157301   6.778   0.834   7.880
18620SOL    HW257302   6.878   0.893   7.783
18621SOL     OW57303   7.384   1.719   8.617
18621SOL    HW157304   7.439   1.750   8.545
18621SOL    HW257305   7.343   1.639   8.584
18622SOL     OW57306   5.690   1.253   8.465
18622SOL    HW157307   5.674   1.275   8.557
18622SOL    HW257308   5.603   1.235   8.429
18623SOL     OW57309   6.254   1.680   9.182
18623SOL    HW157310   6.183   1.744   9.189
18623SOL    HW257311   6.298   1.701   9.100
18624SOL     OW57312   7.273   0.161   7.939
18624SOL    HW157313   7.326   0.128   7.866
18624SOL    HW257314   7.280   0.093   8.006
18625SOL     OW57315   6.964   1.569   7.930
18625SOL    HW157316   7.031   1.601   7.869
18625SOL    HW257317   6.916   1.648   7.957
18626SOL     OW57318   5.731   1.784   9.288
18626SOL    HW157319   5.680   1.721   9.339
18626SOL    HW257320   5.767   1.844   9.354
18627SOL     OW57321   6.869   0.945   8.136
18627SOL    HW157322   6.939   0.886   8.162
18627SOL    HW257323   6.867   0.940   8.040
18628SOL     OW57324   6.381   1.285   8.872
18628SOL    HW157325   6.354   1.324   8.956
18628SOL    HW257326   6.307   1.302   8.813
18629SOL     OW57327   6.288   1.580   7.585
18629SOL    HW157328   6.278   1.621   7.499
18629SOL    HW257329   6.207   1.531   7.598
18630SOL     OW57330   7.229   1.724   8.850
18630SOL    HW157331   7.271   1.730   8.764
18630SOL    HW257332   7.212   1.814   8.875
18631SOL     OW57333   7.453   0.168   8.388
18631SOL    HW157334   7.444   0.082   8.430
18631SOL    HW257335   7.364   0.190   8.361
18632SOL     OW57336   5.857   0.334   8.161
18632SOL    HW157337   5.770   0.353   8.127
18632SOL    HW257338   5.844   0.325   8.256
18633SOL     OW57339   6.794   1.607   7.469
18633SOL    HW157340   6.758   1.519   7.464
18633SOL    HW257341   6.754   1.654   7.396
18634SOL     OW57342   6.407   1.013   8.830
18634SOL    HW157343   6.442   1.000   8.741
18634SOL    HW257344   6.401   1.108   8.839
18635SOL     OW57345   6.515   0.923   7.748
18635SOL    HW157346   6.572   0.965   7.684
18635SOL    HW257347   6.566   0.850   7.782
18636SOL     OW57348   7.076   1.617   7.497
18636SOL    HW157349   6.982   1.619   7.479
18636SOL    HW257350   7.118   1.630   7.412
18637SOL     OW57351   5.959   1.309   8.941
18637SOL    HW157352   5.944   1.385   8.884
18637SOL    HW257353   5.883   1.253   8.926
18638SOL     OW57354   7.203   1.289   8.742
18638SOL    HW157355   7.245   1.262   8.824
18638SOL    HW257356   7.134   1.350   8.770
18639SOL     OW57357   6.648   1.112   8.166
18639SOL    HW157358   6.576   1.057   8.197
18639SOL    HW257359   6.719   1.050   8.148
18640SOL     OW57360   6.620   0.268   8.388
18640SOL    HW157361   6.596   0.211   8.315
18640SOL    HW257362   6.627   0.209   8.463
18641SOL     OW57363   6.194   1.505   7.943
18641SOL    HW157364   6.238   1.448   7.880
18641SOL    HW257365   6.144   1.566   7.890
18642SOL     OW57366   7.301   0.433   8.825
18642SOL    HW157367   7.382   0.483   8.831
18642SOL    HW257368   7.324   0.355   8.775
18643SOL     OW57369   5.858   1.323   7.765
18643SOL    HW157370   5.772   1.331   7.725
18643SOL    HW257371   5.853   1.373   7.846
18644SOL     OW57372   5.711   1.043   9.190
18644SOL    HW157373   5.631   1.015   9.234
18644SOL    HW257374   5.780   0.990   9.229
18645SOL     OW57375   6.265   0.226   8.942
18645SOL    HW157376   6.338   0.172   8.910
18645SOL    HW257377   6.272   0.221   9.037
18646SOL     OW57378   5.662   0.332   7.481
18646SOL    HW157379   5.567   0.321   7.475
18646SOL    HW257380   5.681   0.407   7.425
18647SOL     OW57381   7.012   0.864   8.845
18647SOL    HW157382   6.960   0.921   8.788
18647SOL    HW257383   7.098   0.860   8.803
18648SOL     OW57384   5.684   0.227   7.759
18648SOL    HW157385   5.666   0.272   7.676
18648SOL    HW257386   5.737   0.151   7.733
18649SOL     OW57387   6.710   1.324   7.620
18649SOL    HW157388   6.629   1.352   7.576
18649SOL    HW257389   6.718   1.231   7.597
18650SOL     OW57390   6.191   0.851   8.889
18650SOL    HW157391   6.251   0.924   8.873
18650SOL    HW257392   6.247   0.774   8.894
18651SOL     OW57393   7.071   1.780   8.416
18651SOL    HW157394   7.073   1.849   8.350
18651SOL    HW257395   7.157   1.784   8.458
18652SOL     OW57396   6.301   0.562   9.154
18652SOL    HW157397   6.356   0.616   9.211
18652SOL    HW257398   6.321   0.472   9.180
18653SOL     OW57399   7.058   1.193   9.076
18653SOL    HW157400   7.046   1.205   9.170
18653SOL    HW257401   7.151   1.213   9.061
18654SOL     OW57402   5.963   1.738   9.014
18654SOL    HW157403   5.883   1.783   8.989
18654SOL    HW257404   5.934   1.658   9.058
18655SOL     OW57405   7.250   0.878   8.703
18655SOL    HW157406   7.245   0.789   8.667
18655SOL    HW257407   7.241   0.935   8.627
18656SOL     OW57408   6.803   0.322   7.911
18656SOL    HW157409   6.866   0.253   7.895
18656SOL    HW257410   6.838   0.371   7.985
18657SOL     OW57411   7.346   0.375   9.088
18657SOL    HW157412   7.320   0.393   8.998
18657SOL    HW257413   7.290   0.302   9.115
18658SOL     OW57414   7.342   0.934   8.953
18658SOL    HW157415   7.313   1.025   8.963
18658SOL    HW257416   7.319   0.911   8.863
18659SOL     OW57417   6.467   1.393   7.503
18659SOL    HW157418   6.402   1.448   7.547
18659SOL    HW257419   6.491   1.442   7.424
18660SOL     OW57420   6.259   1.793   8.384
18660SOL    HW157421   6.213   1.874   8.366
18660SOL    HW257422   6.352   1.816   8.378
18661SOL     OW57423   6.455   0.969   8.305
18661SOL    HW157424   6.505   0.898   8.345
18661SOL    HW257425   6.415   1.015   8.379
18662SOL     OW57426   6.671   1.047   7.553
18662SOL    HW157427   6.643   1.058   7.462
18662SOL    HW257428   6.739   0.980   7.549
18663SOL     OW57429   7.441   1.555   8.293
18663SOL    HW157430   7.369   1.551   8.230
18663SOL    HW257431   7.446   1.466   8.328
18664SOL     OW57432   5.793   1.293   9.295
18664SOL    HW157433   5.757   1.218   9.248
18664SOL    HW257434   5.731   1.308   9.366
18665SOL     OW57435   5.651   1.224   8.123
18665SOL    HW157436   5.645   1.168   8.201
18665SOL    HW257437   5.735   1.202   8.084
18666SOL     OW57438   6.279   1.404   9.104
18666SOL    HW157439   6.190   1.370   9.115
18666SOL    HW257440   6.272   1.497   9.124
18667SOL     OW57441   7.409   0.237   8.673
18667SOL    HW157442   7.354   0.160   8.686
18667SOL    HW257443   7.432   0.234   8.581
18668SOL     OW57444   6.038   0.436   7.983
18668SOL    HW157445   6.038   0.374   7.910
18668SOL    HW257446   5.973   0.401   8.045
18669SOL     OW57447   7.269   1.483   8.553
18669SOL    HW157448   7.203   1.463   8.487
18669SOL    HW257449   7.257   1.415   8.620
18670SOL     OW57450   5.913   0.560   8.740
18670SOL    HW157451   5.967   0.500   8.792
18670SOL    HW257452   5.931   0.536   8.650
18671SOL     OW57453   6.420   1.590   8.112
18671SOL    HW157454   6.409   1.669   8.060
18671SOL    HW257455   6.341   1.539   8.093
18672SOL     OW57456   7.012   0.230   8.571
18672SOL    HW157457   7.074   0.173   8.616
18672SOL    HW257458   6.962   0.272   8.641
18673SOL     OW57459   6.605   0.086   8.585
18673SOL    HW157460   6.519   0.064   8.550
18673SOL    HW257461   6.644   0.001   8.608
18674SOL     OW57462   6.347   1.318   7.804
18674SOL    HW157463   6.298   1.250   7.759
18674SOL    HW257464   6.433   1.317   7.763
18675SOL     OW57465   6.216   1.552   8.740
18675SOL    HW157466   6.213   1.631   8.794
18675SOL    HW257467   6.297   1.560   8.689
18676SOL     OW57468   6.970   7.992   7.644
18676SOL    HW157469   6.995   7.906   7.612
18676SOL    HW257470   6.887   8.012   7.600
18677SOL     OW57471   6.888   0.473   8.125
18677SOL    HW157472   6.831   0.550   8.132
18677SOL    HW257473   6.889   0.435   8.213
18678SOL     OW57474   7.204   0.223   8.322
18678SOL    HW157475   7.118   0.204   8.360
18678SOL    HW257476   7.189   0.299   8.266
18679SOL     OW57477   5.625   1.059   7.760
18679SOL    HW157478   5.719   1.056   7.740
18679SOL    HW257479   5.602   0.969   7.782
18680SOL     OW57480   6.473   1.661   7.779
18680SOL    HW157481   6.405   1.638   7.716
18680SOL    HW257482   6.435   1.731   7.832
18681SOL     OW57483   5.801   0.655   9.473
18681SOL    HW157484   5.718   0.629   9.513
18681SOL    HW257485   5.778   0.680   9.384
18682SOL     OW57486   5.817   0.293  10.304
18682SOL    HW157487   5.860   0.226  10.357
18682SOL    HW257488   5.731   0.256  10.283
18683SOL     OW57489   5.589   0.400   9.945
18683SOL    HW157490   5.503   0.420   9.983
18683SOL    HW257491   5.573   0.323   9.889
18684SOL     OW57492   6.155   1.306  10.496
18684SOL    HW157493   6.068   1.305  10.456
18684SOL    HW257494   6.164   1.394  10.531
18685SOL     OW57495   7.157   1.514  10.024
18685SOL    HW157496   7.115   1.490  10.106
18685SOL    HW257497   7.086   1.516   9.960
18686SOL     OW57498   6.706   0.702  10.010
18686SOL    HW157499   6.756   0.783   9.998
18686SOL    HW257500   6.671   0.709  10.099
18687SOL     OW57501   7.370   0.605   9.534
18687SOL    HW157502   7.342   0.593   9.443
18687SOL    HW257503   7.333   0.530   9.580
18688SOL     OW57504   6.324   1.141  10.360
18688SOL    HW157505   6.262   1.175  10.424
18688SOL    HW257506   6.363   1.220  10.321
18689SOL     OW57507   6.444   0.821  11.153
18689SOL    HW157508   6.533   0.851  11.170
18689SOL    HW257509   6.436   0.820  11.058
18690SOL     OW57510   6.263   1.005   9.939
18690SOL    HW157511   6.327   0.992  10.010
18690SOL    HW257512   6.192   1.054   9.980
18691SOL     OW57513   6.248   1.154  11.171
18691SOL    HW157514   6.313   1.224  11.168
18691SOL    HW257515   6.176   1.185  11.116
18692SOL     OW57516   5.913   1.422  10.372
18692SOL    HW157517   5.838   1.376  10.334
18692SOL    HW257518   5.952   1.469  10.299
18693SOL     OW57519   7.047   1.524  10.652
18693SOL    HW157520   7.104   1.598  10.672
18693SOL    HW257521   6.976   1.531  10.715
18694SOL     OW57522   6.017   0.405  10.839
18694SOL    HW157523   6.101   0.359  10.837
18694SOL    HW257524   5.953   0.336  10.821
18695SOL     OW57525   7.165   0.449  10.042
18695SOL    HW157526   7.095   0.474   9.981
18695SOL    HW257527   7.219   0.527  10.050
18696SOL     OW57528   5.803   1.714   9.776
18696SOL    HW157529   5.826   1.790   9.830
18696SOL    HW257530   5.875   1.705   9.715
18697SOL     OW57531   5.830   1.448   9.860
18697SOL    HW157532   5.800   1.539   9.855
18697SOL    HW257533   5.768   1.405   9.919
18698SOL     OW57534   5.867   1.094  10.207
18698SOL    HW157535   5.863   1.002  10.235
18698SOL    HW257536   5.798   1.137  10.259
18699SOL     OW57537   6.175   1.807  10.714
18699SOL    HW157538   6.105   1.780  10.774
18699SOL    HW257539   6.212   1.884  10.755
18700SOL     OW57540   6.167   0.980   9.453
18700SOL    HW157541   6.214   1.030   9.386
18700SOL    HW257542   6.204   1.012   9.536
18701SOL     OW57543   7.239   0.131  10.794
18701SOL    HW157544   7.176   0.095  10.731
18701SOL    HW257545   7.186   0.162  10.867
18702SOL     OW57546   5.711   0.651   9.869
18702SOL    HW157547   5.672   0.567   9.891
18702SOL    HW257548   5.702   0.704   9.949
18703SOL     OW57549   7.430   1.750   9.635
18703SOL    HW157550   7.495   1.726   9.701
18703SOL    HW257551   7.447   1.842   9.617
18704SOL     OW57552   5.635   1.585   9.439
18704SOL    HW157553   5.602   1.497   9.454
18704SOL    HW257554   5.599   1.637   9.511
18705SOL     OW57555   7.287   0.926   9.965
18705SOL    HW157556   7.363   0.871   9.950
18705SOL    HW257557   7.265   0.961   9.878
18706SOL     OW57558   7.235   1.102   9.736
18706SOL    HW157559   7.322   1.099   9.695
18706SOL    HW257560   7.244   1.167   9.807
18707SOL     OW57561   5.710   0.741  10.893
18707SOL    HW157562   5.800   0.774  10.896
18707SOL    HW257563   5.656   0.820  10.886
18708SOL     OW57564   6.204   1.401  10.035
18708SOL    HW157565   6.157   1.319  10.047
18708SOL    HW257566   6.188   1.425   9.943
18709SOL     OW57567   6.891   1.269  10.696
18709SOL    HW157568   6.920   1.181  10.672
18709SOL    HW257569   6.871   1.262  10.789
18710SOL     OW57570   6.447   0.084   9.846
18710SOL    HW157571   6.435   0.023   9.773
18710SOL    HW257572   6.358   0.102   9.877
18711SOL     OW57573   5.773   0.956  10.591
18711SOL    HW157574   5.859   0.917  10.577
18711SOL    HW257575   5.716   0.910  10.530
18712SOL     OW57576   7.118   1.002   9.508
18712SOL    HW157577   7.047   0.946   9.538
18712SOL    HW257578   7.160   1.032   9.588
18713SOL     OW57579   6.766   1.822  10.934
18713SOL    HW157580   6.777   1.886  10.864
18713SOL    HW257581   6.788   1.738  10.894
18714SOL     OW57582   5.903   0.239  11.170
18714SOL    HW157583   5.966   0.309  11.187
18714SOL    HW257584   5.817   0.279  11.187
18715SOL     OW57585   7.089   1.392  10.280
18715SOL    HW157586   7.012   1.420  10.331
18715SOL    HW257587   7.060   1.312  10.236
18716SOL     OW57588   7.244   1.752   9.887
18716SOL    HW157589   7.221   1.720   9.800
18716SOL    HW257590   7.223   1.679   9.946
18717SOL     OW57591   6.178   0.717   9.584
18717SOL    HW157592   6.171   0.800   9.536
18717SOL    HW257593   6.112   0.723   9.652
18718SOL     OW57594   6.887   0.374  10.236
18718SOL    HW157595   6.799   0.337  10.248
18718SOL    HW257596   6.941   0.328  10.300
18719SOL     OW57597   7.163   1.669   9.625
18719SOL    HW157598   7.255   1.694   9.615
18719SOL    HW257599   7.131   1.656   9.536
18720SOL     OW57600   6.362   0.642  10.781
18720SOL    HW157601   6.349   0.600  10.865
18720SOL    HW257602   6.349   0.573  10.716
18721SOL     OW57603   7.015   0.515  10.987
18721SOL    HW157604   7.004   0.534  11.080
18721SOL    HW257605   7.056   0.429  10.985
18722SOL     OW57606   6.534   0.881  10.894
18722SOL    HW157607   6.583   0.807  10.861
18722SOL    HW257608   6.479   0.908  10.820
18723SOL     OW57609   6.579   0.418  10.531
18723SOL    HW157610   6.493   0.438  10.567
18723SOL    HW257611   6.562   0.381  10.444
18724SOL     OW57612   6.640   0.706   9.737
18724SOL    HW157613   6.656   0.701   9.831
18724SOL    HW257614   6.556   0.662   9.725
18725SOL     OW57615   5.683   0.817  10.083
18725SOL    HW157616   5.759   0.814  10.141
18725SOL    HW257617   5.629   0.888  10.117
18726SOL     OW57618   5.697   1.840  10.877
18726SOL    HW157619   5.710   1.838  10.972
18726SOL    HW257620   5.614   1.795  10.863
18727SOL     OW57621   6.500   0.336   9.546
18727SOL    HW157622   6.546   0.382   9.476
18727SOL    HW257623   6.454   0.265   9.501
18728SOL     OW57624   7.312   0.623  11.087
18728SOL    HW157625   7.396   0.634  11.130
18728SOL    HW257626   7.317   0.535  11.047
18729SOL     OW57627   6.976   1.151   9.854
18729SOL    HW157628   7.054   1.131   9.803
18729SOL    HW257629   6.922   1.203   9.795
18730SOL     OW57630   6.136   0.248  10.199
18730SOL    HW157631   6.122   0.241  10.293
18730SOL    HW257632   6.137   0.342  10.181
18731SOL     OW57633   6.540   1.418   9.749
18731SOL    HW157634   6.531   1.508   9.718
18731SOL    HW257635   6.551   1.427   9.843
18732SOL     OW57636   5.934   1.818  10.187
18732SOL    HW157637   5.984   1.736  10.190
18732SOL    HW257638   6.000   1.887  10.200
18733SOL     OW57639   7.381   1.062  10.183
18733SOL    HW157640   7.339   1.027  10.105
18733SOL    HW257641   7.311   1.069  10.248
18734SOL     OW57642   6.816   1.568  10.804
18734SOL    HW157643   6.812   1.498  10.870
18734SOL    HW257644   6.743   1.549  10.745
18735SOL     OW57645   5.892   0.952   9.570
18735SOL    HW157646   5.963   0.967   9.507
18735SOL    HW257647   5.861   0.864   9.550
18736SOL     OW57648   7.065   0.759  10.036
18736SOL    HW157649   7.053   0.708  10.117
18736SOL    HW257650   7.144   0.810  10.051
18737SOL     OW57651   6.042   1.267  11.039
18737SOL    HW157652   6.016   1.277  10.947
18737SOL    HW257653   5.961   1.275  11.088
18738SOL     OW57654   6.714   1.772   9.545
18738SOL    HW157655   6.633   1.737   9.581
18738SOL    HW257656   6.738   1.711   9.475
18739SOL     OW57657   5.761   0.280  10.819
18739SOL    HW157658   5.713   0.354  10.781
18739SOL    HW257659   5.737   0.281  10.912
18740SOL     OW57660   7.223   1.383   9.394
18740SOL    HW157661   7.176   1.466   9.389
18740SOL    HW257662   7.155   1.317   9.377
18741SOL     OW57663   6.080   1.723   9.649
18741SOL    HW157664   6.102   1.797   9.705
18741SOL    HW257665   6.133   1.736   9.570
18742SOL     OW57666   6.995   0.140   9.718
18742SOL    HW157667   7.008   0.080   9.645
18742SOL    HW257668   7.082   0.152   9.756
18743SOL     OW57669   5.844   1.803  10.545
18743SOL    HW157670   5.890   1.723  10.571
18743SOL    HW257671   5.828   1.792  10.451
18744SOL     OW57672   5.984   0.688   9.782
18744SOL    HW157673   6.001   0.595   9.800
18744SOL    HW257674   5.890   0.698   9.799
18745SOL     OW57675   7.124   0.218  11.034
18745SOL    HW157676   7.131   0.254  11.122
18745SOL    HW257677   7.044   0.165  11.036
18746SOL     OW57678   6.205   0.152   9.407
18746SOL    HW157679   6.267   0.093   9.450
18746SOL    HW257680   6.151   0.095   9.353
18747SOL     OW57681   6.365   0.312  11.118
18747SOL    HW157682   6.387   0.249  11.049
18747SOL    HW257683   6.298   0.268  11.170
18748SOL     OW57684   6.489   1.531  10.464
18748SOL    HW157685   6.439   1.464  10.418
18748SOL    HW257686   6.545   1.483  10.525
18749SOL     OW57687   6.922   0.587  10.739
18749SOL    HW157688   6.963   0.562  10.821
18749SOL    HW257689   6.956   0.674  10.720
18750SOL     OW57690   6.406   1.384  10.231
18750SOL    HW157691   6.471   1.334  10.181
18750SOL    HW257692   6.328   1.384  10.176
18751SOL     OW57693   6.492   0.488  10.194
18751SOL    HW157694   6.490   0.485  10.098
18751SOL    HW257695   6.545   0.412  10.219
18752SOL     OW57696   6.165   0.026   9.730
18752SOL    HW157697   6.099  -0.015   9.786
18752SOL    HW257698   6.137   0.117   9.723
18753SOL     OW57699   7.019   1.201   9.347
18753SOL    HW157700   7.050   1.126   9.397
18753SOL    HW257701   6.934   1.222   9.384
18754SOL     OW57702   5.932   0.012   9.489
18754SOL    HW157703   5.889   0.097   9.499
18754SOL    HW257704   5.925  -0.029   9.576
18755SOL     OW57705   6.658   0.663  10.780
18755SOL    HW157706   6.593   0.593  10.782
18755SOL    HW257707   6.740   0.620  10.758
18756SOL     OW57708   6.793   1.613  10.122
18756SOL    HW157709   6.817   1.665  10.045
18756SOL    HW257710   6.854   1.642  10.190
18757SOL     OW57711   6.059   1.169  10.031
18757SOL    HW157712   5.997   1.142  10.099
18757SOL    HW257713   6.013   1.152   9.949
18758SOL     OW57714   6.848   1.796   9.922
18758SOL    HW157715   6.899   1.857   9.869
18758SOL    HW257716   6.778   1.850   9.960
18759SOL     OW57717   6.614   0.522   9.339
18759SOL    HW157718   6.571   0.605   9.319
18759SOL    HW257719   6.677   0.542   9.408
18760SOL     OW57720   5.690   0.541  10.710
18760SOL    HW157721   5.779   0.547  10.675
18760SOL    HW257722   5.684   0.614  10.772
18761SOL     OW57723   6.457   0.425   9.911
18761SOL    HW157724   6.425   0.502   9.864
18761SOL    HW257725   6.378   0.376   9.935
18762SOL     OW57726   6.598   0.048  10.079
18762SOL    HW157727   6.546   0.044   9.998
18762SOL    HW257728   6.598  -0.042  10.111
18763SOL     OW57729   7.002   1.167  10.150
18763SOL    HW157730   6.946   1.092  10.170
18763SOL    HW257731   7.012   1.164  10.055
18764SOL     OW57732   7.049   0.616  10.279
18764SOL    HW157733   7.000   0.534  10.267
18764SOL    HW257734   7.107   0.597  10.353
18765SOL     OW57735   7.418   0.813   9.699
18765SOL    HW157736   7.475   0.764   9.758
18765SOL    HW257737   7.395   0.751   9.630
18766SOL     OW57738   6.096   1.386   9.471
18766SOL    HW157739   6.015   1.373   9.519
18766SOL    HW257740   6.078   1.355   9.383
18767SOL     OW57741   7.272   1.275   9.935
18767SOL    HW157742   7.363   1.273   9.962
18767SOL    HW257743   7.239   1.359   9.967
18768SOL     OW57744   6.987   0.577   9.384
18768SOL    HW157745   6.917   0.551   9.443
18768SOL    HW257746   7.066   0.534   9.419
18769SOL     OW57747   6.089   0.278   9.618
18769SOL    HW157748   6.130   0.227   9.549
18769SOL    HW257749   6.065   0.361   9.576
18770SOL     OW57750   7.337   1.246  10.867
18770SOL    HW157751   7.423   1.207  10.847
18770SOL    HW257752   7.358   1.334  10.897
18771SOL     OW57753   6.635   1.378  10.638
18771SOL    HW157754   6.561   1.345  10.689
18771SOL    HW257755   6.712   1.342  10.681
18772SOL     OW57756   7.198   1.631  10.967
18772SOL    HW157757   7.191   1.667  10.879
18772SOL    HW257758   7.278   1.580  10.966
18773SOL     OW57759   6.719   1.204  10.413
18773SOL    HW157760   6.660   1.224  10.487
18773SOL    HW257761   6.682   1.125  10.374
18774SOL     OW57762   7.200   1.120  10.389
18774SOL    HW157763   7.175   1.138  10.480
18774SOL    HW257764   7.119   1.091  10.348
18775SOL     OW57765   6.525   0.118  10.726
18775SOL    HW157766   6.520   0.092  10.634
18775SOL    HW257767   6.618   0.121  10.745
18776SOL     OW57768   6.539   1.095  11.069
18776SOL    HW157769   6.584   1.172  11.034
18776SOL    HW257770   6.536   1.034  10.996
18777SOL     OW57771   6.321   1.091   9.682
18777SOL    HW157772   6.292   1.062   9.768
18777SOL    HW257773   6.386   1.026   9.656
18778SOL     OW57774   6.006   0.816  10.564
18778SOL    HW157775   6.072   0.826  10.633
18778SOL    HW257776   5.978   0.724  10.570
18779SOL     OW57777   6.838   0.375  10.592
18779SOL    HW157778   6.871   0.457  10.629
18779SOL    HW257779   6.749   0.396  10.563
18780SOL     OW57780   5.659   1.576  10.673
18780SOL    HW157781   5.622   1.629  10.603
18780SOL    HW257782   5.753   1.572  10.653
18781SOL     OW57783   5.937   1.124   9.790
18781SOL    HW157784   5.914   1.194   9.728
18781SOL    HW257785   5.927   1.044   9.739
18782SOL     OW57786   6.144   0.524  10.163
18782SOL    HW157787   6.156   0.587  10.092
18782SOL    HW257788   6.208   0.552  10.229
18783SOL     OW57789   6.829   1.354   9.693
18783SOL    HW157790   6.881   1.424   9.732
18783SOL    HW257791   6.741   1.367   9.728
18784SOL     OW57792   6.873   1.448  10.440
18784SOL    HW157793   6.916   1.451  10.525
18784SOL    HW257794   6.819   1.370  10.443
18785SOL     OW57795   7.148   0.630   9.802
18785SOL    HW157796   7.104   0.680   9.870
18785SOL    HW257797   7.202   0.695   9.756
18786SOL     OW57798   5.928   1.541  10.610
18786SOL    HW157799   5.917   1.493  10.528
18786SOL    HW257800   6.022   1.547  10.623
18787SOL     OW57801   5.997   0.743  10.924
18787SOL    HW157802   6.059   0.786  10.865
18787SOL    HW257803   6.030   0.653  10.931
18788SOL     OW57804   6.632   0.088  11.051
18788SOL    HW157805   6.653   0.178  11.024
18788SOL    HW257806   6.542   0.074  11.023
18789SOL     OW57807   6.059   0.009  11.078
18789SOL    HW157808   6.068  -0.059  11.012
18789SOL    HW257809   6.045   0.090  11.028
18790SOL     OW57810   6.152   0.890  10.339
18790SOL    HW157811   6.208   0.965  10.359
18790SOL    HW257812   6.110   0.869  10.422
18791SOL     OW57813   6.970   0.871  10.329
18791SOL    HW157814   6.875   0.869  10.311
18791SOL    HW257815   6.998   0.781  10.317
18792SOL     OW57816   6.779   0.540   9.561
18792SOL    HW157817   6.798   0.456   9.602
18792SOL    HW257818   6.742   0.593   9.632
18793SOL     OW57819   5.855   0.136  10.580
18793SOL    HW157820   5.839   0.209  10.639
18793SOL    HW257821   5.947   0.147  10.553
18794SOL     OW57822   5.640   1.311  10.582
18794SOL    HW157823   5.664   1.249  10.651
18794SOL    HW257824   5.636   1.396  10.626
18795SOL     OW57825   6.312   0.627  10.353
18795SOL    HW157826   6.390   0.598  10.305
18795SOL    HW257827   6.308   0.721  10.337
18796SOL     OW57828   7.262   0.952  11.145
18796SOL    HW157829   7.246   1.042  11.116
18796SOL    HW257830   7.224   0.949  11.233
18797SOL     OW57831   6.004   0.094   9.971
18797SOL    HW157832   5.946   0.167   9.995
18797SOL    HW257833   5.946   0.018   9.969
18798SOL     OW57834   7.221   0.403   9.664
18798SOL    HW157835   7.247   0.329   9.719
18798SOL    HW257836   7.191   0.469   9.726
18799SOL     OW57837   6.561   1.560  11.036
18799SOL    HW157838   6.551   1.607  10.953
18799SOL    HW257839   6.605   1.478  11.012
18800SOL     OW57840   7.436   1.500  10.908
18800SOL    HW157841   7.458   1.529  10.819
18800SOL    HW257842   7.516   1.515  10.959
18801SOL     OW57843   5.947   0.932  11.126
18801SOL    HW157844   6.020   0.988  11.101
18801SOL    HW257845   5.958   0.853  11.074
18802SOL     OW57846   7.170   0.282   9.428
18802SOL    HW157847   7.183   0.193   9.458
18802SOL    HW257848   7.179   0.336   9.507
18803SOL     OW57849   6.870   0.824   9.341
18803SOL    HW157850   6.912   0.739   9.349
18803SOL    HW257851   6.903   0.859   9.258
18804SOL     OW57852   6.650   1.349  10.103
18804SOL    HW157853   6.642   1.260  10.069
18804SOL    HW257854   6.744   1.361  10.116
18805SOL     OW57855   5.893   0.815  10.259
18805SOL    HW157856   5.986   0.839  10.267
18805SOL    HW257857   5.890   0.723  10.285
18806SOL     OW57858   5.920   0.540  10.316
18806SOL    HW157859   5.885   0.450  10.311
18806SOL    HW257860   5.998   0.538  10.261
18807SOL     OW57861   6.755   0.370  11.011
18807SOL    HW157862   6.680   0.417  11.049
18807SOL    HW257863   6.818   0.438  10.989
18808SOL     OW57864   6.778   0.206  10.790
18808SOL    HW157865   6.762   0.265  10.863
18808SOL    HW257866   6.795   0.264  10.716
18809SOL     OW57867   5.606   1.308   9.498
18809SOL    HW157868   5.517   1.326   9.468
18809SOL    HW257869   5.601   1.222   9.539
18810SOL     OW57870   5.677   1.777  10.265
18810SOL    HW157871   5.643   1.701  10.218
18810SOL    HW257872   5.763   1.794  10.227
18811SOL     OW57873   6.090   1.592  10.209
18811SOL    HW157874   6.168   1.643  10.231
18811SOL    HW257875   6.123   1.524  10.149
18812SOL     OW57876   6.564   0.855  10.581
18812SOL    HW157877   6.594   0.776  10.625
18812SOL    HW257878   6.596   0.846  10.492
18813SOL     OW57879   5.625   0.557  10.428
18813SOL    HW157880   5.696   0.534  10.368
18813SOL    HW257881   5.660   0.540  10.515
18814SOL     OW57882   5.781   0.516  11.036
18814SOL    HW157883   5.858   0.491  10.984
18814SOL    HW257884   5.745   0.591  10.990
18815SOL     OW57885   6.988   0.912  10.975
18815SOL    HW157886   7.007   1.006  10.973
18815SOL    HW257887   6.958   0.892  10.887
18816SOL     OW57888   6.405   0.578   9.677
18816SOL    HW157889   6.411   0.504   9.617
18816SOL    HW257890   6.328   0.627   9.646
18817SOL     OW57891   7.229   0.612  10.496
18817SOL    HW157892   7.218   0.544  10.563
18817SOL    HW257893   7.313   0.592  10.456
18818SOL     OW57894   5.821   1.543  11.031
18818SOL    HW157895   5.818   1.609  11.100
18818SOL    HW257896   5.830   1.460  11.078
18819SOL     OW57897   6.310   0.472  10.578
18819SOL    HW157898   6.256   0.396  10.560
18819SOL    HW257899   6.301   0.528  10.501
18820SOL     OW57900   6.502   1.689  10.795
18820SOL    HW157901   6.480   1.645  10.713
18820SOL    HW257902   6.505   1.782  10.773
18821SOL     OW57903   6.032   0.504   9.483
18821SOL    HW157904   6.096   0.572   9.506
18821SOL    HW257905   5.948   0.550   9.485
18822SOL     OW57906   5.724   1.140  10.783
18822SOL    HW157907   5.727   1.096  10.868
18822SOL    HW257908   5.741   1.071  10.720
18823SOL     OW57909   6.925   1.043  10.530
18823SOL    HW157910   6.938   0.975  10.463
18823SOL    HW257911   6.853   1.096  10.497
18824SOL     OW57912   6.899   0.870   9.615
18824SOL    HW157913   6.837   0.825   9.673
18824SOL    HW257914   6.873   0.842   9.527
18825SOL     OW57915   7.337   1.736  10.431
18825SOL    HW157916   7.413   1.789  10.408
18825SOL    HW257917   7.337   1.665  10.366
18826SOL     OW57918   6.818   1.720  10.392
18826SOL    HW157919   6.904   1.756  10.370
18826SOL    HW257920   6.837   1.632  10.425
18827SOL     OW57921   5.670   1.280  10.313
18827SOL    HW157922   5.652   1.286  10.407
18827SOL    HW257923   5.608   1.215  10.281
18828SOL     OW57924   6.271   1.671  11.058
18828SOL    HW157925   6.229   1.755  11.042
18828SOL    HW257926   6.357   1.679  11.017
18829SOL     OW57927   7.255   0.145   9.810
18829SOL    HW157928   7.350   0.149   9.808
18829SOL    HW257929   7.234   0.091   9.886
18830SOL     OW57930   6.973   1.568   9.805
18830SOL    HW157931   7.034   1.599   9.738
18830SOL    HW257932   6.926   1.647   9.833
18831SOL     OW57933   5.726   1.795  11.147
18831SOL    HW157934   5.674   1.732  11.197
18831SOL    HW257935   5.776   1.842  11.213
18832SOL     OW57936   6.859   0.928   9.966
18832SOL    HW157937   6.931   0.869   9.989
18832SOL    HW257938   6.901   0.998   9.916
18833SOL     OW57939   6.385   1.299  10.718
18833SOL    HW157940   6.358   1.338  10.801
18833SOL    HW257941   6.303   1.270  10.677
18834SOL     OW57942   6.269   1.604   9.448
18834SOL    HW157943   6.263   1.635   9.358
18834SOL    HW257944   6.195   1.544   9.457
18835SOL     OW57945   7.216   1.736  10.697
18835SOL    HW157946   7.260   1.742  10.612
18835SOL    HW257947   7.199   1.827  10.722
18836SOL     OW57948   7.443   0.178  10.268
18836SOL    HW157949   7.460   0.086  10.246
18836SOL    HW257950   7.359   0.198  10.227
18837SOL     OW57951   5.838   0.310  10.025
18837SOL    HW157952   5.754   0.352  10.005
18837SOL    HW257953   5.844   0.312  10.120
18838SOL     OW57954   6.794   1.599   9.346
18838SOL    HW157955   6.784   1.507   9.369
18838SOL    HW257956   6.729   1.614   9.278
18839SOL     OW57957   6.380   1.016  10.688
18839SOL    HW157958   6.443   0.966  10.636
18839SOL    HW257959   6.418   1.104  10.694
18840SOL     OW57960   6.510   0.921   9.596
18840SOL    HW157961   6.575   0.950   9.532
18840SOL    HW257962   6.554   0.851   9.645
18841SOL     OW57963   7.072   1.626   9.361
18841SOL    HW157964   6.977   1.618   9.348
18841SOL    HW257965   7.108   1.634   9.272
18842SOL     OW57966   5.941   1.312  10.795
18842SOL    HW157967   5.927   1.383  10.733
18842SOL    HW257968   5.869   1.251  10.779
18843SOL     OW57969   7.187   1.285  10.618
18843SOL    HW157970   7.232   1.263  10.699
18843SOL    HW257971   7.115   1.342  10.644
18844SOL     OW57972   6.640   1.099  10.014
18844SOL    HW157973   6.570   1.051  10.057
18844SOL    HW257974   6.710   1.035  10.002
18845SOL     OW57975   6.631   0.256  10.256
18845SOL    HW157976   6.624   0.194  10.183
18845SOL    HW257977   6.631   0.200  10.334
18846SOL     OW57978   6.178   1.471   9.760
18846SOL    HW157979   6.102   1.417   9.734
18846SOL    HW257980   6.152   1.560   9.737
18847SOL     OW57981   7.310   0.427  10.697
18847SOL    HW157982   7.393   0.475  10.693
18847SOL    HW257983   7.327   0.346  10.647
18848SOL     OW57984   5.867   1.338   9.619
18848SOL    HW157985   5.782   1.335   9.576
18848SOL    HW257986   5.850   1.382   9.703
18849SOL     OW57987   5.700   1.045  11.042
18849SOL    HW157988   5.620   1.018  11.087
18849SOL    HW257989   5.770   0.997  11.085
18850SOL     OW57990   6.242   0.225  10.831
18850SOL    HW157991   6.232   0.211  10.737
18850SOL    HW257992   6.294   0.150  10.861
18851SOL     OW57993   5.660   0.383   9.345
18851SOL    HW157994   5.669   0.314   9.410
18851SOL    HW257995   5.594   0.442   9.382
18852SOL     OW57996   7.016   0.845  10.707
18852SOL    HW157997   6.960   0.905  10.658
18852SOL    HW257998   7.101   0.850  10.664
18853SOL     OW57999   5.701   0.199   9.563
18853SOL    HW158000   5.621   0.146   9.555
18853SOL    HW258001   5.727   0.189   9.654
18854SOL     OW58002   6.770   1.329   9.424
18854SOL    HW158003   6.695   1.270   9.430
18854SOL    HW258004   6.800   1.338   9.515
18855SOL     OW58005   6.190   0.841  10.758
18855SOL    HW158006   6.245   0.916  10.735
18855SOL    HW258007   6.251   0.767  10.765
18856SOL     OW58008   7.069   1.787  10.290
18856SOL    HW158009   7.089   1.856  10.226
18856SOL    HW258010   7.146   1.786  10.347
18857SOL     OW58011   6.305   0.561  11.033
18857SOL    HW158012   6.322   0.615  11.110
18857SOL    HW258013   6.326   0.472  11.060
18858SOL     OW58014   7.080   1.165  10.943
18858SOL    HW158015   7.040   1.208  11.018
18858SOL    HW258016   7.160   1.214  10.926
18859SOL     OW58017   5.958   1.739  10.875
18859SOL    HW158018   5.865   1.764  10.870
18859SOL    HW258019   5.957   1.649  10.909
18860SOL     OW58020   7.255   0.874  10.566
18860SOL    HW158021   7.251   0.783  10.537
18860SOL    HW258022   7.250   0.925  10.485
18861SOL     OW58023   6.791   0.314   9.769
18861SOL    HW158024   6.861   0.253   9.747
18861SOL    HW258025   6.825   0.366   9.842
18862SOL     OW58026   6.180   0.726   9.975
18862SOL    HW158027   6.215   0.815   9.966
18862SOL    HW258028   6.110   0.721   9.910
18863SOL     OW58029   7.333   0.383  10.964
18863SOL    HW158030   7.323   0.395  10.870
18863SOL    HW258031   7.274   0.311  10.985
18864SOL     OW58032   7.302   0.924  10.831
18864SOL    HW158033   7.310   1.019  10.840
18864SOL    HW258034   7.300   0.910  10.737
18865SOL     OW58035   6.444   1.401   9.405
18865SOL    HW158036   6.389   1.478   9.413
18865SOL    HW258037   6.499   1.418   9.328
18866SOL     OW58038   6.291   1.800  10.241
18866SOL    HW158039   6.234   1.873  10.218
18866SOL    HW258040   6.352   1.835  10.305
18867SOL     OW58041   6.427   0.988  10.154
18867SOL    HW158042   6.497   0.934  10.191
18867SOL    HW258043   6.385   1.027  10.231
18868SOL     OW58044   6.675   1.011   9.398
18868SOL    HW158045   6.645   1.042   9.313
18868SOL    HW258046   6.742   0.945   9.378
18869SOL     OW58047   7.384   1.538  10.228
18869SOL    HW158048   7.333   1.538  10.147
18869SOL    HW258049   7.438   1.459  10.223
18870SOL     OW58050   5.808   1.303  11.168
18870SOL    HW158051   5.748   1.232  11.148
18870SOL    HW258052   5.803   1.314  11.263
18871SOL     OW58053   5.673   1.240   9.982
18871SOL    HW158054   5.658   1.186  10.060
18871SOL    HW258055   5.732   1.188   9.928
18872SOL     OW58056   6.251   1.419  10.924
18872SOL    HW158057   6.185   1.366  10.969
18872SOL    HW258058   6.263   1.495  10.981
18873SOL     OW58059   7.410   0.220  10.546
18873SOL    HW158060   7.340   0.155  10.551
18873SOL    HW258061   7.435   0.223  10.454
18874SOL     OW58062   6.018   0.425   9.843
18874SOL    HW158063   6.025   0.362   9.771
18874SOL    HW258064   5.955   0.386   9.903
18875SOL     OW58065   5.935   0.551  10.598
18875SOL    HW158066   5.993   0.494  10.648
18875SOL    HW258067   5.950   0.527  10.506
18876SOL     OW58068   6.439   1.600  10.006
18876SOL    HW158069   6.423   1.672   9.944
18876SOL    HW258070   6.359   1.547  10.002
18877SOL     OW58071   7.033   0.261  10.435
18877SOL    HW158072   7.072   0.180  10.468
18877SOL    HW258073   6.970   0.286  10.502
18878SOL     OW58074   6.589   0.069  10.448
18878SOL    HW158075   6.502   0.059  10.410
18878SOL    HW258076   6.614  -0.019  10.475
18879SOL     OW58077   6.205   1.565  10.586
18879SOL    HW158078   6.202   1.649  10.632
18879SOL    HW258079   6.298   1.551  10.567
18880SOL     OW58080   6.953   8.004   9.408
18880SOL    HW158081   7.032   7.954   9.430
18880SOL    HW258082   6.883   7.962   9.458
18881SOL     OW58083   6.865   0.469   9.979
18881SOL    HW158084   6.813   0.548   9.994
18881SOL    HW258085   6.879   0.433  10.067
18882SOL     OW58086   7.201   0.208  10.162
18882SOL    HW158087   7.124   0.175  10.209
18882SOL    HW258088   7.173   0.293  10.127
18883SOL     OW58089   5.635   1.065   9.626
18883SOL    HW158090   5.726   1.050   9.599
18883SOL    HW258091   5.603   0.977   9.648
18884SOL     OW58092   6.468   1.660   9.644
18884SOL    HW158093   6.399   1.655   9.579
18884SOL    HW258094   6.442   1.733   9.701
18885SOL     OW58095   5.796   0.633  11.298
18885SOL    HW158096   5.712   0.615  11.341
18885SOL    HW258097   5.787   0.598  11.210
18886SOL     OW58098   5.813   0.292  12.161
18886SOL    HW158099   5.841   0.252  12.243
18886SOL    HW258100   5.732   0.246  12.139
18887SOL     OW58101   5.597   0.409  11.802
18887SOL    HW158102   5.508   0.417  11.838
18887SOL    HW258103   5.590   0.342  11.734
18888SOL     OW58104   6.141   1.259  12.346
18888SOL    HW158105   6.060   1.298  12.312
18888SOL    HW258106   6.195   1.334  12.371
18889SOL     OW58107   7.160   1.515  11.887
18889SOL    HW158108   7.118   1.490  11.969
18889SOL    HW258109   7.089   1.520  11.823
18890SOL     OW58110   6.720   0.695  11.866
18890SOL    HW158111   6.763   0.779  11.860
18890SOL    HW258112   6.668   0.700  11.947
18891SOL     OW58113   7.364   0.595  11.383
18891SOL    HW158114   7.298   0.591  11.314
18891SOL    HW258115   7.340   0.524  11.443
18892SOL     OW58116   6.341   1.134  12.218
18892SOL    HW158117   6.263   1.162  12.264
18892SOL    HW258118   6.378   1.216  12.182
18893SOL     OW58119   6.273   0.989  11.814
18893SOL    HW158120   6.340   0.984  11.882
18893SOL    HW258121   6.206   1.047  11.851
18894SOL     OW58122   5.929   1.412  12.243
18894SOL    HW158123   5.854   1.369  12.201
18894SOL    HW258124   5.969   1.464  12.174
18895SOL     OW58125   7.190   0.457  11.897
18895SOL    HW158126   7.111   0.468  11.844
18895SOL    HW258127   7.185   0.527  11.962
18896SOL     OW58128   5.789   1.735  11.619
18896SOL    HW158129   5.813   1.802  11.683
18896SOL    HW258130   5.871   1.714  11.575
18897SOL     OW58131   5.880   1.468  11.696
18897SOL    HW158132   5.834   1.550  11.714
18897SOL    HW258133   5.818   1.399  11.722
18898SOL     OW58134   5.880   1.098  12.080
18898SOL    HW158135   5.863   1.008  12.110
18898SOL    HW258136   5.800   1.146  12.102
18899SOL     OW58137   5.705   0.667  11.734
18899SOL    HW158138   5.676   0.579  11.755
18899SOL    HW258139   5.695   0.716  11.815
18900SOL     OW58140   7.426   1.753  11.499
18900SOL    HW158141   7.492   1.728  11.563
18900SOL    HW258142   7.446   1.844  11.479
18901SOL     OW58143   5.619   1.577  11.300
18901SOL    HW158144   5.621   1.481  11.298
18901SOL    HW258145   5.674   1.600  11.375
18902SOL     OW58146   7.278   0.924  11.823
18902SOL    HW158147   7.358   0.876  11.801
18902SOL    HW258148   7.256   0.973  11.744
18903SOL     OW58149   7.238   1.100  11.600
18903SOL    HW158150   7.324   1.100  11.559
18903SOL    HW258151   7.244   1.167  11.668
18904SOL     OW58152   5.763   0.753   0.227
18904SOL    HW158153   5.746   0.718   0.314
18904SOL    HW258154   5.679   0.792   0.200
18905SOL     OW58155   6.205   1.394  11.897
18905SOL    HW158156   6.160   1.310  11.907
18905SOL    HW258157   6.185   1.422  11.808
18906SOL     OW58158   6.422   0.029  11.724
18906SOL    HW158159   6.463   0.109  11.692
18906SOL    HW258160   6.329   0.051  11.732
18907SOL     OW58161   5.775   0.991  12.412
18907SOL    HW158162   5.857   0.942  12.409
18907SOL    HW258163   5.711   0.928  12.446
18908SOL     OW58164   7.118   0.988  11.378
18908SOL    HW158165   7.045   0.938  11.414
18908SOL    HW258166   7.161   1.026  11.455
18909SOL     OW58167   7.061   1.406  12.125
18909SOL    HW158168   6.994   1.421  12.191
18909SOL    HW258169   7.042   1.318  12.091
18910SOL     OW58170   7.238   1.759  11.747
18910SOL    HW158171   7.216   1.724  11.661
18910SOL    HW258172   7.223   1.687  11.808
18911SOL     OW58173   6.177   0.727  11.466
18911SOL    HW158174   6.223   0.802  11.505
18911SOL    HW258175   6.100   0.715  11.523
18912SOL     OW58176   6.879   0.370  12.106
18912SOL    HW158177   6.788   0.339  12.105
18912SOL    HW258178   6.923   0.315  12.170
18913SOL     OW58179   7.161   1.675  11.484
18913SOL    HW158180   7.253   1.700  11.475
18913SOL    HW258181   7.132   1.658  11.394
18914SOL     OW58182   6.581   0.362  12.372
18914SOL    HW158183   6.531   0.417  12.433
18914SOL    HW258184   6.519   0.341  12.302
18915SOL     OW58185   6.636   0.696  11.602
18915SOL    HW158186   6.659   0.688  11.695
18915SOL    HW258187   6.556   0.645  11.593
18916SOL     OW58188   5.666   0.834  11.952
18916SOL    HW158189   5.749   0.820  11.997
18916SOL    HW258190   5.626   0.908  11.998
18917SOL     OW58191   6.480   0.349  11.385
18917SOL    HW158192   6.511   0.391  11.304
18917SOL    HW258193   6.444   0.265  11.356
18918SOL     OW58194   6.973   1.142  11.723
18918SOL    HW158195   7.048   1.132  11.665
18918SOL    HW258196   6.917   1.205  11.679
18919SOL     OW58197   6.141   0.251  12.084
18919SOL    HW158198   6.119   0.258  12.177
18919SOL    HW258199   6.136   0.341  12.052
18920SOL     OW58200   6.577   1.446  11.645
18920SOL    HW158201   6.553   1.522  11.592
18920SOL    HW258202   6.550   1.469  11.734
18921SOL     OW58203   5.943   1.810  12.036
18921SOL    HW158204   5.982   1.724  12.046
18921SOL    HW258205   6.010   1.871  12.067
18922SOL     OW58206   7.382   1.064  12.045
18922SOL    HW158207   7.332   1.034  11.970
18922SOL    HW258208   7.319   1.067  12.117
18923SOL     OW58209   5.884   0.949  11.408
18923SOL    HW158210   5.911   0.949  11.316
18923SOL    HW258211   5.868   0.856  11.427
18924SOL     OW58212   7.066   0.755  11.891
18924SOL    HW158213   7.061   0.712  11.976
18924SOL    HW258214   7.145   0.810  11.897
18925SOL     OW58215   6.712   1.775  11.395
18925SOL    HW158216   6.635   1.738  11.439
18925SOL    HW258217   6.736   1.710  11.330
18926SOL     OW58218   7.222   1.384  11.260
18926SOL    HW158219   7.180   1.469  11.249
18926SOL    HW258220   7.152   1.320  11.242
18927SOL     OW58221   6.042   1.739  11.489
18927SOL    HW158222   6.089   1.788  11.556
18927SOL    HW258223   6.111   1.694  11.439
18928SOL     OW58224   7.004   0.135  11.571
18928SOL    HW158225   7.027   0.097  11.486
18928SOL    HW258226   7.087   0.141  11.618
18929SOL     OW58227   5.830   1.801  12.376
18929SOL    HW158228   5.873   1.728  12.421
18929SOL    HW258229   5.785   1.761  12.302
18930SOL     OW58230   6.514   1.700  12.068
18930SOL    HW158231   6.572   1.636  12.110
18930SOL    HW258232   6.478   1.653  11.993
18931SOL     OW58233   5.975   0.687  11.645
18931SOL    HW158234   5.993   0.595  11.664
18931SOL    HW258235   5.883   0.698  11.668
18932SOL     OW58236   6.201   0.152  11.262
18932SOL    HW158237   6.259   0.098  11.316
18932SOL    HW258238   6.153   0.089  11.208
18933SOL     OW58239   6.394   1.377  12.102
18933SOL    HW158240   6.482   1.374  12.064
18933SOL    HW258241   6.336   1.381  12.026
18934SOL     OW58242   6.519   0.521  12.062
18934SOL    HW158243   6.486   0.511  11.973
18934SOL    HW258244   6.554   0.435  12.085
18935SOL     OW58245   6.157   0.023  11.582
18935SOL    HW158246   6.086  -0.018  11.632
18935SOL    HW258247   6.143   0.117  11.593
18936SOL     OW58248   7.025   1.204  11.213
18936SOL    HW158249   7.031   1.129  11.273
18936SOL    HW258250   6.943   1.247  11.238
18937SOL     OW58251   6.543   0.261  11.639
18937SOL    HW158252   6.515   0.288  11.552
18937SOL    HW258253   6.638   0.276  11.640
18938SOL     OW58254   6.817   1.563  11.958
18938SOL    HW158255   6.822   1.633  11.893
18938SOL    HW258256   6.877   1.590  12.027
18939SOL     OW58257   6.070   1.155  11.897
18939SOL    HW158258   6.007   1.137  11.966
18939SOL    HW258259   6.023   1.139  11.815
18940SOL     OW58260   6.848   1.792  11.786
18940SOL    HW158261   6.895   1.855  11.732
18940SOL    HW258262   6.777   1.842  11.826
18941SOL     OW58263   6.621   0.530  11.201
18941SOL    HW158264   6.581   0.617  11.195
18941SOL    HW258265   6.677   0.534  11.278
18942SOL     OW58266   6.134   0.248  12.360
18942SOL    HW158267   6.174   0.201  12.434
18942SOL    HW258268   6.040   0.243  12.376
18943SOL     OW58269   6.445   0.467  11.806
18943SOL    HW158270   6.408   0.516  11.732
18943SOL    HW258271   6.469   0.382  11.769
18944SOL     OW58272   6.590   0.032  11.938
18944SOL    HW158273   6.533   0.031  11.861
18944SOL    HW258274   6.581  -0.055  11.976
18945SOL     OW58275   7.018   1.152  12.023
18945SOL    HW158276   6.951   1.085  12.032
18945SOL    HW258277   7.031   1.162  11.929
18946SOL     OW58278   7.049   0.608  12.128
18946SOL    HW158279   6.993   0.530  12.133
18946SOL    HW258280   7.109   0.599  12.202
18947SOL     OW58281   7.423   0.804  11.554
18947SOL    HW158282   7.481   0.757  11.614
18947SOL    HW258283   7.402   0.740  11.486
18948SOL     OW58284   6.077   1.423  11.327
18948SOL    HW158285   5.995   1.399  11.369
18948SOL    HW258286   6.092   1.355  11.262
18949SOL     OW58287   7.267   1.272  11.800
18949SOL    HW158288   7.360   1.270  11.824
18949SOL    HW258289   7.237   1.358  11.830
18950SOL     OW58290   6.990   0.567  11.254
18950SOL    HW158291   6.917   0.554  11.315
18950SOL    HW258292   7.052   0.497  11.276
18951SOL     OW58293   6.097   0.286  11.480
18951SOL    HW158294   6.137   0.236  11.409
18951SOL    HW258295   6.068   0.367  11.438
18952SOL     OW58296   6.699   1.233  12.279
18952SOL    HW158297   6.631   1.261  12.340
18952SOL    HW258298   6.664   1.256  12.193
18953SOL     OW58299   7.193   1.101  12.246
18953SOL    HW158300   7.156   1.129  12.330
18953SOL    HW258301   7.123   1.117  12.182
18954SOL     OW58302   6.297   1.061  11.527
18954SOL    HW158303   6.241   1.061  11.605
18954SOL    HW258304   6.373   1.009  11.552
18955SOL     OW58305   6.014   0.826  12.436
18955SOL    HW158306   6.062   0.853  12.514
18955SOL    HW258307   5.976   0.742  12.461
18956SOL     OW58308   6.841   0.364  12.439
18956SOL    HW158309   6.865   0.452  12.469
18956SOL    HW258310   6.750   0.373  12.410
18957SOL     OW58311   5.948   1.108  11.653
18957SOL    HW158312   5.861   1.145  11.670
18957SOL    HW258313   5.936   1.052  11.577
18958SOL     OW58314   6.138   0.523  12.029
18958SOL    HW158315   6.152   0.583  11.956
18958SOL    HW258316   6.197   0.553  12.097
18959SOL     OW58317   6.829   1.344  11.592
18959SOL    HW158318   6.884   1.419  11.617
18959SOL    HW258319   6.741   1.369  11.618
18960SOL     OW58320   6.874   1.440  12.323
18960SOL    HW158321   6.879   1.428  12.418
18960SOL    HW258322   6.810   1.375  12.294
18961SOL     OW58323   7.154   0.637  11.651
18961SOL    HW158324   7.108   0.673  11.727
18961SOL    HW258325   7.196   0.713  11.610
18962SOL     OW58326   5.954   1.576  12.462
18962SOL    HW158327   5.941   1.515  12.390
18962SOL    HW258328   5.982   1.522  12.535
18963SOL     OW58329   6.161   0.869  12.209
18963SOL    HW158330   6.181   0.963  12.206
18963SOL    HW258331   6.110   0.858  12.288
18964SOL     OW58332   6.910   0.852  12.170
18964SOL    HW158333   6.820   0.825  12.149
18964SOL    HW258334   6.961   0.771  12.164
18965SOL     OW58335   6.779   0.535  11.429
18965SOL    HW158336   6.792   0.454  11.479
18965SOL    HW258337   6.736   0.594  11.491
18966SOL     OW58338   5.874   0.209  12.421
18966SOL    HW158339   5.823   0.261  12.483
18966SOL    HW258340   5.842   0.120  12.432
18967SOL     OW58341   5.631   1.335  12.432
18967SOL    HW158342   5.671   1.261  12.478
18967SOL    HW258343   5.647   1.411  12.488
18968SOL     OW58344   6.302   0.629  12.223
18968SOL    HW158345   6.379   0.623  12.166
18968SOL    HW258346   6.268   0.717  12.209
18969SOL     OW58347   5.991   0.077  11.853
18969SOL    HW158348   5.938   0.156  11.861
18969SOL    HW258349   5.942   0.021  11.793
18970SOL     OW58350   7.232   0.402  11.536
18970SOL    HW158351   7.235   0.326  11.595
18970SOL    HW258352   7.197   0.473  11.589
18971SOL     OW58353   6.623   0.759  12.147
18971SOL    HW158354   6.609   0.769  12.241
18971SOL    HW258355   6.591   0.671  12.127
18972SOL     OW58356   7.161   0.331  11.282
18972SOL    HW158357   7.077   0.288  11.297
18972SOL    HW258358   7.201   0.337  11.368
18973SOL     OW58359   6.877   0.818  11.207
18973SOL    HW158360   6.918   0.732  11.215
18973SOL    HW258361   6.911   0.853  11.125
18974SOL     OW58362   6.650   1.344  12.018
18974SOL    HW158363   6.659   1.270  11.958
18974SOL    HW258364   6.713   1.409  11.984
18975SOL     OW58365   5.894   0.812  12.107
18975SOL    HW158366   5.987   0.832  12.118
18975SOL    HW258367   5.885   0.722  12.138
18976SOL     OW58368   5.898   0.544  12.162
18976SOL    HW158369   5.871   0.452  12.165
18976SOL    HW258370   5.983   0.542  12.117
18977SOL     OW58371   6.754   0.206   0.144
18977SOL    HW158372   6.737   0.264   0.219
18977SOL    HW258373   6.790   0.264   0.077
18978SOL     OW58374   5.574   1.309  11.352
18978SOL    HW158375   5.480   1.316  11.332
18978SOL    HW258376   5.584   1.223  11.392
18979SOL     OW58377   5.677   1.781  12.108
18979SOL    HW158378   5.649   1.697  12.072
18979SOL    HW258379   5.767   1.792  12.078
18980SOL     OW58380   6.081   1.575  12.074
18980SOL    HW158381   6.150   1.632  12.107
18980SOL    HW258382   6.125   1.512  12.018
18981SOL     OW58383   6.557   0.791  12.418
18981SOL    HW158384   6.601   0.857  12.472
18981SOL    HW258385   6.464   0.809  12.428
18982SOL     OW58386   5.656   0.546  12.324
18982SOL    HW158387   5.727   0.548  12.260
18982SOL    HW258388   5.638   0.452  12.336
18983SOL     OW58389   6.404   0.567  11.540
18983SOL    HW158390   6.420   0.489  11.487
18983SOL    HW258391   6.320   0.601  11.508
18984SOL     OW58392   7.238   0.608  12.329
18984SOL    HW158393   7.223   0.561  12.411
18984SOL    HW258394   7.332   0.600  12.314
18985SOL     OW58395   6.317   0.447  12.432
18985SOL    HW158396   6.243   0.390  12.412
18985SOL    HW258397   6.308   0.520  12.371
18986SOL     OW58398   6.541   1.664   0.034
18986SOL    HW158399   6.515   1.573   0.019
18986SOL    HW258400   6.459   1.713   0.030
18987SOL     OW58401   6.040   0.512  11.339
18987SOL    HW158402   6.097   0.584  11.366
18987SOL    HW258403   5.953   0.552  11.333
18988SOL     OW58404   6.893   1.042  12.363
18988SOL    HW158405   6.900   0.980  12.291
18988SOL    HW258406   6.828   1.106  12.334
18989SOL     OW58407   6.901   0.861  11.483
18989SOL    HW158408   6.835   0.822  11.540
18989SOL    HW258409   6.873   0.837  11.394
18990SOL     OW58410   7.319   1.748  12.289
18990SOL    HW158411   7.398   1.761  12.237
18990SOL    HW258412   7.307   1.653  12.291
18991SOL     OW58413   6.832   1.726  12.275
18991SOL    HW158414   6.914   1.748  12.232
18991SOL    HW258415   6.840   1.632  12.295
18992SOL     OW58416   5.666   1.296  12.162
18992SOL    HW158417   5.654   1.301  12.257
18992SOL    HW258418   5.618   1.218  12.136
18993SOL     OW58419   7.261   0.156  11.667
18993SOL    HW158420   7.330   0.142  11.602
18993SOL    HW258421   7.299   0.124  11.749
18994SOL     OW58422   6.980   1.568  11.668
18994SOL    HW158423   7.036   1.601  11.597
18994SOL    HW258424   6.929   1.644  11.696
18995SOL     OW58425   6.860   0.927  11.842
18995SOL    HW158426   6.933   0.867  11.856
18995SOL    HW258427   6.897   1.000  11.791
18996SOL     OW58428   6.253   1.629  11.333
18996SOL    HW158429   6.269   1.640  11.240
18996SOL    HW258430   6.201   1.549  11.339
18997SOL     OW58431   7.296   1.840   0.044
18997SOL    HW158432   7.311   1.794  -0.039
18997SOL    HW258433   7.217   1.799   0.080
18998SOL     OW58434   7.439   0.181  12.126
18998SOL    HW158435   7.447   0.086  12.122
18998SOL    HW258436   7.354   0.200  12.086
18999SOL     OW58437   5.840   0.303  11.885
18999SOL    HW158438   5.761   0.351  11.863
18999SOL    HW258439   5.846   0.308  11.980
19000SOL     OW58440   6.799   1.594  11.204
19000SOL    HW158441   6.803   1.502  11.228
19000SOL    HW258442   6.731   1.598  11.137
19001SOL     OW58443   6.379   1.044  12.481
19001SOL    HW158444   6.378   1.070  12.389
19001SOL    HW258445   6.419   1.118  12.526
19002SOL     OW58446   6.503   0.896  11.464
19002SOL    HW158447   6.577   0.924  11.410
19002SOL    HW258448   6.540   0.827  11.519
19003SOL     OW58449   7.077   1.632  11.218
19003SOL    HW158450   6.983   1.617  11.204
19003SOL    HW258451   7.114   1.637  11.130
19004SOL     OW58452   6.649   1.109  11.880
19004SOL    HW158453   6.577   1.061  11.921
19004SOL    HW258454   6.714   1.042  11.859
19005SOL     OW58455   6.621   0.259  12.094
19005SOL    HW158456   6.608   0.200  12.020
19005SOL    HW258457   6.623   0.201  12.170
19006SOL     OW58458   6.190   1.495  11.644
19006SOL    HW158459   6.231   1.447  11.572
19006SOL    HW258460   6.096   1.494  11.622
19007SOL     OW58461   7.324   0.452   0.047
19007SOL    HW158462   7.399   0.445   0.106
19007SOL    HW258463   7.335   0.378  -0.014
19008SOL     OW58464   5.833   1.368  11.445
19008SOL    HW158465   5.746   1.332  11.461
19008SOL    HW258466   5.864   1.394  11.532
19009SOL     OW58467   5.649   0.327  11.195
19009SOL    HW158468   5.554   0.319  11.188
19009SOL    HW258469   5.671   0.402  11.139
19010SOL     OW58470   5.715   0.228  11.481
19010SOL    HW158471   5.651   0.243  11.412
19010SOL    HW258472   5.676   0.159  11.536
19011SOL     OW58473   6.806   1.338  11.313
19011SOL    HW158474   6.723   1.298  11.286
19011SOL    HW258475   6.805   1.332  11.409
19012SOL     OW58476   7.074   1.784  12.158
19012SOL    HW158477   7.092   1.848  12.090
19012SOL    HW258478   7.159   1.770  12.201
19013SOL     OW58479   7.274   0.874  12.400
19013SOL    HW158480   7.246   0.789  12.366
19013SOL    HW258481   7.243   0.937  12.334
19014SOL     OW58482   6.811   0.329  11.620
19014SOL    HW158483   6.873   0.257  11.605
19014SOL    HW258484   6.843   0.372  11.699
19015SOL     OW58485   6.175   0.726  11.842
19015SOL    HW158486   6.210   0.815  11.834
19015SOL    HW258487   6.104   0.722  11.779
19016SOL     OW58488   7.392   0.915   0.134
19016SOL    HW158489   7.330   0.972   0.179
19016SOL    HW258490   7.349   0.894   0.051
19017SOL     OW58491   6.408   1.371  11.202
19017SOL    HW158492   6.407   1.392  11.295
19017SOL    HW258493   6.460   1.440  11.162
19018SOL     OW58494   6.250   1.793  12.124
19018SOL    HW158495   6.236   1.883  12.094
19018SOL    HW258496   6.343   1.776  12.107
19019SOL     OW58497   6.460   0.971  12.025
19019SOL    HW158498   6.507   0.900  12.069
19019SOL    HW258499   6.418   1.019  12.096
19020SOL     OW58500   6.665   0.975  11.270
19020SOL    HW158501   6.642   1.033  11.197
19020SOL    HW258502   6.747   0.934  11.244
19021SOL     OW58503   7.435   1.549  12.020
19021SOL    HW158504   7.351   1.537  11.977
19021SOL    HW258505   7.448   1.469  12.070
19022SOL     OW58506   7.436   0.261  12.387
19022SOL    HW158507   7.447   0.180  12.437
19022SOL    HW258508   7.430   0.232  12.296
19023SOL     OW58509   6.017   0.430  11.705
19023SOL    HW158510   6.044   0.366  11.639
19023SOL    HW258511   5.960   0.382  11.764
19024SOL     OW58512   7.267   1.489  12.296
19024SOL    HW158513   7.205   1.444  12.239
19024SOL    HW258514   7.297   1.421  12.356
19025SOL     OW58515   6.411   1.580  11.845
19025SOL    HW158516   6.378   1.634  11.773
19025SOL    HW258517   6.341   1.516  11.860
19026SOL     OW58518   7.021   0.223  12.289
19026SOL    HW158519   7.088   0.174  12.336
19026SOL    HW258520   6.969   0.265  12.358
19027SOL     OW58521   6.609   0.063  12.284
19027SOL    HW158522   6.568   0.074  12.369
19027SOL    HW258523   6.692   0.018  12.302
19028SOL     OW58524   6.370   1.334  11.487
19028SOL    HW158525   6.341   1.245  11.504
19028SOL    HW258526   6.443   1.348  11.547
19029SOL     OW58527   6.935   7.988  11.291
19029SOL    HW158528   7.005   7.926  11.310
19029SOL    HW258529   6.866   7.967  11.353
19030SOL     OW58530   6.891   0.467  11.848
19030SOL    HW158531   6.833   0.543  11.851
19030SOL    HW258532   6.885   0.429  11.936
19031SOL     OW58533   7.193   0.223  12.038
19031SOL    HW158534   7.114   0.218  12.093
19031SOL    HW258535   7.179   0.301  11.984
19032SOL     OW58536   5.620   1.055  11.444
19032SOL    HW158537   5.715   1.045  11.442
19032SOL    HW258538   5.588   0.971  11.478
19033SOL     OW58539   6.477   1.665  11.509
19033SOL    HW158540   6.400   1.648  11.455
19033SOL    HW258541   6.451   1.737  11.567
19034SOL     OW58542   5.862   2.438   0.039
19034SOL    HW158543   5.829   2.486   0.115
19034SOL    HW258544   5.801   2.460  -0.032
19035SOL     OW58545   5.812   2.144   0.992
19035SOL    HW158546   5.839   2.111   1.078
19035SOL    HW258547   5.722   2.112   0.981
19036SOL     OW58548   5.579   2.250   0.640
19036SOL    HW158549   5.501   2.279   0.687
19036SOL    HW258550   5.556   2.164   0.605
19037SOL     OW58551   6.158   3.157   1.186
19037SOL    HW158552   6.074   3.165   1.141
19037SOL    HW258553   6.174   3.244   1.223
19038SOL     OW58554   7.150   3.378   0.715
19038SOL    HW158555   7.107   3.366   0.800
19038SOL    HW258556   7.078   3.385   0.652
19039SOL     OW58557   6.728   2.554   0.700
19039SOL    HW158558   6.770   2.639   0.690
19039SOL    HW258559   6.674   2.563   0.778
19040SOL     OW58560   7.322   2.477   0.260
19040SOL    HW158561   7.309   2.467   0.166
19040SOL    HW258562   7.293   2.394   0.297
19041SOL     OW58563   6.337   3.000   1.058
19041SOL    HW158564   6.267   3.036   1.112
19041SOL    HW258565   6.374   3.077   1.013
19042SOL     OW58566   6.452   2.627   1.820
19042SOL    HW158567   6.441   2.679   1.899
19042SOL    HW258568   6.475   2.690   1.752
19043SOL     OW58569   6.251   2.816   0.713
19043SOL    HW158570   6.332   2.844   0.755
19043SOL    HW258571   6.199   2.895   0.705
19044SOL     OW58572   6.310   3.016   1.811
19044SOL    HW158573   6.352   3.094   1.847
19044SOL    HW258574   6.226   3.049   1.776
19045SOL     OW58575   5.936   3.263   1.057
19045SOL    HW158576   5.852   3.234   1.021
19045SOL    HW258577   5.970   3.325   0.992
19046SOL     OW58578   7.047   3.363   1.361
19046SOL    HW158579   7.101   3.442   1.368
19046SOL    HW258580   6.977   3.376   1.425
19047SOL     OW58581   6.044   2.246   1.459
19047SOL    HW158582   6.117   2.188   1.479
19047SOL    HW258583   5.967   2.199   1.492
19048SOL     OW58584   7.190   2.304   0.747
19048SOL    HW158585   7.117   2.313   0.686
19048SOL    HW258586   7.206   2.393   0.777
19049SOL     OW58587   5.805   3.579   0.471
19049SOL    HW158588   5.824   3.654   0.528
19049SOL    HW258589   5.883   3.571   0.416
19050SOL     OW58590   6.730   3.201   1.687
19050SOL    HW158591   6.768   3.204   1.775
19050SOL    HW258592   6.673   3.124   1.688
19051SOL     OW58593   5.800   3.309   0.537
19051SOL    HW158594   5.793   3.405   0.538
19051SOL    HW258595   5.754   3.282   0.616
19052SOL     OW58596   5.846   2.953   0.885
19052SOL    HW158597   5.845   2.867   0.928
19052SOL    HW258598   5.795   3.009   0.944
19053SOL     OW58599   6.255   3.653   1.408
19053SOL    HW158600   6.165   3.645   1.439
19053SOL    HW258601   6.281   3.742   1.431
19054SOL     OW58602   6.165   2.805   0.081
19054SOL    HW158603   6.247   2.828   0.039
19054SOL    HW258604   6.164   2.856   0.162
19055SOL     OW58605   7.188   1.989   1.465
19055SOL    HW158606   7.201   2.072   1.419
19055SOL    HW258607   7.161   2.015   1.553
19056SOL     OW58608   5.689   2.514   0.574
19056SOL    HW158609   5.661   2.426   0.600
19056SOL    HW258610   5.682   2.567   0.654
19057SOL     OW58611   7.437   3.599   0.324
19057SOL    HW158612   7.497   3.578   0.396
19057SOL    HW258613   7.458   3.690   0.301
19058SOL     OW58614   5.606   3.388   0.127
19058SOL    HW158615   5.514   3.361   0.126
19058SOL    HW258616   5.607   3.468   0.180
19059SOL     OW58617   7.257   2.790   0.645
19059SOL    HW158618   7.332   2.747   0.603
19059SOL    HW258619   7.228   2.854   0.581
19060SOL     OW58620   7.228   2.983   0.439
19060SOL    HW158621   7.317   2.984   0.403
19060SOL    HW258622   7.232   3.043   0.514
19061SOL     OW58623   5.724   2.612   1.580
19061SOL    HW158624   5.818   2.629   1.586
19061SOL    HW258625   5.683   2.695   1.605
19062SOL     OW58626   6.210   3.256   0.731
19062SOL    HW158627   6.163   3.173   0.743
19062SOL    HW258628   6.193   3.280   0.640
19063SOL     OW58629   6.875   3.083   1.416
19063SOL    HW158630   6.964   3.071   1.382
19063SOL    HW258631   6.887   3.096   1.511
19064SOL     OW58632   6.411   1.886   0.522
19064SOL    HW158633   6.444   1.972   0.496
19064SOL    HW258634   6.316   1.897   0.526
19065SOL     OW58635   5.775   2.824   1.276
19065SOL    HW158636   5.861   2.784   1.263
19065SOL    HW258637   5.714   2.765   1.231
19066SOL     OW58638   7.103   2.859   0.227
19066SOL    HW158639   7.033   2.804   0.261
19066SOL    HW258640   7.141   2.902   0.304
19067SOL     OW58641   6.771   3.685   1.626
19067SOL    HW158642   6.780   3.749   1.555
19067SOL    HW258643   6.802   3.603   1.589
19068SOL     OW58644   5.940   2.118   1.827
19068SOL    HW158645   5.982   2.190   1.873
19068SOL    HW258646   5.847   2.127   1.848
19069SOL     OW58647   7.053   3.275   0.964
19069SOL    HW158648   6.982   3.297   1.025
19069SOL    HW258649   7.027   3.191   0.926
19070SOL     OW58650   7.238   3.614   0.577
19070SOL    HW158651   7.220   3.576   0.491
19070SOL    HW258652   7.215   3.544   0.639
19071SOL     OW58653   6.184   2.575   0.279
19071SOL    HW158654   6.219   2.658   0.247
19071SOL    HW258655   6.123   2.600   0.348
19072SOL     OW58656   6.865   2.240   0.936
19072SOL    HW158657   6.776   2.204   0.942
19072SOL    HW258658   6.917   2.183   0.992
19073SOL     OW58659   7.169   3.530   0.315
19073SOL    HW158660   7.261   3.554   0.303
19073SOL    HW258661   7.136   3.519   0.226
19074SOL     OW58662   6.388   2.477   1.450
19074SOL    HW158663   6.356   2.454   1.538
19074SOL    HW258664   6.350   2.410   1.393
19075SOL     OW58665   6.983   2.337   1.677
19075SOL    HW158666   6.980   2.383   1.760
19075SOL    HW258667   7.045   2.265   1.692
19076SOL     OW58668   6.538   2.757   1.579
19076SOL    HW158669   6.591   2.685   1.546
19076SOL    HW258670   6.493   2.792   1.502
19077SOL     OW58671   6.588   2.274   1.227
19077SOL    HW158672   6.503   2.298   1.264
19077SOL    HW258673   6.567   2.218   1.152
19078SOL     OW58674   6.647   2.555   0.436
19078SOL    HW158675   6.663   2.548   0.530
19078SOL    HW258676   6.561   2.515   0.423
19079SOL     OW58677   5.666   2.692   0.779
19079SOL    HW158678   5.749   2.682   0.826
19079SOL    HW258679   5.624   2.767   0.821
19080SOL     OW58680   5.670   3.739   1.553
19080SOL    HW158681   5.754   3.693   1.560
19080SOL    HW258682   5.624   3.718   1.634
19081SOL     OW58683   6.445   2.225   0.187
19081SOL    HW158684   6.523   2.264   0.146
19081SOL    HW258685   6.450   2.132   0.165
19082SOL     OW58686   7.299   2.426   1.827
19082SOL    HW158687   7.259   2.501   1.783
19082SOL    HW258688   7.319   2.364   1.757
19083SOL     OW58689   6.959   2.998   0.534
19083SOL    HW158690   7.041   3.001   0.486
19083SOL    HW258691   6.904   3.064   0.493
19084SOL     OW58692   6.143   2.043   0.903
19084SOL    HW158693   6.142   2.066   0.996
19084SOL    HW258694   6.139   2.128   0.858
19085SOL     OW58695   6.585   3.298   0.476
19085SOL    HW158696   6.554   3.374   0.426
19085SOL    HW258697   6.556   3.316   0.566
19086SOL     OW58698   5.938   3.677   0.866
19086SOL    HW158699   5.979   3.591   0.875
19086SOL    HW258700   6.003   3.739   0.897
19087SOL     OW58701   7.377   2.883   0.882
19087SOL    HW158702   7.323   2.882   0.802
19087SOL    HW258703   7.317   2.911   0.951
19088SOL     OW58704   6.809   3.403   1.503
19088SOL    HW158705   6.792   3.336   1.568
19088SOL    HW258706   6.721   3.432   1.475
19089SOL     OW58707   5.877   2.863   0.200
19089SOL    HW158708   5.960   2.902   0.227
19089SOL    HW258709   5.891   2.769   0.212
19090SOL     OW58710   7.077   2.603   0.732
19090SOL    HW158711   7.066   2.589   0.826
19090SOL    HW258712   7.145   2.670   0.726
19091SOL     OW58713   6.065   3.126   1.734
19091SOL    HW158714   6.033   3.129   1.644
19091SOL    HW258715   5.986   3.118   1.787
19092SOL     OW58716   6.712   3.639   0.252
19092SOL    HW158717   6.643   3.606   0.310
19092SOL    HW258718   6.699   3.592   0.169
19093SOL     OW58719   5.790   2.135   1.506
19093SOL    HW158720   5.720   2.193   1.534
19093SOL    HW258721   5.773   2.053   1.551
19094SOL     OW58722   7.241   3.275   0.039
19094SOL    HW158723   7.182   3.348   0.054
19094SOL    HW258724   7.188   3.197   0.054
19095SOL     OW58725   6.039   3.591   0.324
19095SOL    HW158726   6.088   3.646   0.385
19095SOL    HW258727   6.105   3.557   0.264
19096SOL     OW58728   6.990   1.964   0.442
19096SOL    HW158729   6.987   1.931   0.352
19096SOL    HW258730   7.082   1.960   0.466
19097SOL     OW58731   5.835   3.664   1.237
19097SOL    HW158732   5.874   3.656   1.323
19097SOL    HW258733   5.850   3.579   1.195
19098SOL     OW58734   6.520   3.567   0.894
19098SOL    HW158735   6.583   3.512   0.940
19098SOL    HW258736   6.487   3.512   0.823
19099SOL     OW58737   5.951   2.549   0.467
19099SOL    HW158738   5.976   2.457   0.478
19099SOL    HW258739   5.872   2.559   0.521
19100SOL     OW58740   7.113   2.083   1.721
19100SOL    HW158741   7.130   2.093   1.814
19100SOL    HW258742   7.029   2.037   1.717
19101SOL     OW58743   6.213   1.965   0.103
19101SOL    HW158744   6.308   1.956   0.108
19101SOL    HW258745   6.181   1.875   0.094
19102SOL     OW58746   6.355   2.122   1.737
19102SOL    HW158747   6.432   2.067   1.726
19102SOL    HW258748   6.352   2.141   1.831
19103SOL     OW58749   6.470   3.384   1.178
19103SOL    HW158750   6.445   3.337   1.098
19103SOL    HW258751   6.534   3.326   1.220
19104SOL     OW58752   6.932   2.447   1.432
19104SOL    HW158753   6.959   2.416   1.518
19104SOL    HW258754   6.960   2.538   1.428
19105SOL     OW58755   6.410   3.242   0.944
19105SOL    HW158756   6.495   3.236   0.901
19105SOL    HW258757   6.348   3.254   0.872
19106SOL     OW58758   6.525   2.373   0.895
19106SOL    HW158759   6.496   2.363   0.804
19106SOL    HW258760   6.545   2.284   0.924
19107SOL     OW58761   6.141   1.928   0.496
19107SOL    HW158762   6.062   1.925   0.550
19107SOL    HW258763   6.127   2.002   0.438
19108SOL     OW58764   7.052   3.086   0.070
19108SOL    HW158765   7.061   3.000   0.112
19108SOL    HW258766   6.958   3.106   0.077
19109SOL     OW58767   5.890   1.958   0.203
19109SOL    HW158768   5.966   2.010   0.231
19109SOL    HW258769   5.916   1.867   0.217
19110SOL     OW58770   6.527   2.126   0.451
19110SOL    HW158771   6.501   2.166   0.369
19110SOL    HW258772   6.623   2.134   0.452
19111SOL     OW58773   6.663   2.544   1.456
19111SOL    HW158774   6.586   2.490   1.474
19111SOL    HW258775   6.737   2.486   1.474
19112SOL     OW58776   6.823   3.429   0.791
19112SOL    HW158777   6.824   3.496   0.723
19112SOL    HW258778   6.860   3.472   0.868
19113SOL     OW58779   6.058   3.027   0.731
19113SOL    HW158780   5.991   3.003   0.796
19113SOL    HW258781   6.014   3.018   0.647
19114SOL     OW58782   6.844   3.651   0.612
19114SOL    HW158783   6.890   3.716   0.559
19114SOL    HW258784   6.773   3.700   0.654
19115SOL     OW58785   6.632   2.401   0.028
19115SOL    HW158786   6.606   2.489   0.002
19115SOL    HW258787   6.681   2.414   0.109
19116SOL     OW58788   5.667   2.424   1.389
19116SOL    HW158789   5.760   2.417   1.366
19116SOL    HW258790   5.663   2.493   1.455
19117SOL     OW58791   6.141   2.090   1.176
19117SOL    HW158792   6.184   2.027   1.235
19117SOL    HW258793   6.049   2.089   1.203
19118SOL     OW58794   6.455   2.324   0.640
19118SOL    HW158795   6.408   2.381   0.579
19118SOL    HW258796   6.475   2.246   0.589
19119SOL     OW58797   6.607   1.909   0.735
19119SOL    HW158798   6.542   1.904   0.664
19119SOL    HW258799   6.582   1.839   0.795
19120SOL     OW58800   7.027   3.024   0.849
19120SOL    HW158801   6.943   2.994   0.814
19120SOL    HW258802   7.080   3.042   0.771
19121SOL     OW58803   7.000   2.501   1.004
19121SOL    HW158804   6.968   2.415   0.979
19121SOL    HW258805   7.078   2.484   1.057
19122SOL     OW58806   7.416   2.680   0.426
19122SOL    HW158807   7.464   2.617   0.480
19122SOL    HW258808   7.372   2.626   0.360
19123SOL     OW58809   6.084   3.263   0.158
19123SOL    HW158810   6.057   3.191   0.215
19123SOL    HW258811   6.002   3.300   0.125
19124SOL     OW58812   7.242   3.121   0.670
19124SOL    HW158813   7.337   3.118   0.683
19124SOL    HW258814   7.219   3.213   0.682
19125SOL     OW58815   6.998   2.416   0.090
19125SOL    HW158816   6.933   2.421   0.160
19125SOL    HW258817   7.046   2.335   0.108
19126SOL     OW58818   6.109   2.123   0.299
19126SOL    HW158819   6.158   2.071   0.235
19126SOL    HW258820   6.113   2.213   0.266
19127SOL     OW58821   7.333   3.075   1.561
19127SOL    HW158822   7.422   3.042   1.559
19127SOL    HW258823   7.342   3.169   1.574
19128SOL     OW58824   6.644   3.195   1.309
19128SOL    HW158825   6.565   3.178   1.360
19128SOL    HW258826   6.715   3.161   1.362
19129SOL     OW58827   7.185   3.497   1.652
19129SOL    HW158828   7.177   3.534   1.565
19129SOL    HW258829   7.268   3.450   1.651
19130SOL     OW58830   6.712   3.038   1.091
19130SOL    HW158831   6.678   3.088   1.165
19130SOL    HW258832   6.693   3.093   1.015
19131SOL     OW58833   7.184   2.958   1.073
19131SOL    HW158834   7.190   3.027   1.139
19131SOL    HW258835   7.132   2.997   1.002
19132SOL     OW58836   6.506   1.954   1.388
19132SOL    HW158837   6.531   1.938   1.297
19132SOL    HW258838   6.583   1.994   1.428
19133SOL     OW58839   6.573   2.982   1.722
19133SOL    HW158840   6.484   2.998   1.752
19133SOL    HW258841   6.566   2.902   1.669
19134SOL     OW58842   6.008   2.677   1.251
19134SOL    HW158843   6.074   2.689   1.319
19134SOL    HW258844   5.972   2.590   1.268
19135SOL     OW58845   6.852   2.238   1.279
19135SOL    HW158846   6.883   2.313   1.329
19135SOL    HW258847   6.761   2.258   1.259
19136SOL     OW58848   5.659   3.445   1.358
19136SOL    HW158849   5.658   3.540   1.362
19136SOL    HW258850   5.752   3.421   1.357
19137SOL     OW58851   5.908   2.989   0.498
19137SOL    HW158852   5.883   3.053   0.431
19137SOL    HW258853   5.990   2.951   0.466
19138SOL     OW58854   6.131   2.375   0.853
19138SOL    HW158855   6.144   2.433   0.777
19138SOL    HW258856   6.194   2.406   0.918
19139SOL     OW58857   6.830   3.209   0.403
19139SOL    HW158858   6.885   3.282   0.431
19139SOL    HW258859   6.742   3.231   0.433
19140SOL     OW58860   6.866   3.324   1.162
19140SOL    HW158861   6.930   3.335   1.232
19140SOL    HW258862   6.790   3.284   1.204
19141SOL     OW58863   7.147   2.467   0.497
19141SOL    HW158864   7.104   2.518   0.566
19141SOL    HW258865   7.165   2.530   0.428
19142SOL     OW58866   5.911   3.360   1.314
19142SOL    HW158867   5.937   3.328   1.228
19142SOL    HW258868   5.986   3.412   1.344
19143SOL     OW58869   6.012   2.594   1.607
19143SOL    HW158870   6.070   2.641   1.547
19143SOL    HW258871   6.065   2.522   1.640
19144SOL     OW58872   7.195   2.634   1.689
19144SOL    HW158873   7.109   2.676   1.686
19144SOL    HW258874   7.246   2.680   1.622
19145SOL     OW58875   6.594   1.988   1.737
19145SOL    HW158876   6.645   2.069   1.729
19145SOL    HW258877   6.656   1.918   1.716
19146SOL     OW58878   6.088   1.897   1.744
19146SOL    HW158879   6.035   1.850   1.680
19146SOL    HW258880   6.038   1.976   1.763
19147SOL     OW58881   6.176   2.730   1.038
19147SOL    HW158882   6.197   2.823   1.031
19147SOL    HW258883   6.116   2.725   1.112
19148SOL     OW58884   6.789   2.396   0.268
19148SOL    HW158885   6.802   2.321   0.325
19148SOL    HW258886   6.744   2.461   0.323
19149SOL     OW58887   5.877   2.060   1.246
19149SOL    HW158888   5.843   2.091   1.330
19149SOL    HW258889   5.861   1.965   1.248
19150SOL     OW58890   5.627   3.182   1.274
19150SOL    HW158891   5.663   3.128   1.344
19150SOL    HW258892   5.637   3.272   1.306
19151SOL     OW58893   6.298   2.484   1.042
19151SOL    HW158894   6.377   2.483   0.987
19151SOL    HW258895   6.265   2.574   1.034
19152SOL     OW58896   7.325   2.817   1.863
19152SOL    HW158897   7.277   2.750   1.813
19152SOL    HW258898   7.266   2.842   1.933
19153SOL     OW58899   5.897   1.927   0.625
19153SOL    HW158900   5.873   2.016   0.650
19153SOL    HW258901   5.904   1.879   0.708
19154SOL     OW58902   7.215   2.234   0.369
19154SOL    HW158903   7.239   2.164   0.430
19154SOL    HW258904   7.180   2.303   0.425
19155SOL     OW58905   6.643   2.596   0.980
19155SOL    HW158906   6.602   2.613   1.065
19155SOL    HW258907   6.606   2.513   0.952
19156SOL     OW58908   6.576   3.433   1.723
19156SOL    HW158909   6.558   3.473   1.638
19156SOL    HW258910   6.603   3.344   1.702
19157SOL     OW58911   5.944   2.786   1.805
19157SOL    HW158912   6.015   2.805   1.866
19157SOL    HW258913   5.978   2.715   1.749
19158SOL     OW58914   7.070   2.155   0.144
19158SOL    HW158915   7.038   2.066   0.156
19158SOL    HW258916   7.128   2.170   0.219
19159SOL     OW58917   6.875   2.672   0.045
19159SOL    HW158918   6.932   2.596   0.037
19159SOL    HW258919   6.910   2.735  -0.018
19160SOL     OW58920   6.668   3.206   0.862
19160SOL    HW158921   6.671   3.138   0.795
19160SOL    HW258922   6.724   3.276   0.827
19161SOL     OW58923   5.894   2.668   0.936
19161SOL    HW158924   5.987   2.691   0.935
19161SOL    HW258925   5.892   2.580   0.975
19162SOL     OW58926   5.910   2.392   1.009
19162SOL    HW158927   5.874   2.303   1.002
19162SOL    HW258928   5.987   2.391   0.953
19163SOL     OW58929   6.727   2.233   1.685
19163SOL    HW158930   6.676   2.288   1.745
19163SOL    HW258931   6.813   2.274   1.683
19164SOL     OW58932   6.749   2.059   1.470
19164SOL    HW158933   6.734   2.121   1.542
19164SOL    HW258934   6.790   2.112   1.401
19165SOL     OW58935   5.667   3.645   0.925
19165SOL    HW158936   5.645   3.561   0.884
19165SOL    HW258937   5.761   3.654   0.910
19166SOL     OW58938   6.075   3.438   0.894
19166SOL    HW158939   6.142   3.501   0.919
19166SOL    HW258940   6.121   3.375   0.839
19167SOL     OW58941   6.570   2.647   1.227
19167SOL    HW158942   6.610   2.613   1.307
19167SOL    HW258943   6.478   2.662   1.251
19168SOL     OW58944   5.626   2.415   1.116
19168SOL    HW158945   5.711   2.412   1.071
19168SOL    HW258946   5.648   2.418   1.209
19169SOL     OW58947   5.765   2.388   1.730
19169SOL    HW158948   5.847   2.362   1.689
19169SOL    HW258949   5.737   2.466   1.682
19170SOL     OW58950   6.973   2.787   1.653
19170SOL    HW158951   6.994   2.881   1.655
19170SOL    HW258952   6.957   2.768   1.561
19171SOL     OW58953   6.406   2.430   0.375
19171SOL    HW158954   6.406   2.363   0.308
19171SOL    HW258955   6.334   2.489   0.350
19172SOL     OW58956   7.221   2.467   1.165
19172SOL    HW158957   7.209   2.413   1.243
19172SOL    HW258958   7.310   2.448   1.135
19173SOL     OW58959   5.782   3.383   1.725
19173SOL    HW158960   5.803   3.471   1.755
19173SOL    HW258961   5.818   3.325   1.792
19174SOL     OW58962   6.309   2.308   1.250
19174SOL    HW158963   6.244   2.239   1.235
19174SOL    HW258964   6.294   2.370   1.178
19175SOL     OW58965   6.542   3.530   1.459
19175SOL    HW158966   6.478   3.499   1.395
19175SOL    HW258967   6.529   3.625   1.462
19176SOL     OW58968   6.116   2.363   0.118
19176SOL    HW158969   6.139   2.434   0.177
19176SOL    HW258970   6.024   2.376   0.099
19177SOL     OW58971   5.719   3.004   1.471
19177SOL    HW158972   5.723   2.954   1.553
19177SOL    HW258973   5.741   2.939   1.404
19178SOL     OW58974   6.910   2.865   1.158
19178SOL    HW158975   6.990   2.917   1.146
19178SOL    HW258976   6.839   2.928   1.147
19179SOL     OW58977   6.892   2.702   0.320
19179SOL    HW158978   6.814   2.674   0.368
19179SOL    HW258979   6.873   2.683   0.229
19180SOL     OW58980   7.322   3.610   1.115
19180SOL    HW158981   7.400   3.638   1.066
19180SOL    HW258982   7.331   3.515   1.122
19181SOL     OW58983   6.822   3.589   1.082
19181SOL    HW158984   6.910   3.617   1.055
19181SOL    HW258985   6.835   3.502   1.119
19182SOL     OW58986   5.682   3.124   1.016
19182SOL    HW158987   5.665   3.146   1.108
19182SOL    HW258988   5.601   3.082   0.987
19183SOL     OW58989   6.253   3.528   1.738
19183SOL    HW158990   6.171   3.573   1.719
19183SOL    HW258991   6.317   3.569   1.679
19184SOL     OW58992   6.482   1.952   0.113
19184SOL    HW158993   6.537   1.969   0.036
19184SOL    HW258994   6.543   1.913   0.177
19185SOL     OW58995   7.310   2.015   0.514
19185SOL    HW158996   7.379   1.995   0.452
19185SOL    HW258997   7.288   1.931   0.554
19186SOL     OW58998   6.977   3.429   0.493
19186SOL    HW158999   7.036   3.466   0.427
19186SOL    HW259000   6.924   3.504   0.521
19187SOL     OW59001   5.718   3.658   1.835
19187SOL    HW159002   5.674   3.585   1.880
19187SOL    HW259003   5.766   3.703   1.904
19188SOL     OW59004   6.869   2.785   0.673
19188SOL    HW159005   6.944   2.726   0.677
19188SOL    HW259006   6.898   2.857   0.617
19189SOL     OW59007   6.390   3.146   1.419
19189SOL    HW159008   6.366   3.185   1.503
19189SOL    HW259009   6.316   3.164   1.362
19190SOL     OW59010   6.234   3.499   0.154
19190SOL    HW159011   6.312   3.499   0.098
19190SOL    HW259012   6.206   3.407   0.156
19191SOL     OW59013   7.189   3.599   1.373
19191SOL    HW159014   7.243   3.606   1.295
19191SOL    HW259015   7.181   3.688   1.406
19192SOL     OW59016   7.432   2.030   0.961
19192SOL    HW159017   7.457   1.940   0.939
19192SOL    HW259018   7.344   2.040   0.926
19193SOL     OW59019   5.841   2.178   0.716
19193SOL    HW159020   5.754   2.214   0.698
19193SOL    HW259021   5.844   2.170   0.811
19194SOL     OW59022   6.793   3.439   0.039
19194SOL    HW159023   6.778   3.357   0.085
19194SOL    HW259024   6.705   3.469   0.015
19195SOL     OW59025   6.410   2.877   1.363
19195SOL    HW159026   6.423   2.895   1.269
19195SOL    HW259027   6.402   2.964   1.402
19196SOL     OW59028   6.511   2.699   0.218
19196SOL    HW159029   6.565   2.770   0.185
19196SOL    HW259030   6.532   2.694   0.311
19197SOL     OW59031   7.064   3.485   0.047
19197SOL    HW159032   6.971   3.469   0.065
19197SOL    HW259033   7.067   3.509  -0.045
19198SOL     OW59034   5.957   3.147   1.489
19198SOL    HW159035   5.942   3.228   1.440
19198SOL    HW259036   5.874   3.100   1.484
19199SOL     OW59037   7.180   3.137   1.281
19199SOL    HW159038   7.255   3.128   1.341
19199SOL    HW259039   7.133   3.215   1.313
19200SOL     OW59040   6.658   2.980   0.713
19200SOL    HW159041   6.587   2.936   0.760
19200SOL    HW259042   6.709   2.909   0.675
19201SOL     OW59043   6.616   2.103   0.957
19201SOL    HW159044   6.610   2.056   0.874
19201SOL    HW259045   6.609   2.035   1.024
19202SOL     OW59046   6.193   3.346   0.474
19202SOL    HW159047   6.229   3.292   0.404
19202SOL    HW259048   6.115   3.386   0.435
19203SOL     OW59049   7.313   2.259   1.375
19203SOL    HW159050   7.385   2.323   1.377
19203SOL    HW259051   7.347   2.188   1.320
19204SOL     OW59052   5.832   3.188   0.302
19204SOL    HW159053   5.764   3.231   0.251
19204SOL    HW259054   5.829   3.231   0.387
19205SOL     OW59055   5.703   2.869   1.705
19205SOL    HW159056   5.631   2.859   1.768
19205SOL    HW259057   5.782   2.848   1.756
19206SOL     OW59058   6.260   2.052   1.489
19206SOL    HW159059   6.347   2.031   1.453
19206SOL    HW259060   6.277   2.078   1.579
19207SOL     OW59061   7.000   2.714   1.381
19207SOL    HW159062   6.957   2.783   1.330
19207SOL    HW259063   7.093   2.723   1.359
19208SOL     OW59064   5.646   2.017   0.309
19208SOL    HW159065   5.659   2.110   0.326
19208SOL    HW259066   5.729   1.988   0.271
19209SOL     OW59067   6.772   3.181   0.129
19209SOL    HW159068   6.677   3.176   0.118
19209SOL    HW259069   6.785   3.181   0.224
19210SOL     OW59070   6.210   2.690   1.432
19210SOL    HW159071   6.264   2.768   1.424
19210SOL    HW259072   6.273   2.619   1.445
19211SOL     OW59073   7.076   3.646   0.983
19211SOL    HW159074   7.095   3.719   0.925
19211SOL    HW259075   7.157   3.631   1.032
19212SOL     OW59076   6.298   2.429   1.698
19212SOL    HW159077   6.340   2.491   1.756
19212SOL    HW259078   6.310   2.344   1.740
19213SOL     OW59079   7.060   3.047   1.634
19213SOL    HW159080   7.046   3.068   1.727
19213SOL    HW259081   7.152   3.067   1.619
19214SOL     OW59082   7.245   2.746   1.251
19214SOL    HW159083   7.251   2.661   1.206
19214SOL    HW259084   7.241   2.810   1.180
19215SOL     OW59085   6.812   2.178   0.443
19215SOL    HW159086   6.871   2.102   0.446
19215SOL    HW259087   6.832   2.227   0.522
19216SOL     OW59088   6.169   2.566   0.659
19216SOL    HW159089   6.204   2.653   0.678
19216SOL    HW259090   6.102   2.582   0.592
19217SOL     OW59091   7.338   2.221   1.648
19217SOL    HW159092   7.324   2.239   1.555
19217SOL    HW259093   7.265   2.166   1.673
19218SOL     OW59094   7.328   2.790   1.512
19218SOL    HW159095   7.320   2.882   1.535
19218SOL    HW259096   7.311   2.787   1.418
19219SOL     OW59097   6.501   3.198   0.039
19219SOL    HW159098   6.446   3.192   0.117
19219SOL    HW259099   6.491   3.289   0.010
19220SOL     OW59100   6.248   3.644   0.928
19220SOL    HW159101   6.230   3.737   0.917
19220SOL    HW259102   6.344   3.638   0.927
19221SOL     OW59103   6.480   2.848   0.876
19221SOL    HW159104   6.513   2.770   0.920
19221SOL    HW259105   6.432   2.895   0.944
19222SOL     OW59106   6.681   2.871   0.086
19222SOL    HW159107   6.706   2.954   0.045
19222SOL    HW259108   6.760   2.817   0.081
19223SOL     OW59109   7.434   3.408   0.844
19223SOL    HW159110   7.357   3.410   0.788
19223SOL    HW259111   7.403   3.378   0.929
19224SOL     OW59112   5.836   3.143   1.877
19224SOL    HW159113   5.748   3.115   1.853
19224SOL    HW259114   5.834   3.153   1.972
19225SOL     OW59115   5.669   3.065   0.661
19225SOL    HW159116   5.696   3.035   0.748
19225SOL    HW259117   5.742   3.042   0.603
19226SOL     OW59118   6.277   3.273   1.631
19226SOL    HW159119   6.199   3.227   1.662
19226SOL    HW259120   6.270   3.360   1.668
19227SOL     OW59121   7.401   2.047   1.232
19227SOL    HW159122   7.392   1.953   1.247
19227SOL    HW259123   7.414   2.055   1.137
19228SOL     OW59124   5.995   2.289   0.510
19228SOL    HW159125   6.041   2.216   0.469
19228SOL    HW259126   5.957   2.252   0.590
19229SOL     OW59127   7.302   3.329   1.071
19229SOL    HW159128   7.211   3.316   1.044
19229SOL    HW259129   7.309   3.285   1.155
19230SOL     OW59130   5.921   2.421   1.292
19230SOL    HW159131   5.973   2.363   1.347
19230SOL    HW259132   5.938   2.390   1.203
19231SOL     OW59133   6.425   3.431   0.677
19231SOL    HW159134   6.403   3.491   0.606
19231SOL    HW259135   6.347   3.375   0.686
19232SOL     OW59136   7.011   2.090   1.114
19232SOL    HW159137   7.012   2.001   1.151
19232SOL    HW259138   6.964   2.142   1.179
19233SOL     OW59139   6.598   1.883   1.131
19233SOL    HW159140   6.538   1.818   1.096
19233SOL    HW259141   6.683   1.839   1.133
19234SOL     OW59142   6.375   3.184   0.289
19234SOL    HW159143   6.315   3.110   0.305
19234SOL    HW259144   6.434   3.184   0.364
19235SOL     OW59145   6.214   3.410   1.275
19235SOL    HW159146   6.211   3.490   1.327
19235SOL    HW259147   6.301   3.410   1.235
19236SOL     OW59148   6.945   1.901   0.173
19236SOL    HW159149   6.956   1.844   0.097
19236SOL    HW259150   6.858   1.878   0.207
19237SOL     OW59151   6.880   2.319   0.672
19237SOL    HW159152   6.831   2.401   0.675
19237SOL    HW259153   6.876   2.285   0.761
19238SOL     OW59154   7.172   2.058   0.888
19238SOL    HW159155   7.116   2.079   0.963
19238SOL    HW259156   7.169   2.137   0.834
19239SOL     OW59157   5.623   2.924   0.297
19239SOL    HW159158   5.715   2.934   0.272
19239SOL    HW259159   5.620   2.843   0.348
19240SOL     OW59160   6.479   3.524   0.364
19240SOL    HW159161   6.419   3.516   0.290
19240SOL    HW259162   6.448   3.600   0.412
19241SOL     OW59163   5.794   2.469   1.998
19241SOL    HW159164   5.707   2.472   2.037
19241SOL    HW259165   5.778   2.460   1.904
19242SOL     OW59166   5.811   2.144   2.851
19242SOL    HW159167   5.838   2.115   2.938
19242SOL    HW259168   5.721   2.114   2.842
19243SOL     OW59169   5.578   2.260   2.503
19243SOL    HW159170   5.499   2.288   2.547
19243SOL    HW259171   5.555   2.177   2.461
19244SOL     OW59172   6.147   3.159   3.031
19244SOL    HW159173   6.052   3.155   3.028
19244SOL    HW259174   6.167   3.239   3.079
19245SOL     OW59175   7.152   3.378   2.569
19245SOL    HW159176   7.111   3.353   2.652
19245SOL    HW259177   7.079   3.384   2.508
19246SOL     OW59178   6.732   2.553   2.556
19246SOL    HW159179   6.773   2.639   2.547
19246SOL    HW259180   6.679   2.559   2.636
19247SOL     OW59181   7.383   2.463   2.082
19247SOL    HW159182   7.351   2.454   1.992
19247SOL    HW259183   7.327   2.405   2.133
19248SOL     OW59184   6.325   2.999   2.901
19248SOL    HW159185   6.258   3.037   2.958
19248SOL    HW259186   6.374   3.073   2.868
19249SOL     OW59187   6.466   2.624   3.687
19249SOL    HW159188   6.450   2.694   3.749
19249SOL    HW259189   6.486   2.668   3.605
19250SOL     OW59190   6.271   2.857   2.507
19250SOL    HW159191   6.338   2.851   2.576
19250SOL    HW259192   6.203   2.912   2.545
19251SOL     OW59193   6.302   3.014   3.685
19251SOL    HW159194   6.350   3.091   3.715
19251SOL    HW259195   6.224   3.050   3.643
19252SOL     OW59196   5.893   3.315   2.926
19252SOL    HW159197   5.830   3.256   2.884
19252SOL    HW259198   5.950   3.343   2.855
19253SOL     OW59199   7.055   3.418   3.256
19253SOL    HW159200   6.969   3.438   3.293
19253SOL    HW259201   7.059   3.322   3.254
19254SOL     OW59202   6.012   2.282   3.409
19254SOL    HW159203   6.098   2.279   3.367
19254SOL    HW259204   5.967   2.203   3.378
19255SOL     OW59205   7.181   2.302   2.612
19255SOL    HW159206   7.101   2.317   2.561
19255SOL    HW259207   7.176   2.365   2.684
19256SOL     OW59208   5.806   3.580   2.335
19256SOL    HW159209   5.830   3.653   2.392
19256SOL    HW259210   5.879   3.572   2.274
19257SOL     OW59211   6.742   3.203   3.559
19257SOL    HW159212   6.765   3.194   3.652
19257SOL    HW259213   6.686   3.128   3.541
19258SOL     OW59214   5.822   3.305   2.396
19258SOL    HW159215   5.799   3.397   2.404
19258SOL    HW259216   5.766   3.261   2.461
19259SOL     OW59217   5.855   2.953   2.749
19259SOL    HW159218   5.852   2.865   2.787
19259SOL    HW259219   5.797   3.005   2.804
19260SOL     OW59220   6.177   3.661   3.284
19260SOL    HW159221   6.099   3.639   3.336
19260SOL    HW259222   6.205   3.746   3.318
19261SOL     OW59223   6.156   2.874   1.999
19261SOL    HW159224   6.213   2.912   1.932
19261SOL    HW259225   6.197   2.897   2.082
19262SOL     OW59226   7.186   1.992   3.322
19262SOL    HW159227   7.204   2.077   3.281
19262SOL    HW259228   7.161   2.014   3.412
19263SOL     OW59229   5.698   2.524   2.424
19263SOL    HW159230   5.671   2.436   2.450
19263SOL    HW259231   5.691   2.576   2.504
19264SOL     OW59232   7.431   3.614   2.196
19264SOL    HW159233   7.498   3.587   2.259
19264SOL    HW259234   7.455   3.704   2.172
19265SOL     OW59235   5.620   3.453   1.983
19265SOL    HW159236   5.605   3.362   2.007
19265SOL    HW259237   5.596   3.502   2.062
19266SOL     OW59238   7.274   2.784   2.500
19266SOL    HW159239   7.350   2.738   2.465
19266SOL    HW259240   7.245   2.840   2.427
19267SOL     OW59241   7.236   2.966   2.288
19267SOL    HW159242   7.321   2.969   2.244
19267SOL    HW259243   7.240   3.035   2.354
19268SOL     OW59244   5.710   2.603   3.442
19268SOL    HW159245   5.799   2.639   3.449
19268SOL    HW259246   5.653   2.679   3.449
19269SOL     OW59247   6.208   3.253   2.590
19269SOL    HW159248   6.161   3.170   2.601
19269SOL    HW259249   6.189   3.279   2.500
19270SOL     OW59250   6.985   3.148   3.257
19270SOL    HW159251   6.909   3.101   3.222
19270SOL    HW259252   6.992   3.117   3.347
19271SOL     OW59253   6.404   1.860   2.376
19271SOL    HW159254   6.445   1.943   2.351
19271SOL    HW259255   6.310   1.880   2.382
19272SOL     OW59256   5.778   2.823   3.146
19272SOL    HW159257   5.862   2.782   3.128
19272SOL    HW259258   5.716   2.775   3.091
19273SOL     OW59259   7.117   2.858   2.063
19273SOL    HW159260   7.046   2.804   2.096
19273SOL    HW259261   7.156   2.897   2.141
19274SOL     OW59262   6.797   3.682   3.485
19274SOL    HW159263   6.775   3.742   3.413
19274SOL    HW259264   6.783   3.595   3.448
19275SOL     OW59265   5.926   2.102   3.686
19275SOL    HW159266   5.969   2.188   3.679
19275SOL    HW259267   5.836   2.123   3.713
19276SOL     OW59268   7.067   3.269   2.807
19276SOL    HW159269   6.998   3.291   2.870
19276SOL    HW259270   7.045   3.181   2.777
19277SOL     OW59271   7.240   3.618   2.440
19277SOL    HW159272   7.221   3.585   2.352
19277SOL    HW259273   7.214   3.546   2.498
19278SOL     OW59274   6.124   2.585   2.101
19278SOL    HW159275   6.184   2.659   2.101
19278SOL    HW259276   6.086   2.585   2.189
19279SOL     OW59277   6.872   2.221   2.793
19279SOL    HW159278   6.780   2.198   2.802
19279SOL    HW259279   6.917   2.167   2.858
19280SOL     OW59280   7.165   3.541   2.172
19280SOL    HW159281   7.258   3.564   2.165
19280SOL    HW259282   7.139   3.521   2.083
19281SOL     OW59283   6.392   2.479   3.313
19281SOL    HW159284   6.363   2.464   3.403
19281SOL    HW259285   6.349   2.410   3.262
19282SOL     OW59286   6.978   2.337   3.542
19282SOL    HW159287   6.981   2.383   3.626
19282SOL    HW259288   7.037   2.263   3.553
19283SOL     OW59289   6.537   2.750   3.450
19283SOL    HW159290   6.593   2.683   3.410
19283SOL    HW259291   6.487   2.786   3.376
19284SOL     OW59292   6.572   2.261   3.104
19284SOL    HW159293   6.490   2.266   3.153
19284SOL    HW259294   6.545   2.250   3.013
19285SOL     OW59295   6.670   2.584   2.281
19285SOL    HW159296   6.679   2.570   2.375
19285SOL    HW259297   6.604   2.520   2.253
19286SOL     OW59298   5.669   2.697   2.633
19286SOL    HW159299   5.749   2.687   2.685
19286SOL    HW259300   5.622   2.769   2.675
19287SOL     OW59301   5.701   3.717   3.438
19287SOL    HW159302   5.710   3.698   3.531
19287SOL    HW259303   5.606   3.719   3.423
19288SOL     OW59304   6.415   2.124   2.001
19288SOL    HW159305   6.415   2.207   2.049
19288SOL    HW259306   6.504   2.091   2.011
19289SOL     OW59307   7.281   2.418   3.695
19289SOL    HW159308   7.249   2.497   3.650
19289SOL    HW259309   7.319   2.365   3.625
19290SOL     OW59310   6.969   3.009   2.410
19290SOL    HW159311   7.045   3.002   2.352
19290SOL    HW259312   6.910   3.069   2.365
19291SOL     OW59313   6.127   2.032   2.742
19291SOL    HW159314   6.127   2.041   2.837
19291SOL    HW259315   6.134   2.122   2.710
19292SOL     OW59316   6.582   3.306   2.326
19292SOL    HW159317   6.556   3.384   2.277
19292SOL    HW259318   6.555   3.324   2.416
19293SOL     OW59319   5.909   3.669   2.751
19293SOL    HW159320   5.956   3.586   2.745
19293SOL    HW259321   5.975   3.733   2.776
19294SOL     OW59322   7.388   2.919   2.714
19294SOL    HW159323   7.328   2.889   2.647
19294SOL    HW259324   7.334   2.927   2.793
19295SOL     OW59325   6.810   3.404   3.375
19295SOL    HW159326   6.800   3.340   3.445
19295SOL    HW259327   6.753   3.372   3.305
19296SOL     OW59328   5.903   2.823   2.120
19296SOL    HW159329   5.984   2.847   2.075
19296SOL    HW259330   5.893   2.729   2.105
19297SOL     OW59331   7.074   2.602   2.573
19297SOL    HW159332   7.063   2.568   2.661
19297SOL    HW259333   7.146   2.665   2.580
19298SOL     OW59334   6.056   3.130   3.600
19298SOL    HW159335   6.032   3.132   3.508
19298SOL    HW259336   5.973   3.128   3.647
19299SOL     OW59337   6.715   3.644   2.085
19299SOL    HW159338   6.638   3.609   2.131
19299SOL    HW259339   6.738   3.577   2.021
19300SOL     OW59340   5.761   2.128   3.369
19300SOL    HW159341   5.715   2.209   3.347
19300SOL    HW259342   5.771   2.131   3.464
19301SOL     OW59343   7.218   3.238   1.962
19301SOL    HW159344   7.183   3.325   1.944
19301SOL    HW259345   7.147   3.178   1.939
19302SOL     OW59346   6.046   3.599   2.179
19302SOL    HW159347   6.090   3.653   2.244
19302SOL    HW259348   6.116   3.562   2.125
19303SOL     OW59349   7.029   1.944   2.296
19303SOL    HW159350   6.981   1.968   2.217
19303SOL    HW259351   7.087   2.018   2.313
19304SOL     OW59352   5.836   3.630   3.059
19304SOL    HW159353   5.854   3.644   3.152
19304SOL    HW259354   5.889   3.554   3.035
19305SOL     OW59355   6.519   3.564   2.751
19305SOL    HW159356   6.534   3.502   2.822
19305SOL    HW259357   6.489   3.510   2.678
19306SOL     OW59358   5.978   2.561   2.341
19306SOL    HW159359   5.993   2.467   2.352
19306SOL    HW259360   5.885   2.573   2.362
19307SOL     OW59361   7.114   2.085   3.579
19307SOL    HW159362   7.128   2.100   3.672
19307SOL    HW259363   7.035   2.030   3.576
19308SOL     OW59364   6.198   1.959   1.994
19308SOL    HW159365   6.281   2.007   1.992
19308SOL    HW259366   6.180   1.939   1.902
19309SOL     OW59367   6.350   2.148   3.627
19309SOL    HW159368   6.430   2.096   3.625
19309SOL    HW259369   6.310   2.127   3.712
19310SOL     OW59370   6.437   3.428   3.002
19310SOL    HW159371   6.412   3.363   2.935
19310SOL    HW259372   6.500   3.382   3.057
19311SOL     OW59373   6.928   2.445   3.291
19311SOL    HW159374   6.955   2.418   3.379
19311SOL    HW259375   6.954   2.537   3.285
19312SOL     OW59376   6.403   3.251   2.796
19312SOL    HW159377   6.489   3.237   2.756
19312SOL    HW259378   6.341   3.246   2.723
19313SOL     OW59379   6.535   2.378   2.754
19313SOL    HW159380   6.498   2.364   2.667
19313SOL    HW259381   6.552   2.290   2.787
19314SOL     OW59382   6.136   1.920   2.360
19314SOL    HW159383   6.061   1.922   2.419
19314SOL    HW259384   6.129   2.001   2.309
19315SOL     OW59385   7.009   3.063   1.903
19315SOL    HW159386   7.036   2.989   1.957
19315SOL    HW259387   6.925   3.090   1.940
19316SOL     OW59388   5.883   1.903   2.048
19316SOL    HW159389   5.942   1.971   2.015
19316SOL    HW259390   5.940   1.842   2.093
19317SOL     OW59391   6.532   2.100   2.320
19317SOL    HW159392   6.497   2.173   2.269
19317SOL    HW259393   6.626   2.117   2.326
19318SOL     OW59394   6.663   2.549   3.318
19318SOL    HW159395   6.584   2.495   3.320
19318SOL    HW259396   6.735   2.486   3.316
19319SOL     OW59397   6.831   3.417   2.641
19319SOL    HW159398   6.830   3.492   2.582
19319SOL    HW259399   6.861   3.453   2.724
19320SOL     OW59400   6.060   3.019   2.584
19320SOL    HW159401   5.998   2.997   2.653
19320SOL    HW259402   6.012   3.005   2.503
19321SOL     OW59403   6.848   3.652   2.474
19321SOL    HW159404   6.894   3.719   2.424
19321SOL    HW259405   6.776   3.699   2.516
19322SOL     OW59406   6.618   2.409   1.865
19322SOL    HW159407   6.567   2.487   1.848
19322SOL    HW259408   6.605   2.391   1.958
19323SOL     OW59409   5.683   2.401   3.259
19323SOL    HW159410   5.774   2.406   3.229
19323SOL    HW259411   5.674   2.473   3.321
19324SOL     OW59412   6.123   2.033   3.007
19324SOL    HW159413   6.182   2.091   3.056
19324SOL    HW259414   6.038   2.043   3.050
19325SOL     OW59415   6.451   2.312   2.505
19325SOL    HW159416   6.415   2.375   2.442
19325SOL    HW259417   6.467   2.233   2.454
19326SOL     OW59418   6.625   1.898   2.589
19326SOL    HW159419   6.550   1.909   2.530
19326SOL    HW259420   6.593   1.837   2.656
19327SOL     OW59421   7.019   3.015   2.714
19327SOL    HW159422   6.948   2.956   2.738
19327SOL    HW259423   7.014   3.020   2.618
19328SOL     OW59424   7.053   2.464   2.820
19328SOL    HW159425   6.989   2.395   2.835
19328SOL    HW259426   7.107   2.464   2.899
19329SOL     OW59427   7.445   2.673   2.248
19329SOL    HW159428   7.496   2.620   2.309
19329SOL    HW259429   7.416   2.611   2.181
19330SOL     OW59430   6.079   3.285   2.016
19330SOL    HW159431   6.002   3.260   2.068
19330SOL    HW259432   6.070   3.235   1.935
19331SOL     OW59433   7.268   3.142   2.484
19331SOL    HW159434   7.357   3.147   2.519
19331SOL    HW259435   7.225   3.221   2.515
19332SOL     OW59436   6.981   2.437   1.927
19332SOL    HW159437   6.916   2.415   1.994
19332SOL    HW259438   7.064   2.443   1.974
19333SOL     OW59439   6.099   2.126   2.184
19333SOL    HW159440   6.142   2.069   2.120
19333SOL    HW259441   6.081   2.207   2.137
19334SOL     OW59442   7.339   3.106   3.419
19334SOL    HW159443   7.421   3.059   3.435
19334SOL    HW259444   7.356   3.195   3.451
19335SOL     OW59445   7.206   3.505   3.487
19335SOL    HW159446   7.144   3.433   3.479
19335SOL    HW259447   7.289   3.464   3.513
19336SOL     OW59448   6.708   3.047   2.951
19336SOL    HW159449   6.675   3.102   3.021
19336SOL    HW259450   6.683   3.092   2.871
19337SOL     OW59451   7.223   2.960   2.927
19337SOL    HW159452   7.223   3.021   3.001
19337SOL    HW259453   7.140   2.977   2.882
19338SOL     OW59454   6.549   1.908   3.259
19338SOL    HW159455   6.536   1.940   3.170
19338SOL    HW259456   6.606   1.974   3.300
19339SOL     OW59457   6.576   2.981   3.586
19339SOL    HW159458   6.485   3.003   3.606
19339SOL    HW259459   6.569   2.903   3.530
19340SOL     OW59460   6.295   2.929   2.235
19340SOL    HW159461   6.280   2.907   2.326
19340SOL    HW259462   6.368   2.873   2.208
19341SOL     OW59463   6.010   2.678   3.110
19341SOL    HW159464   6.078   2.689   3.176
19341SOL    HW259465   5.978   2.589   3.122
19342SOL     OW59466   6.846   2.239   3.132
19342SOL    HW159467   6.876   2.316   3.181
19342SOL    HW259468   6.753   2.256   3.118
19343SOL     OW59469   5.658   3.432   3.224
19343SOL    HW159470   5.632   3.516   3.185
19343SOL    HW259471   5.754   3.431   3.216
19344SOL     OW59472   5.914   2.984   2.353
19344SOL    HW159473   5.915   3.057   2.291
19344SOL    HW259474   5.916   2.906   2.297
19345SOL     OW59475   6.136   2.384   2.727
19345SOL    HW159476   6.151   2.445   2.655
19345SOL    HW259477   6.198   2.412   2.795
19346SOL     OW59478   6.832   3.213   2.253
19346SOL    HW159479   6.887   3.285   2.285
19346SOL    HW259480   6.744   3.233   2.286
19347SOL     OW59481   6.894   3.330   3.006
19347SOL    HW159482   6.945   3.311   3.085
19347SOL    HW259483   6.804   3.306   3.029
19348SOL     OW59484   7.168   2.487   2.332
19348SOL    HW159485   7.121   2.510   2.413
19348SOL    HW259486   7.179   2.570   2.287
19349SOL     OW59487   5.928   3.383   3.181
19349SOL    HW159488   5.912   3.347   3.094
19349SOL    HW259489   6.023   3.397   3.184
19350SOL     OW59490   6.008   2.604   3.468
19350SOL    HW159491   6.070   2.648   3.410
19350SOL    HW259492   6.046   2.517   3.483
19351SOL     OW59493   7.196   2.636   3.551
19351SOL    HW159494   7.110   2.677   3.547
19351SOL    HW259495   7.247   2.680   3.483
19352SOL     OW59496   6.585   2.001   3.633
19352SOL    HW159497   6.639   2.075   3.605
19352SOL    HW259498   6.630   1.924   3.600
19353SOL     OW59499   6.072   1.882   3.623
19353SOL    HW159500   6.034   1.843   3.544
19353SOL    HW259501   6.023   1.962   3.636
19354SOL     OW59502   6.157   2.754   2.884
19354SOL    HW159503   6.200   2.838   2.895
19354SOL    HW259504   6.112   2.738   2.966
19355SOL     OW59505   6.925   2.719   2.869
19355SOL    HW159506   6.832   2.704   2.850
19355SOL    HW259507   6.965   2.633   2.863
19356SOL     OW59508   6.827   2.380   2.138
19356SOL    HW159509   6.802   2.303   2.188
19356SOL    HW259510   6.766   2.449   2.166
19357SOL     OW59511   5.863   2.058   3.110
19357SOL    HW159512   5.830   2.091   3.194
19357SOL    HW259513   5.847   1.964   3.114
19358SOL     OW59514   5.663   3.173   3.132
19358SOL    HW159515   5.676   3.116   3.207
19358SOL    HW259516   5.647   3.260   3.170
19359SOL     OW59517   6.309   2.516   2.892
19359SOL    HW159518   6.389   2.510   2.840
19359SOL    HW259519   6.275   2.604   2.875
19360SOL     OW59520   7.314   2.830   3.716
19360SOL    HW159521   7.273   2.755   3.674
19360SOL    HW259522   7.262   2.845   3.795
19361SOL     OW59523   5.888   1.918   2.488
19361SOL    HW159524   5.866   2.009   2.505
19361SOL    HW259525   5.898   1.879   2.575
19362SOL     OW59526   7.194   2.236   2.226
19362SOL    HW159527   7.240   2.187   2.294
19362SOL    HW259528   7.171   2.319   2.268
19363SOL     OW59529   6.633   2.621   2.820
19363SOL    HW159530   6.616   2.639   2.912
19363SOL    HW259531   6.602   2.532   2.806
19364SOL     OW59532   6.578   3.430   3.589
19364SOL    HW159533   6.547   3.477   3.511
19364SOL    HW259534   6.611   3.347   3.556
19365SOL     OW59535   7.440   3.362   3.469
19365SOL    HW159536   7.470   3.395   3.384
19365SOL    HW259537   7.515   3.372   3.527
19366SOL     OW59538   5.939   2.770   3.679
19366SOL    HW159539   6.022   2.796   3.721
19366SOL    HW259540   5.966   2.710   3.609
19367SOL     OW59541   7.126   2.112   1.990
19367SOL    HW159542   7.039   2.083   2.019
19367SOL    HW259543   7.159   2.165   2.062
19368SOL     OW59544   6.870   2.691   1.888
19368SOL    HW159545   6.901   2.600   1.892
19368SOL    HW259546   6.906   2.725   1.806
19369SOL     OW59547   6.654   3.204   2.704
19369SOL    HW159548   6.662   3.130   2.645
19369SOL    HW259549   6.718   3.268   2.673
19370SOL     OW59550   5.892   2.673   2.800
19370SOL    HW159551   5.984   2.698   2.807
19370SOL    HW259552   5.890   2.582   2.830
19371SOL     OW59553   5.905   2.396   2.867
19371SOL    HW159554   5.872   2.306   2.857
19371SOL    HW259555   5.987   2.396   2.818
19372SOL     OW59556   6.721   2.233   3.554
19372SOL    HW159557   6.670   2.288   3.613
19372SOL    HW259558   6.807   2.275   3.550
19373SOL     OW59559   6.764   2.064   3.341
19373SOL    HW159560   6.744   2.127   3.410
19373SOL    HW259561   6.793   2.117   3.268
19374SOL     OW59562   5.591   3.179   2.053
19374SOL    HW159563   5.503   3.193   2.017
19374SOL    HW259564   5.588   3.089   2.086
19375SOL     OW59565   6.069   3.439   2.751
19375SOL    HW159566   6.136   3.503   2.774
19375SOL    HW259567   6.116   3.372   2.702
19376SOL     OW59568   6.566   2.641   3.077
19376SOL    HW159569   6.616   2.626   3.158
19376SOL    HW259570   6.477   2.615   3.099
19377SOL     OW59571   5.627   2.408   2.984
19377SOL    HW159572   5.708   2.412   2.934
19377SOL    HW259573   5.655   2.405   3.075
19378SOL     OW59574   5.793   2.376   3.577
19378SOL    HW159575   5.872   2.361   3.525
19378SOL    HW259576   5.752   2.453   3.538
19379SOL     OW59577   6.970   2.789   3.519
19379SOL    HW159578   6.989   2.883   3.518
19379SOL    HW259579   6.961   2.765   3.427
19380SOL     OW59580   7.225   2.467   3.033
19380SOL    HW159581   7.212   2.414   3.111
19380SOL    HW259582   7.314   2.447   3.004
19381SOL     OW59583   5.831   3.410   3.585
19381SOL    HW159584   5.804   3.476   3.649
19381SOL    HW259585   5.833   3.328   3.635
19382SOL     OW59586   6.493   3.557   3.361
19382SOL    HW159587   6.502   3.497   3.288
19382SOL    HW259588   6.484   3.643   3.321
19383SOL     OW59589   6.034   2.337   2.014
19383SOL    HW159590   6.096   2.406   2.038
19383SOL    HW259591   5.948   2.378   2.020
19384SOL     OW59592   5.724   3.002   3.341
19384SOL    HW159593   5.724   2.955   3.425
19384SOL    HW259594   5.744   2.936   3.276
19385SOL     OW59595   6.910   2.904   3.071
19385SOL    HW159596   6.925   2.840   3.002
19385SOL    HW259597   6.835   2.955   3.041
19386SOL     OW59598   6.906   2.714   2.166
19386SOL    HW159599   6.835   2.684   2.223
19386SOL    HW259600   6.871   2.707   2.077
19387SOL     OW59601   7.332   3.588   3.043
19387SOL    HW159602   7.396   3.628   2.984
19387SOL    HW259603   7.322   3.499   3.010
19388SOL     OW59604   6.835   3.603   2.973
19388SOL    HW159605   6.915   3.623   2.924
19388SOL    HW259606   6.842   3.511   2.996
19389SOL     OW59607   5.682   3.124   2.870
19389SOL    HW159608   5.676   3.142   2.964
19389SOL    HW259609   5.594   3.096   2.846
19390SOL     OW59610   6.267   3.545   3.603
19390SOL    HW159611   6.206   3.618   3.597
19390SOL    HW259612   6.333   3.563   3.537
19391SOL     OW59613   7.318   2.024   2.371
19391SOL    HW159614   7.388   2.007   2.308
19391SOL    HW259615   7.296   1.938   2.408
19392SOL     OW59616   6.977   3.432   2.348
19392SOL    HW159617   7.036   3.471   2.282
19392SOL    HW259618   6.926   3.505   2.381
19393SOL     OW59619   5.739   3.657   3.698
19393SOL    HW159620   5.686   3.593   3.747
19393SOL    HW259621   5.780   3.710   3.766
19394SOL     OW59622   6.866   2.785   2.525
19394SOL    HW159623   6.941   2.727   2.534
19394SOL    HW259624   6.900   2.861   2.477
19395SOL     OW59625   6.346   3.106   3.310
19395SOL    HW159626   6.325   3.160   3.386
19395SOL    HW259627   6.369   3.168   3.241
19396SOL     OW59628   6.254   3.493   2.016
19396SOL    HW159629   6.262   3.508   1.922
19396SOL    HW259630   6.200   3.414   2.023
19397SOL     OW59631   7.431   2.030   2.820
19397SOL    HW159632   7.456   1.940   2.800
19397SOL    HW259633   7.341   2.037   2.789
19398SOL     OW59634   5.837   2.170   2.573
19398SOL    HW159635   5.754   2.215   2.556
19398SOL    HW259636   5.844   2.167   2.668
19399SOL     OW59637   6.797   3.459   1.895
19399SOL    HW159638   6.784   3.370   1.927
19399SOL    HW259639   6.726   3.472   1.832
19400SOL     OW59640   6.412   2.859   3.233
19400SOL    HW159641   6.461   2.874   3.152
19400SOL    HW259642   6.387   2.947   3.262
19401SOL     OW59643   6.495   2.773   2.143
19401SOL    HW159644   6.560   2.809   2.083
19401SOL    HW259645   6.543   2.707   2.193
19402SOL     OW59646   7.076   3.490   1.909
19402SOL    HW159647   6.982   3.479   1.895
19402SOL    HW259648   7.113   3.497   1.821
19403SOL     OW59649   5.952   3.162   3.354
19403SOL    HW159650   5.934   3.242   3.304
19403SOL    HW259651   5.872   3.110   3.344
19404SOL     OW59652   7.225   3.138   3.140
19404SOL    HW159653   7.282   3.126   3.216
19404SOL    HW259654   7.136   3.133   3.176
19405SOL     OW59655   6.653   2.969   2.569
19405SOL    HW159656   6.579   2.924   2.610
19405SOL    HW259657   6.714   2.898   2.548
19406SOL     OW59658   6.617   2.112   2.815
19406SOL    HW159659   6.610   2.060   2.734
19406SOL    HW259660   6.608   2.048   2.885
19407SOL     OW59661   6.191   3.349   2.334
19407SOL    HW159662   6.237   3.300   2.266
19407SOL    HW259663   6.110   3.377   2.292
19408SOL     OW59664   7.306   2.260   3.231
19408SOL    HW159665   7.379   2.321   3.238
19408SOL    HW259666   7.340   2.189   3.176
19409SOL     OW59667   5.845   3.206   2.151
19409SOL    HW159668   5.753   3.206   2.127
19409SOL    HW259669   5.847   3.244   2.239
19410SOL     OW59670   5.702   2.885   3.587
19410SOL    HW159671   5.624   2.863   3.638
19410SOL    HW259672   5.775   2.845   3.635
19411SOL     OW59673   6.255   2.014   3.394
19411SOL    HW159674   6.259   2.078   3.323
19411SOL    HW259675   6.283   2.063   3.472
19412SOL     OW59676   5.673   2.181   1.885
19412SOL    HW159677   5.583   2.168   1.857
19412SOL    HW259678   5.701   2.262   1.842
19413SOL     OW59679   7.006   2.719   3.255
19413SOL    HW159680   6.957   2.782   3.202
19413SOL    HW259681   7.096   2.724   3.222
19414SOL     OW59682   5.651   2.015   2.164
19414SOL    HW159683   5.641   2.101   2.123
19414SOL    HW259684   5.738   1.985   2.138
19415SOL     OW59685   6.762   3.196   1.980
19415SOL    HW159686   6.670   3.169   1.981
19415SOL    HW259687   6.787   3.197   2.072
19416SOL     OW59688   6.208   2.686   3.294
19416SOL    HW159689   6.264   2.762   3.279
19416SOL    HW259690   6.269   2.612   3.299
19417SOL     OW59691   7.071   3.651   2.841
19417SOL    HW159692   7.090   3.721   2.778
19417SOL    HW259693   7.157   3.626   2.876
19418SOL     OW59694   6.302   2.428   3.562
19418SOL    HW159695   6.348   2.484   3.625
19418SOL    HW259696   6.318   2.339   3.593
19419SOL     OW59697   7.066   3.052   3.504
19419SOL    HW159698   7.045   3.063   3.597
19419SOL    HW259699   7.161   3.067   3.500
19420SOL     OW59700   5.949   3.604   3.425
19420SOL    HW159701   5.864   3.647   3.420
19420SOL    HW259702   5.931   3.521   3.468
19421SOL     OW59703   7.250   2.744   3.110
19421SOL    HW159704   7.241   2.658   3.068
19421SOL    HW259705   7.241   2.806   3.038
19422SOL     OW59706   6.809   2.166   2.329
19422SOL    HW159707   6.859   2.091   2.362
19422SOL    HW259708   6.825   2.236   2.392
19423SOL     OW59709   6.176   2.589   2.539
19423SOL    HW159710   6.213   2.677   2.530
19423SOL    HW259711   6.108   2.585   2.472
19424SOL     OW59712   7.346   2.222   3.498
19424SOL    HW159713   7.318   2.244   3.410
19424SOL    HW259714   7.274   2.169   3.533
19425SOL     OW59715   7.326   2.790   3.368
19425SOL    HW159716   7.320   2.884   3.385
19425SOL    HW259717   7.308   2.781   3.274
19426SOL     OW59718   6.457   3.227   1.913
19426SOL    HW159719   6.419   3.234   2.001
19426SOL    HW259720   6.457   3.317   1.880
19427SOL     OW59721   6.240   3.646   2.784
19427SOL    HW159722   6.221   3.740   2.776
19427SOL    HW259723   6.335   3.641   2.792
19428SOL     OW59724   6.460   2.835   2.715
19428SOL    HW159725   6.512   2.767   2.758
19428SOL    HW259726   6.415   2.880   2.788
19429SOL     OW59727   6.667   2.859   1.953
19429SOL    HW159728   6.646   2.909   1.874
19429SOL    HW259729   6.737   2.800   1.926
19430SOL     OW59730   7.428   3.410   2.710
19430SOL    HW159731   7.351   3.407   2.653
19430SOL    HW259732   7.399   3.366   2.790
19431SOL     OW59733   5.810   3.161   3.714
19431SOL    HW159734   5.749   3.099   3.674
19431SOL    HW259735   5.772   3.181   3.799
19432SOL     OW59736   5.678   3.091   2.528
19432SOL    HW159737   5.681   3.053   2.616
19432SOL    HW259738   5.748   3.045   2.481
19433SOL     OW59739   6.272   3.278   3.512
19433SOL    HW159740   6.190   3.237   3.540
19433SOL    HW259741   6.265   3.369   3.543
19434SOL     OW59742   7.398   2.050   3.091
19434SOL    HW159743   7.402   1.957   3.111
19434SOL    HW259744   7.412   2.056   2.997
19435SOL     OW59745   6.000   2.298   2.383
19435SOL    HW159746   6.040   2.229   2.331
19435SOL    HW259747   5.956   2.252   2.455
19436SOL     OW59748   7.289   3.336   2.948
19436SOL    HW159749   7.210   3.318   2.898
19436SOL    HW259750   7.289   3.271   3.018
19437SOL     OW59751   5.931   2.413   3.145
19437SOL    HW159752   6.007   2.370   3.185
19437SOL    HW259753   5.941   2.396   3.051
19438SOL     OW59754   6.419   3.434   2.529
19438SOL    HW159755   6.382   3.498   2.470
19438SOL    HW259756   6.348   3.373   2.548
19439SOL     OW59757   7.017   2.088   2.987
19439SOL    HW159758   7.043   2.017   3.045
19439SOL    HW259759   6.961   2.144   3.041
19440SOL     OW59760   6.606   1.891   2.977
19440SOL    HW159761   6.537   1.824   2.978
19440SOL    HW259762   6.687   1.840   2.972
19441SOL     OW59763   6.368   3.194   2.175
19441SOL    HW159764   6.339   3.104   2.193
19441SOL    HW259765   6.442   3.207   2.234
19442SOL     OW59766   6.198   3.423   3.144
19442SOL    HW159767   6.199   3.503   3.198
19442SOL    HW259768   6.280   3.427   3.094
19443SOL     OW59769   6.948   1.882   2.034
19443SOL    HW159770   6.936   1.872   1.940
19443SOL    HW259771   6.867   1.848   2.073
19444SOL     OW59772   6.892   2.323   2.539
19444SOL    HW159773   6.840   2.404   2.539
19444SOL    HW259774   6.881   2.288   2.627
19445SOL     OW59775   7.165   2.052   2.752
19445SOL    HW159776   7.114   2.076   2.829
19445SOL    HW259777   7.164   2.131   2.697
19446SOL     OW59778   5.635   2.921   2.156
19446SOL    HW159779   5.729   2.912   2.140
19446SOL    HW259780   5.607   2.833   2.182
19447SOL     OW59781   6.480   3.528   2.193
19447SOL    HW159782   6.402   3.511   2.140
19447SOL    HW259783   6.453   3.596   2.255
19448SOL     OW59784   5.807   2.469   3.857
19448SOL    HW159785   5.719   2.470   3.894
19448SOL    HW259786   5.793   2.462   3.762
19449SOL     OW59787   5.815   2.138   4.710
19449SOL    HW159788   5.838   2.109   4.799
19449SOL    HW259789   5.723   2.113   4.701
19450SOL     OW59790   5.576   2.245   4.363
19450SOL    HW159791   5.500   2.281   4.408
19450SOL    HW259792   5.543   2.167   4.319
19451SOL     OW59793   6.162   3.153   4.898
19451SOL    HW159794   6.074   3.158   4.860
19451SOL    HW259795   6.176   3.239   4.938
19452SOL     OW59796   7.156   3.381   4.436
19452SOL    HW159797   7.114   3.365   4.520
19452SOL    HW259798   7.085   3.386   4.373
19453SOL     OW59799   6.717   2.570   4.416
19453SOL    HW159800   6.775   2.646   4.408
19453SOL    HW259801   6.670   2.585   4.497
19454SOL     OW59802   7.388   2.464   3.950
19454SOL    HW159803   7.338   2.449   3.870
19454SOL    HW259804   7.325   2.451   4.021
19455SOL     OW59805   6.351   3.014   4.755
19455SOL    HW159806   6.278   3.033   4.814
19455SOL    HW259807   6.377   3.099   4.720
19456SOL     OW59808   6.462   2.619   5.556
19456SOL    HW159809   6.429   2.684   5.618
19456SOL    HW259810   6.481   2.669   5.476
19457SOL     OW59811   6.277   2.880   4.380
19457SOL    HW159812   6.336   2.949   4.413
19457SOL    HW259813   6.189   2.911   4.402
19458SOL     OW59814   6.305   3.014   5.543
19458SOL    HW159815   6.346   3.093   5.577
19458SOL    HW259816   6.222   3.044   5.505
19459SOL     OW59817   5.928   3.263   4.788
19459SOL    HW159818   5.844   3.234   4.754
19459SOL    HW259819   5.960   3.327   4.724
19460SOL     OW59820   7.048   3.360   5.090
19460SOL    HW159821   7.100   3.441   5.092
19460SOL    HW259822   6.971   3.380   5.143
19461SOL     OW59823   6.038   2.243   5.188
19461SOL    HW159824   6.109   2.182   5.206
19461SOL    HW259825   5.958   2.196   5.214
19462SOL     OW59826   7.203   2.295   4.484
19462SOL    HW159827   7.187   2.334   4.398
19462SOL    HW259828   7.207   2.370   4.544
19463SOL     OW59829   5.821   3.567   4.205
19463SOL    HW159830   5.832   3.649   4.255
19463SOL    HW259831   5.883   3.575   4.133
19464SOL     OW59832   6.758   3.171   5.411
19464SOL    HW159833   6.762   3.203   5.501
19464SOL    HW259834   6.689   3.105   5.412
19465SOL     OW59835   5.830   3.302   4.270
19465SOL    HW159836   5.812   3.396   4.266
19465SOL    HW259837   5.765   3.268   4.332
19466SOL     OW59838   5.861   2.950   4.628
19466SOL    HW159839   5.834   2.863   4.657
19466SOL    HW259840   5.799   3.009   4.669
19467SOL     OW59841   6.197   3.631   5.167
19467SOL    HW159842   6.111   3.626   5.210
19467SOL    HW259843   6.223   3.723   5.176
19468SOL     OW59844   6.167   2.845   3.861
19468SOL    HW159845   6.214   2.892   3.793
19468SOL    HW259846   6.203   2.880   3.943
19469SOL     OW59847   7.185   1.998   5.176
19469SOL    HW159848   7.213   2.084   5.145
19469SOL    HW259849   7.159   2.012   5.267
19470SOL     OW59850   5.713   2.515   4.287
19470SOL    HW159851   5.669   2.432   4.308
19470SOL    HW259852   5.697   2.571   4.362
19471SOL     OW59853   7.435   3.613   4.053
19471SOL    HW159854   7.505   3.587   4.113
19471SOL    HW259855   7.451   3.706   4.036
19472SOL     OW59856   5.638   3.448   3.837
19472SOL    HW159857   5.607   3.360   3.857
19472SOL    HW259858   5.610   3.501   3.912
19473SOL     OW59859   7.298   2.795   4.366
19473SOL    HW159860   7.312   2.707   4.332
19473SOL    HW259861   7.264   2.845   4.292
19474SOL     OW59862   7.232   2.976   4.153
19474SOL    HW159863   7.320   2.973   4.114
19474SOL    HW259864   7.240   3.037   4.227
19475SOL     OW59865   5.698   2.610   5.309
19475SOL    HW159866   5.782   2.656   5.312
19475SOL    HW259867   5.633   2.680   5.302
19476SOL     OW59868   6.206   3.247   4.461
19476SOL    HW159869   6.150   3.170   4.471
19476SOL    HW259870   6.187   3.279   4.372
19477SOL     OW59871   6.858   3.098   5.130
19477SOL    HW159872   6.899   3.028   5.079
19477SOL    HW259873   6.869   3.070   5.221
19478SOL     OW59874   6.407   1.866   4.250
19478SOL    HW159875   6.449   1.947   4.220
19478SOL    HW259876   6.313   1.887   4.251
19479SOL     OW59877   5.778   2.810   5.021
19479SOL    HW159878   5.857   2.776   4.979
19479SOL    HW259879   5.709   2.800   4.955
19480SOL     OW59880   7.118   2.861   3.928
19480SOL    HW159881   7.047   2.805   3.962
19480SOL    HW259882   7.162   2.894   4.006
19481SOL     OW59883   6.780   3.664   5.371
19481SOL    HW159884   6.808   3.730   5.308
19481SOL    HW259885   6.801   3.581   5.330
19482SOL     OW59886   5.932   2.109   5.572
19482SOL    HW159887   5.967   2.198   5.586
19482SOL    HW259888   5.837   2.119   5.579
19483SOL     OW59889   7.056   3.275   4.681
19483SOL    HW159890   6.985   3.292   4.743
19483SOL    HW259891   7.040   3.187   4.648
19484SOL     OW59892   7.235   3.623   4.300
19484SOL    HW159893   7.219   3.582   4.215
19484SOL    HW259894   7.218   3.554   4.363
19485SOL     OW59895   6.181   2.581   4.000
19485SOL    HW159896   6.177   2.663   3.951
19485SOL    HW259897   6.114   2.591   4.068
19486SOL     OW59898   6.873   2.232   4.671
19486SOL    HW159899   6.781   2.204   4.671
19486SOL    HW259900   6.917   2.170   4.729
19487SOL     OW59901   7.166   3.536   4.037
19487SOL    HW159902   7.259   3.558   4.029
19487SOL    HW259903   7.137   3.521   3.947
19488SOL     OW59904   6.388   2.481   5.164
19488SOL    HW159905   6.362   2.456   5.253
19488SOL    HW259906   6.351   2.412   5.109
19489SOL     OW59907   6.979   2.338   5.402
19489SOL    HW159908   6.981   2.381   5.488
19489SOL    HW259909   7.034   2.260   5.413
19490SOL     OW59910   6.536   2.746   5.317
19490SOL    HW159911   6.589   2.679   5.273
19490SOL    HW259912   6.485   2.786   5.246
19491SOL     OW59913   6.584   2.266   4.953
19491SOL    HW159914   6.495   2.283   4.983
19491SOL    HW259915   6.573   2.232   4.864
19492SOL     OW59916   6.641   2.555   4.146
19492SOL    HW159917   6.660   2.550   4.240
19492SOL    HW259918   6.556   2.511   4.137
19493SOL     OW59919   5.668   2.686   4.492
19493SOL    HW159920   5.740   2.679   4.554
19493SOL    HW259921   5.613   2.756   4.528
19494SOL     OW59922   5.690   3.711   5.300
19494SOL    HW159923   5.639   3.677   5.374
19494SOL    HW259924   5.625   3.727   5.231
19495SOL     OW59925   6.490   2.205   3.915
19495SOL    HW159926   6.521   2.277   3.860
19495SOL    HW259927   6.522   2.126   3.873
19496SOL     OW59928   7.297   2.430   5.554
19496SOL    HW159929   7.261   2.505   5.506
19496SOL    HW259930   7.317   2.366   5.486
19497SOL     OW59931   6.956   3.004   4.251
19497SOL    HW159932   7.040   2.991   4.207
19497SOL    HW259933   6.912   3.071   4.198
19498SOL     OW59934   6.134   2.034   4.629
19498SOL    HW159935   6.139   2.063   4.720
19498SOL    HW259936   6.129   2.115   4.578
19499SOL     OW59937   6.577   3.308   4.196
19499SOL    HW159938   6.554   3.379   4.136
19499SOL    HW259939   6.545   3.337   4.282
19500SOL     OW59940   5.938   3.674   4.584
19500SOL    HW159941   5.981   3.591   4.600
19500SOL    HW259942   5.999   3.740   4.617
19501SOL     OW59943   7.392   2.912   4.599
19501SOL    HW159944   7.349   2.885   4.518
19501SOL    HW259945   7.322   2.916   4.664
19502SOL     OW59946   6.814   3.400   5.234
19502SOL    HW159947   6.789   3.326   5.289
19502SOL    HW259948   6.731   3.436   5.203
19503SOL     OW59949   5.903   2.823   3.981
19503SOL    HW159950   5.981   2.842   3.929
19503SOL    HW259951   5.865   2.745   3.941
19504SOL     OW59952   7.034   2.621   4.464
19504SOL    HW159953   7.051   2.560   4.536
19504SOL    HW259954   7.087   2.587   4.391
19505SOL     OW59955   6.058   3.121   5.455
19505SOL    HW159956   6.028   3.131   5.365
19505SOL    HW259957   5.978   3.117   5.507
19506SOL     OW59958   6.715   3.640   3.949
19506SOL    HW159959   6.637   3.607   3.992
19506SOL    HW259960   6.736   3.573   3.883
19507SOL     OW59961   5.785   2.130   5.228
19507SOL    HW159962   5.704   2.180   5.227
19507SOL    HW259963   5.760   2.044   5.262
19508SOL     OW59964   7.200   3.247   3.775
19508SOL    HW159965   7.155   3.331   3.788
19508SOL    HW259966   7.129   3.182   3.777
19509SOL     OW59967   6.048   3.606   4.035
19509SOL    HW159968   6.091   3.659   4.103
19509SOL    HW259969   6.120   3.565   3.987
19510SOL     OW59970   6.983   1.965   4.164
19510SOL    HW159971   6.973   1.938   4.073
19510SOL    HW259972   7.058   2.024   4.165
19511SOL     OW59973   5.840   3.641   4.966
19511SOL    HW159974   5.887   3.558   4.976
19511SOL    HW259975   5.786   3.629   4.888
19512SOL     OW59976   6.535   3.569   4.624
19512SOL    HW159977   6.616   3.524   4.649
19512SOL    HW259978   6.494   3.511   4.559
19513SOL     OW59979   5.992   2.555   4.206
19513SOL    HW159980   6.006   2.461   4.220
19513SOL    HW259981   5.898   2.567   4.220
19514SOL     OW59982   7.108   2.082   5.444
19514SOL    HW159983   7.122   2.100   5.537
19514SOL    HW259984   7.033   2.023   5.441
19515SOL     OW59985   6.226   1.968   3.834
19515SOL    HW159986   6.304   1.913   3.830
19515SOL    HW259987   6.173   1.939   3.760
19516SOL     OW59988   6.348   2.137   5.479
19516SOL    HW159989   6.429   2.086   5.477
19516SOL    HW259990   6.299   2.103   5.553
19517SOL     OW59991   6.464   3.386   4.907
19517SOL    HW159992   6.443   3.353   4.819
19517SOL    HW259993   6.534   3.328   4.938
19518SOL     OW59994   6.926   2.452   5.156
19518SOL    HW159995   6.955   2.423   5.243
19518SOL    HW259996   6.959   2.541   5.148
19519SOL     OW59997   6.414   3.258   4.659
19519SOL    HW159998   6.496   3.254   4.610
19519SOL    HW259999   6.347   3.271   4.592
19520SOL     OW60000   6.516   2.377   4.616
19520SOL    HW160001   6.489   2.365   4.525
19520SOL    HW260002   6.546   2.290   4.644
19521SOL     OW60003   6.139   1.924   4.220
19521SOL    HW160004   6.059   1.925   4.273
19521SOL    HW260005   6.133   2.001   4.165
19522SOL     OW60006   7.004   3.058   3.772
19522SOL    HW160007   7.036   2.985   3.825
19522SOL    HW260008   6.918   3.078   3.808
19523SOL     OW60009   5.877   1.911   3.906
19523SOL    HW160010   5.926   1.980   3.862
19523SOL    HW260011   5.943   1.856   3.947
19524SOL     OW60012   6.527   2.106   4.176
19524SOL    HW160013   6.499   2.144   4.093
19524SOL    HW260014   6.621   2.124   4.181
19525SOL     OW60015   6.666   2.553   5.174
19525SOL    HW160016   6.593   2.491   5.178
19525SOL    HW260017   6.744   2.499   5.171
19526SOL     OW60018   6.808   3.433   4.521
19526SOL    HW160019   6.820   3.496   4.450
19526SOL    HW260020   6.848   3.475   4.598
19527SOL     OW60021   6.053   3.013   4.450
19527SOL    HW160022   5.987   2.996   4.516
19527SOL    HW260023   6.006   3.007   4.367
19528SOL     OW60024   6.844   3.650   4.335
19528SOL    HW160025   6.892   3.716   4.286
19528SOL    HW260026   6.772   3.699   4.377
19529SOL     OW60027   6.608   2.395   3.751
19529SOL    HW160028   6.566   2.478   3.731
19529SOL    HW260029   6.673   2.417   3.818
19530SOL     OW60030   5.673   2.417   5.118
19530SOL    HW160031   5.764   2.423   5.091
19530SOL    HW260032   5.661   2.488   5.182
19531SOL     OW60033   6.146   2.086   4.902
19531SOL    HW160034   6.182   2.024   4.964
19531SOL    HW260035   6.052   2.089   4.923
19532SOL     OW60036   6.451   2.317   4.359
19532SOL    HW160037   6.405   2.373   4.296
19532SOL    HW260038   6.476   2.240   4.308
19533SOL     OW60039   6.611   1.912   4.473
19533SOL    HW160040   6.546   1.919   4.404
19533SOL    HW260041   6.578   1.843   4.530
19534SOL     OW60042   7.040   3.020   4.573
19534SOL    HW160043   6.975   2.961   4.536
19534SOL    HW260044   7.098   3.041   4.499
19535SOL     OW60045   7.047   2.461   4.696
19535SOL    HW160046   6.991   2.383   4.697
19535SOL    HW260047   7.105   2.450   4.772
19536SOL     OW60048   7.462   2.687   4.107
19536SOL    HW160049   7.507   2.635   4.173
19536SOL    HW260050   7.416   2.623   4.052
19537SOL     OW60051   6.074   3.283   3.878
19537SOL    HW160052   6.000   3.258   3.932
19537SOL    HW260053   6.062   3.235   3.796
19538SOL     OW60054   7.250   3.124   4.381
19538SOL    HW160055   7.345   3.119   4.391
19538SOL    HW260056   7.230   3.217   4.394
19539SOL     OW60057   6.978   2.437   3.795
19539SOL    HW160058   6.916   2.415   3.865
19539SOL    HW260059   7.064   2.421   3.833
19540SOL     OW60060   6.109   2.120   4.036
19540SOL    HW160061   6.157   2.075   3.966
19540SOL    HW260062   6.085   2.204   3.997
19541SOL     OW60063   7.338   3.130   5.332
19541SOL    HW160064   7.409   3.070   5.306
19541SOL    HW260065   7.375   3.217   5.322
19542SOL     OW60066   6.636   3.195   5.018
19542SOL    HW160067   6.559   3.181   5.074
19542SOL    HW260068   6.710   3.168   5.072
19543SOL     OW60069   7.179   3.428   5.372
19543SOL    HW160070   7.149   3.486   5.302
19543SOL    HW260071   7.274   3.425   5.362
19544SOL     OW60072   6.661   3.027   4.796
19544SOL    HW160073   6.645   3.080   4.874
19544SOL    HW260074   6.677   3.090   4.726
19545SOL     OW60075   7.199   2.950   4.799
19545SOL    HW160076   7.188   3.013   4.870
19545SOL    HW260077   7.132   2.974   4.735
19546SOL     OW60078   6.511   1.952   5.118
19546SOL    HW160079   6.532   1.941   5.025
19546SOL    HW260080   6.588   1.994   5.155
19547SOL     OW60081   6.572   2.975   5.452
19547SOL    HW160082   6.484   2.998   5.480
19547SOL    HW260083   6.562   2.895   5.400
19548SOL     OW60084   6.298   2.930   4.093
19548SOL    HW160085   6.274   2.905   4.182
19548SOL    HW260086   6.375   2.876   4.073
19549SOL     OW60087   6.024   2.672   4.956
19549SOL    HW160088   6.079   2.690   5.032
19549SOL    HW260089   5.979   2.590   4.977
19550SOL     OW60090   6.849   2.236   5.008
19550SOL    HW160091   6.880   2.316   5.051
19550SOL    HW260092   6.758   2.255   4.984
19551SOL     OW60093   5.648   3.435   5.080
19551SOL    HW160094   5.583   3.488   5.033
19551SOL    HW260095   5.731   3.481   5.067
19552SOL     OW60096   5.934   2.984   4.207
19552SOL    HW160097   5.916   3.062   4.156
19552SOL    HW260098   5.926   2.912   4.144
19553SOL     OW60099   6.133   2.382   4.582
19553SOL    HW160100   6.146   2.441   4.508
19553SOL    HW260101   6.196   2.411   4.648
19554SOL     OW60102   6.826   3.218   4.117
19554SOL    HW160103   6.884   3.288   4.148
19554SOL    HW260104   6.739   3.243   4.150
19555SOL     OW60105   6.870   3.313   4.884
19555SOL    HW160106   6.935   3.320   4.954
19555SOL    HW260107   6.792   3.279   4.927
19556SOL     OW60108   5.943   3.392   5.027
19556SOL    HW160109   5.922   3.338   4.951
19556SOL    HW260110   6.038   3.396   5.028
19557SOL     OW60111   6.005   2.616   5.333
19557SOL    HW160112   6.067   2.655   5.271
19557SOL    HW260113   6.032   2.525   5.341
19558SOL     OW60114   7.201   2.641   5.414
19558SOL    HW160115   7.114   2.679   5.409
19558SOL    HW260116   7.250   2.683   5.343
19559SOL     OW60117   6.583   1.997   5.481
19559SOL    HW160118   6.640   2.072   5.461
19559SOL    HW260119   6.636   1.920   5.457
19560SOL     OW60120   6.079   1.898   5.479
19560SOL    HW160121   6.031   1.850   5.411
19560SOL    HW260122   6.023   1.973   5.499
19561SOL     OW60123   6.207   2.741   4.765
19561SOL    HW160124   6.187   2.831   4.739
19561SOL    HW260125   6.141   2.719   4.830
19562SOL     OW60126   6.934   2.711   4.747
19562SOL    HW160127   6.921   2.730   4.654
19562SOL    HW260128   6.974   2.624   4.748
19563SOL     OW60129   6.782   2.386   3.982
19563SOL    HW160130   6.793   2.308   4.036
19563SOL    HW260131   6.742   2.451   4.039
19564SOL     OW60132   5.883   2.059   4.965
19564SOL    HW160133   5.838   2.087   5.045
19564SOL    HW260134   5.872   1.964   4.964
19565SOL     OW60135   5.683   3.176   4.999
19565SOL    HW160136   5.682   3.123   5.079
19565SOL    HW260137   5.659   3.264   5.028
19566SOL     OW60138   6.304   2.484   4.773
19566SOL    HW160139   6.380   2.473   4.716
19566SOL    HW260140   6.280   2.576   4.763
19567SOL     OW60141   7.320   2.824   5.587
19567SOL    HW160142   7.281   2.755   5.534
19567SOL    HW260143   7.256   2.842   5.655
19568SOL     OW60144   5.892   1.920   4.343
19568SOL    HW160145   5.864   2.010   4.360
19568SOL    HW260146   5.898   1.880   4.430
19569SOL     OW60147   7.167   2.182   4.107
19569SOL    HW160148   7.234   2.139   4.161
19569SOL    HW260149   7.167   2.273   4.137
19570SOL     OW60150   6.588   2.633   4.677
19570SOL    HW160151   6.597   2.631   4.773
19570SOL    HW260152   6.568   2.542   4.654
19571SOL     OW60153   6.584   3.422   5.439
19571SOL    HW160154   6.568   3.480   5.365
19571SOL    HW260155   6.555   3.336   5.409
19572SOL     OW60156   7.437   3.376   5.319
19572SOL    HW160157   7.462   3.411   5.233
19572SOL    HW260158   7.517   3.384   5.372
19573SOL     OW60159   5.942   2.768   5.552
19573SOL    HW160160   6.027   2.791   5.590
19573SOL    HW260161   5.962   2.713   5.477
19574SOL     OW60162   7.114   2.117   3.845
19574SOL    HW160163   7.047   2.052   3.866
19574SOL    HW260164   7.141   2.152   3.930
19575SOL     OW60165   6.864   2.684   3.749
19575SOL    HW160166   6.908   2.600   3.757
19575SOL    HW260167   6.899   2.723   3.669
19576SOL     OW60168   6.674   3.198   4.574
19576SOL    HW160169   6.690   3.144   4.496
19576SOL    HW260170   6.724   3.278   4.558
19577SOL     OW60171   5.879   2.662   4.668
19577SOL    HW160172   5.971   2.683   4.649
19577SOL    HW260173   5.882   2.574   4.705
19578SOL     OW60174   5.913   2.387   4.740
19578SOL    HW160175   5.873   2.301   4.726
19578SOL    HW260176   5.989   2.388   4.681
19579SOL     OW60177   6.722   2.232   5.413
19579SOL    HW160178   6.671   2.286   5.473
19579SOL    HW260179   6.807   2.276   5.407
19580SOL     OW60180   6.752   2.058   5.199
19580SOL    HW160181   6.737   2.120   5.271
19580SOL    HW260182   6.790   2.112   5.129
19581SOL     OW60183   5.599   3.174   3.907
19581SOL    HW160184   5.511   3.192   3.874
19581SOL    HW260185   5.592   3.088   3.949
19582SOL     OW60186   5.677   3.639   4.667
19582SOL    HW160187   5.641   3.563   4.621
19582SOL    HW260188   5.764   3.652   4.627
19583SOL     OW60189   6.079   3.437   4.630
19583SOL    HW160190   6.146   3.504   4.646
19583SOL    HW260191   6.121   3.375   4.571
19584SOL     OW60192   6.550   2.660   4.945
19584SOL    HW160193   6.614   2.641   5.014
19584SOL    HW260194   6.469   2.620   4.976
19585SOL     OW60195   5.621   2.397   4.847
19585SOL    HW160196   5.702   2.412   4.799
19585SOL    HW260197   5.645   2.408   4.939
19586SOL     OW60198   5.776   2.389   5.455
19586SOL    HW160199   5.807   2.336   5.382
19586SOL    HW260200   5.739   2.467   5.415
19587SOL     OW60201   6.969   2.784   5.387
19587SOL    HW160202   6.953   2.878   5.394
19587SOL    HW260203   6.970   2.768   5.292
19588SOL     OW60204   6.400   2.431   4.093
19588SOL    HW160205   6.401   2.358   4.031
19588SOL    HW260206   6.327   2.485   4.065
19589SOL     OW60207   7.226   2.452   4.903
19589SOL    HW160208   7.217   2.398   4.982
19589SOL    HW260209   7.314   2.433   4.871
19590SOL     OW60210   5.843   3.416   5.469
19590SOL    HW160211   5.800   3.466   5.538
19590SOL    HW260212   5.836   3.325   5.498
19591SOL     OW60213   6.308   2.303   4.974
19591SOL    HW160214   6.245   2.234   4.956
19591SOL    HW260215   6.294   2.367   4.904
19592SOL     OW60216   6.544   3.533   5.186
19592SOL    HW160217   6.492   3.507   5.110
19592SOL    HW260218   6.545   3.629   5.182
19593SOL     OW60219   6.048   2.352   3.912
19593SOL    HW160220   6.103   2.427   3.934
19593SOL    HW260221   5.961   2.389   3.898
19594SOL     OW60222   5.734   3.000   5.212
19594SOL    HW160223   5.728   2.955   5.296
19594SOL    HW260224   5.748   2.931   5.148
19595SOL     OW60225   6.886   2.893   4.939
19595SOL    HW160226   6.913   2.830   4.872
19595SOL    HW260227   6.817   2.945   4.897
19596SOL     OW60228   6.891   2.733   4.022
19596SOL    HW160229   6.829   2.683   4.075
19596SOL    HW260230   6.865   2.716   3.931
19597SOL     OW60231   7.340   3.604   4.863
19597SOL    HW160232   7.414   3.633   4.809
19597SOL    HW260233   7.331   3.511   4.843
19598SOL     OW60234   6.821   3.569   4.780
19598SOL    HW160235   6.907   3.609   4.768
19598SOL    HW260236   6.838   3.491   4.832
19599SOL     OW60237   5.681   3.120   4.739
19599SOL    HW160238   5.681   3.135   4.833
19599SOL    HW260239   5.592   3.142   4.711
19600SOL     OW60240   6.266   3.525   5.453
19600SOL    HW160241   6.187   3.576   5.434
19600SOL    HW260242   6.332   3.559   5.393
19601SOL     OW60243   7.337   2.015   4.248
19601SOL    HW160244   7.400   1.997   4.179
19601SOL    HW260245   7.307   1.929   4.276
19602SOL     OW60246   6.977   3.431   4.215
19602SOL    HW160247   7.036   3.468   4.150
19602SOL    HW260248   6.926   3.507   4.247
19603SOL     OW60249   5.727   3.667   5.580
19603SOL    HW160250   5.670   3.598   5.615
19603SOL    HW260251   5.769   3.704   5.657
19604SOL     OW60252   6.860   2.819   4.421
19604SOL    HW160253   6.930   2.754   4.427
19604SOL    HW260254   6.889   2.878   4.351
19605SOL     OW60255   6.391   3.149   5.142
19605SOL    HW160256   6.363   3.184   5.227
19605SOL    HW260257   6.321   3.174   5.082
19606SOL     OW60258   6.256   3.488   3.880
19606SOL    HW160259   6.266   3.504   3.786
19606SOL    HW260260   6.199   3.411   3.885
19607SOL     OW60261   7.208   3.580   5.116
19607SOL    HW160262   7.256   3.591   5.034
19607SOL    HW260263   7.196   3.669   5.149
19608SOL     OW60264   7.423   2.030   4.693
19608SOL    HW160265   7.453   1.947   4.656
19608SOL    HW260266   7.338   2.045   4.651
19609SOL     OW60267   5.835   2.171   4.431
19609SOL    HW160268   5.749   2.207   4.409
19609SOL    HW260269   5.836   2.170   4.527
19610SOL     OW60270   6.796   3.456   3.757
19610SOL    HW160271   6.785   3.366   3.789
19610SOL    HW260272   6.727   3.468   3.693
19611SOL     OW60273   6.411   2.876   5.113
19611SOL    HW160274   6.449   2.872   5.025
19611SOL    HW260275   6.398   2.970   5.129
19612SOL     OW60276   6.516   2.783   4.039
19612SOL    HW160277   6.565   2.811   3.961
19612SOL    HW260278   6.562   2.705   4.070
19613SOL     OW60279   7.066   3.502   3.773
19613SOL    HW160280   6.973   3.486   3.762
19613SOL    HW260281   7.096   3.527   3.685
19614SOL     OW60282   5.956   3.169   5.211
19614SOL    HW160283   5.937   3.247   5.158
19614SOL    HW260284   5.878   3.114   5.201
19615SOL     OW60285   7.184   3.134   5.003
19615SOL    HW160286   7.274   3.150   5.030
19615SOL    HW260287   7.135   3.209   5.038
19616SOL     OW60288   6.600   2.902   4.468
19616SOL    HW160289   6.561   2.898   4.380
19616SOL    HW260290   6.691   2.876   4.455
19617SOL     OW60291   6.616   2.111   4.689
19617SOL    HW160292   6.614   2.064   4.605
19617SOL    HW260293   6.607   2.041   4.755
19618SOL     OW60294   6.191   3.350   4.209
19618SOL    HW160295   6.231   3.306   4.135
19618SOL    HW260296   6.105   3.379   4.177
19619SOL     OW60297   7.330   2.232   5.098
19619SOL    HW160298   7.392   2.304   5.104
19619SOL    HW260299   7.371   2.170   5.038
19620SOL     OW60300   5.851   3.202   4.025
19620SOL    HW160301   5.760   3.200   3.995
19620SOL    HW260302   5.847   3.244   4.111
19621SOL     OW60303   5.707   2.893   5.461
19621SOL    HW160304   5.626   2.868   5.505
19621SOL    HW260305   5.776   2.846   5.508
19622SOL     OW60306   6.265   2.048   5.221
19622SOL    HW160307   6.352   2.029   5.185
19622SOL    HW260308   6.282   2.085   5.307
19623SOL     OW60309   5.673   2.186   3.744
19623SOL    HW160310   5.578   2.187   3.735
19623SOL    HW260311   5.702   2.263   3.696
19624SOL     OW60312   7.008   2.727   5.123
19624SOL    HW160313   6.954   2.779   5.063
19624SOL    HW260314   7.095   2.726   5.082
19625SOL     OW60315   5.648   2.011   4.029
19625SOL    HW160316   5.633   2.098   3.992
19625SOL    HW260317   5.733   1.985   3.994
19626SOL     OW60318   6.756   3.194   3.844
19626SOL    HW160319   6.662   3.177   3.840
19626SOL    HW260320   6.776   3.194   3.937
19627SOL     OW60321   6.208   2.691   5.158
19627SOL    HW160322   6.262   2.770   5.150
19627SOL    HW260323   6.270   2.619   5.165
19628SOL     OW60324   7.081   3.641   4.709
19628SOL    HW160325   7.097   3.719   4.655
19628SOL    HW260326   7.158   3.635   4.765
19629SOL     OW60327   6.318   2.416   5.414
19629SOL    HW160328   6.349   2.474   5.483
19629SOL    HW260329   6.323   2.328   5.452
19630SOL     OW60330   5.961   3.616   5.317
19630SOL    HW160331   5.890   3.630   5.254
19630SOL    HW260332   5.936   3.537   5.365
19631SOL     OW60333   7.242   2.735   4.973
19631SOL    HW160334   7.240   2.652   4.925
19631SOL    HW260335   7.233   2.802   4.905
19632SOL     OW60336   6.794   2.175   4.173
19632SOL    HW160337   6.862   2.108   4.170
19632SOL    HW260338   6.813   2.226   4.252
19633SOL     OW60339   6.180   2.601   4.408
19633SOL    HW160340   6.219   2.687   4.393
19633SOL    HW260341   6.116   2.591   4.338
19634SOL     OW60342   7.337   2.222   5.377
19634SOL    HW160343   7.332   2.233   5.282
19634SOL    HW260344   7.263   2.166   5.399
19635SOL     OW60345   7.330   2.785   5.225
19635SOL    HW160346   7.353   2.878   5.227
19635SOL    HW260347   7.310   2.767   5.134
19636SOL     OW60348   6.468   3.226   3.777
19636SOL    HW160349   6.418   3.247   3.856
19636SOL    HW260350   6.467   3.306   3.726
19637SOL     OW60351   6.252   3.645   4.645
19637SOL    HW160352   6.224   3.736   4.636
19637SOL    HW260353   6.347   3.650   4.661
19638SOL     OW60354   6.652   2.846   3.814
19638SOL    HW160355   6.633   2.903   3.739
19638SOL    HW260356   6.726   2.792   3.785
19639SOL     OW60357   7.433   3.410   4.562
19639SOL    HW160358   7.355   3.407   4.505
19639SOL    HW260359   7.403   3.375   4.645
19640SOL     OW60360   5.806   3.157   5.568
19640SOL    HW160361   5.757   3.090   5.520
19640SOL    HW260362   5.751   3.177   5.644
19641SOL     OW60363   5.676   3.091   4.399
19641SOL    HW160364   5.665   3.049   4.484
19641SOL    HW260365   5.742   3.038   4.354
19642SOL     OW60366   6.283   3.263   5.365
19642SOL    HW160367   6.200   3.221   5.388
19642SOL    HW260368   6.273   3.353   5.394
19643SOL     OW60369   7.470   2.024   4.958
19643SOL    HW160370   7.423   1.943   4.976
19643SOL    HW260371   7.452   2.043   4.866
19644SOL     OW60372   6.022   2.291   4.258
19644SOL    HW160373   6.042   2.223   4.194
19644SOL    HW260374   5.962   2.251   4.320
19645SOL     OW60375   7.297   3.341   4.794
19645SOL    HW160376   7.210   3.324   4.757
19645SOL    HW260377   7.303   3.280   4.868
19646SOL     OW60378   5.925   2.424   5.017
19646SOL    HW160379   5.974   2.361   5.070
19646SOL    HW260380   5.934   2.392   4.927
19647SOL     OW60381   6.425   3.442   4.395
19647SOL    HW160382   6.408   3.524   4.349
19647SOL    HW260383   6.343   3.393   4.388
19648SOL     OW60384   7.011   2.081   4.857
19648SOL    HW160385   7.044   2.015   4.918
19648SOL    HW260386   6.957   2.138   4.912
19649SOL     OW60387   6.598   1.883   4.856
19649SOL    HW160388   6.533   1.821   4.823
19649SOL    HW260389   6.682   1.838   4.848
19650SOL     OW60390   6.359   3.200   4.038
19650SOL    HW160391   6.331   3.109   4.048
19650SOL    HW260392   6.436   3.207   4.095
19651SOL     OW60393   6.217   3.403   5.017
19651SOL    HW160394   6.211   3.483   5.069
19651SOL    HW260395   6.301   3.409   4.972
19652SOL     OW60396   6.940   1.906   3.896
19652SOL    HW160397   6.973   1.834   3.842
19652SOL    HW260398   6.851   1.880   3.919
19653SOL     OW60399   6.839   2.310   4.402
19653SOL    HW160400   6.809   2.401   4.405
19653SOL    HW260401   6.867   2.291   4.491
19654SOL     OW60402   7.158   2.051   4.614
19654SOL    HW160403   7.106   2.085   4.686
19654SOL    HW260404   7.165   2.124   4.552
19655SOL     OW60405   5.631   2.928   4.031
19655SOL    HW160406   5.725   2.921   4.016
19655SOL    HW260407   5.604   2.839   4.052
19656SOL     OW60408   6.479   3.525   4.054
19656SOL    HW160409   6.403   3.507   4.000
19656SOL    HW260410   6.450   3.591   4.117
19657SOL     OW60411   5.805   2.468   5.723
19657SOL    HW160412   5.716   2.474   5.758
19657SOL    HW260413   5.793   2.460   5.628
19658SOL     OW60414   5.811   2.141   6.579
19658SOL    HW160415   5.834   2.111   6.667
19658SOL    HW260416   5.719   2.117   6.568
19659SOL     OW60417   5.578   2.245   6.229
19659SOL    HW160418   5.500   2.279   6.272
19659SOL    HW260419   5.547   2.169   6.179
19660SOL     OW60420   6.149   3.155   6.759
19660SOL    HW160421   6.064   3.175   6.719
19660SOL    HW260422   6.170   3.233   6.811
19661SOL     OW60423   7.150   3.379   6.295
19661SOL    HW160424   7.106   3.350   6.375
19661SOL    HW260425   7.080   3.385   6.230
19662SOL     OW60426   6.726   2.552   6.281
19662SOL    HW160427   6.769   2.636   6.263
19662SOL    HW260428   6.677   2.567   6.362
19663SOL     OW60429   7.376   2.460   5.809
19663SOL    HW160430   7.346   2.455   5.718
19663SOL    HW260431   7.332   2.387   5.852
19664SOL     OW60432   6.327   2.996   6.630
19664SOL    HW160433   6.259   3.035   6.686
19664SOL    HW260434   6.372   3.071   6.592
19665SOL     OW60435   6.445   2.629   7.408
19665SOL    HW160436   6.402   2.693   7.465
19665SOL    HW260437   6.474   2.680   7.332
19666SOL     OW60438   6.269   2.855   6.233
19666SOL    HW160439   6.335   2.855   6.302
19666SOL    HW260440   6.199   2.911   6.267
19667SOL     OW60441   6.304   3.020   7.398
19667SOL    HW160442   6.343   3.102   7.427
19667SOL    HW260443   6.220   3.045   7.359
19668SOL     OW60444   5.924   3.274   6.644
19668SOL    HW160445   5.840   3.265   6.600
19668SOL    HW260446   5.974   3.334   6.588
19669SOL     OW60447   7.050   3.381   6.932
19669SOL    HW160448   7.089   3.462   6.965
19669SOL    HW260449   6.979   3.362   6.994
19670SOL     OW60450   6.043   2.241   7.043
19670SOL    HW160451   6.110   2.177   7.068
19670SOL    HW260452   5.962   2.206   7.079
19671SOL     OW60453   7.187   2.307   6.331
19671SOL    HW160454   7.115   2.313   6.267
19671SOL    HW260455   7.172   2.381   6.390
19672SOL     OW60456   5.839   3.558   6.077
19672SOL    HW160457   5.840   3.642   6.122
19672SOL    HW260458   5.890   3.572   5.997
19673SOL     OW60459   6.754   3.184   7.283
19673SOL    HW160460   6.760   3.188   7.378
19673SOL    HW260461   6.691   3.115   7.266
19674SOL     OW60462   5.802   3.302   6.141
19674SOL    HW160463   5.813   3.395   6.122
19674SOL    HW260464   5.744   3.299   6.217
19675SOL     OW60465   5.821   2.950   6.469
19675SOL    HW160466   5.842   2.871   6.519
19675SOL    HW260467   5.764   3.000   6.527
19676SOL     OW60468   6.194   3.645   7.025
19676SOL    HW160469   6.107   3.629   7.063
19676SOL    HW260470   6.211   3.738   7.043
19677SOL     OW60471   6.174   2.843   5.723
19677SOL    HW160472   6.220   2.895   5.657
19677SOL    HW260473   6.206   2.877   5.807
19678SOL     OW60474   7.205   1.985   7.057
19678SOL    HW160475   7.181   2.067   7.013
19678SOL    HW260476   7.170   1.994   7.146
19679SOL     OW60477   5.713   2.504   6.146
19679SOL    HW160478   5.669   2.422   6.167
19679SOL    HW260479   5.704   2.557   6.226
19680SOL     OW60480   7.429   3.622   5.922
19680SOL    HW160481   7.499   3.598   5.984
19680SOL    HW260482   7.449   3.713   5.898
19681SOL     OW60483   5.637   3.445   5.702
19681SOL    HW160484   5.585   3.366   5.712
19681SOL    HW260485   5.615   3.498   5.779
19682SOL     OW60486   7.280   2.786   6.218
19682SOL    HW160487   7.344   2.737   6.166
19682SOL    HW260488   7.241   2.848   6.156
19683SOL     OW60489   7.232   2.972   6.006
19683SOL    HW160490   7.321   2.968   5.969
19683SOL    HW260491   7.239   3.037   6.077
19684SOL     OW60492   5.699   2.614   7.152
19684SOL    HW160493   5.780   2.655   7.180
19684SOL    HW260494   5.633   2.683   7.159
19685SOL     OW60495   6.205   3.251   6.316
19685SOL    HW160496   6.155   3.170   6.327
19685SOL    HW260497   6.185   3.279   6.227
19686SOL     OW60498   6.977   3.091   7.006
19686SOL    HW160499   6.922   3.055   6.936
19686SOL    HW260500   6.916   3.108   7.078
19687SOL     OW60501   6.408   1.865   6.108
19687SOL    HW160502   6.449   1.947   6.078
19687SOL    HW260503   6.314   1.884   6.108
19688SOL     OW60504   5.774   2.824   6.873
19688SOL    HW160505   5.857   2.783   6.849
19688SOL    HW260506   5.708   2.779   6.821
19689SOL     OW60507   7.111   2.877   5.775
19689SOL    HW160508   7.044   2.817   5.807
19689SOL    HW260509   7.153   2.910   5.855
19690SOL     OW60510   6.797   3.680   7.211
19690SOL    HW160511   6.779   3.739   7.138
19690SOL    HW260512   6.788   3.592   7.175
19691SOL     OW60513   5.928   2.114   7.423
19691SOL    HW160514   5.960   2.204   7.417
19691SOL    HW260515   5.833   2.123   7.433
19692SOL     OW60516   7.070   3.268   6.535
19692SOL    HW160517   6.995   3.294   6.588
19692SOL    HW260518   7.048   3.180   6.504
19693SOL     OW60519   7.240   3.616   6.167
19693SOL    HW160520   7.222   3.590   6.076
19693SOL    HW260521   7.213   3.541   6.220
19694SOL     OW60522   6.180   2.581   5.859
19694SOL    HW160523   6.178   2.665   5.813
19694SOL    HW260524   6.114   2.589   5.928
19695SOL     OW60525   6.873   2.232   6.524
19695SOL    HW160526   6.782   2.202   6.527
19695SOL    HW260527   6.918   2.175   6.586
19696SOL     OW60528   7.167   3.538   5.899
19696SOL    HW160529   7.257   3.567   5.888
19696SOL    HW260530   7.133   3.531   5.810
19697SOL     OW60531   6.403   2.457   7.035
19697SOL    HW160532   6.357   2.445   7.118
19697SOL    HW260533   6.353   2.404   6.973
19698SOL     OW60534   6.993   2.325   7.274
19698SOL    HW160535   6.976   2.354   7.364
19698SOL    HW260536   7.061   2.385   7.243
19699SOL     OW60537   6.529   2.752   7.171
19699SOL    HW160538   6.590   2.686   7.137
19699SOL    HW260539   6.493   2.794   7.093
19700SOL     OW60540   6.585   2.261   6.823
19700SOL    HW160541   6.503   2.293   6.862
19700SOL    HW260542   6.565   2.249   6.730
19701SOL     OW60543   6.641   2.556   6.010
19701SOL    HW160544   6.657   2.551   6.104
19701SOL    HW260545   6.556   2.516   5.997
19702SOL     OW60546   5.692   2.675   6.358
19702SOL    HW160547   5.767   2.667   6.417
19702SOL    HW260548   5.676   2.769   6.352
19703SOL     OW60549   5.709   3.735   7.165
19703SOL    HW160550   5.710   3.709   7.257
19703SOL    HW260551   5.619   3.719   7.137
19704SOL     OW60552   6.486   2.209   5.782
19704SOL    HW160553   6.526   2.274   5.724
19704SOL    HW260554   6.474   2.132   5.728
19705SOL     OW60555   7.354   2.406   7.431
19705SOL    HW160556   7.311   2.477   7.384
19705SOL    HW260557   7.357   2.334   7.368
19706SOL     OW60558   6.967   3.008   6.134
19706SOL    HW160559   7.042   3.002   6.075
19706SOL    HW260560   6.908   3.069   6.092
19707SOL     OW60561   6.136   2.031   6.486
19707SOL    HW160562   6.136   2.066   6.575
19707SOL    HW260563   6.132   2.108   6.430
19708SOL     OW60564   6.582   3.310   6.053
19708SOL    HW160565   6.555   3.383   5.998
19708SOL    HW260566   6.548   3.331   6.140
19709SOL     OW60567   5.928   3.671   6.450
19709SOL    HW160568   5.991   3.601   6.469
19709SOL    HW260569   5.964   3.748   6.494
19710SOL     OW60570   7.389   2.899   6.452
19710SOL    HW160571   7.333   2.884   6.376
19710SOL    HW260572   7.329   2.915   6.524
19711SOL     OW60573   6.827   3.381   7.099
19711SOL    HW160574   6.809   3.323   7.172
19711SOL    HW260575   6.765   3.354   7.031
19712SOL     OW60576   5.900   2.820   5.846
19712SOL    HW160577   5.974   2.847   5.793
19712SOL    HW260578   5.864   2.744   5.800
19713SOL     OW60579   7.075   2.610   6.298
19713SOL    HW160580   7.063   2.577   6.387
19713SOL    HW260581   7.148   2.671   6.305
19714SOL     OW60582   6.056   3.121   7.317
19714SOL    HW160583   6.028   3.131   7.226
19714SOL    HW260584   5.974   3.122   7.367
19715SOL     OW60585   6.721   3.627   5.829
19715SOL    HW160586   6.636   3.599   5.864
19715SOL    HW260587   6.736   3.569   5.755
19716SOL     OW60588   5.784   2.152   7.080
19716SOL    HW160589   5.732   2.224   7.045
19716SOL    HW260590   5.741   2.129   7.163
19717SOL     OW60591   7.214   3.242   5.671
19717SOL    HW160592   7.187   3.333   5.678
19717SOL    HW260593   7.146   3.193   5.718
19718SOL     OW60594   6.058   3.599   5.901
19718SOL    HW160595   6.095   3.660   5.965
19718SOL    HW260596   6.131   3.576   5.845
19719SOL     OW60597   6.984   1.965   6.030
19719SOL    HW160598   6.972   1.943   5.938
19719SOL    HW260599   7.079   1.973   6.041
19720SOL     OW60600   5.846   3.654   6.811
19720SOL    HW160601   5.888   3.571   6.833
19720SOL    HW260602   5.807   3.640   6.725
19721SOL     OW60603   6.533   3.553   6.477
19721SOL    HW160604   6.520   3.498   6.554
19721SOL    HW260605   6.494   3.504   6.405
19722SOL     OW60606   5.990   2.549   6.062
19722SOL    HW160607   6.004   2.456   6.078
19722SOL    HW260608   5.896   2.562   6.072
19723SOL     OW60609   7.119   2.066   7.310
19723SOL    HW160610   7.130   2.071   7.405
19723SOL    HW260611   7.045   2.125   7.292
19724SOL     OW60612   6.239   1.975   5.685
19724SOL    HW160613   6.291   1.896   5.701
19724SOL    HW260614   6.178   1.949   5.616
19725SOL     OW60615   6.346   2.117   7.337
19725SOL    HW160616   6.432   2.075   7.350
19725SOL    HW260617   6.324   2.152   7.423
19726SOL     OW60618   6.455   3.417   6.727
19726SOL    HW160619   6.423   3.352   6.665
19726SOL    HW260620   6.516   3.368   6.783
19727SOL     OW60621   6.926   2.449   7.006
19727SOL    HW160622   6.963   2.437   7.093
19727SOL    HW260623   6.944   2.541   6.985
19728SOL     OW60624   6.405   3.243   6.520
19728SOL    HW160625   6.490   3.234   6.477
19728SOL    HW260626   6.342   3.249   6.448
19729SOL     OW60627   6.524   2.366   6.485
19729SOL    HW160628   6.493   2.362   6.395
19729SOL    HW260629   6.549   2.276   6.506
19730SOL     OW60630   6.143   1.925   6.080
19730SOL    HW160631   6.062   1.925   6.131
19730SOL    HW260632   6.135   2.001   6.023
19731SOL     OW60633   7.007   3.060   5.582
19731SOL    HW160634   7.036   2.989   5.639
19731SOL    HW260635   6.921   3.085   5.616
19732SOL     OW60636   5.871   1.914   5.776
19732SOL    HW160637   5.920   1.980   5.727
19732SOL    HW260638   5.937   1.855   5.812
19733SOL     OW60639   6.530   2.108   6.038
19733SOL    HW160640   6.503   2.145   5.954
19733SOL    HW260641   6.623   2.128   6.045
19734SOL     OW60642   6.663   2.548   7.051
19734SOL    HW160643   6.583   2.495   7.045
19734SOL    HW260644   6.734   2.487   7.034
19735SOL     OW60645   6.839   3.420   6.371
19735SOL    HW160646   6.835   3.493   6.309
19735SOL    HW260647   6.805   3.457   6.453
19736SOL     OW60648   6.053   3.012   6.313
19736SOL    HW160649   5.982   2.996   6.376
19736SOL    HW260650   6.011   3.004   6.227
19737SOL     OW60651   6.852   3.652   6.204
19737SOL    HW160652   6.892   3.717   6.146
19737SOL    HW260653   6.774   3.695   6.238
19738SOL     OW60654   6.611   2.394   5.613
19738SOL    HW160655   6.563   2.474   5.594
19738SOL    HW260656   6.672   2.418   5.682
19739SOL     OW60657   5.675   2.407   6.980
19739SOL    HW160658   5.765   2.418   6.950
19739SOL    HW260659   5.662   2.478   7.043
19740SOL     OW60660   6.136   2.088   6.758
19740SOL    HW160661   6.180   2.035   6.825
19740SOL    HW260662   6.044   2.088   6.786
19741SOL     OW60663   6.453   2.317   6.225
19741SOL    HW160664   6.401   2.378   6.173
19741SOL    HW260665   6.471   2.244   6.167
19742SOL     OW60666   6.609   1.913   6.329
19742SOL    HW160667   6.546   1.918   6.257
19742SOL    HW260668   6.580   1.838   6.382
19743SOL     OW60669   7.023   3.014   6.439
19743SOL    HW160670   6.941   2.969   6.460
19743SOL    HW260671   7.023   3.022   6.344
19744SOL     OW60672   7.047   2.469   6.539
19744SOL    HW160673   6.984   2.397   6.547
19744SOL    HW260674   7.097   2.466   6.621
19745SOL     OW60675   7.430   2.670   5.980
19745SOL    HW160676   7.491   2.620   6.034
19745SOL    HW260677   7.405   2.610   5.910
19746SOL     OW60678   6.072   3.280   5.742
19746SOL    HW160679   6.002   3.256   5.802
19746SOL    HW260680   6.042   3.250   5.656
19747SOL     OW60681   7.261   3.134   6.214
19747SOL    HW160682   7.354   3.135   6.240
19747SOL    HW260683   7.227   3.218   6.244
19748SOL     OW60684   6.979   2.429   5.659
19748SOL    HW160685   6.914   2.410   5.727
19748SOL    HW260686   7.062   2.400   5.696
19749SOL     OW60687   6.115   2.121   5.893
19749SOL    HW160688   6.164   2.078   5.822
19749SOL    HW260689   6.087   2.205   5.856
19750SOL     OW60690   7.338   3.113   7.170
19750SOL    HW160691   7.370   3.046   7.110
19750SOL    HW260692   7.353   3.196   7.125
19751SOL     OW60693   7.215   3.484   7.250
19751SOL    HW160694   7.201   3.526   7.165
19751SOL    HW260695   7.301   3.443   7.242
19752SOL     OW60696   6.706   3.038   6.663
19752SOL    HW160697   6.678   3.092   6.737
19752SOL    HW260698   6.683   3.089   6.586
19753SOL     OW60699   7.215   2.959   6.658
19753SOL    HW160700   7.209   3.029   6.724
19753SOL    HW260701   7.136   2.969   6.605
19754SOL     OW60702   6.514   1.945   6.976
19754SOL    HW160703   6.530   1.934   6.882
19754SOL    HW260704   6.591   1.991   7.009
19755SOL     OW60705   6.573   2.972   7.324
19755SOL    HW160706   6.483   2.999   7.341
19755SOL    HW260707   6.565   2.900   7.262
19756SOL     OW60708   6.297   2.925   5.959
19756SOL    HW160709   6.278   2.904   6.050
19756SOL    HW260710   6.372   2.869   5.936
19757SOL     OW60711   6.009   2.679   6.837
19757SOL    HW160712   6.075   2.691   6.905
19757SOL    HW260713   5.971   2.593   6.855
19758SOL     OW60714   6.850   2.226   6.873
19758SOL    HW160715   6.881   2.307   6.913
19758SOL    HW260716   6.759   2.244   6.849
19759SOL     OW60717   5.651   3.436   6.940
19759SOL    HW160718   5.605   3.503   6.889
19759SOL    HW260719   5.743   3.461   6.935
19760SOL     OW60720   5.930   2.986   6.070
19760SOL    HW160721   5.917   3.062   6.014
19760SOL    HW260722   5.924   2.911   6.011
19761SOL     OW60723   6.135   2.385   6.443
19761SOL    HW160724   6.146   2.443   6.367
19761SOL    HW260725   6.198   2.417   6.507
19762SOL     OW60726   6.831   3.213   5.979
19762SOL    HW160727   6.885   3.286   6.011
19762SOL    HW260728   6.743   3.234   6.009
19763SOL     OW60729   6.886   3.342   6.718
19763SOL    HW160730   6.944   3.350   6.793
19763SOL    HW260731   6.806   3.305   6.754
19764SOL     OW60732   7.165   2.482   6.068
19764SOL    HW160733   7.119   2.519   6.143
19764SOL    HW260734   7.182   2.556   6.010
19765SOL     OW60735   5.933   3.395   6.887
19765SOL    HW160736   5.920   3.343   6.808
19765SOL    HW260737   6.028   3.404   6.894
19766SOL     OW60738   6.012   2.605   7.201
19766SOL    HW160739   6.066   2.651   7.136
19766SOL    HW260740   6.063   2.527   7.223
19767SOL     OW60741   6.596   2.001   7.374
19767SOL    HW160742   6.645   2.076   7.340
19767SOL    HW260743   6.635   1.925   7.331
19768SOL     OW60744   6.074   1.894   7.338
19768SOL    HW160745   6.024   1.852   7.268
19768SOL    HW260746   6.025   1.974   7.357
19769SOL     OW60747   6.178   2.739   6.624
19769SOL    HW160748   6.211   2.829   6.624
19769SOL    HW260749   6.118   2.736   6.698
19770SOL     OW60750   6.925   2.720   6.591
19770SOL    HW160751   6.833   2.710   6.567
19770SOL    HW260752   6.963   2.633   6.579
19771SOL     OW60753   6.786   2.388   5.848
19771SOL    HW160754   6.789   2.310   5.903
19771SOL    HW260755   6.743   2.454   5.902
19772SOL     OW60756   5.875   2.047   6.839
19772SOL    HW160757   5.846   2.095   6.917
19772SOL    HW260758   5.831   1.963   6.845
19773SOL     OW60759   5.677   3.174   6.856
19773SOL    HW160760   5.686   3.121   6.935
19773SOL    HW260761   5.661   3.263   6.889
19774SOL     OW60762   6.299   2.492   6.634
19774SOL    HW160763   6.381   2.493   6.584
19774SOL    HW260764   6.266   2.582   6.628
19775SOL     OW60765   7.314   2.800   7.425
19775SOL    HW160766   7.266   2.742   7.365
19775SOL    HW260767   7.251   2.819   7.495
19776SOL     OW60768   5.898   1.921   6.209
19776SOL    HW160769   5.870   2.011   6.224
19776SOL    HW260770   5.904   1.882   6.296
19777SOL     OW60771   7.212   2.243   5.943
19777SOL    HW160772   7.241   2.180   6.009
19777SOL    HW260773   7.186   2.320   5.994
19778SOL     OW60774   6.626   2.613   6.543
19778SOL    HW160775   6.613   2.630   6.636
19778SOL    HW260776   6.593   2.524   6.530
19779SOL     OW60777   6.592   3.431   7.305
19779SOL    HW160778   6.556   3.484   7.234
19779SOL    HW260779   6.607   3.345   7.266
19780SOL     OW60780   7.469   3.358   7.214
19780SOL    HW160781   7.474   3.388   7.123
19780SOL    HW260782   7.551   3.387   7.253
19781SOL     OW60783   5.947   2.773   7.420
19781SOL    HW160784   6.034   2.801   7.451
19781SOL    HW260785   5.966   2.716   7.345
19782SOL     OW60786   7.116   2.129   5.710
19782SOL    HW160787   7.050   2.066   5.740
19782SOL    HW260788   7.150   2.169   5.790
19783SOL     OW60789   6.868   2.677   5.615
19783SOL    HW160790   6.908   2.590   5.624
19783SOL    HW260791   6.902   2.711   5.532
19784SOL     OW60792   6.660   3.202   6.428
19784SOL    HW160793   6.663   3.127   6.368
19784SOL    HW260794   6.724   3.264   6.393
19785SOL     OW60795   5.906   2.671   6.533
19785SOL    HW160796   5.998   2.695   6.529
19785SOL    HW260797   5.905   2.584   6.571
19786SOL     OW60798   5.917   2.388   6.603
19786SOL    HW160799   5.877   2.303   6.587
19786SOL    HW260800   5.992   2.391   6.543
19787SOL     OW60801   6.723   2.229   7.284
19787SOL    HW160802   6.671   2.293   7.332
19787SOL    HW260803   6.809   2.270   7.274
19788SOL     OW60804   6.752   2.054   7.070
19788SOL    HW160805   6.736   2.119   7.138
19788SOL    HW260806   6.789   2.104   6.997
19789SOL     OW60807   5.607   3.162   5.766
19789SOL    HW160808   5.519   3.184   5.734
19789SOL    HW260809   5.596   3.078   5.810
19790SOL     OW60810   5.674   3.626   6.533
19790SOL    HW160811   5.647   3.554   6.477
19790SOL    HW260812   5.758   3.655   6.497
19791SOL     OW60813   6.087   3.435   6.497
19791SOL    HW160814   6.152   3.504   6.511
19791SOL    HW260815   6.128   3.376   6.433
19792SOL     OW60816   6.572   2.644   6.805
19792SOL    HW160817   6.623   2.621   6.883
19792SOL    HW260818   6.497   2.692   6.838
19793SOL     OW60819   5.621   2.396   6.707
19793SOL    HW160820   5.702   2.414   6.659
19793SOL    HW260821   5.646   2.403   6.799
19794SOL     OW60822   5.774   2.371   7.295
19794SOL    HW160823   5.825   2.427   7.235
19794SOL    HW260824   5.688   2.413   7.299
19795SOL     OW60825   6.930   2.796   7.240
19795SOL    HW160826   6.981   2.877   7.240
19795SOL    HW260827   6.941   2.760   7.152
19796SOL     OW60828   6.403   2.436   5.952
19796SOL    HW160829   6.401   2.361   5.892
19796SOL    HW260830   6.329   2.490   5.925
19797SOL     OW60831   7.206   2.468   6.762
19797SOL    HW160832   7.183   2.440   6.851
19797SOL    HW260833   7.295   2.436   6.749
19798SOL     OW60834   5.828   3.412   7.311
19798SOL    HW160835   5.800   3.482   7.370
19798SOL    HW260836   5.831   3.333   7.365
19799SOL     OW60837   6.301   2.307   6.832
19799SOL    HW160838   6.235   2.242   6.808
19799SOL    HW260839   6.293   2.375   6.765
19800SOL     OW60840   6.503   3.558   7.082
19800SOL    HW160841   6.493   3.502   7.005
19800SOL    HW260842   6.487   3.647   7.049
19801SOL     OW60843   6.048   2.353   5.770
19801SOL    HW160844   6.102   2.427   5.794
19801SOL    HW260845   5.960   2.390   5.760
19802SOL     OW60846   5.729   3.004   7.071
19802SOL    HW160847   5.727   2.954   7.153
19802SOL    HW260848   5.746   2.938   7.004
19803SOL     OW60849   6.905   2.902   6.793
19803SOL    HW160850   6.922   2.838   6.723
19803SOL    HW260851   6.831   2.953   6.761
19804SOL     OW60852   6.914   2.718   5.887
19804SOL    HW160853   6.841   2.701   5.948
19804SOL    HW260854   6.876   2.704   5.800
19805SOL     OW60855   7.356   3.595   6.740
19805SOL    HW160856   7.424   3.619   6.676
19805SOL    HW260857   7.334   3.504   6.718
19806SOL     OW60858   6.832   3.612   6.689
19806SOL    HW160859   6.919   3.634   6.653
19806SOL    HW260860   6.837   3.519   6.708
19807SOL     OW60861   5.632   3.103   6.600
19807SOL    HW160862   5.653   3.109   6.693
19807SOL    HW260863   5.579   3.180   6.582
19808SOL     OW60864   6.265   3.546   7.322
19808SOL    HW160865   6.196   3.613   7.325
19808SOL    HW260866   6.315   3.566   7.244
19809SOL     OW60867   7.320   2.024   6.096
19809SOL    HW160868   7.384   2.008   6.026
19809SOL    HW260869   7.300   1.937   6.130
19810SOL     OW60870   6.980   3.431   6.074
19810SOL    HW160871   7.036   3.470   6.007
19810SOL    HW260872   6.925   3.503   6.104
19811SOL     OW60873   5.729   3.651   7.424
19811SOL    HW160874   5.676   3.587   7.472
19811SOL    HW260875   5.770   3.704   7.492
19812SOL     OW60876   6.863   2.781   6.238
19812SOL    HW160877   6.940   2.726   6.252
19812SOL    HW260878   6.897   2.860   6.197
19813SOL     OW60879   6.345   3.093   7.047
19813SOL    HW160880   6.329   3.149   7.123
19813SOL    HW260881   6.347   3.154   6.973
19814SOL     OW60882   6.265   3.477   5.738
19814SOL    HW160883   6.267   3.498   5.645
19814SOL    HW260884   6.202   3.404   5.744
19815SOL     OW60885   7.232   3.602   6.995
19815SOL    HW160886   7.262   3.604   6.904
19815SOL    HW260887   7.212   3.693   7.016
19816SOL     OW60888   7.429   2.030   6.571
19816SOL    HW160889   7.453   1.943   6.539
19816SOL    HW260890   7.343   2.047   6.532
19817SOL     OW60891   5.836   2.170   6.296
19817SOL    HW160892   5.751   2.207   6.272
19817SOL    HW260893   5.837   2.171   6.392
19818SOL     OW60894   6.802   3.464   5.618
19818SOL    HW160895   6.776   3.376   5.645
19818SOL    HW260896   6.740   3.487   5.548
19819SOL     OW60897   6.427   2.864   6.937
19819SOL    HW160898   6.462   2.899   6.855
19819SOL    HW260899   6.396   2.942   6.984
19820SOL     OW60900   6.505   2.772   5.879
19820SOL    HW160901   6.565   2.808   5.814
19820SOL    HW260902   6.556   2.703   5.923
19821SOL     OW60903   7.076   3.478   5.637
19821SOL    HW160904   6.981   3.483   5.634
19821SOL    HW260905   7.105   3.499   5.548
19822SOL     OW60906   5.954   3.170   7.074
19822SOL    HW160907   5.936   3.249   7.022
19822SOL    HW260908   5.875   3.117   7.065
19823SOL     OW60909   7.210   3.156   6.861
19823SOL    HW160910   7.200   3.092   6.931
19823SOL    HW260911   7.139   3.219   6.876
19824SOL     OW60912   6.655   2.967   6.294
19824SOL    HW160913   6.579   2.925   6.334
19824SOL    HW260914   6.711   2.894   6.266
19825SOL     OW60915   6.622   2.103   6.545
19825SOL    HW160916   6.616   2.055   6.463
19825SOL    HW260917   6.607   2.038   6.613
19826SOL     OW60918   6.185   3.351   6.062
19826SOL    HW160919   6.217   3.306   5.983
19826SOL    HW260920   6.111   3.403   6.032
19827SOL     OW60921   7.311   2.249   6.950
19827SOL    HW160922   7.361   2.331   6.950
19827SOL    HW260923   7.321   2.214   6.862
19828SOL     OW60924   5.854   3.199   5.898
19828SOL    HW160925   5.769   3.198   5.854
19828SOL    HW260926   5.838   3.243   5.981
19829SOL     OW60927   5.702   2.869   7.307
19829SOL    HW160928   5.622   2.857   7.359
19829SOL    HW260929   5.772   2.845   7.367
19830SOL     OW60930   6.261   2.042   7.081
19830SOL    HW160931   6.347   2.035   7.041
19830SOL    HW260932   6.278   2.073   7.170
19831SOL     OW60933   5.668   2.182   5.611
19831SOL    HW160934   5.582   2.166   5.571
19831SOL    HW260935   5.696   2.266   5.576
19832SOL     OW60936   6.993   2.713   6.973
19832SOL    HW160937   6.957   2.783   6.919
19832SOL    HW260938   7.086   2.732   6.979
19833SOL     OW60939   5.641   2.016   5.886
19833SOL    HW160940   5.624   2.094   5.832
19833SOL    HW260941   5.727   1.985   5.855
19834SOL     OW60942   6.761   3.195   5.696
19834SOL    HW160943   6.667   3.181   5.693
19834SOL    HW260944   6.783   3.193   5.789
19835SOL     OW60945   6.214   2.687   7.019
19835SOL    HW160946   6.259   2.770   7.002
19835SOL    HW260947   6.284   2.623   7.026
19836SOL     OW60948   7.088   3.664   6.578
19836SOL    HW160949   7.084   3.626   6.490
19836SOL    HW260950   7.164   3.623   6.619
19837SOL     OW60951   6.295   2.435   7.280
19837SOL    HW160952   6.331   2.507   7.333
19837SOL    HW260953   6.323   2.356   7.326
19838SOL     OW60954   7.093   3.009   7.267
19838SOL    HW160955   7.057   3.061   7.339
19838SOL    HW260956   7.152   3.070   7.221
19839SOL     OW60957   5.956   3.603   7.154
19839SOL    HW160958   5.877   3.652   7.131
19839SOL    HW260959   5.924   3.524   7.198
19840SOL     OW60960   7.284   2.748   6.837
19840SOL    HW160961   7.241   2.669   6.804
19840SOL    HW260962   7.258   2.817   6.776
19841SOL     OW60963   6.802   2.180   6.044
19841SOL    HW160964   6.863   2.107   6.040
19841SOL    HW260965   6.831   2.232   6.119
19842SOL     OW60966   6.181   2.589   6.258
19842SOL    HW160967   6.215   2.678   6.248
19842SOL    HW260968   6.114   2.582   6.190
19843SOL     OW60969   7.335   2.213   7.237
19843SOL    HW160970   7.294   2.285   7.189
19843SOL    HW260971   7.261   2.158   7.265
19844SOL     OW60972   7.384   2.819   7.091
19844SOL    HW160973   7.310   2.795   7.146
19844SOL    HW260974   7.358   2.794   7.002
19845SOL     OW60975   6.476   3.225   5.642
19845SOL    HW160976   6.431   3.224   5.726
19845SOL    HW260977   6.463   3.314   5.609
19846SOL     OW60978   6.252   3.648   6.510
19846SOL    HW160979   6.217   3.737   6.500
19846SOL    HW260980   6.346   3.660   6.513
19847SOL     OW60981   6.460   2.838   6.440
19847SOL    HW160982   6.508   2.767   6.483
19847SOL    HW260983   6.416   2.884   6.512
19848SOL     OW60984   6.672   2.855   5.683
19848SOL    HW160985   6.643   2.904   5.606
19848SOL    HW260986   6.736   2.793   5.649
19849SOL     OW60987   7.427   3.418   6.433
19849SOL    HW160988   7.356   3.407   6.370
19849SOL    HW260989   7.397   3.372   6.511
19850SOL     OW60990   5.824   3.167   7.452
19850SOL    HW160991   5.736   3.133   7.435
19850SOL    HW260992   5.825   3.186   7.546
19851SOL     OW60993   5.676   3.063   6.261
19851SOL    HW160994   5.732   3.032   6.332
19851SOL    HW260995   5.735   3.070   6.185
19852SOL     OW60996   6.279   3.275   7.250
19852SOL    HW160997   6.191   3.238   7.264
19852SOL    HW260998   6.269   3.368   7.270
19853SOL     OW60999   7.462   2.033   6.842
19853SOL    HW161000   7.420   1.948   6.857
19853SOL    HW261001   7.449   2.050   6.749
19854SOL     OW61002   6.024   2.287   6.119
19854SOL    HW161003   6.040   2.219   6.054
19854SOL    HW261004   5.962   2.247   6.180
19855SOL     OW61005   7.292   3.340   6.668
19855SOL    HW161006   7.213   3.320   6.619
19855SOL    HW261007   7.289   3.282   6.744
19856SOL     OW61008   5.923   2.422   6.878
19856SOL    HW161009   5.978   2.362   6.928
19856SOL    HW261010   5.938   2.398   6.786
19857SOL     OW61011   6.421   3.440   6.253
19857SOL    HW161012   6.394   3.516   6.202
19857SOL    HW261013   6.343   3.385   6.257
19858SOL     OW61014   7.014   2.084   6.709
19858SOL    HW161015   6.995   1.993   6.733
19858SOL    HW261016   6.964   2.136   6.773
19859SOL     OW61017   6.596   1.872   6.712
19859SOL    HW161018   6.548   1.811   6.657
19859SOL    HW261019   6.683   1.833   6.721
19860SOL     OW61020   6.373   3.187   5.892
19860SOL    HW161021   6.337   3.100   5.913
19860SOL    HW261022   6.438   3.203   5.960
19861SOL     OW61023   6.212   3.413   6.876
19861SOL    HW161024   6.209   3.492   6.931
19861SOL    HW261025   6.289   3.425   6.821
19862SOL     OW61026   6.944   1.913   5.762
19862SOL    HW161027   6.977   1.845   5.703
19862SOL    HW261028   6.855   1.885   5.783
19863SOL     OW61029   6.889   2.324   6.263
19863SOL    HW161030   6.836   2.403   6.262
19863SOL    HW261031   6.881   2.290   6.353
19864SOL     OW61032   7.179   2.067   6.478
19864SOL    HW161033   7.116   2.088   6.547
19864SOL    HW261034   7.173   2.140   6.417
19865SOL     OW61035   5.627   2.925   5.906
19865SOL    HW161036   5.720   2.916   5.884
19865SOL    HW261037   5.599   2.836   5.927
19866SOL     OW61038   6.477   3.525   5.916
19866SOL    HW161039   6.402   3.506   5.859
19866SOL    HW261040   6.446   3.592   5.976
19867SOL     OW61041   5.825   2.413   7.586
19867SOL    HW161042   5.750   2.400   7.644
19867SOL    HW261043   5.788   2.453   7.507
19868SOL     OW61044   5.811   2.141   8.442
19868SOL    HW161045   5.831   2.112   8.531
19868SOL    HW261046   5.719   2.118   8.428
19869SOL     OW61047   5.578   2.210   8.134
19869SOL    HW161048   5.501   2.265   8.151
19869SOL    HW261049   5.546   2.142   8.074
19870SOL     OW61050   6.157   3.154   8.635
19870SOL    HW161051   6.074   3.154   8.587
19870SOL    HW261052   6.164   3.242   8.671
19871SOL     OW61053   6.744   2.554   8.156
19871SOL    HW161054   6.788   2.637   8.137
19871SOL    HW261055   6.689   2.573   8.232
19872SOL     OW61056   7.386   2.457   7.689
19872SOL    HW161057   7.368   2.444   7.596
19872SOL    HW261058   7.325   2.399   7.734
19873SOL     OW61059   6.364   3.012   8.531
19873SOL    HW161060   6.282   3.041   8.570
19873SOL    HW261061   6.391   3.085   8.475
19874SOL     OW61062   6.461   2.626   9.270
19874SOL    HW161063   6.417   2.692   9.324
19874SOL    HW261064   6.480   2.671   9.188
19875SOL     OW61065   6.293   2.838   8.100
19875SOL    HW161066   6.336   2.866   8.181
19875SOL    HW261067   6.213   2.891   8.097
19876SOL     OW61068   6.300   3.021   9.269
19876SOL    HW161069   6.339   3.109   9.277
19876SOL    HW261070   6.212   3.038   9.236
19877SOL     OW61071   5.923   3.271   8.517
19877SOL    HW161072   5.842   3.242   8.476
19877SOL    HW261073   5.959   3.335   8.455
19878SOL     OW61074   7.049   3.361   8.819
19878SOL    HW161075   7.102   3.441   8.822
19878SOL    HW261076   6.975   3.380   8.876
19879SOL     OW61077   6.039   2.251   8.941
19879SOL    HW161078   6.103   2.181   8.931
19879SOL    HW261079   5.954   2.206   8.945
19880SOL     OW61080   7.188   2.307   8.179
19880SOL    HW161081   7.104   2.297   8.134
19880SOL    HW261082   7.194   2.400   8.199
19881SOL     OW61083   5.834   3.567   7.936
19881SOL    HW161084   5.837   3.654   7.976
19881SOL    HW261085   5.850   3.582   7.843
19882SOL     OW61086   6.731   3.187   9.124
19882SOL    HW161087   6.763   3.194   9.214
19882SOL    HW261088   6.671   3.112   9.125
19883SOL     OW61089   5.855   3.303   7.989
19883SOL    HW161090   5.834   3.396   7.982
19883SOL    HW261091   5.783   3.266   8.041
19884SOL     OW61092   5.877   2.952   8.393
19884SOL    HW161093   5.834   2.867   8.392
19884SOL    HW261094   5.808   3.013   8.419
19885SOL     OW61095   6.215   3.639   8.907
19885SOL    HW161096   6.122   3.630   8.926
19885SOL    HW261097   6.232   3.733   8.911
19886SOL     OW61098   6.208   2.825   7.562
19886SOL    HW161099   6.241   2.889   7.498
19886SOL    HW261100   6.220   2.868   7.647
19887SOL     OW61101   7.195   1.983   8.921
19887SOL    HW161102   7.214   2.066   8.877
19887SOL    HW261103   7.161   2.009   9.007
19888SOL     OW61104   5.745   2.485   8.024
19888SOL    HW161105   5.677   2.439   7.975
19888SOL    HW261106   5.698   2.536   8.089
19889SOL     OW61107   7.434   3.607   7.782
19889SOL    HW161108   7.408   3.595   7.874
19889SOL    HW261109   7.455   3.700   7.775
19890SOL     OW61110   5.631   3.449   7.570
19890SOL    HW161111   5.602   3.360   7.592
19890SOL    HW261112   5.607   3.502   7.646
19891SOL     OW61113   7.271   2.774   8.069
19891SOL    HW161114   7.339   2.736   8.014
19891SOL    HW261115   7.236   2.846   8.016
19892SOL     OW61116   7.228   2.975   7.879
19892SOL    HW161117   7.317   2.978   7.843
19892SOL    HW261118   7.231   3.034   7.954
19893SOL     OW61119   5.695   2.616   9.039
19893SOL    HW161120   5.778   2.663   9.025
19893SOL    HW261121   5.627   2.681   9.019
19894SOL     OW61122   6.206   3.256   8.190
19894SOL    HW161123   6.161   3.173   8.205
19894SOL    HW261124   6.182   3.281   8.100
19895SOL     OW61125   6.882   3.071   8.861
19895SOL    HW161126   6.970   3.078   8.823
19895SOL    HW261127   6.896   3.083   8.955
19896SOL     OW61128   6.403   1.860   7.974
19896SOL    HW161129   6.443   1.940   7.940
19896SOL    HW261130   6.309   1.879   7.976
19897SOL     OW61131   5.763   2.806   8.741
19897SOL    HW161132   5.847   2.781   8.704
19897SOL    HW261133   5.708   2.827   8.665
19898SOL     OW61134   7.137   2.838   7.650
19898SOL    HW161135   7.058   2.790   7.676
19898SOL    HW261136   7.161   2.888   7.728
19899SOL     OW61137   6.766   3.677   9.079
19899SOL    HW161138   6.774   3.752   9.021
19899SOL    HW261139   6.790   3.602   9.026
19900SOL     OW61140   5.926   2.110   9.294
19900SOL    HW161141   5.962   2.196   9.272
19900SOL    HW261142   5.832   2.124   9.301
19901SOL     OW61143   7.023   3.189   8.466
19901SOL    HW161144   6.964   3.248   8.512
19901SOL    HW261145   7.059   3.241   8.394
19902SOL     OW61146   7.263   3.582   8.013
19902SOL    HW161147   7.208   3.560   7.938
19902SOL    HW261148   7.226   3.533   8.086
19903SOL     OW61149   6.191   2.589   7.721
19903SOL    HW161150   6.181   2.668   7.668
19903SOL    HW261151   6.123   2.597   7.788
19904SOL     OW61152   6.885   2.201   8.389
19904SOL    HW161153   6.790   2.190   8.381
19904SOL    HW261154   6.908   2.150   8.466
19905SOL     OW61155   7.163   3.534   7.750
19905SOL    HW161156   7.250   3.570   7.734
19905SOL    HW261157   7.126   3.521   7.663
19906SOL     OW61158   6.399   2.469   8.895
19906SOL    HW161159   6.359   2.451   8.980
19906SOL    HW261160   6.353   2.411   8.834
19907SOL     OW61161   6.973   2.337   9.129
19907SOL    HW161162   6.975   2.384   9.212
19907SOL    HW261163   7.037   2.267   9.139
19908SOL     OW61164   6.529   2.756   9.028
19908SOL    HW161165   6.585   2.687   8.993
19908SOL    HW261166   6.487   2.795   8.951
19909SOL     OW61167   6.579   2.263   8.680
19909SOL    HW161168   6.493   2.280   8.717
19909SOL    HW261169   6.569   2.282   8.587
19910SOL     OW61170   6.639   2.535   7.874
19910SOL    HW161171   6.644   2.544   7.969
19910SOL    HW261172   6.551   2.500   7.858
19911SOL     OW61173   5.650   2.647   8.236
19911SOL    HW161174   5.731   2.668   8.284
19911SOL    HW261175   5.597   2.726   8.243
19912SOL     OW61176   5.708   3.717   9.014
19912SOL    HW161177   5.688   3.686   9.102
19912SOL    HW261178   5.631   3.695   8.962
19913SOL     OW61179   6.495   2.186   7.622
19913SOL    HW161180   6.518   2.272   7.587
19913SOL    HW261181   6.546   2.125   7.569
19914SOL     OW61182   7.291   2.430   9.274
19914SOL    HW161183   7.256   2.506   9.228
19914SOL    HW261184   7.316   2.369   9.204
19915SOL     OW61185   6.951   2.996   7.970
19915SOL    HW161186   7.031   3.002   7.918
19915SOL    HW261187   6.894   3.065   7.935
19916SOL     OW61188   6.132   2.030   8.341
19916SOL    HW161189   6.130   2.081   8.422
19916SOL    HW261190   6.121   2.095   8.272
19917SOL     OW61191   6.577   3.309   7.923
19917SOL    HW161192   6.553   3.378   7.861
19917SOL    HW261193   6.538   3.336   8.006
19918SOL     OW61194   5.936   3.678   8.315
19918SOL    HW161195   5.978   3.593   8.328
19918SOL    HW261196   6.005   3.742   8.333
19919SOL     OW61197   7.381   2.878   8.326
19919SOL    HW161198   7.336   2.896   8.244
19919SOL    HW261199   7.319   2.904   8.394
19920SOL     OW61200   6.809   3.400   8.949
19920SOL    HW161201   6.787   3.326   9.005
19920SOL    HW261202   6.725   3.429   8.913
19921SOL     OW61203   5.867   2.745   7.700
19921SOL    HW161204   5.916   2.807   7.754
19921SOL    HW261205   5.892   2.767   7.610
19922SOL     OW61206   7.121   2.572   8.175
19922SOL    HW161207   7.070   2.586   8.255
19922SOL    HW261208   7.166   2.655   8.161
19923SOL     OW61209   6.042   3.093   9.211
19923SOL    HW161210   6.026   3.103   9.117
19923SOL    HW261211   5.958   3.110   9.252
19924SOL     OW61212   6.718   3.630   7.685
19924SOL    HW161213   6.635   3.601   7.722
19924SOL    HW261214   6.736   3.570   7.614
19925SOL     OW61215   5.782   2.157   8.948
19925SOL    HW161216   5.729   2.232   8.919
19925SOL    HW261217   5.718   2.097   8.986
19926SOL     OW61218   7.232   3.244   7.506
19926SOL    HW161219   7.192   3.331   7.501
19926SOL    HW261220   7.157   3.185   7.516
19927SOL     OW61221   6.059   3.625   7.739
19927SOL    HW161222   6.095   3.660   7.820
19927SOL    HW261223   6.128   3.568   7.705
19928SOL     OW61224   6.990   1.960   7.893
19928SOL    HW161225   6.972   1.940   7.802
19928SOL    HW261226   7.079   1.997   7.892
19929SOL     OW61227   5.835   3.621   8.674
19929SOL    HW161228   5.864   3.709   8.700
19929SOL    HW261229   5.794   3.633   8.589
19930SOL     OW61230   6.546   3.558   8.333
19930SOL    HW161231   6.629   3.512   8.338
19930SOL    HW261232   6.495   3.509   8.268
19931SOL     OW61233   6.013   2.539   7.925
19931SOL    HW161234   5.980   2.454   7.953
19931SOL    HW261235   5.936   2.595   7.922
19932SOL     OW61236   7.108   2.084   9.170
19932SOL    HW161237   7.123   2.099   9.263
19932SOL    HW261238   7.024   2.039   9.166
19933SOL     OW61239   6.207   1.918   7.574
19933SOL    HW161240   6.296   1.937   7.546
19933SOL    HW261241   6.157   1.911   7.493
19934SOL     OW61242   6.350   2.144   9.201
19934SOL    HW161243   6.428   2.089   9.209
19934SOL    HW261244   6.302   2.130   9.283
19935SOL     OW61245   6.472   3.387   8.633
19935SOL    HW161246   6.445   3.359   8.546
19935SOL    HW261247   6.536   3.321   8.661
19936SOL     OW61248   6.929   2.438   8.875
19936SOL    HW161249   6.951   2.417   8.965
19936SOL    HW261250   6.955   2.530   8.864
19937SOL     OW61251   6.409   3.248   8.390
19937SOL    HW161252   6.486   3.248   8.334
19937SOL    HW261253   6.335   3.257   8.330
19938SOL     OW61254   6.523   2.371   8.349
19938SOL    HW161255   6.490   2.372   8.259
19938SOL    HW261256   6.549   2.280   8.363
19939SOL     OW61257   6.139   1.927   7.954
19939SOL    HW161258   6.057   1.929   8.002
19939SOL    HW261259   6.136   2.004   7.897
19940SOL     OW61260   7.015   3.085   7.521
19940SOL    HW161261   7.014   2.993   7.549
19940SOL    HW261262   6.925   3.115   7.535
19941SOL     OW61263   5.878   1.920   7.617
19941SOL    HW161264   5.897   1.998   7.565
19941SOL    HW261265   5.955   1.908   7.673
19942SOL     OW61266   6.527   2.097   7.896
19942SOL    HW161267   6.497   2.134   7.813
19942SOL    HW261268   6.618   2.126   7.904
19943SOL     OW61269   6.661   2.544   8.921
19943SOL    HW161270   6.578   2.496   8.913
19943SOL    HW261271   6.728   2.481   8.897
19944SOL     OW61272   6.823   3.434   8.238
19944SOL    HW161273   6.817   3.504   8.173
19944SOL    HW261274   6.917   3.415   8.244
19945SOL     OW61275   6.082   3.014   8.224
19945SOL    HW161276   6.010   3.001   8.285
19945SOL    HW261277   6.045   2.992   8.138
19946SOL     OW61278   6.845   3.657   8.063
19946SOL    HW161279   6.893   3.717   8.006
19946SOL    HW261280   6.770   3.708   8.093
19947SOL     OW61281   6.596   2.405   7.471
19947SOL    HW161282   6.544   2.482   7.448
19947SOL    HW261283   6.664   2.438   7.530
19948SOL     OW61284   5.682   2.402   8.872
19948SOL    HW161285   5.762   2.418   8.822
19948SOL    HW261286   5.668   2.482   8.922
19949SOL     OW61287   6.142   2.093   8.621
19949SOL    HW161288   6.169   2.006   8.650
19949SOL    HW261289   6.048   2.098   8.643
19950SOL     OW61290   6.450   2.323   8.090
19950SOL    HW161291   6.386   2.383   8.052
19950SOL    HW261292   6.458   2.253   8.025
19951SOL     OW61293   6.617   1.909   8.187
19951SOL    HW161294   6.555   1.927   8.116
19951SOL    HW261295   6.578   1.835   8.233
19952SOL     OW61296   7.025   2.966   8.268
19952SOL    HW161297   6.977   2.903   8.214
19952SOL    HW261298   7.055   3.032   8.206
19953SOL     OW61299   7.028   2.507   8.440
19953SOL    HW161300   6.984   2.423   8.426
19953SOL    HW261301   7.097   2.487   8.504
19954SOL     OW61302   7.437   2.672   7.852
19954SOL    HW161303   7.499   2.620   7.904
19954SOL    HW261304   7.408   2.612   7.783
19955SOL     OW61305   6.085   3.285   7.594
19955SOL    HW161306   6.009   3.269   7.650
19955SOL    HW261307   6.064   3.242   7.512
19956SOL     OW61308   7.254   3.109   8.113
19956SOL    HW161309   7.349   3.114   8.124
19956SOL    HW261310   7.221   3.193   8.145
19957SOL     OW61311   6.969   2.420   7.523
19957SOL    HW161312   6.907   2.403   7.594
19957SOL    HW261313   7.051   2.443   7.568
19958SOL     OW61314   6.111   2.109   7.756
19958SOL    HW161315   6.147   2.058   7.683
19958SOL    HW261316   6.096   2.196   7.719
19959SOL     OW61317   7.340   3.100   9.025
19959SOL    HW161318   7.427   3.069   8.999
19959SOL    HW261319   7.352   3.192   9.045
19960SOL     OW61320   6.642   3.195   8.765
19960SOL    HW161321   6.562   3.178   8.815
19960SOL    HW261322   6.711   3.148   8.812
19961SOL     OW61323   7.201   3.476   9.109
19961SOL    HW161324   7.186   3.519   9.025
19961SOL    HW261325   7.285   3.433   9.099
19962SOL     OW61326   6.696   3.049   8.532
19962SOL    HW161327   6.648   3.084   8.607
19962SOL    HW261328   6.667   3.104   8.458
19963SOL     OW61329   7.199   2.966   8.523
19963SOL    HW161330   7.192   3.023   8.600
19963SOL    HW261331   7.158   3.015   8.453
19964SOL     OW61332   6.508   1.947   8.850
19964SOL    HW161333   6.500   1.960   8.755
19964SOL    HW261334   6.586   1.995   8.875
19965SOL     OW61335   6.566   2.972   9.185
19965SOL    HW161336   6.475   2.993   9.208
19965SOL    HW261337   6.559   2.899   9.123
19966SOL     OW61338   6.291   2.939   7.800
19966SOL    HW161339   6.221   2.921   7.863
19966SOL    HW261340   6.362   2.880   7.826
19967SOL     OW61341   6.014   2.680   8.698
19967SOL    HW161342   6.077   2.689   8.769
19967SOL    HW261343   5.970   2.596   8.714
19968SOL     OW61344   6.844   2.227   8.730
19968SOL    HW161345   6.878   2.307   8.770
19968SOL    HW261346   6.754   2.249   8.706
19969SOL     OW61347   5.656   3.441   8.790
19969SOL    HW161348   5.583   3.494   8.758
19969SOL    HW261349   5.735   3.486   8.759
19970SOL     OW61350   6.151   2.391   8.316
19970SOL    HW161351   6.151   2.428   8.228
19970SOL    HW261352   6.196   2.456   8.370
19971SOL     OW61353   6.818   3.205   7.848
19971SOL    HW161354   6.873   3.281   7.864
19971SOL    HW261355   6.731   3.231   7.877
19972SOL     OW61356   6.852   3.326   8.623
19972SOL    HW161357   6.911   3.342   8.697
19972SOL    HW261358   6.773   3.289   8.663
19973SOL     OW61359   7.168   2.481   7.917
19973SOL    HW161360   7.142   2.509   8.004
19973SOL    HW261361   7.162   2.560   7.863
19974SOL     OW61362   5.958   3.337   8.782
19974SOL    HW161363   5.923   3.327   8.694
19974SOL    HW261364   6.036   3.391   8.771
19975SOL     OW61365   6.006   2.610   9.057
19975SOL    HW161366   6.070   2.654   9.000
19975SOL    HW261367   6.027   2.517   9.051
19976SOL     OW61368   7.198   2.643   9.133
19976SOL    HW161369   7.110   2.682   9.126
19976SOL    HW261370   7.248   2.685   9.063
19977SOL     OW61371   6.584   1.997   9.226
19977SOL    HW161372   6.636   2.072   9.197
19977SOL    HW261373   6.632   1.921   9.193
19978SOL     OW61374   6.072   1.894   9.209
19978SOL    HW161375   6.029   1.850   9.136
19978SOL    HW261376   6.019   1.973   9.224
19979SOL     OW61377   6.188   2.733   8.488
19979SOL    HW161378   6.171   2.813   8.439
19979SOL    HW261379   6.115   2.727   8.550
19980SOL     OW61380   6.899   2.749   8.494
19980SOL    HW161381   6.812   2.722   8.465
19980SOL    HW261382   6.955   2.673   8.477
19981SOL     OW61383   6.796   2.376   7.723
19981SOL    HW161384   6.791   2.299   7.780
19981SOL    HW261385   6.749   2.444   7.770
19982SOL     OW61386   5.884   2.056   8.701
19982SOL    HW161387   5.833   2.089   8.774
19982SOL    HW261388   5.862   1.963   8.696
19983SOL     OW61389   5.617   3.177   8.747
19983SOL    HW161390   5.680   3.132   8.804
19983SOL    HW261391   5.637   3.270   8.757
19984SOL     OW61392   6.331   2.508   8.527
19984SOL    HW161393   6.382   2.492   8.448
19984SOL    HW261394   6.285   2.590   8.510
19985SOL     OW61395   7.329   2.815   9.309
19985SOL    HW161396   7.284   2.754   9.252
19985SOL    HW261397   7.262   2.843   9.372
19986SOL     OW61398   5.891   1.922   8.069
19986SOL    HW161399   5.863   2.012   8.080
19986SOL    HW261400   5.891   1.885   8.157
19987SOL     OW61401   7.198   2.230   7.819
19987SOL    HW161402   7.241   2.181   7.888
19987SOL    HW261403   7.176   2.315   7.859
19988SOL     OW61404   6.635   2.614   8.411
19988SOL    HW161405   6.618   2.628   8.505
19988SOL    HW261406   6.595   2.529   8.392
19989SOL     OW61407   6.572   3.418   9.165
19989SOL    HW161408   6.548   3.474   9.091
19989SOL    HW261409   6.605   3.337   9.124
19990SOL     OW61410   7.446   3.357   9.050
19990SOL    HW161411   7.459   3.388   8.960
19990SOL    HW261412   7.528   3.379   9.095
19991SOL     OW61413   5.933   2.752   9.280
19991SOL    HW161414   6.008   2.810   9.287
19991SOL    HW261415   5.952   2.697   9.204
19992SOL     OW61416   7.136   2.106   7.580
19992SOL    HW161417   7.056   2.060   7.605
19992SOL    HW261418   7.157   2.160   7.656
19993SOL     OW61419   6.891   2.688   7.479
19993SOL    HW161420   6.920   2.598   7.465
19993SOL    HW261421   6.904   2.731   7.395
19994SOL     OW61422   6.678   3.202   8.307
19994SOL    HW161423   6.675   3.136   8.237
19994SOL    HW261424   6.726   3.275   8.269
19995SOL     OW61425   5.883   2.662   8.392
19995SOL    HW161426   5.957   2.685   8.336
19995SOL    HW261427   5.900   2.571   8.419
19996SOL     OW61428   5.934   2.382   8.473
19996SOL    HW161429   5.882   2.305   8.451
19996SOL    HW261430   6.007   2.381   8.411
19997SOL     OW61431   6.719   2.226   9.142
19997SOL    HW161432   6.665   2.285   9.194
19997SOL    HW261433   6.803   2.271   9.133
19998SOL     OW61434   6.752   2.056   8.924
19998SOL    HW161435   6.735   2.117   8.996
19998SOL    HW261436   6.788   2.110   8.854
19999SOL     OW61437   5.596   3.175   7.642
19999SOL    HW161438   5.510   3.187   7.603
19999SOL    HW261439   5.592   3.089   7.685
20000SOL     OW61440   5.681   3.638   8.403
20000SOL    HW161441   5.645   3.564   8.353
20000SOL    HW261442   5.765   3.656   8.362
20001SOL     OW61443   6.081   3.444   8.360
20001SOL    HW161444   6.152   3.505   8.380
20001SOL    HW261445   6.119   3.384   8.296
20002SOL     OW61446   6.580   2.636   8.671
20002SOL    HW161447   6.612   2.624   8.760
20002SOL    HW261448   6.485   2.633   8.679
20003SOL     OW61449   5.617   2.383   8.571
20003SOL    HW161450   5.641   2.407   8.481
20003SOL    HW261451   5.672   2.438   8.626
20004SOL     OW61452   5.785   2.391   9.175
20004SOL    HW161453   5.813   2.341   9.098
20004SOL    HW261454   5.746   2.471   9.140
20005SOL     OW61455   6.969   2.789   9.103
20005SOL    HW161456   6.995   2.881   9.099
20005SOL    HW261457   6.950   2.765   9.013
20006SOL     OW61458   6.396   2.431   7.806
20006SOL    HW161459   6.368   2.356   7.754
20006SOL    HW261460   6.330   2.498   7.791
20007SOL     OW61461   7.224   2.461   8.626
20007SOL    HW161462   7.211   2.408   8.705
20007SOL    HW261463   7.310   2.434   8.594
20008SOL     OW61464   5.879   3.411   9.199
20008SOL    HW161465   5.832   3.485   9.238
20008SOL    HW261466   5.834   3.333   9.233
20009SOL     OW61467   6.304   2.303   8.703
20009SOL    HW161468   6.241   2.237   8.672
20009SOL    HW261469   6.298   2.373   8.638
20010SOL     OW61470   6.541   3.523   8.903
20010SOL    HW161471   6.497   3.489   8.825
20010SOL    HW261472   6.527   3.618   8.898
20011SOL     OW61473   6.078   2.349   7.642
20011SOL    HW161474   6.116   2.433   7.667
20011SOL    HW261475   5.986   2.370   7.623
20012SOL     OW61476   5.737   2.999   8.933
20012SOL    HW161477   5.726   2.954   9.017
20012SOL    HW261478   5.741   2.929   8.869
20013SOL     OW61479   6.911   2.706   7.751
20013SOL    HW161480   6.826   2.718   7.794
20013SOL    HW261481   6.890   2.701   7.658
20014SOL     OW61482   7.388   3.594   8.615
20014SOL    HW161483   7.434   3.634   8.542
20014SOL    HW261484   7.354   3.512   8.580
20015SOL     OW61485   6.828   3.602   8.574
20015SOL    HW161486   6.910   3.625   8.530
20015SOL    HW261487   6.827   3.506   8.574
20016SOL     OW61488   5.677   3.116   8.479
20016SOL    HW161489   5.644   3.142   8.565
20016SOL    HW261490   5.600   3.120   8.422
20017SOL     OW61491   6.257   3.542   9.180
20017SOL    HW161492   6.177   3.594   9.188
20017SOL    HW261493   6.292   3.565   9.094
20018SOL     OW61494   7.331   2.023   7.969
20018SOL    HW161495   7.390   2.009   7.895
20018SOL    HW261496   7.307   1.935   7.997
20019SOL     OW61497   6.955   3.432   7.904
20019SOL    HW161498   7.021   3.473   7.847
20019SOL    HW261499   6.913   3.506   7.948
20020SOL     OW61500   5.741   3.637   9.293
20020SOL    HW161501   5.692   3.574   9.346
20020SOL    HW261502   5.715   3.722   9.327
20021SOL     OW61503   6.903   2.772   8.113
20021SOL    HW161504   6.961   2.718   8.060
20021SOL    HW261505   6.890   2.851   8.060
20022SOL     OW61506   6.390   3.148   8.876
20022SOL    HW161507   6.358   3.187   8.957
20022SOL    HW261508   6.327   3.175   8.810
20023SOL     OW61509   6.267   3.486   7.600
20023SOL    HW161510   6.272   3.506   7.506
20023SOL    HW261511   6.209   3.410   7.606
20024SOL     OW61512   7.213   3.583   8.841
20024SOL    HW161513   7.264   3.591   8.760
20024SOL    HW261514   7.195   3.673   8.867
20025SOL     OW61515   7.419   2.033   8.416
20025SOL    HW161516   7.445   1.951   8.372
20025SOL    HW261517   7.334   2.054   8.378
20026SOL     OW61518   5.842   2.171   8.165
20026SOL    HW161519   5.755   2.203   8.138
20026SOL    HW261520   5.838   2.170   8.261
20027SOL     OW61521   6.803   3.459   7.482
20027SOL    HW161522   6.787   3.369   7.512
20027SOL    HW261523   6.737   3.473   7.414
20028SOL     OW61524   6.408   2.880   8.807
20028SOL    HW161525   6.404   2.890   8.712
20028SOL    HW261526   6.399   2.970   8.840
20029SOL     OW61527   6.539   2.792   7.785
20029SOL    HW161528   6.573   2.819   7.699
20029SOL    HW261529   6.560   2.699   7.790
20030SOL     OW61530   7.080   3.479   7.491
20030SOL    HW161531   6.985   3.475   7.483
20030SOL    HW261532   7.112   3.493   7.401
20031SOL     OW61533   5.975   3.138   8.959
20031SOL    HW161534   5.973   3.211   8.898
20031SOL    HW261535   5.893   3.091   8.942
20032SOL     OW61536   7.172   3.129   8.745
20032SOL    HW161537   7.259   3.136   8.785
20032SOL    HW261538   7.128   3.210   8.771
20033SOL     OW61539   6.648   2.971   8.159
20033SOL    HW161540   6.579   2.929   8.210
20033SOL    HW261541   6.625   2.951   8.068
20034SOL     OW61542   6.619   2.109   8.396
20034SOL    HW161543   6.614   2.059   8.314
20034SOL    HW261544   6.573   2.055   8.460
20035SOL     OW61545   6.187   3.354   7.934
20035SOL    HW161546   6.221   3.309   7.857
20035SOL    HW261547   6.093   3.365   7.915
20036SOL     OW61548   7.318   2.243   8.830
20036SOL    HW161549   7.384   2.312   8.824
20036SOL    HW261550   7.350   2.175   8.771
20037SOL     OW61551   5.850   3.231   7.725
20037SOL    HW161552   5.755   3.226   7.712
20037SOL    HW261553   5.861   3.244   7.819
20038SOL     OW61554   5.710   2.899   9.191
20038SOL    HW161555   5.626   2.873   9.229
20038SOL    HW261556   5.774   2.841   9.231
20039SOL     OW61557   6.257   2.046   8.953
20039SOL    HW161558   6.342   2.037   8.910
20039SOL    HW261559   6.276   2.094   9.034
20040SOL     OW61560   5.668   2.169   7.474
20040SOL    HW161561   5.620   2.207   7.547
20040SOL    HW261562   5.672   2.239   7.409
20041SOL     OW61563   6.998   2.704   8.834
20041SOL    HW161564   6.937   2.740   8.770
20041SOL    HW261565   7.085   2.725   8.798
20042SOL     OW61566   5.638   2.020   7.759
20042SOL    HW161567   5.616   2.113   7.761
20042SOL    HW261568   5.714   2.015   7.701
20043SOL     OW61569   6.757   3.193   7.567
20043SOL    HW161570   6.663   3.192   7.554
20043SOL    HW261571   6.768   3.190   7.662
20044SOL     OW61572   6.214   2.690   8.890
20044SOL    HW161573   6.259   2.770   8.866
20044SOL    HW261574   6.282   2.623   8.891
20045SOL     OW61575   7.063   3.661   8.449
20045SOL    HW161576   7.038   3.687   8.360
20045SOL    HW261577   7.144   3.612   8.438
20046SOL     OW61578   6.309   2.422   9.142
20046SOL    HW161579   6.345   2.483   9.206
20046SOL    HW261580   6.325   2.336   9.179
20047SOL     OW61581   7.070   3.043   9.087
20047SOL    HW161582   7.055   3.076   9.175
20047SOL    HW261583   7.158   3.072   9.064
20048SOL     OW61584   5.966   3.603   9.011
20048SOL    HW161585   5.887   3.644   8.978
20048SOL    HW261586   5.937   3.519   9.045
20049SOL     OW61587   7.239   2.747   8.700
20049SOL    HW161588   7.239   2.664   8.652
20049SOL    HW261589   7.232   2.814   8.632
20050SOL     OW61590   6.796   2.169   7.917
20050SOL    HW161591   6.864   2.101   7.909
20050SOL    HW261592   6.827   2.225   7.988
20051SOL     OW61593   6.194   2.585   8.123
20051SOL    HW161594   6.229   2.673   8.111
20051SOL    HW261595   6.130   2.575   8.053
20052SOL     OW61596   7.341   2.215   9.102
20052SOL    HW161597   7.330   2.233   9.008
20052SOL    HW261598   7.264   2.164   9.126
20053SOL     OW61599   7.338   2.794   8.956
20053SOL    HW161600   7.323   2.887   8.976
20053SOL    HW261601   7.314   2.785   8.864
20054SOL     OW61602   6.490   3.233   7.510
20054SOL    HW161603   6.431   3.242   7.584
20054SOL    HW261604   6.471   3.309   7.455
20055SOL     OW61605   6.264   3.647   8.394
20055SOL    HW161606   6.227   3.731   8.369
20055SOL    HW261607   6.355   3.651   8.366
20056SOL     OW61608   6.465   2.851   8.325
20056SOL    HW161609   6.504   2.771   8.361
20056SOL    HW261610   6.423   2.893   8.401
20057SOL     OW61611   6.668   2.841   7.548
20057SOL    HW161612   6.635   2.897   7.478
20057SOL    HW261613   6.741   2.793   7.508
20058SOL     OW61614   7.471   3.403   8.310
20058SOL    HW161615   7.394   3.409   8.252
20058SOL    HW261616   7.436   3.372   8.393
20059SOL     OW61617   5.788   3.155   9.294
20059SOL    HW161618   5.751   3.087   9.238
20059SOL    HW261619   5.724   3.167   9.363
20060SOL     OW61620   5.694   3.090   8.100
20060SOL    HW161621   5.682   3.025   8.169
20060SOL    HW261622   5.763   3.053   8.045
20061SOL     OW61623   6.275   3.267   9.101
20061SOL    HW161624   6.184   3.242   9.085
20061SOL    HW261625   6.271   3.360   9.122
20062SOL     OW61626   7.402   2.031   8.685
20062SOL    HW161627   7.402   1.935   8.687
20062SOL    HW261628   7.411   2.053   8.592
20063SOL     OW61629   6.056   2.253   8.014
20063SOL    HW161630   6.036   2.230   7.923
20063SOL    HW261631   5.973   2.240   8.060
20064SOL     OW61632   7.305   3.345   8.533
20064SOL    HW161633   7.247   3.352   8.458
20064SOL    HW261634   7.262   3.283   8.592
20065SOL     OW61635   5.918   2.423   8.741
20065SOL    HW161636   5.979   2.364   8.785
20065SOL    HW261637   5.928   2.404   8.648
20066SOL     OW61638   6.420   3.439   8.121
20066SOL    HW161639   6.398   3.511   8.062
20066SOL    HW261640   6.342   3.384   8.121
20067SOL     OW61641   6.980   2.039   8.596
20067SOL    HW161642   7.071   2.055   8.618
20067SOL    HW261643   6.931   2.101   8.651
20068SOL     OW61644   6.544   1.895   8.571
20068SOL    HW161645   6.507   1.812   8.541
20068SOL    HW261646   6.631   1.872   8.603
20069SOL     OW61647   6.362   3.202   7.756
20069SOL    HW161648   6.324   3.114   7.762
20069SOL    HW261649   6.432   3.202   7.821
20070SOL     OW61650   6.227   3.410   8.753
20070SOL    HW161651   6.222   3.494   8.799
20070SOL    HW261652   6.304   3.417   8.697
20071SOL     OW61653   6.932   1.912   7.630
20071SOL    HW161654   6.947   1.884   7.540
20071SOL    HW261655   6.854   1.864   7.658
20072SOL     OW61656   6.895   2.318   8.130
20072SOL    HW161657   6.845   2.399   8.126
20072SOL    HW261658   6.885   2.287   8.220
20073SOL     OW61659   7.159   2.080   8.331
20073SOL    HW161660   7.069   2.101   8.356
20073SOL    HW261661   7.184   2.150   8.271
20074SOL     OW61662   5.625   2.936   7.778
20074SOL    HW161663   5.720   2.940   7.792
20074SOL    HW261664   5.605   2.842   7.782
20075SOL     OW61665   6.478   3.525   7.783
20075SOL    HW161666   6.405   3.506   7.724
20075SOL    HW261667   6.444   3.594   7.840
20076SOL     OW61668   5.809   2.456   9.445
20076SOL    HW161669   5.720   2.479   9.472
20076SOL    HW261670   5.806   2.458   9.349
20077SOL     OW61671   5.799   2.156  10.284
20077SOL    HW161672   5.815   2.142  10.377
20077SOL    HW261673   5.711   2.122  10.269
20078SOL     OW61674   5.579   2.241   9.955
20078SOL    HW161675   5.498   2.277   9.992
20078SOL    HW261676   5.551   2.164   9.905
20079SOL     OW61677   6.153   3.161  10.496
20079SOL    HW161678   6.070   3.170  10.449
20079SOL    HW261679   6.171   3.249  10.529
20080SOL     OW61680   7.150   3.378  10.020
20080SOL    HW161681   7.108   3.362  10.105
20080SOL    HW261682   7.079   3.402   9.962
20081SOL     OW61683   6.726   2.564  10.006
20081SOL    HW161684   6.775   2.645   9.989
20081SOL    HW261685   6.681   2.581  10.089
20082SOL     OW61686   7.377   2.452   9.528
20082SOL    HW161687   7.345   2.451   9.438
20082SOL    HW261688   7.329   2.382   9.572
20083SOL     OW61689   6.327   2.999  10.359
20083SOL    HW161690   6.261   3.037  10.416
20083SOL    HW261691   6.367   3.074  10.315
20084SOL     OW61692   6.273   2.852   9.959
20084SOL    HW161693   6.340   2.855  10.027
20084SOL    HW261694   6.205   2.912   9.989
20085SOL     OW61695   6.293   3.021  11.121
20085SOL    HW161696   6.332   3.105  11.149
20085SOL    HW261697   6.207   3.045  11.087
20086SOL     OW61698   5.920   3.272  10.376
20086SOL    HW161699   5.844   3.233  10.333
20086SOL    HW261700   5.960   3.327  10.309
20087SOL     OW61701   7.044   3.366  10.673
20087SOL    HW161702   7.103   3.441  10.680
20087SOL    HW261703   6.983   3.377  10.746
20088SOL     OW61704   6.036   2.187  10.729
20088SOL    HW161705   6.120   2.166  10.769
20088SOL    HW261706   5.975   2.190  10.803
20089SOL     OW61707   7.189   2.302  10.059
20089SOL    HW161708   7.116   2.322  10.001
20089SOL    HW261709   7.189   2.373  10.124
20090SOL     OW61710   5.791   3.581   9.782
20090SOL    HW161711   5.820   3.655   9.835
20090SOL    HW261712   5.852   3.580   9.708
20091SOL     OW61713   6.715   3.202  11.010
20091SOL    HW161714   6.762   3.190  11.092
20091SOL    HW261715   6.663   3.122  11.001
20092SOL     OW61716   5.828   3.318   9.860
20092SOL    HW161717   5.799   3.408   9.850
20092SOL    HW261718   5.764   3.277   9.918
20093SOL     OW61719   5.863   2.956  10.202
20093SOL    HW161720   5.848   2.867  10.233
20093SOL    HW261721   5.801   3.009  10.252
20094SOL     OW61722   6.184   3.643  10.749
20094SOL    HW161723   6.096   3.636  10.786
20094SOL    HW261724   6.208   3.735  10.763
20095SOL     OW61725   6.186   2.843   9.452
20095SOL    HW161726   6.223   2.898   9.384
20095SOL    HW261727   6.219   2.880   9.534
20096SOL     OW61728   7.179   1.996  10.773
20096SOL    HW161729   7.214   2.076  10.733
20096SOL    HW261730   7.154   2.022  10.862
20097SOL     OW61731   5.716   2.507   9.878
20097SOL    HW161732   5.669   2.425   9.892
20097SOL    HW261733   5.698   2.559   9.957
20098SOL     OW61734   7.427   3.614   9.638
20098SOL    HW161735   7.488   3.593   9.708
20098SOL    HW261736   7.443   3.707   9.619
20099SOL     OW61737   5.638   3.450   9.453
20099SOL    HW161738   5.596   3.364   9.452
20099SOL    HW261739   5.590   3.499   9.520
20100SOL     OW61740   7.263   2.756   9.928
20100SOL    HW161741   7.345   2.750   9.978
20100SOL    HW261742   7.289   2.788   9.842
20101SOL     OW61743   7.233   2.982   9.724
20101SOL    HW161744   7.317   2.974   9.679
20101SOL    HW261745   7.255   3.018   9.810
20102SOL     OW61746   5.705   2.617  10.894
20102SOL    HW161747   5.793   2.656  10.896
20102SOL    HW261748   5.646   2.691  10.881
20103SOL     OW61749   6.201   3.261  10.035
20103SOL    HW161750   6.159   3.175  10.044
20103SOL    HW261751   6.175   3.292   9.948
20104SOL     OW61752   6.873   3.098  10.731
20104SOL    HW161753   6.905   3.033  10.669
20104SOL    HW261754   6.934   3.093  10.805
20105SOL     OW61755   6.402   1.860   9.823
20105SOL    HW161756   6.445   1.942   9.796
20105SOL    HW261757   6.309   1.883   9.828
20106SOL     OW61758   5.768   2.815  10.603
20106SOL    HW161759   5.854   2.778  10.583
20106SOL    HW261760   5.722   2.815  10.519
20107SOL     OW61761   7.116   2.857   9.504
20107SOL    HW161762   7.054   2.789   9.533
20107SOL    HW261763   7.160   2.884   9.584
20108SOL     OW61764   6.762   3.673  10.936
20108SOL    HW161765   6.773   3.735  10.864
20108SOL    HW261766   6.784   3.588  10.899
20109SOL     OW61767   5.927   2.121  11.114
20109SOL    HW161768   5.979   2.188  11.158
20109SOL    HW261769   5.840   2.129  11.153
20110SOL     OW61770   7.047   3.288  10.257
20110SOL    HW161771   6.984   3.305  10.327
20110SOL    HW261772   7.038   3.194  10.239
20111SOL     OW61773   7.247   3.617   9.883
20111SOL    HW161774   7.221   3.587   9.796
20111SOL    HW261775   7.232   3.542   9.940
20112SOL     OW61776   6.184   2.587   9.585
20112SOL    HW161777   6.181   2.667   9.533
20112SOL    HW261778   6.114   2.599   9.650
20113SOL     OW61779   6.868   2.227  10.247
20113SOL    HW161780   6.779   2.195  10.255
20113SOL    HW261781   6.919   2.173  10.307
20114SOL     OW61782   7.166   3.525   9.620
20114SOL    HW161783   7.255   3.560   9.609
20114SOL    HW261784   7.132   3.519   9.531
20115SOL     OW61785   6.380   2.470  10.759
20115SOL    HW161786   6.345   2.446  10.845
20115SOL    HW261787   6.340   2.409  10.698
20116SOL     OW61788   6.979   2.334  10.987
20116SOL    HW161789   6.981   2.381  11.071
20116SOL    HW261790   7.036   2.258  11.001
20117SOL     OW61791   6.590   2.790  10.856
20117SOL    HW161792   6.626   2.704  10.834
20117SOL    HW261793   6.522   2.805  10.790
20118SOL     OW61794   6.582   2.265  10.542
20118SOL    HW161795   6.507   2.303  10.589
20118SOL    HW261796   6.555   2.265  10.450
20119SOL     OW61797   6.646   2.555   9.734
20119SOL    HW161798   6.659   2.551   9.828
20119SOL    HW261799   6.560   2.516   9.719
20120SOL     OW61800   5.669   2.659  10.102
20120SOL    HW161801   5.750   2.674  10.150
20120SOL    HW261802   5.617   2.739  10.117
20121SOL     OW61803   5.708   3.741  10.889
20121SOL    HW161804   5.706   3.713  10.981
20121SOL    HW261805   5.620   3.724  10.857
20122SOL     OW61806   6.494   2.200   9.500
20122SOL    HW161807   6.521   2.276   9.449
20122SOL    HW261808   6.524   2.124   9.450
20123SOL     OW61809   7.289   2.433  11.141
20123SOL    HW161810   7.255   2.507  11.092
20123SOL    HW261811   7.316   2.370  11.073
20124SOL     OW61812   6.125   2.023  10.218
20124SOL    HW161813   6.121   2.061  10.306
20124SOL    HW261814   6.126   2.098  10.159
20125SOL     OW61815   6.590   3.305   9.777
20125SOL    HW161816   6.555   3.376   9.722
20125SOL    HW261817   6.557   3.326   9.865
20126SOL     OW61818   5.942   3.676  10.170
20126SOL    HW161819   5.985   3.591  10.182
20126SOL    HW261820   6.008   3.740  10.194
20127SOL     OW61821   7.373   2.868  10.184
20127SOL    HW161822   7.383   2.949  10.133
20127SOL    HW261823   7.340   2.897  10.269
20128SOL     OW61824   6.807   3.403  10.830
20128SOL    HW161825   6.797   3.327  10.888
20128SOL    HW261826   6.754   3.381  10.753
20129SOL     OW61827   5.910   2.815   9.565
20129SOL    HW161828   5.990   2.846   9.522
20129SOL    HW261829   5.872   2.752   9.504
20130SOL     OW61830   7.062   2.602  10.031
20130SOL    HW161831   7.061   2.570  10.121
20130SOL    HW261832   7.140   2.658  10.026
20131SOL     OW61833   6.052   3.137  11.047
20131SOL    HW161834   6.022   3.142  10.956
20131SOL    HW261835   5.972   3.138  11.099
20132SOL     OW61836   6.722   3.618   9.555
20132SOL    HW161837   6.635   3.589   9.582
20132SOL    HW261838   6.742   3.568   9.476
20133SOL     OW61839   5.764   2.150  10.836
20133SOL    HW161840   5.722   2.235  10.820
20133SOL    HW261841   5.761   2.139  10.931
20134SOL     OW61842   7.214   3.239   9.421
20134SOL    HW161843   7.181   3.326   9.399
20134SOL    HW261844   7.145   3.180   9.389
20135SOL     OW61845   6.107   3.638   9.681
20135SOL    HW161846   6.124   3.554   9.724
20135SOL    HW261847   6.145   3.628   9.593
20136SOL     OW61848   6.990   1.968   9.755
20136SOL    HW161849   6.982   1.944   9.663
20136SOL    HW261850   7.084   1.980   9.769
20137SOL     OW61851   5.848   3.651  10.531
20137SOL    HW161852   5.893   3.570  10.556
20137SOL    HW261853   5.812   3.632  10.444
20138SOL     OW61854   6.522   3.562  10.204
20138SOL    HW161855   6.602   3.515  10.228
20138SOL    HW261856   6.485   3.512  10.132
20139SOL     OW61857   5.991   2.550   9.791
20139SOL    HW161858   6.007   2.456   9.804
20139SOL    HW261859   5.897   2.559   9.801
20140SOL     OW61860   7.110   2.083  11.034
20140SOL    HW161861   7.123   2.103  11.127
20140SOL    HW261862   7.039   2.018  11.033
20141SOL     OW61863   6.215   1.938   9.435
20141SOL    HW161864   6.304   1.914   9.408
20141SOL    HW261865   6.162   1.926   9.356
20142SOL     OW61866   6.343   2.134  11.062
20142SOL    HW161867   6.428   2.089  11.062
20142SOL    HW261868   6.310   2.122  11.151
20143SOL     OW61869   6.461   3.382  10.506
20143SOL    HW161870   6.444   3.346  10.419
20143SOL    HW261871   6.532   3.328  10.541
20144SOL     OW61872   6.926   2.448  10.742
20144SOL    HW161873   6.958   2.420  10.828
20144SOL    HW261874   6.959   2.537  10.732
20145SOL     OW61875   6.405   3.246  10.256
20145SOL    HW161876   6.490   3.239  10.214
20145SOL    HW261877   6.344   3.260  10.184
20146SOL     OW61878   6.523   2.366  10.211
20146SOL    HW161879   6.493   2.363  10.120
20146SOL    HW261880   6.553   2.277  10.229
20147SOL     OW61881   6.140   1.930   9.813
20147SOL    HW161882   6.058   1.930   9.861
20147SOL    HW261883   6.134   2.007   9.756
20148SOL     OW61884   7.007   3.074   9.355
20148SOL    HW161885   7.021   2.988   9.396
20148SOL    HW261886   6.916   3.094   9.374
20149SOL     OW61887   5.872   1.922   9.493
20149SOL    HW161888   5.903   1.992   9.436
20149SOL    HW261889   5.951   1.876   9.520
20150SOL     OW61890   6.533   2.103   9.765
20150SOL    HW161891   6.502   2.139   9.682
20150SOL    HW261892   6.626   2.126   9.769
20151SOL     OW61893   6.667   2.546  10.757
20151SOL    HW161894   6.601   2.486  10.791
20151SOL    HW261895   6.749   2.497  10.764
20152SOL     OW61896   6.809   3.433  10.099
20152SOL    HW161897   6.817   3.502  10.034
20152SOL    HW261898   6.873   3.455  10.166
20153SOL     OW61899   6.064   3.018  10.029
20153SOL    HW161900   5.997   3.000  10.095
20153SOL    HW261901   6.019   3.007   9.945
20154SOL     OW61902   6.851   3.654   9.926
20154SOL    HW161903   6.901   3.713   9.869
20154SOL    HW261904   6.782   3.709   9.962
20155SOL     OW61905   6.602   2.398   9.337
20155SOL    HW161906   6.556   2.478   9.311
20155SOL    HW261907   6.670   2.427   9.398
20156SOL     OW61908   5.681   2.407  10.722
20156SOL    HW161909   5.768   2.415  10.684
20156SOL    HW261910   5.671   2.484  10.778
20157SOL     OW61911   6.133   2.078  10.499
20157SOL    HW161912   6.169   1.997  10.534
20157SOL    HW261913   6.094   2.121  10.575
20158SOL     OW61914   6.452   2.318   9.949
20158SOL    HW161915   6.400   2.379   9.897
20158SOL    HW261916   6.472   2.246   9.890
20159SOL     OW61917   6.596   1.918  10.047
20159SOL    HW161918   6.571   1.962   9.965
20159SOL    HW261919   6.521   1.863  10.068
20160SOL     OW61920   7.035   3.020  10.186
20160SOL    HW161921   6.971   2.949  10.187
20160SOL    HW261922   7.091   3.001  10.111
20161SOL     OW61923   7.048   2.472  10.277
20161SOL    HW161924   6.990   2.396  10.286
20161SOL    HW261925   7.107   2.466  10.352
20162SOL     OW61926   7.421   2.666   9.691
20162SOL    HW161927   7.481   2.622   9.751
20162SOL    HW261928   7.404   2.602   9.622
20163SOL     OW61929   6.066   3.291   9.463
20163SOL    HW161930   5.996   3.249   9.514
20163SOL    HW261931   6.045   3.271   9.372
20164SOL     OW61932   7.219   3.124   9.951
20164SOL    HW161933   7.312   3.110   9.969
20164SOL    HW261934   7.201   3.212   9.985
20165SOL     OW61935   6.978   2.435   9.383
20165SOL    HW161936   6.915   2.413   9.452
20165SOL    HW261937   7.063   2.409   9.418
20166SOL     OW61938   6.113   2.120   9.624
20166SOL    HW161939   6.151   2.068   9.554
20166SOL    HW261940   6.090   2.204   9.583
20167SOL     OW61941   7.335   3.095  10.906
20167SOL    HW161942   7.416   3.069  10.861
20167SOL    HW261943   7.346   3.189  10.921
20168SOL     OW61944   6.642   3.210  10.640
20168SOL    HW161945   6.565   3.178  10.687
20168SOL    HW261946   6.716   3.167  10.682
20169SOL     OW61947   7.193   3.491  10.970
20169SOL    HW161948   7.185   3.526  10.881
20169SOL    HW261949   7.274   3.440  10.968
20170SOL     OW61950   6.714   3.066  10.410
20170SOL    HW161951   6.662   3.112  10.476
20170SOL    HW261952   6.691   3.109  10.328
20171SOL     OW61953   7.203   2.943  10.399
20171SOL    HW161954   7.198   3.008  10.469
20171SOL    HW261955   7.139   2.973  10.334
20172SOL     OW61956   6.512   1.955  10.697
20172SOL    HW161957   6.528   1.972  10.604
20172SOL    HW261958   6.588   1.991  10.741
20173SOL     OW61959   6.559   2.977  11.043
20173SOL    HW161960   6.465   2.973  11.062
20173SOL    HW261961   6.574   2.908  10.979
20174SOL     OW61962   6.300   2.926   9.688
20174SOL    HW161963   6.281   2.900   9.778
20174SOL    HW261964   6.378   2.875   9.665
20175SOL     OW61965   6.006   2.679  10.566
20175SOL    HW161966   6.077   2.689  10.629
20175SOL    HW261967   5.974   2.590  10.580
20176SOL     OW61968   6.850   2.235  10.589
20176SOL    HW161969   6.881   2.313  10.635
20176SOL    HW261970   6.759   2.254  10.569
20177SOL     OW61971   5.657   3.435  10.664
20177SOL    HW161972   5.617   3.502  10.609
20177SOL    HW261973   5.751   3.448  10.653
20178SOL     OW61974   5.929   2.980   9.793
20178SOL    HW161975   5.917   3.055   9.734
20178SOL    HW261976   5.927   2.903   9.736
20179SOL     OW61977   6.140   2.388  10.171
20179SOL    HW161978   6.148   2.443  10.093
20179SOL    HW261979   6.206   2.421  10.231
20180SOL     OW61980   6.840   3.220   9.715
20180SOL    HW161981   6.876   3.308   9.729
20180SOL    HW261982   6.747   3.229   9.736
20181SOL     OW61983   6.876   3.327  10.465
20181SOL    HW161984   6.938   3.335  10.538
20181SOL    HW261985   6.822   3.251  10.487
20182SOL     OW61986   7.169   2.485   9.794
20182SOL    HW161987   7.117   2.522   9.866
20182SOL    HW261988   7.228   2.555   9.768
20183SOL     OW61989   5.933   3.393  10.614
20183SOL    HW161990   5.921   3.346  10.532
20183SOL    HW261991   6.028   3.404  10.622
20184SOL     OW61992   6.025   2.587  10.930
20184SOL    HW161993   6.071   2.638  10.863
20184SOL    HW261994   6.092   2.530  10.966
20185SOL     OW61995   7.196   2.643  10.999
20185SOL    HW161996   7.111   2.686  10.993
20185SOL    HW261997   7.249   2.686  10.930
20186SOL     OW61998   6.582   1.999  11.061
20186SOL    HW161999   6.640   2.073  11.045
20186SOL    HW262000   6.633   1.922  11.038
20187SOL     OW62001   6.088   1.901  11.055
20187SOL    HW162002   6.039   1.844  10.996
20187SOL    HW262003   6.032   1.977  11.067
20188SOL     OW62004   6.180   2.739  10.349
20188SOL    HW162005   6.210   2.829  10.345
20188SOL    HW262006   6.115   2.738  10.420
20189SOL     OW62007   6.924   2.727  10.309
20189SOL    HW162008   6.832   2.702  10.300
20189SOL    HW262009   6.972   2.644  10.309
20190SOL     OW62010   6.792   2.383   9.575
20190SOL    HW162011   6.796   2.305   9.631
20190SOL    HW262012   6.746   2.448   9.629
20191SOL     OW62013   5.620   3.173  10.593
20191SOL    HW162014   5.662   3.123  10.662
20191SOL    HW262015   5.633   3.264  10.618
20192SOL     OW62016   6.306   2.496  10.359
20192SOL    HW162017   6.386   2.494  10.307
20192SOL    HW262018   6.273   2.585  10.350
20193SOL     OW62019   7.330   2.813  11.178
20193SOL    HW162020   7.285   2.752  11.120
20193SOL    HW262021   7.265   2.835  11.244
20194SOL     OW62022   5.896   1.918   9.933
20194SOL    HW162023   5.868   2.009   9.946
20194SOL    HW262024   5.896   1.880  10.020
20195SOL     OW62025   7.209   2.246   9.666
20195SOL    HW162026   7.236   2.182   9.731
20195SOL    HW262027   7.185   2.324   9.717
20196SOL     OW62028   6.623   2.617  10.266
20196SOL    HW162029   6.608   2.634  10.359
20196SOL    HW262030   6.595   2.526  10.254
20197SOL     OW62031   6.567   3.426  11.033
20197SOL    HW162032   6.560   3.473  10.950
20197SOL    HW262033   6.613   3.345  11.011
20198SOL     OW62034   7.434   3.365  10.916
20198SOL    HW162035   7.453   3.388  10.825
20198SOL    HW262036   7.517   3.378  10.962
20199SOL     OW62037   5.939   2.769  11.127
20199SOL    HW162038   6.014   2.801  11.177
20199SOL    HW262039   5.976   2.707  11.064
20200SOL     OW62040   7.120   2.126   9.435
20200SOL    HW162041   7.052   2.065   9.466
20200SOL    HW262042   7.151   2.169   9.514
20201SOL     OW62043   6.893   2.698   9.353
20201SOL    HW162044   6.924   2.608   9.352
20201SOL    HW262045   6.916   2.732   9.266
20202SOL     OW62046   6.658   3.205  10.169
20202SOL    HW162047   6.669   3.133  10.107
20202SOL    HW262048   6.714   3.275  10.134
20203SOL     OW62049   5.896   2.676  10.259
20203SOL    HW162050   5.987   2.700  10.240
20203SOL    HW262051   5.901   2.584  10.287
20204SOL     OW62052   5.921   2.395  10.323
20204SOL    HW162053   5.874   2.317  10.293
20204SOL    HW262054   6.000   2.399  10.268
20205SOL     OW62055   6.723   2.232  10.995
20205SOL    HW162056   6.676   2.285  11.059
20205SOL    HW262057   6.810   2.272  10.990
20206SOL     OW62058   6.750   2.060  10.781
20206SOL    HW162059   6.738   2.121  10.854
20206SOL    HW262060   6.794   2.112  10.714
20207SOL     OW62061   5.611   3.165   9.503
20207SOL    HW162062   5.523   3.187   9.471
20207SOL    HW262063   5.601   3.078   9.543
20208SOL     OW62064   5.686   3.634  10.264
20208SOL    HW162065   5.649   3.562  10.213
20208SOL    HW262066   5.769   3.654  10.221
20209SOL     OW62067   6.079   3.436  10.217
20209SOL    HW162068   6.147   3.500  10.239
20209SOL    HW262069   6.120   3.377  10.154
20210SOL     OW62070   6.558   2.641  10.526
20210SOL    HW162071   6.616   2.617  10.599
20210SOL    HW262072   6.471   2.642  10.566
20211SOL     OW62073   5.624   2.378  10.439
20211SOL    HW162074   5.679   2.412  10.369
20211SOL    HW262075   5.664   2.412  10.519
20212SOL     OW62076   5.777   2.399  11.045
20212SOL    HW162077   5.866   2.402  11.011
20212SOL    HW262078   5.732   2.471  11.000
20213SOL     OW62079   6.969   2.793  10.967
20213SOL    HW162080   6.990   2.887  10.962
20213SOL    HW262081   6.958   2.766  10.876
20214SOL     OW62082   6.404   2.438   9.674
20214SOL    HW162083   6.396   2.363   9.615
20214SOL    HW262084   6.331   2.495   9.651
20215SOL     OW62085   7.225   2.456  10.482
20215SOL    HW162086   7.218   2.408  10.565
20215SOL    HW262087   7.315   2.439  10.453
20216SOL     OW62088   5.826   3.411  11.032
20216SOL    HW162089   5.800   3.478  11.095
20216SOL    HW262090   5.831   3.330  11.083
20217SOL     OW62091   6.288   2.314  10.557
20217SOL    HW162092   6.242   2.240  10.517
20217SOL    HW262093   6.289   2.381  10.488
20218SOL     OW62094   6.496   3.543  10.790
20218SOL    HW162095   6.481   3.498  10.707
20218SOL    HW262096   6.497   3.636  10.768
20219SOL     OW62097   6.055   2.354   9.506
20219SOL    HW162098   6.105   2.433   9.524
20219SOL    HW262099   5.966   2.385   9.487
20220SOL     OW62100   5.722   3.005  10.791
20220SOL    HW162101   5.729   2.961  10.876
20220SOL    HW262102   5.739   2.936  10.727
20221SOL     OW62103   6.898   2.898  10.527
20221SOL    HW162104   6.927   2.845  10.453
20221SOL    HW262105   6.831   2.956  10.490
20222SOL     OW62106   6.876   2.726   9.641
20222SOL    HW162107   6.800   2.675   9.670
20222SOL    HW262108   6.865   2.732   9.546
20223SOL     OW62109   7.380   3.607  10.481
20223SOL    HW162110   7.436   3.629  10.407
20223SOL    HW262111   7.341   3.522  10.457
20224SOL     OW62112   6.823   3.595  10.412
20224SOL    HW162113   6.905   3.621  10.371
20224SOL    HW262114   6.836   3.503  10.435
20225SOL     OW62115   5.682   3.112  10.332
20225SOL    HW162116   5.653   3.136  10.420
20225SOL    HW262117   5.602   3.082  10.288
20226SOL     OW62118   6.295   3.554  11.006
20226SOL    HW162119   6.226   3.553  10.939
20226SOL    HW262120   6.374   3.530  10.959
20227SOL     OW62121   7.307   2.019   9.811
20227SOL    HW162122   7.378   2.004   9.749
20227SOL    HW262123   7.294   1.934   9.853
20228SOL     OW62124   6.982   3.436   9.799
20228SOL    HW162125   7.039   3.471   9.731
20228SOL    HW262126   6.928   3.510   9.827
20229SOL     OW62127   5.725   3.651  11.148
20229SOL    HW162128   5.674   3.585  11.194
20229SOL    HW262129   5.762   3.705  11.217
20230SOL     OW62130   6.882   2.782   9.927
20230SOL    HW162131   6.950   2.727   9.966
20230SOL    HW262132   6.891   2.767   9.833
20231SOL     OW62133   6.388   3.136  10.727
20231SOL    HW162134   6.359   3.178  10.808
20231SOL    HW262135   6.319   3.157  10.664
20232SOL     OW62136   6.265   3.479   9.460
20232SOL    HW162137   6.269   3.500   9.367
20232SOL    HW262138   6.197   3.412   9.466
20233SOL     OW62139   7.202   3.592  10.706
20233SOL    HW162140   7.262   3.593  10.632
20233SOL    HW262141   7.187   3.684  10.727
20234SOL     OW62142   7.425   2.030  10.277
20234SOL    HW162143   7.460   1.946  10.246
20234SOL    HW262144   7.339   2.037  10.236
20235SOL     OW62145   5.837   2.170  10.010
20235SOL    HW162146   5.752   2.206   9.983
20235SOL    HW262147   5.836   2.173  10.105
20236SOL     OW62148   6.798   3.469   9.338
20236SOL    HW162149   6.777   3.376   9.350
20236SOL    HW262150   6.742   3.497   9.266
20237SOL     OW62151   6.403   2.869  10.667
20237SOL    HW162152   6.440   2.879  10.579
20237SOL    HW262153   6.398   2.959  10.701
20238SOL     OW62154   6.516   2.783   9.619
20238SOL    HW162155   6.569   2.813   9.545
20238SOL    HW262156   6.561   2.704   9.650
20239SOL     OW62157   7.080   3.475   9.358
20239SOL    HW162158   6.986   3.485   9.345
20239SOL    HW262159   7.118   3.488   9.270
20240SOL     OW62160   5.948   3.171  10.803
20240SOL    HW162161   5.940   3.246  10.744
20240SOL    HW262162   5.871   3.118  10.785
20241SOL     OW62163   7.173   3.130  10.592
20241SOL    HW162164   7.266   3.147  10.611
20241SOL    HW262165   7.127   3.207  10.625
20242SOL     OW62166   6.670   2.974  10.023
20242SOL    HW162167   6.592   2.929  10.057
20242SOL    HW262168   6.722   2.905   9.982
20243SOL     OW62169   6.614   2.101  10.265
20243SOL    HW162170   6.614   2.050  10.183
20243SOL    HW262171   6.602   2.035  10.334
20244SOL     OW62172   6.165   3.366   9.777
20244SOL    HW162173   6.231   3.318   9.726
20244SOL    HW262174   6.081   3.334   9.744
20245SOL     OW62175   7.311   2.255  10.695
20245SOL    HW162176   7.384   2.317  10.695
20245SOL    HW262177   7.338   2.187  10.633
20246SOL     OW62178   5.863   3.191   9.625
20246SOL    HW162179   5.780   3.191   9.577
20246SOL    HW262180   5.844   3.242   9.705
20247SOL     OW62181   5.709   2.895  11.047
20247SOL    HW162182   5.637   2.860  11.098
20247SOL    HW262183   5.787   2.852  11.081
20248SOL     OW62184   6.271   2.050  10.809
20248SOL    HW162185   6.358   2.031  10.773
20248SOL    HW262186   6.289   2.080  10.898
20249SOL     OW62187   5.664   2.183   9.331
20249SOL    HW162188   5.589   2.171   9.273
20249SOL    HW262189   5.697   2.270   9.310
20250SOL     OW62190   7.006   2.714  10.704
20250SOL    HW162191   6.956   2.777  10.652
20250SOL    HW262192   7.095   2.721  10.670
20251SOL     OW62193   5.640   2.019   9.607
20251SOL    HW162194   5.617   2.091   9.549
20251SOL    HW262195   5.727   1.991   9.578
20252SOL     OW62196   6.753   3.194   9.413
20252SOL    HW162197   6.658   3.196   9.401
20252SOL    HW262198   6.765   3.204   9.508
20253SOL     OW62199   6.210   2.688  10.743
20253SOL    HW162200   6.263   2.765  10.727
20253SOL    HW262201   6.273   2.617  10.757
20254SOL     OW62202   7.065   3.650  10.291
20254SOL    HW162203   7.090   3.721  10.231
20254SOL    HW262204   7.147   3.607  10.314
20255SOL     OW62205   6.257   2.404  10.994
20255SOL    HW162206   6.294   2.468  11.055
20255SOL    HW262207   6.290   2.320  11.024
20256SOL     OW62208   7.060   3.055  10.941
20256SOL    HW162209   7.051   3.071  11.035
20256SOL    HW262210   7.152   3.071  10.922
20257SOL     OW62211   5.953   3.609  10.885
20257SOL    HW162212   5.872   3.656  10.862
20257SOL    HW262213   5.922   3.526  10.922
20258SOL     OW62214   7.248   2.736  10.570
20258SOL    HW162215   7.248   2.656  10.518
20258SOL    HW262216   7.238   2.806  10.506
20259SOL     OW62217   6.801   2.175   9.772
20259SOL    HW162218   6.866   2.106   9.766
20259SOL    HW262219   6.829   2.229   9.846
20260SOL     OW62220   6.179   2.591   9.986
20260SOL    HW162221   6.216   2.678   9.973
20260SOL    HW262222   6.114   2.582   9.917
20261SOL     OW62223   7.339   2.222  10.967
20261SOL    HW162224   7.326   2.242  10.874
20261SOL    HW262225   7.264   2.166  10.990
20262SOL     OW62226   7.339   2.794  10.825
20262SOL    HW162227   7.326   2.887  10.842
20262SOL    HW262228   7.318   2.783  10.732
20263SOL     OW62229   6.487   3.250   9.373
20263SOL    HW162230   6.413   3.277   9.428
20263SOL    HW262231   6.491   3.316   9.304
20264SOL     OW62232   6.249   3.647  10.247
20264SOL    HW162233   6.230   3.738  10.227
20264SOL    HW262234   6.344   3.640  10.237
20265SOL     OW62235   6.465   2.842  10.165
20265SOL    HW162236   6.512   2.769  10.204
20265SOL    HW262237   6.421   2.885  10.238
20266SOL     OW62238   6.673   2.852   9.410
20266SOL    HW162239   6.638   2.903   9.337
20266SOL    HW262240   6.744   2.800   9.372
20267SOL     OW62241   7.431   3.437  10.131
20267SOL    HW162242   7.342   3.417  10.102
20267SOL    HW262243   7.458   3.359  10.180
20268SOL     OW62244   5.804   3.160  11.161
20268SOL    HW162245   5.756   3.091  11.117
20268SOL    HW262246   5.756   3.175  11.243
20269SOL     OW62247   5.677   3.096   9.972
20269SOL    HW162248   5.695   3.043  10.050
20269SOL    HW262249   5.729   3.056   9.903
20270SOL     OW62250   6.267   3.270  10.929
20270SOL    HW162251   6.188   3.227  10.963
20270SOL    HW262252   6.297   3.325  11.002
20271SOL     OW62253   7.385   2.046  10.545
20271SOL    HW162254   7.447   1.978  10.573
20271SOL    HW262255   7.399   2.054  10.451
20272SOL     OW62256   6.033   2.287   9.848
20272SOL    HW162257   6.047   2.227   9.774
20272SOL    HW262258   5.965   2.246   9.901
20273SOL     OW62259   7.280   3.370  10.406
20273SOL    HW162260   7.201   3.333  10.365
20273SOL    HW262261   7.343   3.298  10.403
20274SOL     OW62262   5.920   2.412  10.596
20274SOL    HW162263   5.980   2.347  10.633
20274SOL    HW262264   5.931   2.404  10.501
20275SOL     OW62265   6.422   3.438   9.981
20275SOL    HW162266   6.405   3.501   9.911
20275SOL    HW262267   6.344   3.382   9.983
20276SOL     OW62268   7.019   2.091  10.433
20276SOL    HW162269   7.072   2.036  10.491
20276SOL    HW262270   6.962   2.141  10.493
20277SOL     OW62271   6.579   1.856  10.422
20277SOL    HW162272   6.538   1.788  10.475
20277SOL    HW262273   6.669   1.828  10.411
20278SOL     OW62274   6.344   3.199   9.656
20278SOL    HW162275   6.319   3.107   9.653
20278SOL    HW262276   6.438   3.197   9.677
20279SOL     OW62277   6.207   3.415  10.599
20279SOL    HW162278   6.207   3.495  10.651
20279SOL    HW262279   6.295   3.411  10.562
20280SOL     OW62280   6.942   1.915   9.488
20280SOL    HW162281   6.972   1.851   9.423
20280SOL    HW262282   6.854   1.886   9.511
20281SOL     OW62283   6.881   2.324   9.988
20281SOL    HW162284   6.833   2.407   9.992
20281SOL    HW262285   6.878   2.291  10.078
20282SOL     OW62286   7.165   2.053  10.193
20282SOL    HW162287   7.112   2.079  10.268
20282SOL    HW262288   7.168   2.131  10.137
20283SOL     OW62289   5.628   2.925   9.637
20283SOL    HW162290   5.718   2.913   9.604
20283SOL    HW262291   5.598   2.836   9.655
20284SOL     OW62292   6.472   3.516   9.646
20284SOL    HW162293   6.401   3.502   9.583
20284SOL    HW262294   6.447   3.596   9.693
20285SOL     OW62295   5.794   2.485  11.314
20285SOL    HW162296   5.704   2.479  11.344
20285SOL    HW262297   5.790   2.472  11.219
20286SOL     OW62298   5.808   2.140  12.168
20286SOL    HW162299   5.839   2.104  12.251
20286SOL    HW262300   5.721   2.102  12.157
20287SOL     OW62301   5.576   2.246  11.812
20287SOL    HW162302   5.494   2.274  11.854
20287SOL    HW262303   5.552   2.167  11.764
20288SOL     OW62304   6.128   3.109  12.339
20288SOL    HW162305   6.059   3.165  12.304
20288SOL    HW262306   6.154   3.153  12.420
20289SOL     OW62307   7.150   3.376  11.881
20289SOL    HW162308   7.102   3.360  11.962
20289SOL    HW262309   7.082   3.385  11.814
20290SOL     OW62310   6.720   2.557  11.873
20290SOL    HW162311   6.764   2.640  11.855
20290SOL    HW262312   6.670   2.573  11.953
20291SOL     OW62313   7.365   2.465  11.397
20291SOL    HW162314   7.337   2.461  11.305
20291SOL    HW262315   7.330   2.385  11.436
20292SOL     OW62316   6.331   2.988  12.214
20292SOL    HW162317   6.255   3.020  12.262
20292SOL    HW262318   6.366   3.065  12.169
20293SOL     OW62319   6.269   2.857  11.819
20293SOL    HW162320   6.338   2.851  11.885
20293SOL    HW262321   6.203   2.914  11.858
20294SOL     OW62322   5.932   3.275  12.237
20294SOL    HW162323   5.848   3.256  12.195
20294SOL    HW262324   5.978   3.332  12.174
20295SOL     OW62325   7.190   2.303  11.916
20295SOL    HW162326   7.123   2.316  11.850
20295SOL    HW262327   7.178   2.376  11.977
20296SOL     OW62328   5.812   3.581  11.637
20296SOL    HW162329   5.829   3.655  11.695
20296SOL    HW262330   5.879   3.588  11.569
20297SOL     OW62331   5.806   3.316  11.714
20297SOL    HW162332   5.805   3.411  11.700
20297SOL    HW262333   5.747   3.302  11.788
20298SOL     OW62334   5.849   2.963  12.088
20298SOL    HW162335   5.912   2.947  12.158
20298SOL    HW262336   5.790   3.030  12.124
20299SOL     OW62337   6.147   2.866  11.316
20299SOL    HW162338   6.210   2.879  11.244
20299SOL    HW262339   6.197   2.888  11.394
20300SOL     OW62340   5.685   2.503  11.753
20300SOL    HW162341   5.657   2.413  11.769
20300SOL    HW262342   5.778   2.503  11.775
20301SOL     OW62343   7.430   3.615  11.496
20301SOL    HW162344   7.491   3.591  11.566
20301SOL    HW262345   7.448   3.707  11.479
20302SOL     OW62346   5.630   3.447  11.295
20302SOL    HW162347   5.606   3.357  11.317
20302SOL    HW262348   5.601   3.499  11.369
20303SOL     OW62349   7.295   2.787  11.810
20303SOL    HW162350   7.347   2.731  11.753
20303SOL    HW262351   7.251   2.848  11.751
20304SOL     OW62352   7.232   2.971  11.605
20304SOL    HW162353   7.316   2.970  11.560
20304SOL    HW262354   7.241   3.039  11.671
20305SOL     OW62355   5.792   2.590   0.246
20305SOL    HW162356   5.845   2.573   0.324
20305SOL    HW262357   5.714   2.635   0.280
20306SOL     OW62358   6.193   3.256  11.895
20306SOL    HW162359   6.151   3.171  11.905
20306SOL    HW262360   6.178   3.279  11.803
20307SOL     OW62361   6.409   1.872  11.683
20307SOL    HW162362   6.448   1.956  11.661
20307SOL    HW262363   6.315   1.889  11.688
20308SOL     OW62364   5.764   2.798  12.342
20308SOL    HW162365   5.847   2.762  12.374
20308SOL    HW262366   5.716   2.821  12.422
20309SOL     OW62367   7.121   2.859  11.374
20309SOL    HW162368   7.050   2.802  11.405
20309SOL    HW262369   7.158   2.897  11.454
20310SOL     OW62370   7.073   3.265  12.135
20310SOL    HW162371   7.000   3.285  12.193
20310SOL    HW262372   7.049   3.182  12.093
20311SOL     OW62373   7.252   3.611  11.749
20311SOL    HW162374   7.220   3.593  11.660
20311SOL    HW262375   7.214   3.543  11.803
20312SOL     OW62376   6.190   2.564  11.433
20312SOL    HW162377   6.248   2.581  11.359
20312SOL    HW262378   6.162   2.650  11.463
20313SOL     OW62379   6.865   2.231  12.106
20313SOL    HW162380   6.776   2.197  12.115
20313SOL    HW262381   6.918   2.176  12.163
20314SOL     OW62382   7.166   3.537  11.481
20314SOL    HW162383   7.258   3.563  11.473
20314SOL    HW262384   7.137   3.522  11.391
20315SOL     OW62385   6.472   2.235  12.378
20315SOL    HW162386   6.539   2.287  12.424
20315SOL    HW262387   6.520   2.193  12.306
20316SOL     OW62388   6.641   2.550  11.596
20316SOL    HW162389   6.656   2.547  11.691
20316SOL    HW262390   6.556   2.508  11.584
20317SOL     OW62391   6.490   2.207  11.365
20317SOL    HW162392   6.522   2.276  11.307
20317SOL    HW262393   6.524   2.126  11.326
20318SOL     OW62394   6.970   3.006  11.717
20318SOL    HW162395   7.045   2.994  11.660
20318SOL    HW262396   6.913   3.067  11.671
20319SOL     OW62397   6.143   2.050  12.068
20319SOL    HW162398   6.141   2.090  12.155
20319SOL    HW262399   6.142   2.124  12.007
20320SOL     OW62400   6.588   3.299  11.638
20320SOL    HW162401   6.560   3.376  11.588
20320SOL    HW262402   6.569   3.323  11.729
20321SOL     OW62403   5.939   3.671  12.039
20321SOL    HW162404   5.984   3.586  12.047
20321SOL    HW262405   6.007   3.735  12.060
20322SOL     OW62406   7.406   2.879  12.046
20322SOL    HW162407   7.354   2.860  11.968
20322SOL    HW262408   7.343   2.912  12.109
20323SOL     OW62409   5.897   2.817  11.428
20323SOL    HW162410   5.981   2.847  11.393
20323SOL    HW262411   5.872   2.745  11.371
20324SOL     OW62412   7.073   2.616  11.888
20324SOL    HW162413   7.063   2.571  11.972
20324SOL    HW262414   7.153   2.667  11.898
20325SOL     OW62415   6.697   3.660  11.373
20325SOL    HW162416   6.654   3.622  11.449
20325SOL    HW262417   6.726   3.585  11.321
20326SOL     OW62418   7.219   3.246  11.273
20326SOL    HW162419   7.178   3.331  11.255
20326SOL    HW262420   7.154   3.181  11.248
20327SOL     OW62421   6.056   3.634  11.473
20327SOL    HW162422   6.098   3.670  11.550
20327SOL    HW262423   6.123   3.581  11.431
20328SOL     OW62424   6.984   1.969  11.615
20328SOL    HW162425   6.975   1.943  11.523
20328SOL    HW262426   7.078   1.972  11.629
20329SOL     OW62427   5.820   3.653  12.394
20329SOL    HW162428   5.855   3.579  12.443
20329SOL    HW262429   5.797   3.617  12.308
20330SOL     OW62430   6.512   3.567  12.054
20330SOL    HW162431   6.573   3.517  12.109
20330SOL    HW262432   6.490   3.508  11.983
20331SOL     OW62433   5.962   2.563  11.678
20331SOL    HW162434   5.985   2.470  11.673
20331SOL    HW262435   5.908   2.578  11.601
20332SOL     OW62436   6.220   1.977  11.283
20332SOL    HW162437   6.282   1.908  11.306
20332SOL    HW262438   6.177   1.946  11.203
20333SOL     OW62439   6.398   3.217  12.094
20333SOL    HW162440   6.488   3.230  12.065
20333SOL    HW262441   6.344   3.248  12.021
20334SOL     OW62442   6.500   2.371  12.080
20334SOL    HW162443   6.477   2.366  11.987
20334SOL    HW262444   6.536   2.284  12.100
20335SOL     OW62445   6.139   1.926  11.668
20335SOL    HW162446   6.059   1.924  11.721
20335SOL    HW262447   6.128   2.003  11.612
20336SOL     OW62448   7.020   3.064  11.214
20336SOL    HW162449   7.049   2.986  11.263
20336SOL    HW262450   6.932   3.082  11.248
20337SOL     OW62451   5.878   1.907  11.351
20337SOL    HW162452   5.940   1.978  11.334
20337SOL    HW262453   5.929   1.842  11.399
20338SOL     OW62454   6.528   2.116  11.628
20338SOL    HW162455   6.503   2.154  11.543
20338SOL    HW262456   6.622   2.131  11.633
20339SOL     OW62457   6.817   3.418  11.968
20339SOL    HW162458   6.808   3.483  11.898
20339SOL    HW262459   6.865   3.464  12.037
20340SOL     OW62460   6.051   3.014  11.897
20340SOL    HW162461   5.985   2.993  11.962
20340SOL    HW262462   6.006   3.001  11.813
20341SOL     OW62463   6.617   2.385  11.196
20341SOL    HW162464   6.552   2.455  11.189
20341SOL    HW262465   6.679   2.416  11.262
20342SOL     OW62466   6.147   2.120  12.345
20342SOL    HW162467   6.191   2.039  12.371
20342SOL    HW262468   6.055   2.106  12.368
20343SOL     OW62469   6.448   2.320  11.813
20343SOL    HW162470   6.411   2.376  11.746
20343SOL    HW262471   6.475   2.241  11.766
20344SOL     OW62472   6.604   1.914  11.918
20344SOL    HW162473   6.545   1.907  11.843
20344SOL    HW262474   6.580   1.840  11.974
20345SOL     OW62475   7.024   3.017  12.019
20345SOL    HW162476   6.948   2.959  12.023
20345SOL    HW262477   7.037   3.032  11.925
20346SOL     OW62478   7.048   2.468  12.127
20346SOL    HW162479   6.989   2.393  12.133
20346SOL    HW262480   7.107   2.459  12.202
20347SOL     OW62481   7.425   2.666  11.575
20347SOL    HW162482   7.492   2.614  11.620
20347SOL    HW262483   7.398   2.612  11.501
20348SOL     OW62484   6.071   3.299  11.340
20348SOL    HW162485   5.993   3.263  11.382
20348SOL    HW262486   6.090   3.239  11.268
20349SOL     OW62487   7.272   3.137  11.814
20349SOL    HW162488   7.365   3.155  11.832
20349SOL    HW262489   7.227   3.219  11.833
20350SOL     OW62490   6.978   2.435  11.240
20350SOL    HW162491   6.917   2.414  11.311
20350SOL    HW262492   7.064   2.410  11.274
20351SOL     OW62493   6.103   2.126  11.484
20351SOL    HW162494   6.157   2.080  11.420
20351SOL    HW262495   6.080   2.209  11.443
20352SOL     OW62496   6.693   3.095  12.295
20352SOL    HW162497   6.617   3.122  12.346
20352SOL    HW262498   6.673   3.122  12.205
20353SOL     OW62499   7.209   2.963  12.225
20353SOL    HW162500   7.177   3.007  12.304
20353SOL    HW262501   7.141   2.981  12.159
20354SOL     OW62502   6.296   2.924  11.546
20354SOL    HW162503   6.282   2.902  11.638
20354SOL    HW262504   6.377   2.879  11.523
20355SOL     OW62505   5.993   2.676  12.430
20355SOL    HW162506   6.048   2.726  12.490
20355SOL    HW262507   5.979   2.592  12.475
20356SOL     OW62508   6.848   2.249  12.432
20356SOL    HW162509   6.912   2.305  12.476
20356SOL    HW262510   6.765   2.295  12.441
20357SOL     OW62511   5.908   2.983  11.662
20357SOL    HW162512   5.915   3.056  11.601
20357SOL    HW262513   5.914   2.904  11.608
20358SOL     OW62514   6.130   2.391  12.036
20358SOL    HW162515   6.146   2.453  11.964
20358SOL    HW262516   6.199   2.411  12.099
20359SOL     OW62517   6.836   3.207  11.566
20359SOL    HW162518   6.892   3.280  11.595
20359SOL    HW262519   6.748   3.230  11.597
20360SOL     OW62520   6.874   3.306  12.313
20360SOL    HW162521   6.855   3.340  12.400
20360SOL    HW262522   6.816   3.231  12.303
20361SOL     OW62523   7.162   2.477  11.658
20361SOL    HW162524   7.112   2.524  11.725
20361SOL    HW262525   7.190   2.545  11.597
20362SOL     OW62526   5.947   3.421  12.468
20362SOL    HW162527   5.934   3.361  12.395
20362SOL    HW262528   6.041   3.438  12.468
20363SOL     OW62529   6.172   2.718  12.217
20363SOL    HW162530   6.215   2.803  12.220
20363SOL    HW262531   6.114   2.717  12.293
20364SOL     OW62532   6.920   2.714  12.171
20364SOL    HW162533   6.834   2.696  12.133
20364SOL    HW262534   6.968   2.632  12.163
20365SOL     OW62535   6.792   2.385  11.435
20365SOL    HW162536   6.797   2.308  11.492
20365SOL    HW262537   6.747   2.451  11.488
20366SOL     OW62538   5.892   2.055  12.417
20366SOL    HW162539   5.872   2.066  12.510
20366SOL    HW262540   5.874   1.962  12.400
20367SOL     OW62541   5.676   3.192  12.450
20367SOL    HW162542   5.698   3.128  12.518
20367SOL    HW262543   5.659   3.273  12.497
20368SOL     OW62544   6.293   2.462  12.260
20368SOL    HW162545   6.371   2.447  12.207
20368SOL    HW262546   6.268   2.553  12.242
20369SOL     OW62547   5.892   1.922  11.794
20369SOL    HW162548   5.869   2.012  11.820
20369SOL    HW262549   5.905   1.876  11.877
20370SOL     OW62550   7.213   2.241  11.529
20370SOL    HW162551   7.242   2.176  11.593
20370SOL    HW262552   7.187   2.317  11.582
20371SOL     OW62553   6.612   2.616  12.140
20371SOL    HW162554   6.604   2.629  12.235
20371SOL    HW262555   6.577   2.528  12.126
20372SOL     OW62556   7.115   2.129  11.297
20372SOL    HW162557   7.051   2.065  11.328
20372SOL    HW262558   7.149   2.169  11.377
20373SOL     OW62559   6.873   2.691  11.204
20373SOL    HW162560   6.911   2.603  11.204
20373SOL    HW262561   6.901   2.729  11.121
20374SOL     OW62562   6.666   3.199  12.039
20374SOL    HW162563   6.668   3.130  11.973
20374SOL    HW262564   6.721   3.268  12.003
20375SOL     OW62565   5.912   2.652  12.103
20375SOL    HW162566   6.005   2.674  12.106
20375SOL    HW262567   5.908   2.560  12.129
20376SOL     OW62568   5.897   2.390  12.169
20376SOL    HW162569   5.869   2.299  12.170
20376SOL    HW262570   5.980   2.389  12.122
20377SOL     OW62571   6.719   2.118   0.149
20377SOL    HW162572   6.770   2.123   0.229
20377SOL    HW262573   6.781   2.141   0.079
20378SOL     OW62574   5.599   3.173  11.364
20378SOL    HW162575   5.511   3.192  11.330
20378SOL    HW262576   5.592   3.085  11.401
20379SOL     OW62577   5.678   3.639  12.112
20379SOL    HW162578   5.649   3.561  12.064
20379SOL    HW262579   5.768   3.653  12.082
20380SOL     OW62580   6.078   3.434  12.073
20380SOL    HW162581   6.147   3.495  12.100
20380SOL    HW262582   6.122   3.373  12.013
20381SOL     OW62583   6.569   2.653  12.414
20381SOL    HW162584   6.637   2.698  12.464
20381SOL    HW262585   6.489   2.702  12.432
20382SOL     OW62586   5.649   2.430  12.294
20382SOL    HW162587   5.730   2.419  12.245
20382SOL    HW262588   5.639   2.349  12.343
20383SOL     OW62589   6.402   2.421  11.548
20383SOL    HW162590   6.416   2.356  11.478
20383SOL    HW262591   6.329   2.474  11.516
20384SOL     OW62592   7.234   2.467  12.331
20384SOL    HW162593   7.226   2.413  12.409
20384SOL    HW262594   7.329   2.473  12.315
20385SOL     OW62595   6.036   2.350  11.344
20385SOL    HW162596   6.101   2.416  11.369
20385SOL    HW262597   5.953   2.398  11.343
20386SOL     OW62598   6.888   2.896  12.370
20386SOL    HW162599   6.903   2.842  12.293
20386SOL    HW262600   6.829   2.965  12.339
20387SOL     OW62601   6.907   2.716  11.477
20387SOL    HW162602   6.827   2.696  11.527
20387SOL    HW262603   6.881   2.706  11.385
20388SOL     OW62604   7.322   3.605  12.286
20388SOL    HW162605   7.401   3.628  12.237
20388SOL    HW262606   7.320   3.509  12.284
20389SOL     OW62607   6.845   3.619  12.293
20389SOL    HW162608   6.922   3.626  12.236
20389SOL    HW262609   6.832   3.524  12.302
20390SOL     OW62610   5.672   3.134  12.189
20390SOL    HW162611   5.678   3.156  12.282
20390SOL    HW262612   5.579   3.140  12.168
20391SOL     OW62613   7.316   2.022  11.678
20391SOL    HW162614   7.382   2.005  11.611
20391SOL    HW262615   7.296   1.936  11.715
20392SOL     OW62616   6.986   3.422  11.657
20392SOL    HW162617   7.043   3.460  11.590
20392SOL    HW262618   6.932   3.495  11.687
20393SOL     OW62619   6.863   2.787  11.838
20393SOL    HW162620   6.938   2.728  11.847
20393SOL    HW262621   6.896   2.861  11.787
20394SOL     OW62622   6.249   3.504  11.301
20394SOL    HW162623   6.301   3.465  11.231
20394SOL    HW262624   6.185   3.437  11.324
20395SOL     OW62625   7.310   3.686   0.049
20395SOL    HW162626   7.302   3.645  -0.037
20395SOL    HW262627   7.219   3.702   0.076
20396SOL     OW62628   7.430   2.029  12.148
20396SOL    HW162629   7.456   1.940  12.127
20396SOL    HW262630   7.344   2.039  12.109
20397SOL     OW62631   5.836   2.172  11.890
20397SOL    HW162632   5.749   2.205  11.871
20397SOL    HW262633   5.839   2.165  11.985
20398SOL     OW62634   6.795   3.455  11.210
20398SOL    HW162635   6.781   3.364  11.236
20398SOL    HW262636   6.733   3.469  11.139
20399SOL     OW62637   6.401   2.871  12.471
20399SOL    HW162638   6.404   2.942  12.407
20399SOL    HW262639   6.449   2.905  12.546
20400SOL     OW62640   6.525   2.799  11.485
20400SOL    HW162641   6.570   2.824  11.405
20400SOL    HW262642   6.555   2.710  11.502
20401SOL     OW62643   7.075   3.494  11.219
20401SOL    HW162644   6.982   3.478  11.204
20401SOL    HW262645   7.113   3.498  11.131
20402SOL     OW62646   6.651   2.974  11.887
20402SOL    HW162647   6.576   2.926  11.922
20402SOL    HW262648   6.708   2.907  11.849
20403SOL     OW62649   6.609   2.107  12.138
20403SOL    HW162650   6.605   2.062  12.053
20403SOL    HW262651   6.612   2.035  12.202
20404SOL     OW62652   6.185   3.337  11.635
20404SOL    HW162653   6.247   3.291  11.579
20404SOL    HW262654   6.108   3.351  11.579
20405SOL     OW62655   7.347   2.300   0.033
20405SOL    HW162656   7.430   2.306   0.080
20405SOL    HW262657   7.347   2.212  -0.004
20406SOL     OW62658   5.851   3.200  11.479
20406SOL    HW162659   5.762   3.199  11.442
20406SOL    HW262660   5.842   3.245  11.563
20407SOL     OW62661   5.668   2.188  11.192
20407SOL    HW162662   5.582   2.176  11.153
20407SOL    HW262663   5.699   2.271  11.156
20408SOL     OW62664   5.638   2.007  11.463
20408SOL    HW162665   5.634   2.086  11.409
20408SOL    HW262666   5.725   1.972  11.447
20409SOL     OW62667   6.765   3.179  11.296
20409SOL    HW162668   6.713   3.099  11.299
20409SOL    HW262669   6.792   3.194  11.387
20410SOL     OW62670   7.077   3.635  12.153
20410SOL    HW162671   7.083   3.685  12.072
20410SOL    HW262672   7.165   3.636  12.189
20411SOL     OW62673   7.278   2.739  12.387
20411SOL    HW162674   7.240   2.655  12.362
20411SOL    HW262675   7.240   2.803  12.327
20412SOL     OW62676   6.801   2.180  11.631
20412SOL    HW162677   6.862   2.107  11.625
20412SOL    HW262678   6.831   2.231  11.706
20413SOL     OW62679   6.171   2.595  11.854
20413SOL    HW162680   6.214   2.678  11.837
20413SOL    HW262681   6.102   2.589  11.789
20414SOL     OW62682   7.402   2.775   0.121
20414SOL    HW162683   7.339   2.823   0.175
20414SOL    HW262684   7.354   2.758   0.039
20415SOL     OW62685   6.388   3.272  11.205
20415SOL    HW162686   6.405   3.249  11.297
20415SOL    HW262687   6.471   3.309  11.174
20416SOL     OW62688   6.252   3.632  12.118
20416SOL    HW162689   6.237   3.724  12.096
20416SOL    HW262690   6.347   3.621  12.112
20417SOL     OW62691   6.458   2.830  12.024
20417SOL    HW162692   6.505   2.758  12.066
20417SOL    HW262693   6.418   2.878  12.096
20418SOL     OW62694   6.686   2.890  11.270
20418SOL    HW162695   6.635   2.909  11.191
20418SOL    HW262696   6.743   2.817  11.245
20419SOL     OW62697   7.421   3.413  12.028
20419SOL    HW162698   7.350   3.415  11.964
20419SOL    HW262699   7.379   3.379  12.108
20420SOL     OW62700   5.667   3.077  11.839
20420SOL    HW162701   5.714   3.061  11.921
20420SOL    HW262702   5.732   3.057  11.770
20421SOL     OW62703   7.416   2.060  12.427
20421SOL    HW162704   7.381   1.982  12.469
20421SOL    HW262705   7.417   2.040  12.334
20422SOL     OW62706   5.990   2.296  11.689
20422SOL    HW162707   6.036   2.230  11.637
20422SOL    HW262708   5.953   2.246  11.762
20423SOL     OW62709   7.301   3.333  12.266
20423SOL    HW162710   7.218   3.307  12.226
20423SOL    HW262711   7.294   3.301  12.357
20424SOL     OW62712   6.421   3.427  11.838
20424SOL    HW162713   6.407   3.497  11.774
20424SOL    HW262714   6.339   3.378  11.840
20425SOL     OW62715   7.022   2.097  12.285
20425SOL    HW162716   7.064   2.029  12.338
20425SOL    HW262717   6.963   2.142  12.346
20426SOL     OW62718   6.606   1.886  12.298
20426SOL    HW162719   6.546   1.821  12.261
20426SOL    HW262720   6.690   1.839  12.306
20427SOL     OW62721   6.372   3.191  11.487
20427SOL    HW162722   6.345   3.101  11.500
20427SOL    HW262723   6.450   3.201  11.541
20428SOL     OW62724   6.946   1.909  11.347
20428SOL    HW162725   6.983   1.838  11.295
20428SOL    HW262726   6.856   1.882  11.364
20429SOL     OW62727   6.884   2.327  11.849
20429SOL    HW162728   6.830   2.406  11.852
20429SOL    HW262729   6.877   2.291  11.937
20430SOL     OW62730   7.176   2.058  12.056
20430SOL    HW162731   7.116   2.080  12.127
20430SOL    HW262732   7.173   2.133  11.997
20431SOL     OW62733   5.623   2.920  11.484
20431SOL    HW162734   5.717   2.917  11.465
20431SOL    HW262735   5.600   2.830  11.506
20432SOL     OW62736   6.473   3.509  11.505
20432SOL    HW162737   6.398   3.495  11.447
20432SOL    HW262738   6.450   3.587  11.556
20433SOL     OW62739   5.863   4.328   0.032
20433SOL    HW162740   5.825   4.379   0.103
20433SOL    HW262741   5.791   4.312  -0.029
20434SOL     OW62742   5.804   4.005   0.993
20434SOL    HW162743   5.834   3.972   1.078
20434SOL    HW262744   5.717   3.968   0.982
20435SOL     OW62745   5.571   4.104   0.635
20435SOL    HW162746   5.495   4.136   0.684
20435SOL    HW262747   5.541   4.021   0.597
20436SOL     OW62748   6.162   5.039   1.162
20436SOL    HW162749   6.070   5.042   1.135
20436SOL    HW262750   6.176   5.119   1.212
20437SOL     OW62751   7.156   5.243   0.716
20437SOL    HW162752   7.117   5.216   0.799
20437SOL    HW262753   7.083   5.240   0.654
20438SOL     OW62754   6.696   4.448   0.685
20438SOL    HW162755   6.759   4.520   0.687
20438SOL    HW262756   6.659   4.447   0.774
20439SOL     OW62757   7.330   4.337   0.225
20439SOL    HW162758   7.310   4.296   0.141
20439SOL    HW262759   7.276   4.290   0.289
20440SOL     OW62760   6.324   4.852   1.045
20440SOL    HW162761   6.263   4.907   1.094
20440SOL    HW262762   6.390   4.913   1.013
20441SOL     OW62763   6.496   4.529   1.849
20441SOL    HW162764   6.404   4.544   1.874
20441SOL    HW262765   6.498   4.541   1.754
20442SOL     OW62766   6.267   4.723   0.641
20442SOL    HW162767   6.335   4.711   0.707
20442SOL    HW262768   6.197   4.771   0.686
20443SOL     OW62769   6.306   4.874   1.820
20443SOL    HW162770   6.350   4.952   1.851
20443SOL    HW262771   6.224   4.906   1.781
20444SOL     OW62772   5.917   5.134   1.051
20444SOL    HW162773   5.831   5.095   1.036
20444SOL    HW262774   5.918   5.211   0.993
20445SOL     OW62775   7.049   5.230   1.366
20445SOL    HW162776   7.101   5.309   1.378
20445SOL    HW262777   6.976   5.239   1.427
20446SOL     OW62778   6.038   4.109   1.473
20446SOL    HW162779   6.114   4.052   1.482
20446SOL    HW262780   5.965   4.056   1.505
20447SOL     OW62781   7.193   4.176   0.757
20447SOL    HW162782   7.111   4.186   0.709
20447SOL    HW262783   7.207   4.261   0.798
20448SOL     OW62784   5.804   5.439   0.471
20448SOL    HW162785   5.818   5.518   0.523
20448SOL    HW262786   5.881   5.434   0.414
20449SOL     OW62787   6.719   5.060   1.695
20449SOL    HW162788   6.760   5.064   1.781
20449SOL    HW262789   6.673   4.976   1.693
20450SOL     OW62790   5.829   5.178   0.556
20450SOL    HW162791   5.800   5.269   0.547
20450SOL    HW262792   5.763   5.137   0.612
20451SOL     OW62793   5.841   4.804   0.917
20451SOL    HW162794   5.904   4.784   0.986
20451SOL    HW262795   5.788   4.875   0.952
20452SOL     OW62796   6.186   5.512   1.425
20452SOL    HW162797   6.106   5.493   1.473
20452SOL    HW262798   6.210   5.601   1.452
20453SOL     OW62799   6.165   4.685   0.147
20453SOL    HW162800   6.232   4.701   0.080
20453SOL    HW262801   6.196   4.733   0.224
20454SOL     OW62802   7.174   3.858   1.459
20454SOL    HW162803   7.206   3.939   1.420
20454SOL    HW262804   7.157   3.879   1.551
20455SOL     OW62805   5.706   4.348   0.568
20455SOL    HW162806   5.656   4.267   0.564
20455SOL    HW262807   5.758   4.341   0.648
20456SOL     OW62808   7.442   5.468   0.314
20456SOL    HW162809   7.500   5.441   0.384
20456SOL    HW262810   7.462   5.561   0.300
20457SOL     OW62811   5.619   5.251   0.135
20457SOL    HW162812   5.531   5.218   0.113
20457SOL    HW262813   5.604   5.326   0.192
20458SOL     OW62814   7.307   4.676   0.664
20458SOL    HW162815   7.256   4.599   0.689
20458SOL    HW262816   7.263   4.709   0.585
20459SOL     OW62817   7.230   4.852   0.406
20459SOL    HW162818   7.319   4.844   0.372
20459SOL    HW262819   7.238   4.909   0.482
20460SOL     OW62820   5.713   4.471   1.572
20460SOL    HW162821   5.802   4.498   1.594
20460SOL    HW262822   5.658   4.545   1.598
20461SOL     OW62823   6.202   5.100   0.722
20461SOL    HW162824   6.154   5.020   0.744
20461SOL    HW262825   6.185   5.114   0.629
20462SOL     OW62826   6.862   4.962   1.412
20462SOL    HW162827   6.895   4.891   1.357
20462SOL    HW262828   6.913   4.956   1.493
20463SOL     OW62829   6.408   3.735   0.523
20463SOL    HW162830   6.445   3.820   0.498
20463SOL    HW262831   6.314   3.750   0.526
20464SOL     OW62832   5.765   4.669   1.232
20464SOL    HW162833   5.853   4.633   1.244
20464SOL    HW262834   5.708   4.609   1.280
20465SOL     OW62835   7.108   4.707   0.205
20465SOL    HW162836   7.034   4.658   0.241
20465SOL    HW262837   7.149   4.747   0.282
20466SOL     OW62838   6.762   5.535   1.622
20466SOL    HW162839   6.777   5.602   1.556
20466SOL    HW262840   6.797   5.455   1.583
20467SOL     OW62841   5.930   3.987   1.843
20467SOL    HW162842   5.965   4.069   1.879
20467SOL    HW262843   5.836   3.991   1.860
20468SOL     OW62844   7.050   5.140   0.944
20468SOL    HW162845   6.989   5.153   1.017
20468SOL    HW262846   7.039   5.048   0.920
20469SOL     OW62847   7.238   5.480   0.584
20469SOL    HW162848   7.214   5.442   0.500
20469SOL    HW262849   7.222   5.411   0.647
20470SOL     OW62850   6.171   4.438   0.277
20470SOL    HW162851   6.177   4.524   0.236
20470SOL    HW262852   6.105   4.449   0.346
20471SOL     OW62853   6.866   4.070   0.923
20471SOL    HW162854   6.775   4.044   0.940
20471SOL    HW262855   6.918   4.023   0.988
20472SOL     OW62856   7.178   5.397   0.322
20472SOL    HW162857   7.273   5.412   0.322
20472SOL    HW262858   7.151   5.420   0.233
20473SOL     OW62859   6.374   4.344   1.450
20473SOL    HW162860   6.360   4.314   1.540
20473SOL    HW262861   6.345   4.271   1.396
20474SOL     OW62862   6.981   4.199   1.683
20474SOL    HW162863   6.987   4.242   1.768
20474SOL    HW262864   7.035   4.120   1.692
20475SOL     OW62865   6.537   4.611   1.586
20475SOL    HW162866   6.590   4.542   1.546
20475SOL    HW262867   6.485   4.646   1.515
20476SOL     OW62868   6.582   4.134   1.228
20476SOL    HW162869   6.491   4.148   1.255
20476SOL    HW262870   6.574   4.085   1.146
20477SOL     OW62871   6.633   4.429   0.423
20477SOL    HW162872   6.650   4.431   0.517
20477SOL    HW262873   6.549   4.384   0.414
20478SOL     OW62874   5.715   5.600   1.586
20478SOL    HW162875   5.719   5.575   1.679
20478SOL    HW262876   5.625   5.579   1.560
20479SOL     OW62877   6.460   4.085   0.221
20479SOL    HW162878   6.499   4.154   0.167
20479SOL    HW262879   6.473   4.004   0.171
20480SOL     OW62880   7.280   4.298   1.828
20480SOL    HW162881   7.253   4.373   1.775
20480SOL    HW262882   7.311   4.234   1.764
20481SOL     OW62883   6.971   4.873   0.533
20481SOL    HW162884   7.054   4.868   0.485
20481SOL    HW262885   6.919   4.936   0.483
20482SOL     OW62886   6.139   3.901   0.906
20482SOL    HW162887   6.140   3.926   0.999
20482SOL    HW262888   6.143   3.985   0.859
20483SOL     OW62889   6.593   5.166   0.476
20483SOL    HW162890   6.548   5.240   0.435
20483SOL    HW262891   6.612   5.196   0.565
20484SOL     OW62892   5.931   5.529   0.843
20484SOL    HW162893   5.985   5.466   0.891
20484SOL    HW262894   5.931   5.607   0.898
20485SOL     OW62895   7.389   4.821   0.878
20485SOL    HW162896   7.355   4.775   0.801
20485SOL    HW262897   7.324   4.805   0.947
20486SOL     OW62898   6.813   5.265   1.509
20486SOL    HW162899   6.801   5.193   1.571
20486SOL    HW262900   6.728   5.276   1.468
20487SOL     OW62901   5.908   4.707   0.268
20487SOL    HW162902   5.981   4.716   0.207
20487SOL    HW262903   5.861   4.630   0.238
20488SOL     OW62904   6.064   4.987   1.735
20488SOL    HW162905   6.036   4.989   1.644
20488SOL    HW262906   5.982   4.986   1.785
20489SOL     OW62907   6.680   5.502   0.233
20489SOL    HW162908   6.643   5.462   0.312
20489SOL    HW262909   6.739   5.435   0.198
20490SOL     OW62910   5.775   3.997   1.511
20490SOL    HW162911   5.689   4.034   1.530
20490SOL    HW262912   5.766   3.904   1.532
20491SOL     OW62913   7.229   5.106   0.032
20491SOL    HW162914   7.172   5.181   0.014
20491SOL    HW262915   7.175   5.047   0.084
20492SOL     OW62916   6.045   5.458   0.325
20492SOL    HW162917   6.083   5.521   0.386
20492SOL    HW262918   6.114   5.443   0.260
20493SOL     OW62919   6.991   3.823   0.437
20493SOL    HW162920   6.996   3.786   0.349
20493SOL    HW262921   7.082   3.828   0.467
20494SOL     OW62922   5.808   5.491   1.214
20494SOL    HW162923   5.871   5.538   1.270
20494SOL    HW262924   5.792   5.551   1.141
20495SOL     OW62925   6.547   5.416   0.904
20495SOL    HW162926   6.637   5.396   0.932
20495SOL    HW262927   6.502   5.332   0.906
20496SOL     OW62928   5.977   4.416   0.474
20496SOL    HW162929   5.994   4.322   0.484
20496SOL    HW262930   5.884   4.426   0.493
20497SOL     OW62931   7.111   3.946   1.725
20497SOL    HW162932   7.120   3.969   1.817
20497SOL    HW262933   7.049   3.873   1.725
20498SOL     OW62934   6.210   3.816   0.100
20498SOL    HW162935   6.305   3.826   0.112
20498SOL    HW262936   6.197   3.722   0.094
20499SOL     OW62937   6.349   3.999   1.754
20499SOL    HW162938   6.431   3.948   1.750
20499SOL    HW262939   6.299   3.958   1.825
20500SOL     OW62940   6.466   5.259   1.193
20500SOL    HW162941   6.455   5.218   1.107
20500SOL    HW262942   6.531   5.204   1.238
20501SOL     OW62943   6.922   4.312   1.438
20501SOL    HW162944   6.956   4.280   1.521
20501SOL    HW262945   6.964   4.397   1.425
20502SOL     OW62946   6.406   5.175   0.896
20502SOL    HW162947   6.488   5.127   0.880
20502SOL    HW262948   6.341   5.130   0.842
20503SOL     OW62949   6.511   4.228   0.901
20503SOL    HW162950   6.487   4.219   0.809
20503SOL    HW262951   6.545   4.142   0.925
20504SOL     OW62952   6.138   3.780   0.498
20504SOL    HW162953   6.060   3.782   0.553
20504SOL    HW262954   6.130   3.857   0.442
20505SOL     OW62955   7.018   4.941   0.096
20505SOL    HW162956   7.019   4.876   0.166
20505SOL    HW262957   6.931   4.980   0.101
20506SOL     OW62958   5.895   3.809   0.205
20506SOL    HW162959   5.973   3.863   0.219
20506SOL    HW262960   5.922   3.720   0.228
20507SOL     OW62961   6.530   3.976   0.463
20507SOL    HW162962   6.500   4.014   0.381
20507SOL    HW262963   6.625   3.987   0.462
20508SOL     OW62964   6.668   4.410   1.456
20508SOL    HW162965   6.606   4.337   1.462
20508SOL    HW262966   6.754   4.369   1.451
20509SOL     OW62967   6.809   5.286   0.787
20509SOL    HW162968   6.821   5.361   0.728
20509SOL    HW262969   6.874   5.298   0.856
20510SOL     OW62970   6.049   4.873   0.736
20510SOL    HW162971   5.982   4.844   0.797
20510SOL    HW262972   6.008   4.865   0.650
20511SOL     OW62973   6.839   5.509   0.614
20511SOL    HW162974   6.892   5.573   0.565
20511SOL    HW262975   6.773   5.562   0.659
20512SOL     OW62976   6.588   4.305   0.108
20512SOL    HW162977   6.609   4.297   0.015
20512SOL    HW262978   6.672   4.292   0.153
20513SOL     OW62979   5.666   4.293   1.373
20513SOL    HW162980   5.759   4.277   1.358
20513SOL    HW262981   5.663   4.355   1.446
20514SOL     OW62982   6.142   3.951   1.179
20514SOL    HW162983   6.185   3.885   1.234
20514SOL    HW262984   6.050   3.950   1.206
20515SOL     OW62985   6.446   4.180   0.640
20515SOL    HW162986   6.412   4.238   0.571
20515SOL    HW262987   6.472   4.101   0.593
20516SOL     OW62988   6.609   3.773   0.740
20516SOL    HW162989   6.545   3.770   0.669
20516SOL    HW262990   6.583   3.704   0.800
20517SOL     OW62991   7.019   4.882   0.854
20517SOL    HW162992   6.967   4.802   0.864
20517SOL    HW262993   7.042   4.884   0.761
20518SOL     OW62994   7.004   4.331   1.053
20518SOL    HW162995   6.987   4.247   1.010
20518SOL    HW262996   7.088   4.319   1.097
20519SOL     OW62997   7.402   4.538   0.388
20519SOL    HW162998   7.438   4.499   0.468
20519SOL    HW262999   7.373   4.464   0.336
20520SOL     OW63000   6.083   5.139   0.197
20520SOL    HW163001   6.013   5.092   0.242
20520SOL    HW263002   6.043   5.169   0.116
20521SOL     OW63003   7.264   5.004   0.620
20521SOL    HW163004   7.355   4.993   0.647
20521SOL    HW263005   7.237   5.086   0.661
20522SOL     OW63006   6.987   4.278   0.087
20522SOL    HW163007   6.935   4.282   0.167
20522SOL    HW263008   7.033   4.195   0.092
20523SOL     OW63009   6.110   3.975   0.310
20523SOL    HW163010   6.165   3.932   0.244
20523SOL    HW263011   6.093   4.062   0.273
20524SOL     OW63012   6.629   5.074   1.321
20524SOL    HW163013   6.555   5.046   1.375
20524SOL    HW263014   6.706   5.042   1.366
20525SOL     OW63015   7.201   5.344   1.652
20525SOL    HW163016   7.200   5.381   1.564
20525SOL    HW263017   7.280   5.290   1.655
20526SOL     OW63018   6.722   4.936   1.103
20526SOL    HW163019   6.669   4.979   1.170
20526SOL    HW263020   6.691   4.974   1.021
20527SOL     OW63021   7.203   4.808   1.078
20527SOL    HW163022   7.190   4.872   1.148
20527SOL    HW263023   7.123   4.813   1.025
20528SOL     OW63024   6.512   3.827   1.393
20528SOL    HW163025   6.534   3.805   1.303
20528SOL    HW263026   6.593   3.863   1.429
20529SOL     OW63027   6.584   4.809   1.768
20529SOL    HW163028   6.496   4.844   1.781
20529SOL    HW263029   6.574   4.748   1.695
20530SOL     OW63030   6.298   4.792   0.371
20530SOL    HW163031   6.280   4.768   0.462
20530SOL    HW263032   6.375   4.740   0.348
20531SOL     OW63033   6.004   4.540   1.256
20531SOL    HW163034   6.072   4.551   1.323
20531SOL    HW263035   5.975   4.449   1.266
20532SOL     OW63036   6.850   4.100   1.279
20532SOL    HW163037   6.883   4.178   1.323
20532SOL    HW263038   6.759   4.121   1.257
20533SOL     OW63039   5.662   5.292   1.363
20533SOL    HW163040   5.638   5.364   1.305
20533SOL    HW263041   5.757   5.290   1.361
20534SOL     OW63042   5.924   4.853   0.497
20534SOL    HW163043   5.908   4.930   0.442
20534SOL    HW263044   5.929   4.780   0.436
20535SOL     OW63045   6.133   4.248   0.851
20535SOL    HW163046   6.147   4.310   0.779
20535SOL    HW263047   6.199   4.273   0.917
20536SOL     OW63048   6.834   5.072   0.391
20536SOL    HW163049   6.888   5.145   0.423
20536SOL    HW263050   6.747   5.089   0.427
20537SOL     OW63051   6.882   5.181   1.153
20537SOL    HW163052   6.937   5.192   1.231
20537SOL    HW263053   6.832   5.101   1.169
20538SOL     OW63054   7.163   4.340   0.445
20538SOL    HW163055   7.122   4.357   0.530
20538SOL    HW263056   7.193   4.427   0.416
20539SOL     OW63057   5.933   5.221   1.318
20539SOL    HW163058   5.916   5.201   1.226
20539SOL    HW263059   6.020   5.262   1.317
20540SOL     OW63060   6.000   4.472   1.605
20540SOL    HW163061   6.069   4.507   1.549
20540SOL    HW263062   6.021   4.379   1.613
20541SOL     OW63063   7.201   4.518   1.682
20541SOL    HW163064   7.111   4.550   1.676
20541SOL    HW263065   7.249   4.565   1.614
20542SOL     OW63066   6.582   3.862   1.746
20542SOL    HW163067   6.642   3.934   1.729
20542SOL    HW263068   6.633   3.783   1.727
20543SOL     OW63069   6.075   3.773   1.755
20543SOL    HW163070   6.038   3.730   1.678
20543SOL    HW263071   6.017   3.847   1.772
20544SOL     OW63072   6.139   4.618   1.025
20544SOL    HW163073   6.198   4.691   1.044
20544SOL    HW263074   6.102   4.594   1.111
20545SOL     OW63075   6.935   4.590   1.016
20545SOL    HW163076   6.887   4.578   0.934
20545SOL    HW263077   6.970   4.503   1.036
20546SOL     OW63078   6.801   4.268   0.284
20546SOL    HW163079   6.813   4.191   0.340
20546SOL    HW263080   6.746   4.326   0.336
20547SOL     OW63081   5.877   3.931   1.246
20547SOL    HW163082   5.843   3.959   1.332
20547SOL    HW263083   5.861   3.837   1.243
20548SOL     OW63084   5.653   5.035   1.273
20548SOL    HW163085   5.676   4.979   1.348
20548SOL    HW263086   5.648   5.123   1.310
20549SOL     OW63087   6.303   4.349   1.042
20549SOL    HW163088   6.383   4.323   0.996
20549SOL    HW263089   6.292   4.442   1.019
20550SOL     OW63090   7.311   4.699   1.861
20550SOL    HW163091   7.272   4.628   1.810
20550SOL    HW263092   7.253   4.709   1.936
20551SOL     OW63093   5.894   3.789   0.625
20551SOL    HW163094   5.868   3.879   0.648
20551SOL    HW263095   5.903   3.744   0.709
20552SOL     OW63096   7.212   4.085   0.360
20552SOL    HW163097   7.237   4.022   0.428
20552SOL    HW263098   7.184   4.162   0.409
20553SOL     OW63099   6.596   4.484   0.953
20553SOL    HW163100   6.602   4.500   1.047
20553SOL    HW263101   6.582   4.389   0.946
20554SOL     OW63102   6.568   5.291   1.724
20554SOL    HW163103   6.558   5.336   1.640
20554SOL    HW263104   6.606   5.206   1.702
20555SOL     OW63105   7.458   5.204   1.600
20555SOL    HW163106   7.463   5.239   1.511
20555SOL    HW263107   7.527   5.250   1.648
20556SOL     OW63108   5.941   4.652   1.805
20556SOL    HW163109   6.020   4.663   1.859
20556SOL    HW263110   5.965   4.585   1.741
20557SOL     OW63111   7.074   4.019   0.136
20557SOL    HW163112   7.034   3.933   0.148
20557SOL    HW263113   7.125   4.033   0.215
20558SOL     OW63114   6.870   4.523   0.021
20558SOL    HW163115   6.917   4.442   0.039
20558SOL    HW263116   6.910   4.558  -0.058
20559SOL     OW63117   6.646   5.062   0.860
20559SOL    HW163118   6.651   4.987   0.801
20559SOL    HW263119   6.714   5.121   0.829
20560SOL     OW63120   5.892   4.505   0.941
20560SOL    HW163121   5.982   4.538   0.944
20560SOL    HW263122   5.900   4.414   0.969
20561SOL     OW63123   5.917   4.244   1.008
20561SOL    HW163124   5.880   4.156   1.000
20561SOL    HW263125   5.994   4.242   0.952
20562SOL     OW63126   6.723   4.099   1.683
20562SOL    HW163127   6.675   4.151   1.748
20562SOL    HW263128   6.810   4.138   1.681
20563SOL     OW63129   6.757   3.923   1.472
20563SOL    HW163130   6.743   3.985   1.543
20563SOL    HW263131   6.798   3.974   1.402
20564SOL     OW63132   5.665   5.491   0.944
20564SOL    HW163133   5.639   5.413   0.895
20564SOL    HW263134   5.747   5.519   0.902
20565SOL     OW63135   6.101   5.305   0.906
20565SOL    HW163136   6.154   5.349   0.973
20565SOL    HW263137   6.113   5.211   0.924
20566SOL     OW63138   6.551   4.515   1.227
20566SOL    HW163139   6.619   4.496   1.291
20566SOL    HW263140   6.475   4.464   1.256
20567SOL     OW63141   5.632   4.317   1.103
20567SOL    HW163142   5.702   4.263   1.065
20567SOL    HW263143   5.644   4.308   1.197
20568SOL     OW63144   5.770   4.248   1.733
20568SOL    HW163145   5.802   4.183   1.671
20568SOL    HW263146   5.735   4.318   1.678
20569SOL     OW63147   6.960   4.652   1.652
20569SOL    HW163148   6.976   4.746   1.648
20569SOL    HW263149   6.962   4.624   1.560
20570SOL     OW63150   6.393   4.301   0.385
20570SOL    HW163151   6.405   4.227   0.326
20570SOL    HW263152   6.320   4.350   0.347
20571SOL     OW63153   7.240   4.321   1.190
20571SOL    HW163154   7.237   4.258   1.261
20571SOL    HW263155   7.326   4.308   1.149
20572SOL     OW63156   5.810   5.271   1.721
20572SOL    HW163157   5.791   5.337   1.788
20572SOL    HW263158   5.822   5.190   1.770
20573SOL     OW63159   6.306   4.170   1.250
20573SOL    HW163160   6.245   4.098   1.234
20573SOL    HW263161   6.290   4.231   1.178
20574SOL     OW63162   6.529   5.395   1.464
20574SOL    HW163163   6.479   5.368   1.387
20574SOL    HW263164   6.524   5.490   1.464
20575SOL     OW63165   6.062   4.205   0.181
20575SOL    HW163166   6.109   4.282   0.213
20575SOL    HW263167   5.992   4.240   0.126
20576SOL     OW63168   5.735   4.858   1.468
20576SOL    HW163169   5.730   4.811   1.550
20576SOL    HW263170   5.747   4.790   1.401
20577SOL     OW63171   6.901   4.763   1.218
20577SOL    HW163172   6.920   4.698   1.150
20577SOL    HW263173   6.837   4.821   1.178
20578SOL     OW63174   6.889   4.587   0.307
20578SOL    HW163175   6.849   4.566   0.391
20578SOL    HW263176   6.850   4.527   0.245
20579SOL     OW63177   7.365   5.465   1.154
20579SOL    HW163178   7.427   5.490   1.085
20579SOL    HW263179   7.337   5.377   1.131
20580SOL     OW63180   6.815   5.440   1.072
20580SOL    HW163181   6.900   5.472   1.044
20580SOL    HW263182   6.833   5.355   1.112
20581SOL     OW63183   5.678   4.989   1.014
20581SOL    HW163184   5.668   5.001   1.109
20581SOL    HW263185   5.589   4.994   0.980
20582SOL     OW63186   6.260   5.396   1.742
20582SOL    HW163187   6.199   5.469   1.737
20582SOL    HW263188   6.337   5.426   1.694
20583SOL     OW63189   6.480   3.817   0.125
20583SOL    HW163190   6.491   3.744   0.064
20583SOL    HW263191   6.565   3.824   0.168
20584SOL     OW63192   7.307   3.871   0.512
20584SOL    HW163193   7.378   3.848   0.452
20584SOL    HW263194   7.285   3.790   0.556
20585SOL     OW63195   6.970   5.294   0.484
20585SOL    HW163196   7.037   5.331   0.425
20585SOL    HW263197   6.927   5.371   0.521
20586SOL     OW63198   5.731   5.523   1.844
20586SOL    HW163199   5.679   5.459   1.893
20586SOL    HW263200   5.780   5.571   1.912
20587SOL     OW63201   6.856   4.678   0.679
20587SOL    HW163202   6.926   4.613   0.688
20587SOL    HW263203   6.893   4.745   0.622
20588SOL     OW63204   6.383   5.002   1.424
20588SOL    HW163205   6.362   5.045   1.506
20588SOL    HW263206   6.303   5.009   1.372
20589SOL     OW63207   6.269   5.327   0.131
20589SOL    HW163208   6.205   5.352   0.064
20589SOL    HW263209   6.232   5.247   0.170
20590SOL     OW63210   7.213   5.453   1.393
20590SOL    HW163211   7.263   5.461   1.312
20590SOL    HW263212   7.196   5.544   1.420
20591SOL     OW63213   7.431   3.897   0.962
20591SOL    HW163214   7.460   3.809   0.938
20591SOL    HW263215   7.342   3.903   0.927
20592SOL     OW63216   5.833   4.040   0.716
20592SOL    HW163217   5.743   4.064   0.697
20592SOL    HW263218   5.835   4.029   0.811
20593SOL     OW63219   6.788   5.311   0.074
20593SOL    HW163220   6.789   5.219   0.099
20593SOL    HW263221   6.710   5.319   0.019
20594SOL     OW63222   6.406   4.729   1.377
20594SOL    HW163223   6.460   4.714   1.299
20594SOL    HW263224   6.408   4.824   1.389
20595SOL     OW63225   6.517   4.654   0.296
20595SOL    HW163226   6.579   4.676   0.227
20595SOL    HW263227   6.554   4.578   0.340
20596SOL     OW63228   7.048   5.301  -0.003
20596SOL    HW163229   6.962   5.324   0.033
20596SOL    HW263230   7.102   5.379   0.011
20597SOL     OW63231   5.963   5.012   1.488
20597SOL    HW163232   5.949   5.091   1.436
20597SOL    HW263233   5.881   4.963   1.480
20598SOL     OW63234   7.183   5.009   1.263
20598SOL    HW163235   7.271   5.014   1.300
20598SOL    HW263236   7.133   5.076   1.311
20599SOL     OW63237   6.635   4.840   0.711
20599SOL    HW163238   6.565   4.783   0.745
20599SOL    HW263239   6.708   4.780   0.694
20600SOL     OW63240   6.608   3.964   0.965
20600SOL    HW163241   6.607   3.917   0.881
20600SOL    HW263242   6.603   3.895   1.031
20601SOL     OW63243   6.190   5.246   0.484
20601SOL    HW163244   6.236   5.186   0.425
20601SOL    HW263245   6.110   5.270   0.437
20602SOL     OW63246   7.307   4.112   1.381
20602SOL    HW163247   7.379   4.174   1.385
20602SOL    HW263248   7.337   4.043   1.322
20603SOL     OW63249   5.853   5.056   0.318
20603SOL    HW163250   5.774   5.073   0.267
20603SOL    HW263251   5.840   5.105   0.399
20604SOL     OW63252   5.696   4.747   1.714
20604SOL    HW163253   5.621   4.729   1.770
20604SOL    HW263254   5.771   4.716   1.764
20605SOL     OW63255   6.275   3.939   1.490
20605SOL    HW163256   6.363   3.917   1.458
20605SOL    HW263257   6.287   3.956   1.583
20606SOL     OW63258   7.008   4.579   1.396
20606SOL    HW163259   6.958   4.638   1.340
20606SOL    HW263260   7.096   4.578   1.357
20607SOL     OW63261   5.649   3.869   0.308
20607SOL    HW163262   5.649   3.965   0.305
20607SOL    HW263263   5.735   3.844   0.275
20608SOL     OW63264   6.773   5.048   0.126
20608SOL    HW163265   6.679   5.035   0.112
20608SOL    HW263266   6.783   5.043   0.221
20609SOL     OW63267   6.205   4.554   1.436
20609SOL    HW163268   6.263   4.628   1.422
20609SOL    HW263269   6.264   4.478   1.443
20610SOL     OW63270   7.068   5.509   0.981
20610SOL    HW163271   7.090   5.587   0.929
20610SOL    HW263272   7.151   5.482   1.020
20611SOL     OW63273   6.325   4.268   1.708
20611SOL    HW163274   6.302   4.299   1.795
20611SOL    HW263275   6.335   4.173   1.717
20612SOL     OW63276   7.027   4.919   1.636
20612SOL    HW163277   7.011   4.932   1.729
20612SOL    HW263278   7.120   4.940   1.624
20613SOL     OW63279   5.952   5.458   1.562
20613SOL    HW163280   5.872   5.508   1.550
20613SOL    HW263281   5.924   5.377   1.604
20614SOL     OW63282   7.246   4.594   1.258
20614SOL    HW163283   7.247   4.506   1.220
20614SOL    HW263284   7.236   4.652   1.182
20615SOL     OW63285   6.813   4.039   0.440
20615SOL    HW163286   6.870   3.962   0.442
20615SOL    HW263287   6.832   4.085   0.522
20616SOL     OW63288   6.166   4.459   0.673
20616SOL    HW163289   6.210   4.543   0.657
20616SOL    HW263290   6.104   4.450   0.600
20617SOL     OW63291   7.337   4.090   1.654
20617SOL    HW163292   7.322   4.106   1.561
20617SOL    HW263293   7.268   4.030   1.681
20618SOL     OW63294   7.332   4.676   1.502
20618SOL    HW163295   7.401   4.741   1.485
20618SOL    HW263296   7.304   4.647   1.416
20619SOL     OW63297   6.503   5.078   0.065
20619SOL    HW163298   6.451   5.065   0.144
20619SOL    HW263299   6.461   5.151   0.020
20620SOL     OW63300   6.282   5.518   0.859
20620SOL    HW163301   6.244   5.605   0.872
20620SOL    HW263302   6.364   5.520   0.908
20621SOL     OW63303   6.448   4.691   0.849
20621SOL    HW163304   6.500   4.617   0.880
20621SOL    HW263305   6.405   4.726   0.927
20622SOL     OW63306   6.682   4.723   0.082
20622SOL    HW163307   6.690   4.767  -0.002
20622SOL    HW263308   6.758   4.666   0.087
20623SOL     OW63309   7.437   5.276   0.837
20623SOL    HW163310   7.352   5.265   0.794
20623SOL    HW263311   7.437   5.212   0.908
20624SOL     OW63312   5.825   5.024   1.860
20624SOL    HW163313   5.752   4.965   1.840
20624SOL    HW263314   5.816   5.043   1.954
20625SOL     OW63315   5.678   4.963   0.667
20625SOL    HW163316   5.703   4.921   0.749
20625SOL    HW263317   5.725   4.913   0.600
20626SOL     OW63318   6.272   5.137   1.632
20626SOL    HW163319   6.195   5.093   1.668
20626SOL    HW263320   6.268   5.225   1.669
20627SOL     OW63321   7.392   3.910   1.232
20627SOL    HW163322   7.404   3.817   1.251
20627SOL    HW263323   7.408   3.917   1.138
20628SOL     OW63324   6.001   4.154   0.521
20628SOL    HW163325   6.045   4.084   0.472
20628SOL    HW263326   5.959   4.110   0.594
20629SOL     OW63327   7.279   5.217   1.083
20629SOL    HW163328   7.200   5.196   1.033
20629SOL    HW263329   7.287   5.146   1.146
20630SOL     OW63330   5.928   4.280   1.293
20630SOL    HW163331   5.973   4.220   1.352
20630SOL    HW263332   5.942   4.242   1.206
20631SOL     OW63333   7.017   3.953   1.120
20631SOL    HW163334   7.049   3.880   1.174
20631SOL    HW263335   6.965   4.005   1.181
20632SOL     OW63336   6.597   3.743   1.137
20632SOL    HW163337   6.535   3.675   1.113
20632SOL    HW263338   6.683   3.701   1.129
20633SOL     OW63339   6.379   5.053   0.315
20633SOL    HW163340   6.339   4.967   0.328
20633SOL    HW263341   6.451   5.056   0.376
20634SOL     OW63342   6.206   5.289   1.272
20634SOL    HW163343   6.199   5.366   1.328
20634SOL    HW263344   6.299   5.282   1.251
20635SOL     OW63345   6.952   3.758   0.161
20635SOL    HW163346   6.940   3.719   0.075
20635SOL    HW263347   6.869   3.746   0.206
20636SOL     OW63348   6.887   4.171   0.668
20636SOL    HW163349   6.881   4.266   0.681
20636SOL    HW263350   6.877   4.135   0.756
20637SOL     OW63351   7.169   3.921   0.886
20637SOL    HW163352   7.116   3.941   0.963
20637SOL    HW263353   7.170   4.003   0.836
20638SOL     OW63354   5.632   4.806   0.354
20638SOL    HW163355   5.718   4.807   0.312
20638SOL    HW263356   5.619   4.714   0.379
20639SOL     OW63357   6.463   5.375   0.361
20639SOL    HW163358   6.390   5.359   0.301
20639SOL    HW263359   6.432   5.446   0.417
20640SOL     OW63360   5.804   4.350   1.993
20640SOL    HW163361   5.719   4.341   2.035
20640SOL    HW263362   5.788   4.325   1.902
20641SOL     OW63363   5.803   3.999   2.854
20641SOL    HW163364   5.838   3.974   2.939
20641SOL    HW263365   5.708   3.990   2.864
20642SOL     OW63366   5.574   4.102   2.511
20642SOL    HW163367   5.496   4.140   2.552
20642SOL    HW263368   5.540   4.029   2.459
20643SOL     OW63369   6.158   5.023   3.048
20643SOL    HW163370   6.072   5.027   3.008
20643SOL    HW263371   6.172   5.110   3.084
20644SOL     OW63372   7.135   5.242   2.562
20644SOL    HW163373   7.107   5.221   2.651
20644SOL    HW263374   7.054   5.245   2.511
20645SOL     OW63375   6.720   4.420   2.557
20645SOL    HW163376   6.767   4.503   2.547
20645SOL    HW263377   6.674   4.428   2.640
20646SOL     OW63378   7.376   4.313   2.080
20646SOL    HW163379   7.341   4.310   1.991
20646SOL    HW263380   7.330   4.243   2.127
20647SOL     OW63381   6.330   4.861   2.908
20647SOL    HW163382   6.263   4.897   2.966
20647SOL    HW263383   6.372   4.938   2.870
20648SOL     OW63384   6.465   4.481   3.691
20648SOL    HW163385   6.429   4.546   3.752
20648SOL    HW263386   6.482   4.531   3.611
20649SOL     OW63387   6.274   4.719   2.504
20649SOL    HW163388   6.339   4.713   2.574
20649SOL    HW263389   6.204   4.773   2.540
20650SOL     OW63390   6.305   4.876   3.680
20650SOL    HW163391   6.347   4.955   3.713
20650SOL    HW263392   6.222   4.907   3.643
20651SOL     OW63393   5.925   5.129   2.926
20651SOL    HW163394   5.843   5.096   2.889
20651SOL    HW263395   5.958   5.191   2.861
20652SOL     OW63396   7.047   5.224   3.229
20652SOL    HW163397   7.099   5.304   3.235
20652SOL    HW263398   6.971   5.240   3.285
20653SOL     OW63399   6.040   4.102   3.318
20653SOL    HW163400   6.112   4.044   3.343
20653SOL    HW263401   5.963   4.063   3.359
20654SOL     OW63402   7.185   4.166   2.607
20654SOL    HW163403   7.105   4.179   2.557
20654SOL    HW263404   7.182   4.233   2.676
20655SOL     OW63405   5.832   5.424   2.346
20655SOL    HW163406   5.831   5.507   2.394
20655SOL    HW263407   5.896   5.437   2.277
20656SOL     OW63408   6.741   5.049   3.550
20656SOL    HW163409   6.759   5.064   3.643
20656SOL    HW263410   6.679   4.976   3.549
20657SOL     OW63411   5.821   5.158   2.397
20657SOL    HW163412   5.812   5.253   2.396
20657SOL    HW263413   5.762   5.128   2.466
20658SOL     OW63414   5.860   4.816   2.753
20658SOL    HW163415   5.849   4.729   2.792
20658SOL    HW263416   5.802   4.872   2.804
20659SOL     OW63417   6.195   5.507   3.304
20659SOL    HW163418   6.109   5.491   3.344
20659SOL    HW263419   6.214   5.598   3.323
20660SOL     OW63420   6.168   4.705   1.998
20660SOL    HW163421   6.214   4.758   1.933
20660SOL    HW263422   6.200   4.737   2.082
20661SOL     OW63423   7.191   3.815   3.325
20661SOL    HW163424   7.218   3.893   3.275
20661SOL    HW263425   7.164   3.849   3.410
20662SOL     OW63426   5.708   4.384   2.424
20662SOL    HW163427   5.672   4.299   2.448
20662SOL    HW263428   5.697   4.438   2.502
20663SOL     OW63429   7.433   5.474   2.178
20663SOL    HW163430   7.489   5.448   2.252
20663SOL    HW263431   7.448   5.569   2.170
20664SOL     OW63432   5.623   5.310   1.972
20664SOL    HW163433   5.604   5.220   1.997
20664SOL    HW263434   5.598   5.362   2.048
20665SOL     OW63435   7.268   4.617   2.487
20665SOL    HW163436   7.359   4.607   2.514
20665SOL    HW263437   7.270   4.683   2.418
20666SOL     OW63438   7.244   4.835   2.295
20666SOL    HW163439   7.332   4.834   2.256
20666SOL    HW263440   7.251   4.896   2.368
20667SOL     OW63441   5.697   4.474   3.439
20667SOL    HW163442   5.778   4.519   3.460
20667SOL    HW263443   5.631   4.544   3.436
20668SOL     OW63444   6.211   5.115   2.598
20668SOL    HW163445   6.165   5.033   2.611
20668SOL    HW263446   6.190   5.141   2.509
20669SOL     OW63447   6.855   4.961   3.270
20669SOL    HW163448   6.898   4.895   3.216
20669SOL    HW263449   6.862   4.927   3.359
20670SOL     OW63450   6.408   3.730   2.369
20670SOL    HW163451   6.447   3.816   2.350
20670SOL    HW263452   6.315   3.748   2.376
20671SOL     OW63453   5.775   4.686   3.140
20671SOL    HW163454   5.857   4.641   3.121
20671SOL    HW263455   5.706   4.625   3.113
20672SOL     OW63456   7.105   4.735   2.072
20672SOL    HW163457   7.031   4.686   2.106
20672SOL    HW263458   7.154   4.762   2.150
20673SOL     OW63459   6.777   5.546   3.491
20673SOL    HW163460   6.778   5.609   3.419
20673SOL    HW263461   6.794   5.462   3.449
20674SOL     OW63462   5.932   3.982   3.677
20674SOL    HW163463   5.966   4.066   3.708
20674SOL    HW263464   5.840   3.983   3.702
20675SOL     OW63465   7.053   5.142   2.809
20675SOL    HW163466   6.988   5.159   2.878
20675SOL    HW263467   7.041   5.049   2.788
20676SOL     OW63468   7.249   5.472   2.434
20676SOL    HW163469   7.209   5.445   2.351
20676SOL    HW263470   7.224   5.403   2.495
20677SOL     OW63471   6.173   4.441   2.132
20677SOL    HW163472   6.167   4.528   2.093
20677SOL    HW263473   6.110   4.443   2.204
20678SOL     OW63474   6.863   4.089   2.792
20678SOL    HW163475   6.774   4.057   2.802
20678SOL    HW263476   6.915   4.036   2.852
20679SOL     OW63477   7.170   5.378   2.171
20679SOL    HW163478   7.259   5.413   2.165
20679SOL    HW263479   7.141   5.371   2.080
20680SOL     OW63480   6.386   4.341   3.305
20680SOL    HW163481   6.361   4.316   3.393
20680SOL    HW263482   6.350   4.272   3.249
20681SOL     OW63483   6.981   4.199   3.541
20681SOL    HW163484   6.983   4.242   3.627
20681SOL    HW263485   7.036   4.122   3.552
20682SOL     OW63486   6.536   4.611   3.450
20682SOL    HW163487   6.590   4.542   3.411
20682SOL    HW263488   6.487   4.648   3.376
20683SOL     OW63489   6.586   4.131   3.092
20683SOL    HW163490   6.498   4.151   3.124
20683SOL    HW263491   6.571   4.082   3.011
20684SOL     OW63492   6.638   4.420   2.293
20684SOL    HW163493   6.657   4.412   2.386
20684SOL    HW263494   6.555   4.374   2.281
20685SOL     OW63495   5.674   4.559   2.631
20685SOL    HW163496   5.753   4.547   2.685
20685SOL    HW263497   5.626   4.629   2.674
20686SOL     OW63498   5.711   5.599   3.444
20686SOL    HW163499   5.715   5.577   3.537
20686SOL    HW263500   5.628   5.562   3.413
20687SOL     OW63501   6.476   4.073   2.058
20687SOL    HW163502   6.525   4.125   1.994
20687SOL    HW263503   6.457   3.991   2.013
20688SOL     OW63504   7.298   4.288   3.694
20688SOL    HW163505   7.263   4.364   3.646
20688SOL    HW263506   7.323   4.226   3.626
20689SOL     OW63507   6.968   4.862   2.393
20689SOL    HW163508   7.056   4.872   2.356
20689SOL    HW263509   6.917   4.932   2.351
20690SOL     OW63510   6.134   3.906   2.767
20690SOL    HW163511   6.139   3.928   2.860
20690SOL    HW263512   6.133   3.991   2.722
20691SOL     OW63513   6.574   5.162   2.328
20691SOL    HW163514   6.552   5.241   2.278
20691SOL    HW263515   6.552   5.184   2.419
20692SOL     OW63516   5.947   5.544   2.708
20692SOL    HW163517   5.982   5.457   2.728
20692SOL    HW263518   6.011   5.604   2.746
20693SOL     OW63519   7.372   4.772   2.725
20693SOL    HW163520   7.306   4.800   2.661
20693SOL    HW263521   7.327   4.780   2.809
20694SOL     OW63522   6.814   5.267   3.373
20694SOL    HW163523   6.796   5.194   3.432
20694SOL    HW263524   6.731   5.284   3.329
20695SOL     OW63525   5.893   4.686   2.120
20695SOL    HW163526   5.971   4.698   2.065
20695SOL    HW263527   5.863   4.597   2.099
20696SOL     OW63528   7.059   4.471   2.580
20696SOL    HW163529   7.063   4.433   2.668
20696SOL    HW263530   7.139   4.521   2.572
20697SOL     OW63531   6.061   4.992   3.595
20697SOL    HW163532   6.032   4.999   3.504
20697SOL    HW263533   5.979   4.983   3.645
20698SOL     OW63534   6.700   5.507   2.070
20698SOL    HW163535   6.633   5.462   2.122
20698SOL    HW263536   6.739   5.438   2.017
20699SOL     OW63537   5.777   4.009   3.374
20699SOL    HW163538   5.691   4.051   3.375
20699SOL    HW263539   5.768   3.933   3.431
20700SOL     OW63540   7.224   5.093   1.908
20700SOL    HW163541   7.188   5.181   1.915
20700SOL    HW263542   7.148   5.035   1.910
20701SOL     OW63543   6.053   5.461   2.176
20701SOL    HW163544   6.095   5.514   2.245
20701SOL    HW263545   6.127   5.424   2.128
20702SOL     OW63546   6.987   3.835   2.305
20702SOL    HW163547   6.982   3.806   2.214
20702SOL    HW263548   7.081   3.838   2.324
20703SOL     OW63549   5.844   5.517   3.082
20703SOL    HW163550   5.885   5.436   3.111
20703SOL    HW263551   5.801   5.494   3.000
20704SOL     OW63552   6.528   5.426   2.758
20704SOL    HW163553   6.601   5.376   2.794
20704SOL    HW263554   6.492   5.371   2.688
20705SOL     OW63555   5.982   4.415   2.330
20705SOL    HW163556   5.996   4.322   2.348
20705SOL    HW263557   5.890   4.430   2.353
20706SOL     OW63558   7.107   3.940   3.582
20706SOL    HW163559   7.121   3.959   3.675
20706SOL    HW263560   7.028   3.885   3.580
20707SOL     OW63561   6.239   3.840   1.959
20707SOL    HW163562   6.280   3.758   1.988
20707SOL    HW263563   6.179   3.813   1.889
20708SOL     OW63564   6.349   4.001   3.616
20708SOL    HW163565   6.431   3.951   3.613
20708SOL    HW263566   6.300   3.963   3.689
20709SOL     OW63567   6.461   5.253   3.050
20709SOL    HW163568   6.439   5.212   2.967
20709SOL    HW263569   6.526   5.195   3.089
20710SOL     OW63570   6.926   4.314   3.296
20710SOL    HW163571   6.956   4.282   3.381
20710SOL    HW263572   6.960   4.403   3.291
20711SOL     OW63573   6.412   5.110   2.810
20711SOL    HW163574   6.495   5.099   2.765
20711SOL    HW263575   6.347   5.119   2.740
20712SOL     OW63576   6.524   4.234   2.762
20712SOL    HW163577   6.498   4.223   2.670
20712SOL    HW263578   6.547   4.146   2.791
20713SOL     OW63579   6.140   3.786   2.353
20713SOL    HW163580   6.065   3.787   2.412
20713SOL    HW263581   6.128   3.864   2.299
20714SOL     OW63582   7.002   4.930   1.907
20714SOL    HW163583   7.034   4.860   1.964
20714SOL    HW263584   6.924   4.964   1.951
20715SOL     OW63585   5.872   3.771   2.044
20715SOL    HW163586   5.930   3.831   1.998
20715SOL    HW263587   5.930   3.708   2.087
20716SOL     OW63588   6.529   3.979   2.316
20716SOL    HW163589   6.508   4.013   2.229
20716SOL    HW263590   6.624   3.992   2.324
20717SOL     OW63591   6.666   4.413   3.317
20717SOL    HW163592   6.595   4.348   3.324
20717SOL    HW263593   6.746   4.360   3.316
20718SOL     OW63594   6.812   5.285   2.648
20718SOL    HW163595   6.818   5.357   2.585
20718SOL    HW263596   6.871   5.311   2.719
20719SOL     OW63597   6.066   4.877   2.587
20719SOL    HW163598   6.000   4.859   2.655
20719SOL    HW263599   6.018   4.866   2.505
20720SOL     OW63600   6.844   5.504   2.478
20720SOL    HW163601   6.898   5.558   2.420
20720SOL    HW263602   6.781   5.566   2.516
20721SOL     OW63603   6.618   4.255   1.893
20721SOL    HW163604   6.582   4.343   1.879
20721SOL    HW263605   6.677   4.265   1.967
20722SOL     OW63606   5.670   4.291   3.242
20722SOL    HW163607   5.764   4.289   3.224
20722SOL    HW263608   5.660   4.355   3.313
20723SOL     OW63609   6.144   3.948   3.040
20723SOL    HW163610   6.187   3.885   3.098
20723SOL    HW263611   6.053   3.948   3.069
20724SOL     OW63612   6.457   4.184   2.502
20724SOL    HW163613   6.388   4.232   2.457
20724SOL    HW263614   6.474   4.108   2.446
20725SOL     OW63615   6.613   3.771   2.601
20725SOL    HW163616   6.548   3.766   2.532
20725SOL    HW263617   6.589   3.700   2.662
20726SOL     OW63618   7.030   4.878   2.726
20726SOL    HW163619   6.959   4.813   2.733
20726SOL    HW263620   7.041   4.891   2.632
20727SOL     OW63621   7.053   4.331   2.823
20727SOL    HW163622   6.991   4.259   2.834
20727SOL    HW263623   7.110   4.325   2.900
20728SOL     OW63624   7.432   4.531   2.232
20728SOL    HW163625   7.481   4.487   2.301
20728SOL    HW263626   7.408   4.462   2.170
20729SOL     OW63627   6.078   5.141   2.019
20729SOL    HW163628   6.001   5.122   2.072
20729SOL    HW263629   6.063   5.096   1.937
20730SOL     OW63630   7.262   4.995   2.510
20730SOL    HW163631   7.356   4.999   2.528
20730SOL    HW263632   7.230   5.082   2.532
20731SOL     OW63633   6.978   4.307   1.938
20731SOL    HW163634   6.919   4.275   2.006
20731SOL    HW263635   7.064   4.275   1.964
20732SOL     OW63636   6.114   3.988   2.167
20732SOL    HW163637   6.164   3.943   2.099
20732SOL    HW263638   6.084   4.068   2.126
20733SOL     OW63639   7.344   4.997   3.467
20733SOL    HW163640   7.409   4.935   3.433
20733SOL    HW263641   7.387   5.082   3.462
20734SOL     OW63642   6.628   5.072   3.174
20734SOL    HW163643   6.553   5.045   3.227
20734SOL    HW263644   6.704   5.038   3.221
20735SOL     OW63645   7.185   5.278   3.523
20735SOL    HW163646   7.158   5.335   3.452
20735SOL    HW263647   7.281   5.280   3.521
20736SOL     OW63648   6.714   4.924   2.955
20736SOL    HW163649   6.662   4.969   3.021
20736SOL    HW263650   6.691   4.968   2.873
20737SOL     OW63651   7.206   4.815   2.939
20737SOL    HW163652   7.195   4.875   3.013
20737SOL    HW263653   7.135   4.837   2.879
20738SOL     OW63654   6.503   3.821   3.249
20738SOL    HW163655   6.528   3.803   3.158
20738SOL    HW263656   6.581   3.860   3.288
20739SOL     OW63657   6.572   4.838   3.587
20739SOL    HW163658   6.483   4.858   3.616
20739SOL    HW263659   6.563   4.759   3.535
20740SOL     OW63660   6.301   4.779   2.231
20740SOL    HW163661   6.277   4.765   2.323
20740SOL    HW263662   6.379   4.725   2.218
20741SOL     OW63663   6.010   4.540   3.110
20741SOL    HW163664   6.073   4.555   3.180
20741SOL    HW263665   5.974   4.453   3.126
20742SOL     OW63666   6.852   4.101   3.141
20742SOL    HW163667   6.883   4.178   3.189
20742SOL    HW263668   6.761   4.121   3.121
20743SOL     OW63669   5.657   5.304   3.223
20743SOL    HW163670   5.622   5.371   3.163
20743SOL    HW263671   5.751   5.305   3.208
20744SOL     OW63672   5.934   4.844   2.349
20744SOL    HW163673   5.913   4.924   2.300
20744SOL    HW263674   5.922   4.774   2.285
20745SOL     OW63675   6.132   4.244   2.713
20745SOL    HW163676   6.148   4.304   2.641
20745SOL    HW263677   6.193   4.272   2.782
20746SOL     OW63678   6.823   5.071   2.250
20746SOL    HW163679   6.879   5.144   2.277
20746SOL    HW263680   6.738   5.091   2.289
20747SOL     OW63681   6.878   5.186   3.016
20747SOL    HW163682   6.938   5.192   3.090
20747SOL    HW263683   6.813   5.122   3.043
20748SOL     OW63684   7.155   4.358   2.338
20748SOL    HW163685   7.107   4.386   2.415
20748SOL    HW263686   7.222   4.425   2.325
20749SOL     OW63687   5.927   5.262   3.162
20749SOL    HW163688   5.917   5.208   3.083
20749SOL    HW263689   6.022   5.270   3.173
20750SOL     OW63690   6.007   4.479   3.470
20750SOL    HW163691   6.074   4.510   3.410
20750SOL    HW263692   6.031   4.388   3.488
20751SOL     OW63693   7.199   4.500   3.556
20751SOL    HW163694   7.109   4.531   3.552
20751SOL    HW263695   7.244   4.547   3.485
20752SOL     OW63696   6.582   3.860   3.613
20752SOL    HW163697   6.643   3.931   3.595
20752SOL    HW263698   6.634   3.780   3.599
20753SOL     OW63699   6.081   3.762   3.610
20753SOL    HW163700   6.028   3.709   3.551
20753SOL    HW263701   6.027   3.839   3.629
20754SOL     OW63702   6.170   4.597   2.894
20754SOL    HW163703   6.200   4.688   2.898
20754SOL    HW263704   6.113   4.587   2.971
20755SOL     OW63705   6.924   4.581   2.871
20755SOL    HW163706   6.833   4.556   2.853
20755SOL    HW263707   6.973   4.499   2.864
20756SOL     OW63708   6.780   4.257   2.125
20756SOL    HW163709   6.794   4.177   2.175
20756SOL    HW263710   6.735   4.316   2.185
20757SOL     OW63711   5.879   3.923   3.109
20757SOL    HW163712   5.843   3.964   3.188
20757SOL    HW263713   5.834   3.840   3.102
20758SOL     OW63714   5.662   5.041   3.135
20758SOL    HW163715   5.679   4.982   3.208
20758SOL    HW263716   5.645   5.126   3.176
20759SOL     OW63717   6.296   4.349   2.906
20759SOL    HW163718   6.379   4.346   2.859
20759SOL    HW263719   6.267   4.440   2.897
20760SOL     OW63720   7.309   4.699   3.720
20760SOL    HW163721   7.274   4.624   3.672
20760SOL    HW263722   7.253   4.708   3.796
20761SOL     OW63723   5.903   3.783   2.496
20761SOL    HW163724   5.877   3.874   2.514
20761SOL    HW263725   5.900   3.740   2.581
20762SOL     OW63726   7.209   4.114   2.216
20762SOL    HW163727   7.235   4.047   2.280
20762SOL    HW263728   7.182   4.188   2.270
20763SOL     OW63729   6.622   4.481   2.821
20763SOL    HW163730   6.607   4.499   2.914
20763SOL    HW263731   6.593   4.390   2.809
20764SOL     OW63732   6.578   5.293   3.579
20764SOL    HW163733   6.557   5.339   3.498
20764SOL    HW263734   6.584   5.201   3.553
20765SOL     OW63735   7.450   5.242   3.461
20765SOL    HW163736   7.472   5.270   3.372
20765SOL    HW263737   7.527   5.264   3.513
20766SOL     OW63738   5.943   4.650   3.674
20766SOL    HW163739   6.024   4.658   3.725
20766SOL    HW263740   5.964   4.586   3.606
20767SOL     OW63741   7.105   4.004   1.986
20767SOL    HW163742   7.047   3.934   2.016
20767SOL    HW263743   7.143   4.040   2.067
20768SOL     OW63744   6.840   4.533   1.862
20768SOL    HW163745   6.891   4.454   1.879
20768SOL    HW263746   6.884   4.573   1.786
20769SOL     OW63747   6.660   5.060   2.711
20769SOL    HW163748   6.665   4.992   2.643
20769SOL    HW263749   6.717   5.130   2.679
20770SOL     OW63750   5.895   4.527   2.799
20770SOL    HW163751   5.987   4.552   2.807
20770SOL    HW263752   5.891   4.439   2.836
20771SOL     OW63753   5.911   4.248   2.872
20771SOL    HW163754   5.872   4.162   2.861
20771SOL    HW263755   5.987   4.248   2.814
20772SOL     OW63756   6.724   4.095   3.546
20772SOL    HW163757   6.673   4.147   3.608
20772SOL    HW263758   6.809   4.137   3.544
20773SOL     OW63759   6.746   3.922   3.331
20773SOL    HW163760   6.734   3.983   3.404
20773SOL    HW263761   6.787   3.974   3.263
20774SOL     OW63762   5.589   5.035   2.039
20774SOL    HW163763   5.503   5.048   1.997
20774SOL    HW263764   5.582   4.949   2.081
20775SOL     OW63765   5.713   5.459   2.847
20775SOL    HW163766   5.672   5.395   2.790
20775SOL    HW263767   5.766   5.513   2.789
20776SOL     OW63768   6.076   5.300   2.765
20776SOL    HW163769   6.143   5.365   2.787
20776SOL    HW263770   6.123   5.236   2.712
20777SOL     OW63771   6.555   4.506   3.082
20777SOL    HW163772   6.616   4.489   3.154
20777SOL    HW263773   6.470   4.478   3.116
20778SOL     OW63774   5.629   4.242   2.977
20778SOL    HW163775   5.711   4.271   2.936
20778SOL    HW263776   5.640   4.263   3.070
20779SOL     OW63777   5.773   4.254   3.595
20779SOL    HW163778   5.796   4.197   3.522
20779SOL    HW263779   5.727   4.328   3.554
20780SOL     OW63780   6.964   4.641   3.530
20780SOL    HW163781   6.974   4.735   3.543
20780SOL    HW263782   6.968   4.629   3.435
20781SOL     OW63783   6.408   4.307   2.208
20781SOL    HW163784   6.408   4.223   2.162
20781SOL    HW263785   6.323   4.346   2.187
20782SOL     OW63786   7.227   4.321   3.033
20782SOL    HW163787   7.218   4.269   3.113
20782SOL    HW263788   7.317   4.304   3.004
20783SOL     OW63789   5.827   5.270   3.588
20783SOL    HW163790   5.797   5.330   3.656
20783SOL    HW263791   5.830   5.185   3.631
20784SOL     OW63792   6.308   4.168   3.110
20784SOL    HW163793   6.244   4.098   3.096
20784SOL    HW263794   6.292   4.230   3.039
20785SOL     OW63795   6.530   5.395   3.321
20785SOL    HW163796   6.488   5.359   3.243
20785SOL    HW263797   6.517   5.490   3.315
20786SOL     OW63798   6.042   4.217   2.030
20786SOL    HW163799   6.098   4.286   2.065
20786SOL    HW263800   5.955   4.257   2.026
20787SOL     OW63801   5.741   4.869   3.338
20787SOL    HW163802   5.733   4.822   3.422
20787SOL    HW263803   5.751   4.800   3.273
20788SOL     OW63804   6.901   4.762   3.075
20788SOL    HW163805   6.924   4.701   3.005
20788SOL    HW263806   6.835   4.819   3.037
20789SOL     OW63807   6.854   4.603   2.143
20789SOL    HW163808   6.830   4.573   2.231
20789SOL    HW263809   6.876   4.523   2.095
20790SOL     OW63810   7.342   5.466   3.015
20790SOL    HW163811   7.414   5.486   2.955
20790SOL    HW263812   7.322   5.374   3.000
20791SOL     OW63813   6.825   5.453   2.953
20791SOL    HW163814   6.910   5.481   2.921
20791SOL    HW263815   6.838   5.362   2.982
20792SOL     OW63816   5.682   4.982   2.875
20792SOL    HW163817   5.677   5.002   2.969
20792SOL    HW263818   5.595   4.949   2.853
20793SOL     OW63819   6.260   5.401   3.600
20793SOL    HW163820   6.193   5.469   3.606
20793SOL    HW263821   6.313   5.425   3.524
20794SOL     OW63822   7.305   3.882   2.357
20794SOL    HW163823   7.378   3.866   2.297
20794SOL    HW263824   7.291   3.798   2.401
20795SOL     OW63825   6.961   5.290   2.333
20795SOL    HW163826   7.031   5.326   2.278
20795SOL    HW263827   6.918   5.367   2.370
20796SOL     OW63828   5.727   5.523   3.702
20796SOL    HW163829   5.678   5.454   3.746
20796SOL    HW263830   5.773   5.569   3.772
20797SOL     OW63831   6.861   4.650   2.521
20797SOL    HW163832   6.935   4.593   2.542
20797SOL    HW263833   6.901   4.724   2.474
20798SOL     OW63834   6.383   5.005   3.285
20798SOL    HW163835   6.358   5.046   3.367
20798SOL    HW263836   6.308   5.020   3.227
20799SOL     OW63837   6.256   5.346   2.017
20799SOL    HW163838   6.264   5.362   1.923
20799SOL    HW263839   6.200   5.269   2.024
20800SOL     OW63840   7.197   5.450   3.260
20800SOL    HW163841   7.250   5.456   3.180
20800SOL    HW263842   7.187   5.541   3.289
20801SOL     OW63843   7.425   3.889   2.834
20801SOL    HW163844   7.454   3.801   2.809
20801SOL    HW263845   7.339   3.898   2.792
20802SOL     OW63846   5.837   4.036   2.575
20802SOL    HW163847   5.750   4.070   2.553
20802SOL    HW263848   5.837   4.031   2.671
20803SOL     OW63849   6.803   5.317   1.892
20803SOL    HW163850   6.782   5.230   1.924
20803SOL    HW263851   6.731   5.338   1.832
20804SOL     OW63852   6.411   4.735   3.238
20804SOL    HW163853   6.444   4.735   3.148
20804SOL    HW263854   6.401   4.828   3.260
20805SOL     OW63855   6.557   4.651   2.155
20805SOL    HW163856   6.599   4.703   2.223
20805SOL    HW263857   6.557   4.561   2.188
20806SOL     OW63858   7.081   5.335   1.904
20806SOL    HW163859   6.986   5.337   1.898
20806SOL    HW263860   7.112   5.353   1.816
20807SOL     OW63861   5.961   5.033   3.348
20807SOL    HW163862   5.937   5.111   3.297
20807SOL    HW263863   5.886   4.975   3.340
20808SOL     OW63864   7.180   4.998   3.139
20808SOL    HW163865   7.269   5.009   3.172
20808SOL    HW263866   7.132   5.071   3.178
20809SOL     OW63867   6.647   4.829   2.556
20809SOL    HW163868   6.578   4.786   2.606
20809SOL    HW263869   6.715   4.762   2.548
20810SOL     OW63870   6.613   3.962   2.825
20810SOL    HW163871   6.610   3.915   2.742
20810SOL    HW263872   6.605   3.894   2.891
20811SOL     OW63873   6.182   5.208   2.342
20811SOL    HW163874   6.211   5.167   2.260
20811SOL    HW263875   6.097   5.247   2.321
20812SOL     OW63876   7.311   4.122   3.242
20812SOL    HW163877   7.386   4.182   3.244
20812SOL    HW263878   7.339   4.050   3.185
20813SOL     OW63879   5.840   5.072   2.146
20813SOL    HW163880   5.747   5.065   2.125
20813SOL    HW263881   5.842   5.108   2.235
20814SOL     OW63882   5.704   4.772   3.594
20814SOL    HW163883   5.624   4.744   3.640
20814SOL    HW263884   5.774   4.724   3.637
20815SOL     OW63885   6.263   3.917   3.360
20815SOL    HW163886   6.348   3.895   3.323
20815SOL    HW263887   6.284   3.950   3.448
20816SOL     OW63888   5.667   4.049   1.902
20816SOL    HW163889   5.575   4.028   1.884
20816SOL    HW263890   5.683   4.130   1.853
20817SOL     OW63891   7.008   4.590   3.264
20817SOL    HW163892   6.960   4.646   3.203
20817SOL    HW263893   7.098   4.591   3.231
20818SOL     OW63894   5.648   3.876   2.164
20818SOL    HW163895   5.636   3.959   2.117
20818SOL    HW263896   5.731   3.842   2.131
20819SOL     OW63897   6.753   5.054   1.983
20819SOL    HW163898   6.657   5.051   1.981
20819SOL    HW263899   6.775   5.061   2.076
20820SOL     OW63900   6.210   4.552   3.294
20820SOL    HW163901   6.266   4.628   3.284
20820SOL    HW263902   6.271   4.478   3.303
20821SOL     OW63903   7.077   5.512   2.856
20821SOL    HW163904   7.102   5.578   2.790
20821SOL    HW263905   7.160   5.486   2.895
20822SOL     OW63906   6.315   4.276   3.554
20822SOL    HW163907   6.349   4.332   3.624
20822SOL    HW263908   6.322   4.187   3.589
20823SOL     OW63909   5.955   5.463   3.432
20823SOL    HW163910   5.875   5.511   3.411
20823SOL    HW263911   5.925   5.383   3.475
20824SOL     OW63912   7.247   4.599   3.112
20824SOL    HW163913   7.244   4.515   3.066
20824SOL    HW263914   7.238   4.665   3.042
20825SOL     OW63915   6.806   4.049   2.313
20825SOL    HW163916   6.865   3.973   2.310
20825SOL    HW263917   6.833   4.097   2.392
20826SOL     OW63918   6.185   4.447   2.523
20826SOL    HW163919   6.216   4.537   2.521
20826SOL    HW263920   6.111   4.446   2.462
20827SOL     OW63921   7.335   4.080   3.512
20827SOL    HW163922   7.319   4.102   3.421
20827SOL    HW263923   7.260   4.025   3.537
20828SOL     OW63924   7.310   4.659   3.369
20828SOL    HW163925   7.381   4.723   3.375
20828SOL    HW263926   7.301   4.643   3.275
20829SOL     OW63927   6.468   5.082   1.910
20829SOL    HW163928   6.427   5.090   1.996
20829SOL    HW263929   6.465   5.171   1.874
20830SOL     OW63930   6.253   5.506   2.788
20830SOL    HW163931   6.232   5.599   2.778
20830SOL    HW263932   6.348   5.503   2.792
20831SOL     OW63933   6.461   4.700   2.715
20831SOL    HW163934   6.508   4.627   2.756
20831SOL    HW263935   6.417   4.744   2.788
20832SOL     OW63936   7.438   5.203   2.669
20832SOL    HW163937   7.410   5.289   2.639
20832SOL    HW263938   7.470   5.217   2.758
20833SOL     OW63939   5.810   5.017   3.709
20833SOL    HW163940   5.763   4.944   3.668
20833SOL    HW263941   5.762   5.034   3.790
20834SOL     OW63942   5.670   4.945   2.534
20834SOL    HW163943   5.662   4.909   2.623
20834SOL    HW263944   5.748   4.903   2.498
20835SOL     OW63945   6.279   5.136   3.502
20835SOL    HW163946   6.199   5.091   3.529
20835SOL    HW263947   6.268   5.225   3.536
20836SOL     OW63948   7.395   3.905   3.105
20836SOL    HW163949   7.465   3.844   3.128
20836SOL    HW263950   7.399   3.913   3.010
20837SOL     OW63951   6.014   4.155   2.386
20837SOL    HW163952   6.042   4.081   2.332
20837SOL    HW263953   5.963   4.115   2.456
20838SOL     OW63954   7.281   5.212   2.954
20838SOL    HW163955   7.206   5.189   2.899
20838SOL    HW263956   7.290   5.138   3.014
20839SOL     OW63957   5.928   4.285   3.153
20839SOL    HW163958   5.975   4.223   3.208
20839SOL    HW263959   5.939   4.251   3.064
20840SOL     OW63960   6.425   5.298   2.535
20840SOL    HW163961   6.394   5.371   2.482
20840SOL    HW263962   6.347   5.243   2.547
20841SOL     OW63963   7.014   3.956   2.977
20841SOL    HW163964   7.018   3.869   3.016
20841SOL    HW263965   6.966   4.009   3.040
20842SOL     OW63966   6.597   3.741   2.998
20842SOL    HW163967   6.537   3.669   2.978
20842SOL    HW263968   6.684   3.700   2.996
20843SOL     OW63969   6.376   5.047   2.165
20843SOL    HW163970   6.342   4.962   2.194
20843SOL    HW263971   6.437   5.073   2.234
20844SOL     OW63972   6.206   5.278   3.152
20844SOL    HW163973   6.205   5.357   3.206
20844SOL    HW263974   6.293   5.277   3.112
20845SOL     OW63975   6.950   3.775   2.035
20845SOL    HW163976   6.987   3.700   1.989
20845SOL    HW263977   6.860   3.750   2.054
20846SOL     OW63978   6.886   4.188   2.538
20846SOL    HW163979   6.833   4.268   2.542
20846SOL    HW263980   6.877   4.149   2.625
20847SOL     OW63981   7.169   3.916   2.747
20847SOL    HW163982   7.115   3.942   2.822
20847SOL    HW263983   7.168   3.993   2.689
20848SOL     OW63984   5.627   4.788   2.162
20848SOL    HW163985   5.722   4.780   2.149
20848SOL    HW263986   5.598   4.700   2.185
20849SOL     OW63987   6.479   5.380   2.191
20849SOL    HW163988   6.401   5.368   2.137
20849SOL    HW263989   6.454   5.448   2.254
20850SOL     OW63990   5.805   4.341   3.859
20850SOL    HW163991   5.719   4.339   3.900
20850SOL    HW263992   5.789   4.322   3.767
20851SOL     OW63993   5.816   4.000   4.711
20851SOL    HW163994   5.843   3.972   4.799
20851SOL    HW263995   5.725   3.974   4.704
20852SOL     OW63996   5.578   4.110   4.360
20852SOL    HW163997   5.502   4.146   4.407
20852SOL    HW263998   5.544   4.030   4.318
20853SOL     OW63999   6.164   5.020   4.918
20853SOL    HW164000   6.074   5.001   4.889
20853SOL    HW264001   6.164   5.113   4.939
20854SOL     OW64002   7.137   5.228   4.423
20854SOL    HW164003   7.088   5.219   4.505
20854SOL    HW264004   7.070   5.236   4.356
20855SOL     OW64005   6.736   4.431   4.436
20855SOL    HW164006   6.749   4.523   4.412
20855SOL    HW264007   6.675   4.433   4.510
20856SOL     OW64008   7.330   4.321   3.960
20856SOL    HW164009   7.321   4.313   3.865
20856SOL    HW264010   7.306   4.235   3.994
20857SOL     OW64011   6.358   4.877   4.783
20857SOL    HW164012   6.284   4.901   4.839
20857SOL    HW264013   6.380   4.959   4.737
20858SOL     OW64014   6.459   4.497   5.545
20858SOL    HW164015   6.417   4.563   5.600
20858SOL    HW264016   6.479   4.543   5.464
20859SOL     OW64017   6.278   4.722   4.370
20859SOL    HW164018   6.336   4.715   4.445
20859SOL    HW264019   6.204   4.774   4.402
20860SOL     OW64020   6.304   4.878   5.541
20860SOL    HW164021   6.347   4.956   5.574
20860SOL    HW264022   6.221   4.910   5.506
20861SOL     OW64023   5.921   5.135   4.790
20861SOL    HW164024   5.842   5.092   4.756
20861SOL    HW264025   5.952   5.187   4.716
20862SOL     OW64026   7.014   5.237   5.056
20862SOL    HW164027   7.084   5.302   5.065
20862SOL    HW264028   6.959   5.251   5.133
20863SOL     OW64029   6.030   4.126   5.246
20863SOL    HW164030   6.099   4.062   5.227
20863SOL    HW264031   5.949   4.076   5.242
20864SOL     OW64032   7.195   4.157   4.476
20864SOL    HW164033   7.113   4.176   4.430
20864SOL    HW264034   7.190   4.208   4.556
20865SOL     OW64035   5.808   5.439   4.198
20865SOL    HW164036   5.828   5.517   4.250
20865SOL    HW264037   5.877   5.437   4.131
20866SOL     OW64038   6.723   5.059   5.407
20866SOL    HW164039   6.764   5.065   5.493
20866SOL    HW264040   6.667   4.981   5.412
20867SOL     OW64041   5.832   5.166   4.271
20867SOL    HW164042   5.800   5.256   4.275
20867SOL    HW264043   5.774   5.118   4.331
20868SOL     OW64044   5.875   4.820   4.631
20868SOL    HW164045   5.856   4.730   4.658
20868SOL    HW264046   5.808   4.873   4.673
20869SOL     OW64047   6.198   5.504   5.170
20869SOL    HW164048   6.112   5.486   5.207
20869SOL    HW264049   6.214   5.597   5.189
20870SOL     OW64050   6.169   4.704   3.860
20870SOL    HW164051   6.217   4.754   3.794
20870SOL    HW264052   6.198   4.739   3.944
20871SOL     OW64053   7.196   3.834   5.208
20871SOL    HW164054   7.119   3.856   5.156
20871SOL    HW264055   7.178   3.870   5.295
20872SOL     OW64056   5.714   4.376   4.285
20872SOL    HW164057   5.670   4.293   4.307
20872SOL    HW264058   5.702   4.430   4.363
20873SOL     OW64059   7.434   5.481   4.046
20873SOL    HW164060   7.503   5.454   4.106
20873SOL    HW264061   7.454   5.572   4.025
20874SOL     OW64062   5.636   5.309   3.836
20874SOL    HW164063   5.610   5.219   3.855
20874SOL    HW264064   5.606   5.359   3.912
20875SOL     OW64065   7.242   4.589   4.343
20875SOL    HW164066   7.328   4.588   4.384
20875SOL    HW264067   7.245   4.663   4.283
20876SOL     OW64068   7.239   4.831   4.160
20876SOL    HW164069   7.327   4.824   4.123
20876SOL    HW264070   7.251   4.886   4.238
20877SOL     OW64071   5.696   4.470   5.295
20877SOL    HW164072   5.778   4.516   5.310
20877SOL    HW264073   5.631   4.540   5.282
20878SOL     OW64074   6.212   5.114   4.458
20878SOL    HW164075   6.164   5.032   4.470
20878SOL    HW264076   6.189   5.142   4.369
20879SOL     OW64077   6.902   4.949   5.137
20879SOL    HW164078   6.924   4.867   5.094
20879SOL    HW264079   6.948   4.945   5.221
20880SOL     OW64080   6.408   3.722   4.242
20880SOL    HW164081   6.447   3.806   4.216
20880SOL    HW264082   6.314   3.740   4.246
20881SOL     OW64083   5.773   4.689   4.997
20881SOL    HW164084   5.849   4.632   4.987
20881SOL    HW264085   5.699   4.636   4.967
20882SOL     OW64086   7.109   4.739   3.924
20882SOL    HW164087   7.043   4.678   3.958
20882SOL    HW264088   7.155   4.769   4.002
20883SOL     OW64089   6.800   5.542   5.340
20883SOL    HW164090   6.783   5.610   5.275
20883SOL    HW264091   6.801   5.460   5.291
20884SOL     OW64092   5.929   4.001   5.542
20884SOL    HW164093   5.982   4.080   5.547
20884SOL    HW264094   5.844   4.026   5.579
20885SOL     OW64095   7.016   5.157   4.684
20885SOL    HW164096   7.092   5.172   4.740
20885SOL    HW264097   7.019   5.064   4.663
20886SOL     OW64098   7.233   5.476   4.301
20886SOL    HW164099   7.226   5.441   4.212
20886SOL    HW264100   7.209   5.402   4.358
20887SOL     OW64101   6.176   4.441   3.998
20887SOL    HW164102   6.169   4.526   3.955
20887SOL    HW264103   6.111   4.444   4.068
20888SOL     OW64104   6.865   4.064   4.637
20888SOL    HW164105   6.773   4.044   4.652
20888SOL    HW264106   6.911   4.019   4.708
20889SOL     OW64107   7.170   5.390   4.033
20889SOL    HW164108   7.261   5.417   4.025
20889SOL    HW264109   7.137   5.391   3.943
20890SOL     OW64110   6.422   4.280   5.186
20890SOL    HW164111   6.367   4.351   5.220
20890SOL    HW264112   6.367   4.235   5.122
20891SOL     OW64113   6.977   4.210   5.393
20891SOL    HW164114   6.976   4.245   5.482
20891SOL    HW264115   7.034   4.133   5.399
20892SOL     OW64116   6.546   4.616   5.304
20892SOL    HW164117   6.597   4.542   5.270
20892SOL    HW264118   6.499   4.650   5.228
20893SOL     OW64119   6.593   4.142   4.954
20893SOL    HW164120   6.527   4.175   5.015
20893SOL    HW264121   6.543   4.089   4.891
20894SOL     OW64122   6.645   4.421   4.150
20894SOL    HW164123   6.652   4.405   4.244
20894SOL    HW264124   6.561   4.381   4.126
20895SOL     OW64125   5.683   4.554   4.489
20895SOL    HW164126   5.758   4.545   4.548
20895SOL    HW264127   5.627   4.619   4.532
20896SOL     OW64128   5.714   5.601   5.305
20896SOL    HW164129   5.710   5.580   5.398
20896SOL    HW264130   5.645   5.548   5.265
20897SOL     OW64131   6.483   4.068   3.920
20897SOL    HW164132   6.525   4.128   3.858
20897SOL    HW264133   6.462   3.990   3.868
20898SOL     OW64134   7.296   4.295   5.554
20898SOL    HW164135   7.259   4.369   5.506
20898SOL    HW264136   7.314   4.230   5.487
20899SOL     OW64137   6.968   4.879   4.273
20899SOL    HW164138   7.047   4.869   4.220
20899SOL    HW264139   6.912   4.937   4.222
20900SOL     OW64140   6.146   3.899   4.624
20900SOL    HW164141   6.145   3.925   4.716
20900SOL    HW264142   6.128   3.980   4.576
20901SOL     OW64143   6.580   5.169   4.192
20901SOL    HW164144   6.555   5.243   4.137
20901SOL    HW264145   6.550   5.192   4.279
20902SOL     OW64146   5.940   5.537   4.584
20902SOL    HW164147   5.975   5.449   4.594
20902SOL    HW264148   6.008   5.594   4.620
20903SOL     OW64149   7.364   4.758   4.580
20903SOL    HW164150   7.326   4.822   4.520
20903SOL    HW264151   7.316   4.771   4.662
20904SOL     OW64152   6.796   5.263   5.216
20904SOL    HW164153   6.788   5.200   5.288
20904SOL    HW264154   6.707   5.297   5.204
20905SOL     OW64155   5.894   4.683   3.984
20905SOL    HW164156   5.965   4.696   3.921
20905SOL    HW264157   5.858   4.597   3.962
20906SOL     OW64158   6.058   4.994   5.459
20906SOL    HW164159   6.031   5.001   5.367
20906SOL    HW264160   5.977   4.979   5.507
20907SOL     OW64161   6.716   5.503   3.951
20907SOL    HW164162   6.637   5.469   3.993
20907SOL    HW264163   6.736   5.440   3.881
20908SOL     OW64164   5.758   4.026   5.250
20908SOL    HW164165   5.732   4.092   5.185
20908SOL    HW264166   5.678   4.007   5.298
20909SOL     OW64167   7.209   5.108   3.812
20909SOL    HW164168   7.265   5.185   3.816
20909SOL    HW264169   7.149   5.117   3.886
20910SOL     OW64170   6.049   5.472   4.034
20910SOL    HW164171   6.094   5.518   4.105
20910SOL    HW264172   6.118   5.423   3.989
20911SOL     OW64173   6.987   3.832   4.168
20911SOL    HW164174   6.982   3.805   4.077
20911SOL    HW264175   7.080   3.832   4.188
20912SOL     OW64176   5.862   5.525   4.935
20912SOL    HW164177   5.887   5.443   4.979
20912SOL    HW264178   5.804   5.497   4.864
20913SOL     OW64179   6.529   5.428   4.611
20913SOL    HW164180   6.603   5.375   4.640
20913SOL    HW264181   6.487   5.376   4.543
20914SOL     OW64182   5.987   4.411   4.199
20914SOL    HW164183   6.001   4.318   4.215
20914SOL    HW264184   5.894   4.425   4.218
20915SOL     OW64185   7.103   3.953   5.442
20915SOL    HW164186   7.102   3.963   5.537
20915SOL    HW264187   7.015   3.923   5.419
20916SOL     OW64188   6.241   3.840   3.818
20916SOL    HW164189   6.280   3.759   3.851
20916SOL    HW264190   6.180   3.812   3.750
20917SOL     OW64191   6.322   3.956   5.480
20917SOL    HW164192   6.414   3.931   5.481
20917SOL    HW264193   6.323   4.052   5.486
20918SOL     OW64194   6.466   5.249   4.911
20918SOL    HW164195   6.440   5.215   4.826
20918SOL    HW264196   6.498   5.173   4.960
20919SOL     OW64197   6.930   4.316   5.149
20919SOL    HW164198   6.953   4.277   5.233
20919SOL    HW264199   6.962   4.406   5.154
20920SOL     OW64200   6.409   5.121   4.667
20920SOL    HW164201   6.491   5.105   4.620
20920SOL    HW264202   6.342   5.121   4.599
20921SOL     OW64203   6.535   4.241   4.614
20921SOL    HW164204   6.506   4.226   4.524
20921SOL    HW264205   6.550   4.154   4.650
20922SOL     OW64206   6.143   3.787   4.216
20922SOL    HW164207   6.066   3.787   4.273
20922SOL    HW264208   6.132   3.864   4.160
20923SOL     OW64209   7.004   4.900   3.708
20923SOL    HW164210   7.042   4.842   3.774
20923SOL    HW264211   6.922   4.930   3.748
20924SOL     OW64212   5.877   3.780   3.905
20924SOL    HW164213   5.935   3.856   3.897
20924SOL    HW264214   5.930   3.714   3.949
20925SOL     OW64215   6.528   3.970   4.176
20925SOL    HW164216   6.506   4.006   4.091
20925SOL    HW264217   6.622   3.987   4.186
20926SOL     OW64218   6.665   4.404   5.180
20926SOL    HW164219   6.593   4.342   5.188
20926SOL    HW264220   6.743   4.348   5.172
20927SOL     OW64221   6.805   5.291   4.517
20927SOL    HW164222   6.825   5.364   4.459
20927SOL    HW264223   6.876   5.290   4.581
20928SOL     OW64224   6.067   4.879   4.451
20928SOL    HW164225   6.002   4.860   4.519
20928SOL    HW264226   6.019   4.868   4.368
20929SOL     OW64227   6.850   5.515   4.339
20929SOL    HW164228   6.899   5.579   4.287
20929SOL    HW264229   6.776   5.565   4.374
20930SOL     OW64230   6.612   4.253   3.748
20930SOL    HW164231   6.565   4.334   3.732
20930SOL    HW264232   6.671   4.273   3.821
20931SOL     OW64233   5.678   4.266   5.117
20931SOL    HW164234   5.768   4.269   5.082
20931SOL    HW264235   5.673   4.342   5.176
20932SOL     OW64236   6.146   3.948   4.895
20932SOL    HW164237   6.183   3.888   4.960
20932SOL    HW264238   6.053   3.950   4.916
20933SOL     OW64239   6.468   4.194   4.354
20933SOL    HW164240   6.390   4.239   4.323
20933SOL    HW264241   6.472   4.113   4.302
20934SOL     OW64242   6.613   3.772   4.460
20934SOL    HW164243   6.544   3.772   4.394
20934SOL    HW264244   6.586   3.705   4.523
20935SOL     OW64245   7.029   4.893   4.587
20935SOL    HW164246   6.946   4.848   4.571
20935SOL    HW264247   7.067   4.904   4.500
20936SOL     OW64248   7.056   4.304   4.692
20936SOL    HW164249   6.992   4.239   4.724
20936SOL    HW264250   7.117   4.315   4.765
20937SOL     OW64251   7.440   4.527   4.097
20937SOL    HW164252   7.492   4.481   4.162
20937SOL    HW264253   7.402   4.458   4.042
20938SOL     OW64254   6.074   5.145   3.877
20938SOL    HW164255   6.000   5.121   3.932
20938SOL    HW264256   6.059   5.100   3.794
20939SOL     OW64257   7.271   4.974   4.395
20939SOL    HW164258   7.366   4.980   4.396
20939SOL    HW264259   7.241   5.064   4.406
20940SOL     OW64260   6.980   4.292   3.799
20940SOL    HW164261   6.914   4.270   3.865
20940SOL    HW264262   7.062   4.259   3.834
20941SOL     OW64263   6.107   3.980   4.023
20941SOL    HW164264   6.164   3.943   3.955
20941SOL    HW264265   6.081   4.065   3.990
20942SOL     OW64266   7.332   4.967   5.289
20942SOL    HW164267   7.419   4.928   5.279
20942SOL    HW264268   7.349   5.057   5.316
20943SOL     OW64269   6.624   5.058   5.091
20943SOL    HW164270   6.531   5.042   5.109
20943SOL    HW264271   6.670   5.016   5.164
20944SOL     OW64272   7.191   5.348   5.382
20944SOL    HW164273   7.180   5.381   5.293
20944SOL    HW264274   7.274   5.300   5.379
20945SOL     OW64275   6.722   4.953   4.829
20945SOL    HW164276   6.639   4.918   4.862
20945SOL    HW264277   6.701   4.984   4.741
20946SOL     OW64278   7.205   4.818   4.795
20946SOL    HW164279   7.194   4.874   4.872
20946SOL    HW264280   7.135   4.844   4.736
20947SOL     OW64281   6.537   3.813   5.124
20947SOL    HW164282   6.545   3.805   5.028
20947SOL    HW264283   6.619   3.852   5.152
20948SOL     OW64284   6.568   4.840   5.448
20948SOL    HW164285   6.478   4.853   5.475
20948SOL    HW264286   6.566   4.761   5.393
20949SOL     OW64287   6.296   4.793   4.094
20949SOL    HW164288   6.274   4.770   4.184
20949SOL    HW264289   6.372   4.738   4.073
20950SOL     OW64290   6.870   4.173   4.925
20950SOL    HW164291   6.896   4.213   5.007
20950SOL    HW264292   6.777   4.153   4.936
20951SOL     OW64293   5.659   5.334   5.105
20951SOL    HW164294   5.615   5.368   5.027
20951SOL    HW264295   5.742   5.298   5.071
20952SOL     OW64296   5.942   4.846   4.208
20952SOL    HW164297   5.918   4.921   4.154
20952SOL    HW264298   5.929   4.770   4.152
20953SOL     OW64299   6.140   4.244   4.577
20953SOL    HW164300   6.155   4.308   4.507
20953SOL    HW264301   6.195   4.275   4.650
20954SOL     OW64302   6.829   5.077   4.111
20954SOL    HW164303   6.883   5.150   4.142
20954SOL    HW264304   6.741   5.097   4.143
20955SOL     OW64305   7.171   4.365   4.203
20955SOL    HW164306   7.195   4.440   4.256
20955SOL    HW264307   7.215   4.379   4.119
20956SOL     OW64308   5.923   5.265   5.024
20956SOL    HW164309   5.909   5.210   4.947
20956SOL    HW264310   6.018   5.272   5.032
20957SOL     OW64311   5.991   4.481   5.321
20957SOL    HW164312   6.004   4.499   5.228
20957SOL    HW264313   6.015   4.388   5.331
20958SOL     OW64314   7.201   4.508   5.418
20958SOL    HW164315   7.113   4.546   5.411
20958SOL    HW264316   7.250   4.548   5.346
20959SOL     OW64317   6.582   3.853   5.487
20959SOL    HW164318   6.633   3.932   5.469
20959SOL    HW264319   6.636   3.781   5.453
20960SOL     OW64320   6.202   4.600   4.749
20960SOL    HW164321   6.183   4.693   4.740
20960SOL    HW264322   6.154   4.573   4.827
20961SOL     OW64323   6.901   4.551   4.717
20961SOL    HW164324   6.806   4.541   4.717
20961SOL    HW264325   6.932   4.491   4.784
20962SOL     OW64326   6.782   4.247   3.984
20962SOL    HW164327   6.791   4.169   4.038
20962SOL    HW264328   6.739   4.311   4.040
20963SOL     OW64329   5.888   3.910   4.969
20963SOL    HW164330   5.822   3.956   5.020
20963SOL    HW264331   5.864   3.818   4.976
20964SOL     OW64332   5.676   5.049   5.003
20964SOL    HW164333   5.696   4.978   5.064
20964SOL    HW264334   5.603   5.096   5.045
20965SOL     OW64335   6.311   4.347   4.766
20965SOL    HW164336   6.389   4.343   4.712
20965SOL    HW264337   6.281   4.438   4.758
20966SOL     OW64338   7.327   4.686   5.589
20966SOL    HW164339   7.287   4.617   5.536
20966SOL    HW264340   7.263   4.704   5.657
20967SOL     OW64341   5.901   3.793   4.343
20967SOL    HW164342   5.869   3.881   4.364
20967SOL    HW264343   5.904   3.748   4.428
20968SOL     OW64344   7.204   4.104   4.088
20968SOL    HW164345   7.235   4.033   4.144
20968SOL    HW264346   7.179   4.173   4.150
20969SOL     OW64347   6.633   4.478   4.694
20969SOL    HW164348   6.611   4.494   4.786
20969SOL    HW264349   6.602   4.389   4.678
20970SOL     OW64350   6.584   5.300   5.445
20970SOL    HW164351   6.552   5.336   5.363
20970SOL    HW264352   6.595   5.207   5.428
20971SOL     OW64353   7.434   5.227   5.321
20971SOL    HW164354   7.459   5.254   5.233
20971SOL    HW264355   7.514   5.238   5.373
20972SOL     OW64356   5.947   4.647   5.539
20972SOL    HW164357   6.032   4.651   5.583
20972SOL    HW264358   5.960   4.586   5.467
20973SOL     OW64359   7.114   3.994   3.848
20973SOL    HW164360   7.051   3.928   3.876
20973SOL    HW264361   7.147   4.031   3.930
20974SOL     OW64362   6.877   4.544   3.768
20974SOL    HW164363   6.913   4.456   3.774
20974SOL    HW264364   6.904   4.576   3.682
20975SOL     OW64365   6.664   5.061   4.580
20975SOL    HW164366   6.673   4.990   4.517
20975SOL    HW264367   6.715   5.133   4.543
20976SOL     OW64368   5.894   4.534   4.664
20976SOL    HW164369   5.982   4.554   4.697
20976SOL    HW264370   5.879   4.443   4.689
20977SOL     OW64371   5.895   4.262   4.704
20977SOL    HW164372   5.867   4.171   4.717
20977SOL    HW264373   5.979   4.255   4.659
20978SOL     OW64374   6.716   4.084   5.452
20978SOL    HW164375   6.682   4.157   5.504
20978SOL    HW264376   6.785   4.123   5.398
20979SOL     OW64377   5.602   5.035   3.905
20979SOL    HW164378   5.513   5.053   3.874
20979SOL    HW264379   5.595   4.950   3.948
20980SOL     OW64380   5.681   5.498   4.676
20980SOL    HW164381   5.644   5.424   4.629
20980SOL    HW264382   5.767   5.512   4.636
20981SOL     OW64383   6.075   5.301   4.619
20981SOL    HW164384   6.144   5.361   4.647
20981SOL    HW264385   6.120   5.234   4.568
20982SOL     OW64386   6.566   4.508   4.948
20982SOL    HW164387   6.616   4.481   5.025
20982SOL    HW264388   6.474   4.503   4.976
20983SOL     OW64389   5.620   4.258   4.843
20983SOL    HW164390   5.703   4.269   4.796
20983SOL    HW264391   5.645   4.264   4.935
20984SOL     OW64392   5.778   4.258   5.457
20984SOL    HW164393   5.808   4.205   5.383
20984SOL    HW264394   5.725   4.327   5.417
20985SOL     OW64395   6.971   4.655   5.385
20985SOL    HW164396   6.991   4.748   5.381
20985SOL    HW264397   6.964   4.628   5.293
20986SOL     OW64398   6.415   4.312   4.062
20986SOL    HW164399   6.406   4.227   4.020
20986SOL    HW264400   6.332   4.356   4.046
20987SOL     OW64401   7.229   4.334   4.901
20987SOL    HW164402   7.216   4.276   4.976
20987SOL    HW264403   7.317   4.314   4.869
20988SOL     OW64404   5.829   5.269   5.457
20988SOL    HW164405   5.797   5.317   5.533
20988SOL    HW264406   5.834   5.178   5.487
20989SOL     OW64407   6.295   4.169   4.974
20989SOL    HW164408   6.234   4.101   4.946
20989SOL    HW264409   6.286   4.238   4.908
20990SOL     OW64410   6.546   5.391   5.177
20990SOL    HW164411   6.494   5.353   5.106
20990SOL    HW264412   6.523   5.484   5.176
20991SOL     OW64413   6.045   4.215   3.899
20991SOL    HW164414   6.100   4.287   3.929
20991SOL    HW264415   5.957   4.252   3.892
20992SOL     OW64416   5.752   4.867   5.200
20992SOL    HW164417   5.728   4.821   5.280
20992SOL    HW264418   5.754   4.798   5.133
20993SOL     OW64419   6.907   4.757   4.924
20993SOL    HW164420   6.928   4.704   4.847
20993SOL    HW264421   6.834   4.812   4.897
20994SOL     OW64422   6.883   4.576   4.047
20994SOL    HW164423   6.804   4.534   4.083
20994SOL    HW264424   6.873   4.569   3.953
20995SOL     OW64425   7.319   5.462   4.872
20995SOL    HW164426   7.396   5.478   4.818
20995SOL    HW264427   7.297   5.370   4.857
20996SOL     OW64428   6.835   5.477   4.833
20996SOL    HW164429   6.911   5.494   4.778
20996SOL    HW264430   6.871   5.426   4.907
20997SOL     OW64431   5.684   4.992   4.737
20997SOL    HW164432   5.674   5.008   4.831
20997SOL    HW264433   5.606   4.941   4.713
20998SOL     OW64434   6.258   5.401   5.466
20998SOL    HW164435   6.192   5.468   5.481
20998SOL    HW264436   6.304   5.429   5.387
20999SOL     OW64437   7.303   3.880   4.219
20999SOL    HW164438   7.377   3.864   4.161
20999SOL    HW264439   7.288   3.797   4.263
21000SOL     OW64440   6.972   5.294   4.205
21000SOL    HW164441   7.035   5.332   4.143
21000SOL    HW264442   6.923   5.370   4.238
21001SOL     OW64443   5.716   5.539   5.570
21001SOL    HW164444   5.672   5.462   5.606
21001SOL    HW264445   5.772   5.571   5.641
21002SOL     OW64446   6.925   4.618   4.350
21002SOL    HW164447   6.934   4.589   4.259
21002SOL    HW264448   6.929   4.714   4.345
21003SOL     OW64449   6.360   5.022   5.131
21003SOL    HW164450   6.333   5.061   5.214
21003SOL    HW264451   6.281   5.020   5.078
21004SOL     OW64452   6.256   5.349   3.879
21004SOL    HW164453   6.265   5.364   3.784
21004SOL    HW264454   6.200   5.272   3.885
21005SOL     OW64455   7.188   5.448   5.114
21005SOL    HW164456   7.240   5.456   5.034
21005SOL    HW264457   7.179   5.538   5.146
21006SOL     OW64458   7.426   3.891   4.689
21006SOL    HW164459   7.457   3.804   4.667
21006SOL    HW264460   7.336   3.894   4.657
21007SOL     OW64461   5.836   4.042   4.434
21007SOL    HW164462   5.749   4.074   4.412
21007SOL    HW264463   5.836   4.036   4.529
21008SOL     OW64464   6.791   5.321   3.754
21008SOL    HW164465   6.777   5.232   3.786
21008SOL    HW264466   6.723   5.334   3.688
21009SOL     OW64467   6.453   4.767   5.084
21009SOL    HW164468   6.408   4.744   5.003
21009SOL    HW264469   6.416   4.852   5.108
21010SOL     OW64470   6.512   4.648   4.027
21010SOL    HW164471   6.570   4.676   3.956
21010SOL    HW264472   6.552   4.568   4.060
21011SOL     OW64473   7.059   5.383   3.774
21011SOL    HW164474   6.967   5.360   3.759
21011SOL    HW264475   7.103   5.360   3.693
21012SOL     OW64476   5.963   5.037   5.209
21012SOL    HW164477   5.932   5.111   5.158
21012SOL    HW264478   5.893   4.972   5.202
21013SOL     OW64479   7.177   4.993   5.006
21013SOL    HW164480   7.253   4.987   5.064
21013SOL    HW264481   7.126   5.066   5.040
21014SOL     OW64482   6.659   4.825   4.438
21014SOL    HW164483   6.590   4.784   4.490
21014SOL    HW264484   6.638   4.801   4.348
21015SOL     OW64485   6.608   3.968   4.675
21015SOL    HW164486   6.606   3.913   4.596
21015SOL    HW264487   6.600   3.906   4.747
21016SOL     OW64488   6.188   5.214   4.201
21016SOL    HW164489   6.224   5.165   4.127
21016SOL    HW264490   6.096   5.226   4.179
21017SOL     OW64491   7.312   4.136   5.104
21017SOL    HW164492   7.393   4.187   5.100
21017SOL    HW264493   7.333   4.056   5.055
21018SOL     OW64494   5.854   5.067   4.025
21018SOL    HW164495   5.764   5.060   3.994
21018SOL    HW264496   5.847   5.107   4.112
21019SOL     OW64497   5.705   4.781   5.467
21019SOL    HW164498   5.623   4.748   5.504
21019SOL    HW264499   5.772   4.723   5.503
21020SOL     OW64500   6.265   3.892   5.217
21020SOL    HW164501   6.355   3.893   5.185
21020SOL    HW264502   6.272   3.921   5.308
21021SOL     OW64503   5.672   4.039   3.750
21021SOL    HW164504   5.578   4.025   3.750
21021SOL    HW264505   5.684   4.125   3.709
21022SOL     OW64506   7.010   4.590   5.122
21022SOL    HW164507   6.960   4.643   5.060
21022SOL    HW264508   7.099   4.590   5.086
21023SOL     OW64509   5.648   3.872   4.033
21023SOL    HW164510   5.630   3.960   3.999
21023SOL    HW264511   5.729   3.847   3.990
21024SOL     OW64512   6.763   5.055   3.833
21024SOL    HW164513   6.669   5.034   3.834
21024SOL    HW264514   6.789   5.052   3.925
21025SOL     OW64515   6.277   4.531   5.188
21025SOL    HW164516   6.257   4.619   5.221
21025SOL    HW264517   6.208   4.513   5.125
21026SOL     OW64518   7.078   5.519   4.713
21026SOL    HW164519   7.104   5.583   4.646
21026SOL    HW264520   7.160   5.497   4.757
21027SOL     OW64521   6.340   4.231   5.480
21027SOL    HW164522   6.307   4.316   5.509
21027SOL    HW264523   6.424   4.250   5.438
21028SOL     OW64524   7.063   4.917   5.357
21028SOL    HW164525   7.049   4.933   5.450
21028SOL    HW264526   7.156   4.936   5.343
21029SOL     OW64527   5.953   5.458   5.288
21029SOL    HW164528   5.872   5.504   5.267
21029SOL    HW264529   5.925   5.378   5.331
21030SOL     OW64530   7.248   4.604   4.981
21030SOL    HW164531   7.250   4.516   4.943
21030SOL    HW264532   7.245   4.663   4.906
21031SOL     OW64533   6.809   4.047   4.184
21031SOL    HW164534   6.865   3.969   4.175
21031SOL    HW264535   6.841   4.091   4.262
21032SOL     OW64536   6.195   4.446   4.384
21032SOL    HW164537   6.219   4.539   4.379
21032SOL    HW264538   6.119   4.439   4.327
21033SOL     OW64539   7.331   4.088   5.376
21033SOL    HW164540   7.321   4.107   5.282
21033SOL    HW264541   7.256   4.033   5.398
21034SOL     OW64542   7.339   4.657   5.235
21034SOL    HW164543   7.322   4.751   5.248
21034SOL    HW264544   7.318   4.642   5.143
21035SOL     OW64545   6.469   5.088   3.778
21035SOL    HW164546   6.426   5.090   3.863
21035SOL    HW264547   6.457   5.176   3.743
21036SOL     OW64548   6.255   5.505   4.657
21036SOL    HW164549   6.233   5.597   4.643
21036SOL    HW264550   6.350   5.501   4.650
21037SOL     OW64551   6.465   4.705   4.587
21037SOL    HW164552   6.493   4.622   4.626
21037SOL    HW264553   6.418   4.749   4.658
21038SOL     OW64554   6.670   4.719   3.819
21038SOL    HW164555   6.644   4.763   3.739
21038SOL    HW264556   6.739   4.658   3.792
21039SOL     OW64557   7.415   5.226   4.592
21039SOL    HW164558   7.373   5.269   4.518
21039SOL    HW264559   7.481   5.288   4.622
21040SOL     OW64560   5.803   5.015   5.567
21040SOL    HW164561   5.767   4.938   5.522
21040SOL    HW264562   5.745   5.028   5.642
21041SOL     OW64563   5.681   4.959   4.403
21041SOL    HW164564   5.649   4.915   4.482
21041SOL    HW264565   5.738   4.894   4.361
21042SOL     OW64566   6.273   5.142   5.360
21042SOL    HW164567   6.196   5.094   5.390
21042SOL    HW264568   6.265   5.228   5.401
21043SOL     OW64569   7.410   3.924   4.963
21043SOL    HW164570   7.407   3.832   4.990
21043SOL    HW264571   7.413   3.921   4.867
21044SOL     OW64572   6.023   4.150   4.255
21044SOL    HW164573   6.032   4.075   4.196
21044SOL    HW264574   5.964   4.120   4.323
21045SOL     OW64575   7.264   5.200   4.815
21045SOL    HW164576   7.321   5.198   4.738
21045SOL    HW264577   7.300   5.134   4.873
21046SOL     OW64578   5.919   4.230   5.009
21046SOL    HW164579   5.983   4.222   5.079
21046SOL    HW264580   5.947   4.306   4.958
21047SOL     OW64581   6.420   5.296   4.395
21047SOL    HW164582   6.384   5.360   4.334
21047SOL    HW264583   6.347   5.235   4.410
21048SOL     OW64584   7.004   3.949   4.847
21048SOL    HW164585   6.992   3.880   4.912
21048SOL    HW264586   6.967   4.027   4.888
21049SOL     OW64587   6.594   3.749   4.852
21049SOL    HW164588   6.553   3.678   4.804
21049SOL    HW264589   6.684   3.720   4.867
21050SOL     OW64590   6.368   5.055   4.032
21050SOL    HW164591   6.334   4.967   4.049
21050SOL    HW264592   6.437   5.066   4.096
21051SOL     OW64593   6.203   5.284   5.005
21051SOL    HW164594   6.203   5.360   5.064
21051SOL    HW264595   6.290   5.284   4.966
21052SOL     OW64596   6.947   3.775   3.898
21052SOL    HW164597   6.983   3.700   3.851
21052SOL    HW264598   6.857   3.751   3.918
21053SOL     OW64599   6.918   4.226   4.429
21053SOL    HW164600   6.834   4.270   4.416
21053SOL    HW264601   6.901   4.163   4.500
21054SOL     OW64602   7.163   3.903   4.619
21054SOL    HW164603   7.110   3.928   4.695
21054SOL    HW264604   7.160   3.980   4.562
21055SOL     OW64605   5.633   4.790   4.030
21055SOL    HW164606   5.726   4.779   4.013
21055SOL    HW264607   5.602   4.703   4.054
21056SOL     OW64608   6.479   5.389   4.056
21056SOL    HW164609   6.402   5.370   4.003
21056SOL    HW264610   6.450   5.456   4.117
21057SOL     OW64611   5.808   4.335   5.722
21057SOL    HW164612   5.720   4.334   5.760
21057SOL    HW264613   5.793   4.321   5.629
21058SOL     OW64614   5.838   3.940   6.553
21058SOL    HW164615   5.866   4.024   6.591
21058SOL    HW264616   5.743   3.939   6.566
21059SOL     OW64617   5.587   4.107   6.225
21059SOL    HW164618   5.507   4.139   6.267
21059SOL    HW264619   5.563   4.022   6.189
21060SOL     OW64620   6.162   5.001   6.786
21060SOL    HW164621   6.073   4.986   6.756
21060SOL    HW264622   6.183   5.090   6.757
21061SOL     OW64623   7.154   5.240   6.295
21061SOL    HW164624   7.106   5.218   6.375
21061SOL    HW264625   7.086   5.246   6.227
21062SOL     OW64626   6.742   4.409   6.278
21062SOL    HW164627   6.771   4.500   6.269
21062SOL    HW264628   6.687   4.410   6.356
21063SOL     OW64629   7.362   4.325   5.813
21063SOL    HW164630   7.339   4.325   5.720
21063SOL    HW264631   7.331   4.241   5.846
21064SOL     OW64632   6.365   4.872   6.645
21064SOL    HW164633   6.289   4.891   6.700
21064SOL    HW264634   6.383   4.954   6.600
21065SOL     OW64635   6.478   4.496   7.422
21065SOL    HW164636   6.418   4.556   7.466
21065SOL    HW264637   6.489   4.533   7.334
21066SOL     OW64638   6.275   4.723   6.225
21066SOL    HW164639   6.336   4.717   6.298
21066SOL    HW264640   6.202   4.775   6.259
21067SOL     OW64641   6.306   4.879   7.407
21067SOL    HW164642   6.344   4.962   7.438
21067SOL    HW264643   6.223   4.905   7.367
21068SOL     OW64644   5.909   5.156   6.644
21068SOL    HW164645   5.835   5.107   6.607
21068SOL    HW264646   5.957   5.187   6.567
21069SOL     OW64647   7.060   5.209   6.978
21069SOL    HW164648   7.105   5.293   6.967
21069SOL    HW264649   6.976   5.231   7.018
21070SOL     OW64650   6.041   4.108   7.085
21070SOL    HW164651   6.103   4.037   7.071
21070SOL    HW264652   5.956   4.065   7.094
21071SOL     OW64653   7.200   4.182   6.324
21071SOL    HW164654   7.158   4.201   6.240
21071SOL    HW264655   7.221   4.268   6.360
21072SOL     OW64656   5.800   5.449   6.051
21072SOL    HW164657   5.831   5.521   6.105
21072SOL    HW264658   5.875   5.426   5.996
21073SOL     OW64659   6.780   5.025   7.288
21073SOL    HW164660   6.770   5.055   7.378
21073SOL    HW264661   6.706   4.966   7.274
21074SOL     OW64662   5.822   5.170   6.129
21074SOL    HW164663   5.783   5.257   6.139
21074SOL    HW264664   5.772   5.114   6.188
21075SOL     OW64665   5.877   4.818   6.507
21075SOL    HW164666   5.864   4.724   6.524
21075SOL    HW264667   5.793   4.858   6.530
21076SOL     OW64668   6.185   5.524   7.024
21076SOL    HW164669   6.104   5.501   7.069
21076SOL    HW264670   6.204   5.613   7.054
21077SOL     OW64671   6.176   4.700   5.718
21077SOL    HW164672   6.222   4.755   5.654
21077SOL    HW264673   6.203   4.735   5.803
21078SOL     OW64674   7.193   3.862   7.055
21078SOL    HW164675   7.192   3.944   7.005
21078SOL    HW264676   7.166   3.889   7.143
21079SOL     OW64677   5.715   4.368   6.140
21079SOL    HW164678   5.671   4.286   6.160
21079SOL    HW264679   5.706   4.421   6.220
21080SOL     OW64680   7.429   5.477   5.911
21080SOL    HW164681   7.494   5.451   5.977
21080SOL    HW264682   7.449   5.569   5.893
21081SOL     OW64683   5.639   5.315   5.701
21081SOL    HW164684   5.615   5.223   5.711
21081SOL    HW264685   5.603   5.358   5.779
21082SOL     OW64686   7.283   4.652   6.227
21082SOL    HW164687   7.346   4.599   6.179
21082SOL    HW264688   7.247   4.711   6.161
21083SOL     OW64689   7.233   4.830   6.014
21083SOL    HW164690   7.319   4.829   5.973
21083SOL    HW264691   7.240   4.897   6.082
21084SOL     OW64692   5.699   4.468   7.170
21084SOL    HW164693   5.783   4.513   7.170
21084SOL    HW264694   5.635   4.538   7.155
21085SOL     OW64695   6.147   5.127   6.301
21085SOL    HW164696   6.122   5.034   6.306
21085SOL    HW264697   6.157   5.143   6.207
21086SOL     OW64698   6.944   4.901   7.073
21086SOL    HW164699   6.948   4.866   6.984
21086SOL    HW264700   6.852   4.924   7.086
21087SOL     OW64701   6.406   3.723   6.102
21087SOL    HW164702   6.445   3.807   6.074
21087SOL    HW264703   6.312   3.742   6.107
21088SOL     OW64704   5.768   4.687   6.861
21088SOL    HW164705   5.853   4.646   6.847
21088SOL    HW264706   5.707   4.632   6.812
21089SOL     OW64707   7.118   4.724   5.785
21089SOL    HW164708   7.049   4.665   5.816
21089SOL    HW264709   7.157   4.759   5.866
21090SOL     OW64710   6.800   5.550   7.214
21090SOL    HW164711   6.782   5.608   7.141
21090SOL    HW264712   6.788   5.462   7.178
21091SOL     OW64713   5.929   3.974   7.426
21091SOL    HW164714   5.958   4.063   7.402
21091SOL    HW264715   5.836   3.983   7.444
21092SOL     OW64716   7.062   5.138   6.539
21092SOL    HW164717   6.983   5.162   6.588
21092SOL    HW264718   7.043   5.052   6.503
21093SOL     OW64719   7.240   5.480   6.160
21093SOL    HW164720   7.217   5.451   6.072
21093SOL    HW264721   7.213   5.409   6.218
21094SOL     OW64722   6.177   4.444   5.861
21094SOL    HW164723   6.170   4.527   5.815
21094SOL    HW264724   6.110   4.449   5.929
21095SOL     OW64725   6.825   4.063   6.548
21095SOL    HW164726   6.737   4.030   6.531
21095SOL    HW264727   6.832   4.065   6.643
21096SOL     OW64728   7.162   5.406   5.897
21096SOL    HW164729   7.255   5.426   5.885
21096SOL    HW264730   7.130   5.388   5.808
21097SOL     OW64731   6.394   4.332   7.033
21097SOL    HW164732   6.365   4.306   7.120
21097SOL    HW264733   6.352   4.270   6.974
21098SOL     OW64734   6.982   4.204   7.262
21098SOL    HW164735   6.983   4.246   7.348
21098SOL    HW264736   7.038   4.127   7.272
21099SOL     OW64737   6.542   4.615   7.170
21099SOL    HW164738   6.590   4.542   7.131
21099SOL    HW264739   6.490   4.650   7.097
21100SOL     OW64740   6.589   4.123   6.816
21100SOL    HW164741   6.506   4.147   6.857
21100SOL    HW264742   6.566   4.094   6.728
21101SOL     OW64743   6.641   4.419   6.007
21101SOL    HW164744   6.652   4.407   6.101
21101SOL    HW264745   6.556   4.378   5.988
21102SOL     OW64746   5.693   4.535   6.351
21102SOL    HW164747   5.760   4.533   6.419
21102SOL    HW264748   5.624   4.591   6.386
21103SOL     OW64749   5.685   5.554   7.161
21103SOL    HW164750   5.692   5.559   7.257
21103SOL    HW264751   5.627   5.480   7.145
21104SOL     OW64752   6.500   4.059   5.769
21104SOL    HW164753   6.522   4.138   5.719
21104SOL    HW264754   6.520   3.987   5.709
21105SOL     OW64755   7.303   4.308   7.417
21105SOL    HW164756   7.266   4.372   7.357
21105SOL    HW264757   7.339   4.239   7.361
21106SOL     OW64758   6.969   4.871   6.132
21106SOL    HW164759   7.040   4.860   6.070
21106SOL    HW264760   6.908   4.931   6.089
21107SOL     OW64761   6.154   3.900   6.491
21107SOL    HW164762   6.150   3.932   6.582
21107SOL    HW264763   6.116   3.971   6.439
21108SOL     OW64764   6.584   5.176   6.056
21108SOL    HW164765   6.554   5.250   6.004
21108SOL    HW264766   6.548   5.191   6.143
21109SOL     OW64767   5.947   5.536   6.463
21109SOL    HW164768   5.999   5.455   6.469
21109SOL    HW264769   6.012   5.606   6.470
21110SOL     OW64770   7.392   4.781   6.452
21110SOL    HW164771   7.343   4.756   6.373
21110SOL    HW264772   7.326   4.785   6.521
21111SOL     OW64773   6.823   5.246   7.099
21111SOL    HW164774   6.792   5.210   7.182
21111SOL    HW264775   6.757   5.222   7.035
21112SOL     OW64776   5.893   4.681   5.844
21112SOL    HW164777   5.955   4.694   5.772
21112SOL    HW264778   5.852   4.597   5.826
21113SOL     OW64779   7.090   4.461   6.305
21113SOL    HW164780   7.052   4.452   6.392
21113SOL    HW264781   7.149   4.535   6.312
21114SOL     OW64782   6.063   4.992   7.319
21114SOL    HW164783   6.032   5.002   7.229
21114SOL    HW264784   5.983   4.977   7.370
21115SOL     OW64785   6.723   5.496   5.828
21115SOL    HW164786   6.639   5.467   5.864
21115SOL    HW264787   6.740   5.436   5.756
21116SOL     OW64788   5.771   4.024   7.115
21116SOL    HW164789   5.692   4.059   7.074
21116SOL    HW264790   5.748   3.934   7.138
21117SOL     OW64791   7.217   5.107   5.680
21117SOL    HW164792   7.174   5.192   5.667
21117SOL    HW264793   7.149   5.043   5.660
21118SOL     OW64794   6.053   5.462   5.905
21118SOL    HW164795   6.104   5.511   5.970
21118SOL    HW264796   6.118   5.424   5.847
21119SOL     OW64797   6.985   3.832   6.029
21119SOL    HW164798   6.967   3.808   5.938
21119SOL    HW264799   7.080   3.839   6.034
21120SOL     OW64800   5.860   5.521   6.806
21120SOL    HW164801   5.897   5.441   6.843
21120SOL    HW264802   5.847   5.501   6.714
21121SOL     OW64803   6.517   5.429   6.464
21121SOL    HW164804   6.511   5.353   6.522
21121SOL    HW264805   6.484   5.397   6.380
21122SOL     OW64806   5.987   4.411   6.062
21122SOL    HW164807   6.005   4.319   6.078
21122SOL    HW264808   5.892   4.420   6.076
21123SOL     OW64809   7.115   3.955   7.307
21123SOL    HW164810   7.128   3.975   7.400
21123SOL    HW264811   7.039   3.898   7.304
21124SOL     OW64812   6.216   3.828   5.700
21124SOL    HW164813   6.298   3.781   5.717
21124SOL    HW264814   6.232   3.877   5.620
21125SOL     OW64815   6.355   4.000   7.347
21125SOL    HW164816   6.434   3.947   7.342
21125SOL    HW264817   6.300   3.956   7.412
21126SOL     OW64818   6.501   5.291   6.843
21126SOL    HW164819   6.472   5.261   6.757
21126SOL    HW264820   6.556   5.219   6.876
21127SOL     OW64821   6.933   4.298   7.007
21127SOL    HW164822   6.956   4.273   7.096
21127SOL    HW264823   6.951   4.392   7.003
21128SOL     OW64824   6.563   4.221   6.471
21128SOL    HW164825   6.521   4.226   6.385
21128SOL    HW264826   6.536   4.137   6.507
21129SOL     OW64827   6.141   3.787   6.081
21129SOL    HW164828   6.064   3.785   6.138
21129SOL    HW264829   6.129   3.864   6.026
21130SOL     OW64830   7.013   4.929   5.627
21130SOL    HW164831   7.039   4.852   5.677
21130SOL    HW264832   6.926   4.950   5.659
21131SOL     OW64833   5.903   3.777   5.750
21131SOL    HW164834   5.956   3.856   5.755
21131SOL    HW264835   5.950   3.713   5.802
21132SOL     OW64836   6.525   3.967   6.031
21132SOL    HW164837   6.501   4.001   5.945
21132SOL    HW264838   6.617   3.992   6.042
21133SOL     OW64839   6.655   4.404   7.041
21133SOL    HW164840   6.570   4.360   7.045
21133SOL    HW264841   6.718   4.332   7.035
21134SOL     OW64842   6.843   5.293   6.373
21134SOL    HW164843   6.833   5.357   6.304
21134SOL    HW264844   6.849   5.345   6.454
21135SOL     OW64845   6.058   4.867   6.308
21135SOL    HW164846   5.995   4.852   6.379
21135SOL    HW264847   6.007   4.856   6.228
21136SOL     OW64848   6.847   5.519   6.200
21136SOL    HW164849   6.891   5.582   6.142
21136SOL    HW264850   6.769   5.565   6.230
21137SOL     OW64851   6.608   4.276   5.619
21137SOL    HW164852   6.556   4.354   5.600
21137SOL    HW264853   6.666   4.301   5.691
21138SOL     OW64854   5.678   4.285   6.968
21138SOL    HW164855   5.772   4.287   6.950
21138SOL    HW264856   5.665   4.349   7.038
21139SOL     OW64857   6.156   3.947   6.766
21139SOL    HW164858   6.178   3.869   6.816
21139SOL    HW264859   6.064   3.963   6.785
21140SOL     OW64860   6.466   4.192   6.218
21140SOL    HW164861   6.386   4.241   6.200
21140SOL    HW264862   6.463   4.117   6.159
21141SOL     OW64863   6.617   3.763   6.321
21141SOL    HW164864   6.548   3.767   6.255
21141SOL    HW264865   6.590   3.691   6.379
21142SOL     OW64866   7.027   4.882   6.438
21142SOL    HW164867   6.931   4.875   6.444
21142SOL    HW264868   7.045   4.886   6.344
21143SOL     OW64869   7.034   4.298   6.577
21143SOL    HW164870   6.954   4.282   6.627
21143SOL    HW264871   7.101   4.312   6.644
21144SOL     OW64872   7.427   4.531   5.985
21144SOL    HW164873   7.493   4.481   6.033
21144SOL    HW264874   7.400   4.473   5.913
21145SOL     OW64875   6.073   5.142   5.732
21145SOL    HW164876   6.000   5.114   5.787
21145SOL    HW264877   6.060   5.095   5.649
21146SOL     OW64878   7.266   4.993   6.223
21146SOL    HW164879   7.359   5.000   6.241
21146SOL    HW264880   7.231   5.080   6.246
21147SOL     OW64881   6.977   4.293   5.655
21147SOL    HW164882   6.913   4.273   5.724
21147SOL    HW264883   7.059   4.257   5.687
21148SOL     OW64884   6.096   3.979   5.892
21148SOL    HW164885   6.144   3.932   5.824
21148SOL    HW264886   6.077   4.065   5.854
21149SOL     OW64887   7.300   4.995   7.196
21149SOL    HW164888   7.363   4.928   7.224
21149SOL    HW264889   7.352   5.075   7.191
21150SOL     OW64890   6.644   5.079   6.958
21150SOL    HW164891   6.555   5.053   6.984
21150SOL    HW264892   6.665   5.022   6.884
21151SOL     OW64893   7.185   5.310   7.245
21151SOL    HW164894   7.172   5.361   7.165
21151SOL    HW264895   7.277   5.285   7.242
21152SOL     OW64896   6.693   4.956   6.708
21152SOL    HW164897   6.599   4.939   6.702
21152SOL    HW264898   6.721   4.971   6.618
21153SOL     OW64899   7.203   4.814   6.650
21153SOL    HW164900   7.188   4.876   6.722
21153SOL    HW264901   7.132   4.830   6.588
21154SOL     OW64902   6.504   3.821   6.980
21154SOL    HW164903   6.522   3.806   6.887
21154SOL    HW264904   6.585   3.859   7.014
21155SOL     OW64905   6.574   4.841   7.310
21155SOL    HW164906   6.484   4.861   7.337
21155SOL    HW264907   6.566   4.762   7.256
21156SOL     OW64908   6.298   4.791   5.954
21156SOL    HW164909   6.279   4.769   6.045
21156SOL    HW264910   6.374   4.736   5.931
21157SOL     OW64911   6.006   4.552   6.847
21157SOL    HW164912   6.075   4.557   6.913
21157SOL    HW264913   5.974   4.462   6.853
21158SOL     OW64914   6.859   4.110   6.824
21158SOL    HW164915   6.890   4.175   6.887
21158SOL    HW264916   6.763   4.120   6.824
21159SOL     OW64917   5.671   5.341   6.962
21159SOL    HW164918   5.622   5.350   6.880
21159SOL    HW264919   5.749   5.292   6.937
21160SOL     OW64920   5.926   4.844   6.070
21160SOL    HW164921   5.918   4.917   6.008
21160SOL    HW264922   5.920   4.766   6.016
21161SOL     OW64923   6.222   4.274   6.456
21161SOL    HW164924   6.206   4.330   6.380
21161SOL    HW264925   6.136   4.256   6.493
21162SOL     OW64926   6.830   5.074   5.982
21162SOL    HW164927   6.886   5.146   6.013
21162SOL    HW264928   6.742   5.097   6.012
21163SOL     OW64929   6.864   5.190   6.730
21163SOL    HW164930   6.906   5.164   6.812
21163SOL    HW264931   6.794   5.126   6.716
21164SOL     OW64932   7.168   4.329   6.076
21164SOL    HW164933   7.125   4.384   6.142
21164SOL    HW264934   7.194   4.391   6.008
21165SOL     OW64935   5.934   5.260   6.888
21165SOL    HW164936   5.916   5.215   6.805
21165SOL    HW264937   6.029   5.265   6.893
21166SOL     OW64938   5.997   4.480   7.193
21166SOL    HW164939   6.069   4.507   7.136
21166SOL    HW264940   5.994   4.385   7.186
21167SOL     OW64941   7.204   4.509   7.263
21167SOL    HW164942   7.114   4.539   7.260
21167SOL    HW264943   7.248   4.556   7.192
21168SOL     OW64944   6.587   3.856   7.339
21168SOL    HW164945   6.646   3.928   7.317
21168SOL    HW264946   6.636   3.777   7.316
21169SOL     OW64947   6.077   3.760   7.342
21169SOL    HW164948   6.030   3.710   7.275
21169SOL    HW264949   6.021   3.836   7.359
21170SOL     OW64950   6.180   4.606   6.641
21170SOL    HW164951   6.168   4.697   6.615
21170SOL    HW264952   6.108   4.588   6.701
21171SOL     OW64953   6.918   4.583   6.620
21171SOL    HW164954   6.829   4.573   6.584
21171SOL    HW264955   6.958   4.497   6.609
21172SOL     OW64956   6.793   4.252   5.853
21172SOL    HW164957   6.789   4.171   5.905
21172SOL    HW264958   6.744   4.316   5.905
21173SOL     OW64959   5.908   3.916   6.872
21173SOL    HW164960   5.830   3.957   6.911
21173SOL    HW264961   5.879   3.828   6.848
21174SOL     OW64962   5.665   5.050   6.867
21174SOL    HW164963   5.695   4.976   6.920
21174SOL    HW264964   5.581   5.076   6.906
21175SOL     OW64965   6.351   4.396   6.663
21175SOL    HW164966   6.326   4.342   6.588
21175SOL    HW264967   6.291   4.471   6.660
21176SOL     OW64968   7.319   4.691   7.439
21176SOL    HW164969   7.284   4.617   7.388
21176SOL    HW264970   7.256   4.704   7.509
21177SOL     OW64971   5.900   3.791   6.208
21177SOL    HW164972   5.868   3.880   6.224
21177SOL    HW264973   5.899   3.749   6.294
21178SOL     OW64974   7.211   4.095   5.943
21178SOL    HW164975   7.243   4.034   6.009
21178SOL    HW264976   7.186   4.173   5.993
21179SOL     OW64977   6.654   4.469   6.550
21179SOL    HW164978   6.622   4.497   6.635
21179SOL    HW264979   6.610   4.386   6.534
21180SOL     OW64980   6.604   5.288   7.287
21180SOL    HW164981   6.565   5.344   7.219
21180SOL    HW264982   6.547   5.211   7.289
21181SOL     OW64983   7.444   5.230   7.188
21181SOL    HW164984   7.464   5.257   7.098
21181SOL    HW264985   7.527   5.243   7.235
21182SOL     OW64986   5.947   4.650   7.402
21182SOL    HW164987   6.032   4.654   7.447
21182SOL    HW264988   5.959   4.587   7.332
21183SOL     OW64989   7.106   3.989   5.711
21183SOL    HW164990   7.041   3.928   5.745
21183SOL    HW264991   7.145   4.028   5.789
21184SOL     OW64992   6.876   4.547   5.617
21184SOL    HW164993   6.912   4.459   5.618
21184SOL    HW264994   6.906   4.584   5.534
21185SOL     OW64995   6.764   5.017   6.454
21185SOL    HW164996   6.713   4.964   6.393
21185SOL    HW264997   6.763   5.105   6.415
21186SOL     OW64998   5.899   4.535   6.534
21186SOL    HW164999   5.991   4.544   6.507
21186SOL    HW265000   5.891   4.444   6.562
21187SOL     OW65001   6.725   4.095   7.269
21187SOL    HW165002   6.669   4.146   7.328
21187SOL    HW265003   6.808   4.141   7.268
21188SOL     OW65004   6.750   3.923   7.055
21188SOL    HW165005   6.737   3.985   7.126
21188SOL    HW265006   6.777   3.977   6.980
21189SOL     OW65007   5.603   5.038   5.767
21189SOL    HW165008   5.513   5.056   5.739
21189SOL    HW265009   5.598   4.952   5.809
21190SOL     OW65010   5.683   5.504   6.531
21190SOL    HW165011   5.645   5.425   6.491
21190SOL    HW265012   5.772   5.508   6.496
21191SOL     OW65013   6.106   5.310   6.490
21191SOL    HW165014   6.182   5.289   6.545
21191SOL    HW265015   6.113   5.250   6.416
21192SOL     OW65016   6.563   4.518   6.799
21192SOL    HW165017   6.590   4.483   6.884
21192SOL    HW265018   6.484   4.469   6.777
21193SOL     OW65019   5.625   4.255   6.698
21193SOL    HW165020   5.709   4.245   6.652
21193SOL    HW265021   5.650   4.265   6.790
21194SOL     OW65022   5.783   4.241   7.310
21194SOL    HW165023   5.785   4.174   7.242
21194SOL    HW265024   5.742   4.316   7.269
21195SOL     OW65025   6.963   4.643   7.241
21195SOL    HW165026   6.945   4.737   7.234
21195SOL    HW265027   6.960   4.611   7.151
21196SOL     OW65028   6.409   4.304   5.924
21196SOL    HW165029   6.392   4.222   5.879
21196SOL    HW265030   6.330   4.357   5.909
21197SOL     OW65031   7.227   4.331   6.763
21197SOL    HW165032   7.218   4.272   6.838
21197SOL    HW265033   7.314   4.312   6.728
21198SOL     OW65034   5.823   5.265   7.324
21198SOL    HW165035   5.794   5.309   7.404
21198SOL    HW265036   5.834   5.174   7.350
21199SOL     OW65037   6.311   4.168   6.835
21199SOL    HW165038   6.251   4.097   6.813
21199SOL    HW265039   6.292   4.236   6.770
21200SOL     OW65040   6.499   5.429   7.077
21200SOL    HW165041   6.494   5.378   6.996
21200SOL    HW265042   6.487   5.520   7.048
21201SOL     OW65043   6.047   4.215   5.771
21201SOL    HW165044   6.101   4.290   5.797
21201SOL    HW265045   5.959   4.252   5.759
21202SOL     OW65046   5.738   4.865   7.062
21202SOL    HW165047   5.733   4.819   7.146
21202SOL    HW265048   5.745   4.794   6.997
21203SOL     OW65049   6.899   4.784   6.813
21203SOL    HW165050   6.915   4.719   6.743
21203SOL    HW265051   6.826   4.837   6.780
21204SOL     OW65052   6.908   4.576   5.892
21204SOL    HW165053   6.830   4.554   5.943
21204SOL    HW265054   6.881   4.565   5.801
21205SOL     OW65055   7.378   5.454   6.756
21205SOL    HW165056   7.435   5.481   6.684
21205SOL    HW265057   7.339   5.372   6.726
21206SOL     OW65058   6.832   5.467   6.709
21206SOL    HW165059   6.913   5.486   6.661
21206SOL    HW265060   6.832   5.372   6.719
21207SOL     OW65061   5.662   5.026   6.587
21207SOL    HW165062   5.654   5.025   6.682
21207SOL    HW265063   5.605   4.956   6.557
21208SOL     OW65064   6.266   5.402   7.297
21208SOL    HW165065   6.211   5.478   7.312
21208SOL    HW265066   6.314   5.421   7.217
21209SOL     OW65067   7.320   3.883   6.100
21209SOL    HW165068   7.384   3.871   6.030
21209SOL    HW265069   7.301   3.794   6.130
21210SOL     OW65070   6.983   5.293   6.077
21210SOL    HW165071   7.035   5.329   6.006
21210SOL    HW265072   6.925   5.364   6.103
21211SOL     OW65073   5.720   5.548   7.425
21211SOL    HW165074   5.678   5.471   7.465
21211SOL    HW265075   5.775   5.584   7.495
21212SOL     OW65076   6.868   4.647   6.248
21212SOL    HW165077   6.943   4.589   6.239
21212SOL    HW265078   6.895   4.729   6.206
21213SOL     OW65079   6.378   5.009   6.994
21213SOL    HW165080   6.347   5.048   7.075
21213SOL    HW265081   6.304   5.016   6.934
21214SOL     OW65082   6.255   5.342   5.746
21214SOL    HW165083   6.265   5.367   5.654
21214SOL    HW265084   6.197   5.265   5.743
21215SOL     OW65085   7.210   5.447   6.989
21215SOL    HW165086   7.261   5.453   6.908
21215SOL    HW265087   7.192   5.538   7.012
21216SOL     OW65088   7.424   3.878   6.552
21216SOL    HW165089   7.466   3.794   6.537
21216SOL    HW265090   7.346   3.876   6.496
21217SOL     OW65091   5.845   4.047   6.287
21217SOL    HW165092   5.756   4.076   6.268
21217SOL    HW265093   5.850   4.043   6.382
21218SOL     OW65094   6.800   5.324   5.620
21218SOL    HW165095   6.785   5.235   5.651
21218SOL    HW265096   6.730   5.339   5.556
21219SOL     OW65097   6.409   4.734   6.962
21219SOL    HW165098   6.425   4.719   6.869
21219SOL    HW265099   6.396   4.828   6.970
21220SOL     OW65100   6.511   4.644   5.881
21220SOL    HW165101   6.570   4.674   5.813
21220SOL    HW265102   6.554   4.567   5.919
21221SOL     OW65103   7.076   5.352   5.634
21221SOL    HW165104   6.982   5.343   5.622
21221SOL    HW265105   7.111   5.357   5.545
21222SOL     OW65106   5.951   5.040   7.080
21222SOL    HW165107   5.937   5.106   7.012
21222SOL    HW265108   5.880   4.977   7.067
21223SOL     OW65109   7.192   5.002   6.855
21223SOL    HW165110   7.280   5.008   6.893
21223SOL    HW265111   7.141   5.068   6.901
21224SOL     OW65112   6.645   4.831   6.298
21224SOL    HW165113   6.567   4.792   6.336
21224SOL    HW265114   6.694   4.758   6.261
21225SOL     OW65115   6.585   3.945   6.547
21225SOL    HW165116   6.580   3.897   6.465
21225SOL    HW265117   6.576   3.878   6.615
21226SOL     OW65118   6.205   5.222   6.048
21226SOL    HW165119   6.253   5.168   5.984
21226SOL    HW265120   6.122   5.242   6.005
21227SOL     OW65121   7.303   4.122   6.950
21227SOL    HW165122   7.378   4.181   6.958
21227SOL    HW265123   7.337   4.047   6.900
21228SOL     OW65124   5.860   5.064   5.887
21228SOL    HW165125   5.771   5.057   5.852
21228SOL    HW265126   5.849   5.106   5.973
21229SOL     OW65127   5.709   4.780   7.325
21229SOL    HW165128   5.627   4.748   7.365
21229SOL    HW265129   5.777   4.723   7.362
21230SOL     OW65130   6.262   3.910   7.088
21230SOL    HW165131   6.347   3.893   7.048
21230SOL    HW265132   6.283   3.951   7.172
21231SOL     OW65133   5.668   4.042   5.606
21231SOL    HW165134   5.575   4.020   5.602
21231SOL    HW265135   5.674   4.130   5.567
21232SOL     OW65136   7.003   4.578   6.978
21232SOL    HW165137   6.949   4.637   6.926
21232SOL    HW265138   7.090   4.583   6.938
21233SOL     OW65139   5.632   3.884   5.886
21233SOL    HW165140   5.587   3.967   5.869
21233SOL    HW265141   5.719   3.896   5.846
21234SOL     OW65142   6.760   5.061   5.701
21234SOL    HW165143   6.667   5.037   5.697
21234SOL    HW265144   6.782   5.057   5.795
21235SOL     OW65145   6.213   4.546   7.027
21235SOL    HW165146   6.270   4.621   7.009
21235SOL    HW265147   6.272   4.471   7.027
21236SOL     OW65148   7.065   5.519   6.573
21236SOL    HW165149   7.078   5.579   6.500
21236SOL    HW265150   7.149   5.474   6.583
21237SOL     OW65151   6.330   4.268   7.283
21237SOL    HW165152   6.334   4.317   7.365
21237SOL    HW265153   6.329   4.176   7.310
21238SOL     OW65154   5.951   5.462   7.161
21238SOL    HW165155   5.858   5.487   7.158
21238SOL    HW265156   5.950   5.373   7.196
21239SOL     OW65157   7.243   4.602   6.836
21239SOL    HW165158   7.240   4.515   6.795
21239SOL    HW265159   7.232   4.663   6.763
21240SOL     OW65160   6.800   4.044   6.047
21240SOL    HW165161   6.860   3.970   6.041
21240SOL    HW265162   6.827   4.089   6.128
21241SOL     OW65163   6.192   4.455   6.246
21241SOL    HW165164   6.220   4.545   6.230
21241SOL    HW265165   6.118   4.442   6.187
21242SOL     OW65166   7.372   4.099   7.219
21242SOL    HW165167   7.323   4.109   7.138
21242SOL    HW265168   7.318   4.041   7.273
21243SOL     OW65169   7.333   4.674   7.082
21243SOL    HW165170   7.333   4.769   7.070
21243SOL    HW265171   7.309   4.639   6.996
21244SOL     OW65172   6.462   5.092   5.640
21244SOL    HW165173   6.421   5.092   5.727
21244SOL    HW265174   6.452   5.182   5.609
21245SOL     OW65175   6.297   5.585   6.587
21245SOL    HW165176   6.246   5.610   6.510
21245SOL    HW265177   6.348   5.509   6.558
21246SOL     OW65178   6.451   4.699   6.442
21246SOL    HW165179   6.473   4.614   6.479
21246SOL    HW265180   6.414   4.748   6.516
21247SOL     OW65181   6.675   4.723   5.680
21247SOL    HW165182   6.644   4.767   5.600
21247SOL    HW265183   6.741   4.661   5.649
21248SOL     OW65184   7.429   5.284   6.429
21248SOL    HW165185   7.355   5.277   6.368
21248SOL    HW265186   7.409   5.220   6.497
21249SOL     OW65187   5.809   5.012   7.432
21249SOL    HW165188   5.770   4.935   7.389
21249SOL    HW265189   5.755   5.025   7.510
21250SOL     OW65190   5.683   4.963   6.260
21250SOL    HW165191   5.651   4.907   6.330
21250SOL    HW265192   5.729   4.903   6.200
21251SOL     OW65193   6.287   5.132   7.226
21251SOL    HW165194   6.207   5.085   7.253
21251SOL    HW265195   6.272   5.222   7.253
21252SOL     OW65196   7.407   3.907   6.823
21252SOL    HW165197   7.394   3.814   6.842
21252SOL    HW265198   7.411   3.912   6.728
21253SOL     OW65199   6.035   4.152   6.119
21253SOL    HW165200   6.038   4.083   6.052
21253SOL    HW265201   5.970   4.121   6.182
21254SOL     OW65202   7.280   5.213   6.677
21254SOL    HW165203   7.203   5.197   6.623
21254SOL    HW265204   7.281   5.140   6.739
21255SOL     OW65205   5.941   4.293   6.907
21255SOL    HW165206   5.986   4.225   6.959
21255SOL    HW265207   5.946   4.262   6.817
21256SOL     OW65208   6.400   5.287   6.258
21256SOL    HW165209   6.331   5.284   6.191
21256SOL    HW265210   6.368   5.230   6.328
21257SOL     OW65211   7.063   3.967   6.681
21257SOL    HW165212   7.055   3.873   6.693
21257SOL    HW265213   7.007   4.006   6.749
21258SOL     OW65214   6.589   3.736   6.728
21258SOL    HW165215   6.530   3.662   6.712
21258SOL    HW265216   6.677   3.699   6.719
21259SOL     OW65217   6.371   5.053   5.898
21259SOL    HW165218   6.337   4.964   5.912
21259SOL    HW265219   6.445   5.060   5.959
21260SOL     OW65220   6.205   5.294   6.874
21260SOL    HW165221   6.210   5.376   6.923
21260SOL    HW265222   6.294   5.281   6.841
21261SOL     OW65223   6.932   3.778   5.764
21261SOL    HW165224   6.936   3.756   5.671
21261SOL    HW265225   6.851   3.738   5.795
21262SOL     OW65226   6.885   4.172   6.295
21262SOL    HW165227   6.854   4.259   6.267
21262SOL    HW265228   6.819   4.143   6.359
21263SOL     OW65229   5.636   4.796   5.899
21263SOL    HW165230   5.728   4.784   5.875
21263SOL    HW265231   5.605   4.708   5.921
21264SOL     OW65232   6.478   5.393   5.922
21264SOL    HW165233   6.401   5.376   5.867
21264SOL    HW265234   6.449   5.457   5.986
21265SOL     OW65235   5.812   4.344   7.574
21265SOL    HW165236   5.723   4.337   7.611
21265SOL    HW265237   5.802   4.320   7.482
21266SOL     OW65238   5.802   4.023   8.451
21266SOL    HW165239   5.834   3.990   8.535
21266SOL    HW265240   5.718   3.979   8.438
21267SOL     OW65241   5.586   4.123   8.095
21267SOL    HW165242   5.504   4.155   8.135
21267SOL    HW265243   5.563   4.038   8.059
21268SOL     OW65244   6.171   5.012   8.637
21268SOL    HW165245   6.084   4.984   8.609
21268SOL    HW265246   6.159   5.102   8.669
21269SOL     OW65247   7.158   5.246   8.161
21269SOL    HW165248   7.111   5.213   8.238
21269SOL    HW265249   7.091   5.249   8.092
21270SOL     OW65250   6.730   4.419   8.142
21270SOL    HW165251   6.768   4.506   8.131
21270SOL    HW265252   6.676   4.426   8.221
21271SOL     OW65253   7.326   4.336   7.686
21271SOL    HW165254   7.319   4.338   7.591
21271SOL    HW265255   7.345   4.244   7.707
21272SOL     OW65256   6.394   4.887   8.527
21272SOL    HW165257   6.310   4.900   8.572
21272SOL    HW265258   6.400   4.962   8.467
21273SOL     OW65259   6.464   4.494   9.276
21273SOL    HW165260   6.413   4.562   9.320
21273SOL    HW265261   6.486   4.532   9.191
21274SOL     OW65262   6.276   4.722   8.091
21274SOL    HW165263   6.337   4.717   8.165
21274SOL    HW265264   6.204   4.777   8.123
21275SOL     OW65265   6.355   4.868   9.264
21275SOL    HW165266   6.386   4.951   9.301
21275SOL    HW265267   6.262   4.883   9.246
21276SOL     OW65268   5.909   5.149   8.515
21276SOL    HW165269   5.836   5.100   8.478
21276SOL    HW265270   5.951   5.191   8.440
21277SOL     OW65271   6.984   5.262   8.876
21277SOL    HW165272   7.036   5.336   8.844
21277SOL    HW265273   7.047   5.209   8.926
21278SOL     OW65274   6.037   4.062   9.036
21278SOL    HW165275   6.103   4.032   8.975
21278SOL    HW265276   5.954   4.052   8.990
21279SOL     OW65277   7.188   4.163   8.185
21279SOL    HW165278   7.111   4.168   8.127
21279SOL    HW265279   7.194   4.250   8.225
21280SOL     OW65280   5.811   5.437   7.912
21280SOL    HW165281   5.825   5.513   7.968
21280SOL    HW265282   5.893   5.426   7.865
21281SOL     OW65283   6.766   5.041   9.139
21281SOL    HW165284   6.779   5.050   9.234
21281SOL    HW265285   6.706   4.966   9.131
21282SOL     OW65286   5.827   5.165   7.994
21282SOL    HW165287   5.799   5.256   7.991
21282SOL    HW265288   5.765   5.123   8.054
21283SOL     OW65289   5.886   4.819   8.372
21283SOL    HW165290   5.859   4.729   8.390
21283SOL    HW265291   5.809   4.872   8.395
21284SOL     OW65292   6.210   5.504   8.913
21284SOL    HW165293   6.119   5.489   8.938
21284SOL    HW265294   6.220   5.599   8.916
21285SOL     OW65295   6.176   4.700   7.579
21285SOL    HW165296   6.222   4.755   7.516
21285SOL    HW265297   6.203   4.734   7.665
21286SOL     OW65298   7.189   3.840   8.917
21286SOL    HW165299   7.174   3.926   8.877
21286SOL    HW265300   7.166   3.852   9.009
21287SOL     OW65301   5.714   4.369   8.001
21287SOL    HW165302   5.669   4.287   8.018
21287SOL    HW265303   5.704   4.420   8.081
21288SOL     OW65304   7.428   5.482   7.776
21288SOL    HW165305   7.497   5.456   7.837
21288SOL    HW265306   7.451   5.571   7.751
21289SOL     OW65307   5.639   5.321   7.554
21289SOL    HW165308   5.615   5.229   7.569
21289SOL    HW265309   5.610   5.366   7.633
21290SOL     OW65310   7.298   4.653   8.091
21290SOL    HW165311   7.348   4.590   8.040
21290SOL    HW265312   7.249   4.704   8.027
21291SOL     OW65313   7.229   4.828   7.873
21291SOL    HW165314   7.316   4.825   7.834
21291SOL    HW265315   7.235   4.895   7.941
21292SOL     OW65316   5.704   4.467   9.035
21292SOL    HW165317   5.790   4.510   9.032
21292SOL    HW265318   5.641   4.537   9.014
21293SOL     OW65319   6.201   5.119   8.180
21293SOL    HW165320   6.156   5.035   8.188
21293SOL    HW265321   6.182   5.148   8.091
21294SOL     OW65322   6.915   4.978   8.854
21294SOL    HW165323   6.907   4.898   8.802
21294SOL    HW265324   6.945   4.948   8.940
21295SOL     OW65325   6.413   3.730   7.975
21295SOL    HW165326   6.450   3.812   7.942
21295SOL    HW265327   6.318   3.745   7.975
21296SOL     OW65328   5.773   4.679   8.742
21296SOL    HW165329   5.856   4.638   8.716
21296SOL    HW265330   5.709   4.645   8.680
21297SOL     OW65331   7.113   4.737   7.633
21297SOL    HW165332   7.044   4.676   7.659
21297SOL    HW265333   7.151   4.766   7.716
21298SOL     OW65334   6.772   5.531   9.033
21298SOL    HW165335   6.779   5.615   8.987
21298SOL    HW265336   6.694   5.490   8.995
21299SOL     OW65337   5.920   3.978   9.285
21299SOL    HW165338   5.960   4.026   9.212
21299SOL    HW265339   5.828   4.000   9.280
21300SOL     OW65340   7.057   5.137   8.397
21300SOL    HW165341   6.985   5.153   8.458
21300SOL    HW265342   7.039   5.049   8.362
21301SOL     OW65343   7.236   5.487   8.023
21301SOL    HW165344   7.221   5.455   7.934
21301SOL    HW265345   7.213   5.413   8.079
21302SOL     OW65346   6.179   4.448   7.728
21302SOL    HW165347   6.170   4.528   7.677
21302SOL    HW265348   6.111   4.453   7.794
21303SOL     OW65349   6.868   4.101   8.385
21303SOL    HW165350   6.779   4.067   8.390
21303SOL    HW265351   6.918   4.044   8.443
21304SOL     OW65352   7.161   5.411   7.758
21304SOL    HW165353   7.254   5.430   7.745
21304SOL    HW265354   7.127   5.390   7.671
21305SOL     OW65355   6.390   4.341   8.898
21305SOL    HW165356   6.359   4.315   8.985
21305SOL    HW265357   6.354   4.274   8.840
21306SOL     OW65358   6.541   4.606   9.031
21306SOL    HW165359   6.590   4.536   8.989
21306SOL    HW265360   6.488   4.644   8.960
21307SOL     OW65361   6.584   4.125   8.676
21307SOL    HW165362   6.494   4.143   8.703
21307SOL    HW265363   6.576   4.088   8.588
21308SOL     OW65364   6.643   4.420   7.871
21308SOL    HW165365   6.657   4.409   7.965
21308SOL    HW265366   6.558   4.379   7.854
21309SOL     OW65367   5.690   4.530   8.214
21309SOL    HW165368   5.747   4.536   8.291
21309SOL    HW265369   5.617   4.589   8.234
21310SOL     OW65370   5.713   5.600   9.026
21310SOL    HW165371   5.707   5.582   9.120
21310SOL    HW265372   5.649   5.541   8.986
21311SOL     OW65373   6.477   4.075   7.647
21311SOL    HW165374   6.522   4.126   7.580
21311SOL    HW265375   6.428   4.009   7.597
21312SOL     OW65376   7.319   4.297   9.262
21312SOL    HW165377   7.290   4.382   9.228
21312SOL    HW265378   7.256   4.234   9.227
21313SOL     OW65379   6.971   4.873   7.996
21313SOL    HW165380   7.038   4.850   7.932
21313SOL    HW265381   6.911   4.930   7.948
21314SOL     OW65382   6.141   3.886   8.338
21314SOL    HW165383   6.148   3.931   8.423
21314SOL    HW265384   6.117   3.956   8.277
21315SOL     OW65385   6.594   5.188   7.923
21315SOL    HW165386   6.557   5.250   7.860
21315SOL    HW265387   6.546   5.205   8.004
21316SOL     OW65388   5.939   5.541   8.320
21316SOL    HW165389   5.980   5.455   8.324
21316SOL    HW265390   6.012   5.603   8.331
21317SOL     OW65391   7.398   4.789   8.310
21317SOL    HW165392   7.352   4.752   8.235
21317SOL    HW265393   7.333   4.791   8.380
21318SOL     OW65394   5.893   4.679   7.707
21318SOL    HW165395   5.954   4.699   7.636
21318SOL    HW265396   5.856   4.594   7.684
21319SOL     OW65397   7.066   4.489   8.177
21319SOL    HW165398   7.056   4.434   8.255
21319SOL    HW265399   7.155   4.523   8.184
21320SOL     OW65400   6.718   5.493   7.689
21320SOL    HW165401   6.633   5.468   7.725
21320SOL    HW265402   6.732   5.433   7.616
21321SOL     OW65403   5.753   4.017   9.014
21321SOL    HW165404   5.742   4.051   8.925
21321SOL    HW265405   5.750   3.922   9.003
21322SOL     OW65406   7.216   5.105   7.541
21322SOL    HW165407   7.171   5.189   7.532
21322SOL    HW265408   7.149   5.040   7.521
21323SOL     OW65409   6.988   3.827   7.892
21323SOL    HW165410   6.976   3.805   7.800
21323SOL    HW265411   7.080   3.852   7.899
21324SOL     OW65412   5.850   5.526   8.659
21324SOL    HW165413   5.885   5.444   8.692
21324SOL    HW265414   5.810   5.504   8.575
21325SOL     OW65415   6.527   5.422   8.334
21325SOL    HW165416   6.588   5.357   8.368
21325SOL    HW265417   6.483   5.378   8.261
21326SOL     OW65418   5.988   4.409   7.929
21326SOL    HW165419   6.006   4.316   7.943
21326SOL    HW265420   5.893   4.417   7.940
21327SOL     OW65421   7.140   3.914   9.180
21327SOL    HW165422   7.150   3.915   9.275
21327SOL    HW265423   7.086   3.990   9.160
21328SOL     OW65424   6.242   3.839   7.544
21328SOL    HW165425   6.280   3.756   7.574
21328SOL    HW265426   6.178   3.814   7.478
21329SOL     OW65427   6.368   4.019   9.220
21329SOL    HW165428   6.440   3.957   9.210
21329SOL    HW265429   6.295   3.965   9.250
21330SOL     OW65430   6.468   5.255   8.637
21330SOL    HW165431   6.438   5.223   8.552
21330SOL    HW265432   6.520   5.183   8.673
21331SOL     OW65433   6.927   4.309   8.873
21331SOL    HW165434   6.961   4.273   8.954
21331SOL    HW265435   6.958   4.400   8.872
21332SOL     OW65436   6.408   5.126   8.387
21332SOL    HW165437   6.488   5.109   8.337
21332SOL    HW265438   6.339   5.126   8.320
21333SOL     OW65439   6.517   4.239   8.342
21333SOL    HW165440   6.491   4.230   8.250
21333SOL    HW265441   6.538   4.151   8.370
21334SOL     OW65442   6.149   3.788   7.946
21334SOL    HW165443   6.067   3.787   7.995
21334SOL    HW265444   6.140   3.862   7.886
21335SOL     OW65445   7.020   4.929   7.447
21335SOL    HW165446   7.050   4.854   7.497
21335SOL    HW265447   6.929   4.943   7.474
21336SOL     OW65448   5.870   3.781   7.624
21336SOL    HW165449   5.918   3.847   7.574
21336SOL    HW265450   5.938   3.725   7.662
21337SOL     OW65451   6.533   3.974   7.902
21337SOL    HW165452   6.505   4.006   7.817
21337SOL    HW265453   6.627   3.992   7.905
21338SOL     OW65454   6.664   4.407   8.898
21338SOL    HW165455   6.589   4.347   8.902
21338SOL    HW265456   6.741   4.349   8.894
21339SOL     OW65457   6.818   5.296   8.242
21339SOL    HW165458   6.815   5.358   8.169
21339SOL    HW265459   6.875   5.338   8.307
21340SOL     OW65460   6.066   4.877   8.177
21340SOL    HW165461   6.001   4.860   8.245
21340SOL    HW265462   6.019   4.867   8.094
21341SOL     OW65463   6.846   5.521   8.069
21341SOL    HW165464   6.882   5.583   8.006
21341SOL    HW265465   6.765   5.562   8.099
21342SOL     OW65466   6.613   4.257   7.472
21342SOL    HW165467   6.567   4.339   7.453
21342SOL    HW265468   6.672   4.280   7.545
21343SOL     OW65469   5.694   4.273   8.842
21343SOL    HW165470   5.783   4.281   8.808
21343SOL    HW265471   5.684   4.344   8.904
21344SOL     OW65472   6.189   3.944   8.608
21344SOL    HW165473   6.209   3.852   8.624
21344SOL    HW265474   6.103   3.957   8.646
21345SOL     OW65475   6.459   4.187   8.081
21345SOL    HW165476   6.402   4.238   8.024
21345SOL    HW265477   6.477   4.107   8.032
21346SOL     OW65478   6.606   3.784   8.191
21346SOL    HW165479   6.543   3.783   8.118
21346SOL    HW265480   6.583   3.707   8.243
21347SOL     OW65481   7.020   4.882   8.296
21347SOL    HW165482   6.949   4.818   8.303
21347SOL    HW265483   7.033   4.892   8.201
21348SOL     OW65484   7.045   4.339   8.413
21348SOL    HW165485   6.987   4.263   8.409
21348SOL    HW265486   7.099   4.324   8.491
21349SOL     OW65487   7.430   4.536   7.841
21349SOL    HW165488   7.488   4.479   7.892
21349SOL    HW265489   7.391   4.478   7.776
21350SOL     OW65490   6.087   5.136   7.600
21350SOL    HW165491   6.013   5.116   7.658
21350SOL    HW265492   6.063   5.095   7.517
21351SOL     OW65493   7.264   4.999   8.077
21351SOL    HW165494   7.358   5.004   8.097
21351SOL    HW265495   7.230   5.086   8.102
21352SOL     OW65496   6.983   4.292   7.521
21352SOL    HW165497   6.917   4.271   7.588
21352SOL    HW265498   7.063   4.249   7.552
21353SOL     OW65499   6.125   3.985   7.757
21353SOL    HW165500   6.163   3.938   7.683
21353SOL    HW265501   6.092   4.067   7.719
21354SOL     OW65502   7.332   4.971   9.000
21354SOL    HW165503   7.415   4.925   8.999
21354SOL    HW265504   7.352   5.057   9.038
21355SOL     OW65505   6.631   5.088   8.827
21355SOL    HW165506   6.540   5.059   8.842
21355SOL    HW265507   6.676   5.010   8.795
21356SOL     OW65508   7.186   5.335   9.103
21356SOL    HW165509   7.184   5.380   9.019
21356SOL    HW265510   7.271   5.291   9.106
21357SOL     OW65511   6.693   4.948   8.556
21357SOL    HW165512   6.608   4.905   8.567
21357SOL    HW265513   6.691   4.983   8.467
21358SOL     OW65514   7.214   4.825   8.513
21358SOL    HW165515   7.200   4.885   8.587
21358SOL    HW265516   7.137   4.835   8.458
21359SOL     OW65517   6.523   3.802   8.843
21359SOL    HW165518   6.534   3.793   8.749
21359SOL    HW265519   6.601   3.847   8.873
21360SOL     OW65520   6.595   4.834   9.158
21360SOL    HW165521   6.506   4.849   9.189
21360SOL    HW265522   6.589   4.753   9.107
21361SOL     OW65523   6.294   4.783   7.816
21361SOL    HW165524   6.275   4.761   7.908
21361SOL    HW265525   6.374   4.734   7.796
21362SOL     OW65526   6.012   4.537   8.703
21362SOL    HW165527   6.076   4.546   8.773
21362SOL    HW265528   5.982   4.446   8.710
21363SOL     OW65529   6.848   4.087   8.734
21363SOL    HW165530   6.880   4.168   8.775
21363SOL    HW265531   6.757   4.107   8.710
21364SOL     OW65532   5.661   5.311   8.821
21364SOL    HW165533   5.619   5.359   8.749
21364SOL    HW265534   5.752   5.303   8.794
21365SOL     OW65535   5.941   4.843   7.934
21365SOL    HW165536   5.927   4.918   7.876
21365SOL    HW265537   5.929   4.767   7.877
21366SOL     OW65538   6.150   4.255   8.310
21366SOL    HW165539   6.157   4.310   8.232
21366SOL    HW265540   6.211   4.295   8.373
21367SOL     OW65541   6.833   5.074   7.849
21367SOL    HW165542   6.889   5.146   7.879
21367SOL    HW265543   6.745   5.099   7.875
21368SOL     OW65544   6.869   5.175   8.601
21368SOL    HW165545   6.896   5.166   8.692
21368SOL    HW265546   6.803   5.107   8.588
21369SOL     OW65547   7.177   4.338   7.939
21369SOL    HW165548   7.107   4.394   7.973
21369SOL    HW265549   7.198   4.374   7.854
21370SOL     OW65550   5.926   5.276   8.747
21370SOL    HW165551   5.913   5.224   8.668
21370SOL    HW265552   6.021   5.275   8.761
21371SOL     OW65553   5.998   4.478   9.059
21371SOL    HW165554   6.067   4.511   9.003
21371SOL    HW265555   6.008   4.383   9.057
21372SOL     OW65556   7.214   4.520   9.146
21372SOL    HW165557   7.118   4.515   9.138
21372SOL    HW265558   7.243   4.546   9.059
21373SOL     OW65559   6.585   3.852   9.215
21373SOL    HW165560   6.639   3.929   9.195
21373SOL    HW265561   6.633   3.779   9.176
21374SOL     OW65562   6.061   3.750   9.215
21374SOL    HW165563   6.025   3.705   9.138
21374SOL    HW265564   6.013   3.832   9.220
21375SOL     OW65565   6.184   4.602   8.495
21375SOL    HW165566   6.146   4.675   8.446
21375SOL    HW265567   6.117   4.579   8.559
21376SOL     OW65568   6.923   4.584   8.476
21376SOL    HW165569   6.837   4.568   8.438
21376SOL    HW265570   6.971   4.503   8.460
21377SOL     OW65571   6.790   4.251   7.711
21377SOL    HW165572   6.793   4.171   7.764
21377SOL    HW265573   6.742   4.314   7.765
21378SOL     OW65574   5.655   5.041   8.723
21378SOL    HW165575   5.680   4.980   8.792
21378SOL    HW265576   5.636   5.123   8.769
21379SOL     OW65577   6.330   4.369   8.520
21379SOL    HW165578   6.387   4.351   8.445
21379SOL    HW265579   6.288   4.452   8.499
21380SOL     OW65580   7.327   4.702   9.310
21380SOL    HW165581   7.288   4.634   9.256
21380SOL    HW265582   7.266   4.713   9.383
21381SOL     OW65583   5.907   3.799   8.070
21381SOL    HW165584   5.866   3.884   8.087
21381SOL    HW265585   5.898   3.751   8.152
21382SOL     OW65586   7.191   4.088   7.818
21382SOL    HW165587   7.227   4.024   7.880
21382SOL    HW265588   7.183   4.169   7.869
21383SOL     OW65589   6.624   4.483   8.404
21383SOL    HW165590   6.609   4.499   8.498
21383SOL    HW265591   6.592   4.394   8.390
21384SOL     OW65592   6.610   5.287   9.129
21384SOL    HW165593   6.552   5.332   9.068
21384SOL    HW265594   6.554   5.221   9.171
21385SOL     OW65595   7.436   5.223   9.063
21385SOL    HW165596   7.460   5.254   8.976
21385SOL    HW265597   7.515   5.235   9.116
21386SOL     OW65598   5.923   4.642   9.270
21386SOL    HW165599   5.977   4.720   9.258
21386SOL    HW265600   5.954   4.580   9.203
21387SOL     OW65601   7.101   4.001   7.573
21387SOL    HW165602   7.037   3.935   7.602
21387SOL    HW265603   7.140   4.034   7.654
21388SOL     OW65604   6.880   4.545   7.484
21388SOL    HW165605   6.915   4.456   7.491
21388SOL    HW265606   6.905   4.574   7.397
21389SOL     OW65607   6.669   5.067   8.309
21389SOL    HW165608   6.665   4.994   8.247
21389SOL    HW265609   6.722   5.133   8.264
21390SOL     OW65610   5.889   4.534   8.403
21390SOL    HW165611   5.968   4.529   8.349
21390SOL    HW265612   5.875   4.445   8.435
21391SOL     OW65613   5.924   4.262   8.453
21391SOL    HW165614   5.877   4.179   8.445
21391SOL    HW265615   5.999   4.254   8.395
21392SOL     OW65616   6.724   4.085   9.150
21392SOL    HW165617   6.675   4.149   9.202
21392SOL    HW265618   6.813   4.119   9.149
21393SOL     OW65619   6.758   3.915   8.932
21393SOL    HW165620   6.746   3.979   9.003
21393SOL    HW265621   6.796   3.966   8.861
21394SOL     OW65622   5.603   5.040   7.630
21394SOL    HW165623   5.514   5.058   7.600
21394SOL    HW265624   5.597   4.955   7.673
21395SOL     OW65625   5.683   5.500   8.406
21395SOL    HW165626   5.645   5.426   8.359
21395SOL    HW265627   5.768   5.515   8.364
21396SOL     OW65628   6.079   5.306   8.350
21396SOL    HW165629   6.153   5.357   8.383
21396SOL    HW265630   6.118   5.243   8.289
21397SOL     OW65631   6.559   4.512   8.665
21397SOL    HW165632   6.604   4.486   8.745
21397SOL    HW265633   6.476   4.465   8.667
21398SOL     OW65634   5.617   4.281   8.567
21398SOL    HW165635   5.657   4.219   8.507
21398SOL    HW265636   5.656   4.261   8.653
21399SOL     OW65637   5.764   4.238   9.182
21399SOL    HW165638   5.761   4.167   9.117
21399SOL    HW265639   5.738   4.316   9.134
21400SOL     OW65640   6.959   4.656   9.109
21400SOL    HW165641   6.983   4.749   9.103
21400SOL    HW265642   6.960   4.626   9.018
21401SOL     OW65643   6.406   4.303   7.809
21401SOL    HW165644   6.405   4.225   7.754
21401SOL    HW265645   6.327   4.352   7.783
21402SOL     OW65646   7.221   4.334   8.631
21402SOL    HW165647   7.208   4.268   8.699
21402SOL    HW265648   7.307   4.314   8.595
21403SOL     OW65649   5.829   5.278   9.179
21403SOL    HW165650   5.789   5.314   9.258
21403SOL    HW265651   5.839   5.185   9.198
21404SOL     OW65652   6.313   4.168   8.707
21404SOL    HW165653   6.262   4.092   8.678
21404SOL    HW265654   6.298   4.234   8.640
21405SOL     OW65655   6.547   5.412   8.888
21405SOL    HW165656   6.516   5.361   8.813
21405SOL    HW265657   6.510   5.499   8.876
21406SOL     OW65658   6.051   4.218   7.639
21406SOL    HW165659   6.101   4.296   7.664
21406SOL    HW265660   5.963   4.252   7.620
21407SOL     OW65661   5.733   4.872   8.930
21407SOL    HW165662   5.733   4.828   9.015
21407SOL    HW265663   5.746   4.801   8.867
21408SOL     OW65664   6.901   4.782   8.660
21408SOL    HW165665   6.916   4.711   8.598
21408SOL    HW265666   6.829   4.833   8.622
21409SOL     OW65667   6.905   4.582   7.758
21409SOL    HW165668   6.831   4.551   7.809
21409SOL    HW265669   6.880   4.568   7.667
21410SOL     OW65670   7.384   5.443   8.623
21410SOL    HW165671   7.433   5.472   8.546
21410SOL    HW265672   7.340   5.363   8.595
21411SOL     OW65673   6.827   5.456   8.570
21411SOL    HW165674   6.907   5.476   8.521
21411SOL    HW265675   6.831   5.361   8.583
21412SOL     OW65676   5.676   5.005   8.452
21412SOL    HW165677   5.656   5.011   8.546
21412SOL    HW265678   5.612   4.943   8.418
21413SOL     OW65679   6.264   5.412   9.178
21413SOL    HW165680   6.197   5.477   9.199
21413SOL    HW265681   6.281   5.424   9.084
21414SOL     OW65682   7.290   3.871   7.959
21414SOL    HW165683   7.367   3.867   7.903
21414SOL    HW265684   7.285   3.785   8.000
21415SOL     OW65685   6.987   5.295   7.946
21415SOL    HW165686   7.035   5.330   7.870
21415SOL    HW265687   6.922   5.362   7.966
21416SOL     OW65688   5.705   5.549   9.292
21416SOL    HW165689   5.668   5.467   9.326
21416SOL    HW265690   5.761   5.581   9.363
21417SOL     OW65691   6.862   4.659   8.125
21417SOL    HW165692   6.935   4.598   8.136
21417SOL    HW265693   6.897   4.728   8.068
21418SOL     OW65694   6.371   5.010   8.858
21418SOL    HW165695   6.338   5.043   8.942
21418SOL    HW265696   6.295   5.013   8.800
21419SOL     OW65697   6.315   5.306   7.559
21419SOL    HW165698   6.287   5.347   7.477
21419SOL    HW265699   6.235   5.267   7.595
21420SOL     OW65700   7.201   5.448   8.846
21420SOL    HW165701   7.255   5.445   8.768
21420SOL    HW265702   7.190   5.541   8.865
21421SOL     OW65703   7.438   3.895   8.421
21421SOL    HW165704   7.465   3.816   8.376
21421SOL    HW265705   7.351   3.915   8.387
21422SOL     OW65706   5.838   4.048   8.167
21422SOL    HW165707   5.753   4.078   8.136
21422SOL    HW265708   5.828   4.040   8.262
21423SOL     OW65709   6.799   5.324   7.479
21423SOL    HW165710   6.784   5.236   7.515
21423SOL    HW265711   6.734   5.333   7.409
21424SOL     OW65712   6.408   4.735   8.827
21424SOL    HW165713   6.420   4.723   8.733
21424SOL    HW265714   6.392   4.829   8.837
21425SOL     OW65715   6.521   4.654   7.752
21425SOL    HW165716   6.578   4.683   7.681
21425SOL    HW265717   6.560   4.572   7.782
21426SOL     OW65718   7.074   5.349   7.497
21426SOL    HW165719   6.979   5.342   7.487
21426SOL    HW265720   7.108   5.349   7.408
21427SOL     OW65721   5.985   5.025   8.888
21427SOL    HW165722   5.934   5.102   8.864
21427SOL    HW265723   5.919   4.959   8.912
21428SOL     OW65724   7.190   5.014   8.745
21428SOL    HW165725   7.238   4.991   8.825
21428SOL    HW265726   7.098   5.012   8.770
21429SOL     OW65727   6.648   4.839   8.169
21429SOL    HW165728   6.570   4.792   8.200
21429SOL    HW265729   6.705   4.771   8.134
21430SOL     OW65730   6.616   3.970   8.413
21430SOL    HW165731   6.609   3.927   8.328
21430SOL    HW265732   6.604   3.900   8.477
21431SOL     OW65733   6.206   5.227   7.926
21431SOL    HW165734   6.225   5.171   7.851
21431SOL    HW265735   6.162   5.304   7.887
21432SOL     OW65736   7.313   4.122   8.813
21432SOL    HW165737   7.387   4.182   8.819
21432SOL    HW265738   7.346   4.046   8.766
21433SOL     OW65739   5.860   5.061   7.750
21433SOL    HW165740   5.770   5.059   7.718
21433SOL    HW265741   5.855   5.104   7.835
21434SOL     OW65742   5.695   4.774   9.189
21434SOL    HW165743   5.616   4.739   9.230
21434SOL    HW265744   5.766   4.720   9.223
21435SOL     OW65745   6.288   3.902   8.958
21435SOL    HW165746   6.369   3.882   8.912
21435SOL    HW265747   6.311   3.974   9.017
21436SOL     OW65748   5.667   4.045   7.478
21436SOL    HW165749   5.579   4.022   7.448
21436SOL    HW265750   5.688   4.126   7.432
21437SOL     OW65751   7.013   4.591   8.848
21437SOL    HW165752   6.954   4.639   8.790
21437SOL    HW265753   7.096   4.587   8.800
21438SOL     OW65754   5.645   3.880   7.746
21438SOL    HW165755   5.623   3.960   7.699
21438SOL    HW265756   5.727   3.850   7.706
21439SOL     OW65757   6.761   5.065   7.562
21439SOL    HW165758   6.667   5.055   7.554
21439SOL    HW265759   6.780   5.047   7.654
21440SOL     OW65760   6.209   4.550   8.893
21440SOL    HW165761   6.263   4.627   8.878
21440SOL    HW265762   6.271   4.477   8.894
21441SOL     OW65763   7.056   5.503   8.426
21441SOL    HW165764   7.066   5.558   8.349
21441SOL    HW265765   7.137   5.451   8.430
21442SOL     OW65766   6.320   4.282   9.149
21442SOL    HW165767   6.360   4.341   9.213
21442SOL    HW265768   6.335   4.194   9.185
21443SOL     OW65769   7.064   4.918   9.080
21443SOL    HW165770   7.045   4.930   9.173
21443SOL    HW265771   7.158   4.933   9.071
21444SOL     OW65772   5.960   5.467   9.021
21444SOL    HW165773   5.880   5.511   8.992
21444SOL    HW265774   5.929   5.387   9.063
21445SOL     OW65775   7.249   4.602   8.698
21445SOL    HW165776   7.240   4.513   8.665
21445SOL    HW265777   7.238   4.658   8.622
21446SOL     OW65778   6.807   4.045   7.906
21446SOL    HW165779   6.865   3.970   7.901
21446SOL    HW265780   6.838   4.095   7.982
21447SOL     OW65781   6.172   4.464   8.128
21447SOL    HW165782   6.211   4.547   8.102
21447SOL    HW265783   6.107   4.445   8.060
21448SOL     OW65784   7.358   4.051   9.079
21448SOL    HW165785   7.319   4.095   9.004
21448SOL    HW265786   7.285   4.004   9.120
21449SOL     OW65787   7.355   4.657   8.944
21449SOL    HW165788   7.314   4.741   8.964
21449SOL    HW265789   7.326   4.637   8.855
21450SOL     OW65790   6.485   5.094   7.515
21450SOL    HW165791   6.447   5.068   7.598
21450SOL    HW265792   6.445   5.178   7.495
21451SOL     OW65793   6.265   5.510   8.415
21451SOL    HW165794   6.231   5.592   8.378
21451SOL    HW265795   6.350   5.498   8.374
21452SOL     OW65796   6.454   4.701   8.310
21452SOL    HW165797   6.499   4.622   8.339
21452SOL    HW265798   6.418   4.739   8.390
21453SOL     OW65799   6.683   4.732   7.545
21453SOL    HW165800   6.644   4.769   7.466
21453SOL    HW265801   6.740   4.662   7.513
21454SOL     OW65802   7.423   5.283   8.295
21454SOL    HW165803   7.347   5.273   8.237
21454SOL    HW265804   7.433   5.197   8.337
21455SOL     OW65805   5.771   5.029   9.288
21455SOL    HW165806   5.725   4.952   9.255
21455SOL    HW265807   5.863   5.003   9.292
21456SOL     OW65808   5.675   4.964   8.128
21456SOL    HW165809   5.642   4.905   8.196
21456SOL    HW265810   5.721   4.906   8.067
21457SOL     OW65811   6.283   5.129   9.102
21457SOL    HW165812   6.211   5.070   9.124
21457SOL    HW265813   6.246   5.217   9.112
21458SOL     OW65814   7.433   3.909   8.692
21458SOL    HW165815   7.393   3.824   8.710
21458SOL    HW265816   7.433   3.915   8.596
21459SOL     OW65817   6.031   4.150   7.988
21459SOL    HW165818   6.043   4.082   7.922
21459SOL    HW265819   5.965   4.114   8.047
21460SOL     OW65820   7.264   5.212   8.560
21460SOL    HW165821   7.197   5.191   8.494
21460SOL    HW265822   7.254   5.145   8.627
21461SOL     OW65823   5.937   4.271   8.722
21461SOL    HW165824   5.942   4.178   8.742
21461SOL    HW265825   5.932   4.275   8.626
21462SOL     OW65826   6.416   5.308   8.116
21462SOL    HW165827   6.396   5.377   8.052
21462SOL    HW265828   6.342   5.248   8.109
21463SOL     OW65829   7.012   3.951   8.561
21463SOL    HW165830   7.009   3.858   8.580
21463SOL    HW265831   6.962   3.992   8.631
21464SOL     OW65832   6.593   3.740   8.578
21464SOL    HW165833   6.540   3.677   8.530
21464SOL    HW265834   6.679   3.699   8.584
21465SOL     OW65835   6.381   5.037   7.758
21465SOL    HW165836   6.333   4.956   7.769
21465SOL    HW265837   6.444   5.038   7.830
21466SOL     OW65838   6.206   5.282   8.744
21466SOL    HW165839   6.214   5.360   8.798
21466SOL    HW265840   6.289   5.277   8.697
21467SOL     OW65841   6.938   3.776   7.624
21467SOL    HW165842   6.957   3.726   7.545
21467SOL    HW265843   6.853   3.744   7.653
21468SOL     OW65844   6.896   4.192   8.126
21468SOL    HW165845   6.839   4.268   8.124
21468SOL    HW265846   6.883   4.155   8.213
21469SOL     OW65847   7.188   3.934   8.338
21469SOL    HW165848   7.120   3.947   8.404
21469SOL    HW265849   7.177   4.008   8.278
21470SOL     OW65850   5.630   4.791   7.759
21470SOL    HW165851   5.723   4.780   7.738
21470SOL    HW265852   5.600   4.704   7.782
21471SOL     OW65853   6.471   5.391   7.775
21471SOL    HW165854   6.417   5.357   7.703
21471SOL    HW265855   6.412   5.450   7.823
21472SOL     OW65856   5.813   4.322   9.439
21472SOL    HW165857   5.727   4.361   9.451
21472SOL    HW265858   5.817   4.301   9.345
21473SOL     OW65859   5.807   4.009  10.313
21473SOL    HW165860   5.835   3.973  10.397
21473SOL    HW265861   5.718   3.975  10.301
21474SOL     OW65862   5.575   4.108   9.955
21474SOL    HW165863   5.493   4.132   9.998
21474SOL    HW265864   5.553   4.028   9.906
21475SOL     OW65865   6.145   5.019  10.492
21475SOL    HW165866   6.080   5.029  10.423
21475SOL    HW265867   6.111   5.072  10.564
21476SOL     OW65868   7.151   5.265  10.019
21476SOL    HW165869   7.112   5.225  10.096
21476SOL    HW265870   7.082   5.261   9.952
21477SOL     OW65871   6.723   4.426  10.004
21477SOL    HW165872   6.773   4.506   9.990
21477SOL    HW265873   6.674   4.442  10.084
21478SOL     OW65874   7.372   4.314   9.527
21478SOL    HW165875   7.345   4.315   9.435
21478SOL    HW265876   7.312   4.252   9.569
21479SOL     OW65877   6.350   4.872  10.384
21479SOL    HW165878   6.275   4.905  10.432
21479SOL    HW265879   6.375   4.944  10.325
21480SOL     OW65880   6.464   4.497  11.135
21480SOL    HW165881   6.416   4.565  11.183
21480SOL    HW265882   6.484   4.538  11.050
21481SOL     OW65883   6.270   4.713   9.956
21481SOL    HW165884   6.334   4.713  10.027
21481SOL    HW265885   6.200   4.772   9.987
21482SOL     OW65886   6.307   4.879  11.132
21482SOL    HW165887   6.347   4.962  11.159
21482SOL    HW265888   6.223   4.905  11.093
21483SOL     OW65889   5.947   5.090  10.319
21483SOL    HW165890   5.856   5.062  10.320
21483SOL    HW265891   5.944   5.183  10.298
21484SOL     OW65892   7.055   5.212  10.700
21484SOL    HW165893   7.103   5.293  10.686
21484SOL    HW265894   6.970   5.240  10.733
21485SOL     OW65895   6.042   4.112  10.794
21485SOL    HW165896   6.108   4.043  10.792
21485SOL    HW265897   5.959   4.066  10.807
21486SOL     OW65898   7.192   4.170  10.050
21486SOL    HW165899   7.115   4.179   9.994
21486SOL    HW265900   7.213   4.259  10.076
21487SOL     OW65901   5.802   5.443   9.774
21487SOL    HW165902   5.826   5.519   9.827
21487SOL    HW265903   5.874   5.433   9.712
21488SOL     OW65904   6.754   5.031  10.997
21488SOL    HW165905   6.757   5.069  11.085
21488SOL    HW265906   6.686   4.963  11.003
21489SOL     OW65907   5.822   5.178   9.864
21489SOL    HW165908   5.795   5.270   9.852
21489SOL    HW265909   5.756   5.142   9.923
21490SOL     OW65910   5.845   4.812  10.188
21490SOL    HW165911   5.840   4.725  10.226
21490SOL    HW265912   5.795   4.868  10.248
21491SOL     OW65913   6.227   5.530  10.773
21491SOL    HW165914   6.139   5.494  10.767
21491SOL    HW265915   6.214   5.623  10.792
21492SOL     OW65916   6.200   4.694   9.457
21492SOL    HW165917   6.204   4.754   9.383
21492SOL    HW265918   6.234   4.745   9.531
21493SOL     OW65919   7.174   3.855  10.772
21493SOL    HW165920   7.207   3.932  10.726
21493SOL    HW265921   7.154   3.887  10.860
21494SOL     OW65922   5.710   4.367   9.876
21494SOL    HW165923   5.667   4.284   9.897
21494SOL    HW265924   5.692   4.423   9.952
21495SOL     OW65925   7.428   5.474   9.634
21495SOL    HW165926   7.490   5.450   9.703
21495SOL    HW265927   7.445   5.567   9.618
21496SOL     OW65928   5.643   5.316   9.417
21496SOL    HW165929   5.634   5.221   9.424
21496SOL    HW265930   5.605   5.350   9.498
21497SOL     OW65931   7.230   4.829   9.746
21497SOL    HW165932   7.318   4.836   9.708
21497SOL    HW265933   7.242   4.773   9.822
21498SOL     OW65934   5.699   4.471  10.894
21498SOL    HW165935   5.781   4.521  10.893
21498SOL    HW265936   5.631   4.536  10.881
21499SOL     OW65937   6.201   5.114  10.045
21499SOL    HW165938   6.152   5.032  10.055
21499SOL    HW265939   6.186   5.140   9.954
21500SOL     OW65940   6.939   4.923  10.782
21500SOL    HW165941   6.945   4.886  10.694
21500SOL    HW265942   6.850   4.903  10.811
21501SOL     OW65943   6.415   3.734   9.817
21501SOL    HW165944   6.463   3.812   9.791
21501SOL    HW265945   6.323   3.758   9.808
21502SOL     OW65946   5.768   4.675  10.606
21502SOL    HW165947   5.853   4.641  10.579
21502SOL    HW265948   5.713   4.665  10.528
21503SOL     OW65949   7.121   4.729   9.512
21503SOL    HW165950   7.053   4.667   9.539
21503SOL    HW265951   7.155   4.764   9.594
21504SOL     OW65952   6.790   5.545  10.941
21504SOL    HW165953   6.783   5.610  10.871
21504SOL    HW265954   6.790   5.461  10.895
21505SOL     OW65955   5.921   3.978  11.164
21505SOL    HW165956   5.956   4.065  11.145
21505SOL    HW265957   5.827   3.991  11.172
21506SOL     OW65958   7.049   5.148  10.249
21506SOL    HW165959   6.983   5.157  10.318
21506SOL    HW265960   7.042   5.056  10.222
21507SOL     OW65961   7.242   5.488   9.880
21507SOL    HW165962   7.218   5.453   9.794
21507SOL    HW265963   7.219   5.418   9.942
21508SOL     OW65964   6.190   4.454   9.585
21508SOL    HW165965   6.202   4.524   9.521
21508SOL    HW265966   6.130   4.491   9.650
21509SOL     OW65967   6.868   4.099  10.252
21509SOL    HW165968   6.779   4.063  10.255
21509SOL    HW265969   6.919   4.040  10.307
21510SOL     OW65970   7.162   5.399   9.621
21510SOL    HW165971   7.254   5.421   9.610
21510SOL    HW265972   7.131   5.383   9.532
21511SOL     OW65973   6.370   4.329  10.770
21511SOL    HW165974   6.346   4.286  10.852
21511SOL    HW265975   6.341   4.268  10.702
21512SOL     OW65976   6.979   4.200  10.989
21512SOL    HW165977   6.988   4.242  11.075
21512SOL    HW265978   7.031   4.120  10.996
21513SOL     OW65979   6.534   4.612  10.891
21513SOL    HW165980   6.583   4.540  10.852
21513SOL    HW265981   6.487   4.651  10.817
21514SOL     OW65982   6.580   4.130  10.539
21514SOL    HW165983   6.488   4.143  10.561
21514SOL    HW265984   6.579   4.100  10.448
21515SOL     OW65985   6.642   4.417   9.733
21515SOL    HW165986   6.659   4.413   9.827
21515SOL    HW265987   6.556   4.376   9.722
21516SOL     OW65988   5.661   4.534  10.088
21516SOL    HW165989   5.741   4.537  10.140
21516SOL    HW265990   5.611   4.610  10.117
21517SOL     OW65991   5.708   5.606  10.896
21517SOL    HW165992   5.705   5.582  10.989
21517SOL    HW265993   5.636   5.558  10.856
21518SOL     OW65994   6.484   4.081   9.507
21518SOL    HW165995   6.530   4.145   9.453
21518SOL    HW265996   6.455   4.014   9.445
21519SOL     OW65997   7.295   4.300  11.141
21519SOL    HW165998   7.262   4.373  11.088
21519SOL    HW265999   7.317   4.232  11.077
21520SOL     OW66000   6.962   4.870   9.845
21520SOL    HW166001   7.048   4.865   9.803
21520SOL    HW266002   6.911   4.927   9.786
21521SOL     OW66003   6.144   3.901  10.206
21521SOL    HW166004   6.142   3.939  10.294
21521SOL    HW266005   6.136   3.976  10.147
21522SOL     OW66006   6.588   5.178   9.785
21522SOL    HW166007   6.555   5.248   9.728
21522SOL    HW266008   6.547   5.195   9.870
21523SOL     OW66009   5.940   5.544  10.173
21523SOL    HW166010   5.989   5.462  10.180
21523SOL    HW266011   6.003   5.612  10.196
21524SOL     OW66012   7.410   4.815  10.213
21524SOL    HW166013   7.380   4.765  10.138
21524SOL    HW266014   7.338   4.809  10.276
21525SOL     OW66015   6.815   5.256  10.814
21525SOL    HW166016   6.784   5.207  10.890
21525SOL    HW266017   6.738   5.267  10.758
21526SOL     OW66018   5.924   4.668   9.563
21526SOL    HW166019   6.001   4.703   9.519
21526SOL    HW266020   5.880   4.616   9.496
21527SOL     OW66021   7.065   4.466  10.036
21527SOL    HW166022   7.064   4.432  10.125
21527SOL    HW266023   7.142   4.522  10.033
21528SOL     OW66024   6.055   4.974  11.056
21528SOL    HW166025   6.034   4.978  10.962
21528SOL    HW266026   5.970   4.977  11.100
21529SOL     OW66027   6.717   5.493   9.543
21529SOL    HW166028   6.635   5.460   9.582
21529SOL    HW266029   6.737   5.431   9.473
21530SOL     OW66030   5.784   4.008  10.819
21530SOL    HW166031   5.705   4.056  10.793
21530SOL    HW266032   5.752   3.924  10.849
21531SOL     OW66033   7.223   5.108   9.398
21531SOL    HW166034   7.176   5.192   9.387
21531SOL    HW266035   7.156   5.042   9.383
21532SOL     OW66036   6.044   5.469   9.625
21532SOL    HW166037   6.097   5.517   9.690
21532SOL    HW266038   6.108   5.421   9.573
21533SOL     OW66039   6.987   3.825   9.751
21533SOL    HW166040   6.971   3.806   9.658
21533SOL    HW266041   7.077   3.857   9.754
21534SOL     OW66042   5.855   5.532  10.519
21534SOL    HW166043   5.898   5.456  10.558
21534SOL    HW266044   5.805   5.496  10.445
21535SOL     OW66045   6.570   5.402  10.183
21535SOL    HW166046   6.654   5.360  10.163
21535SOL    HW266047   6.508   5.361  10.123
21536SOL     OW66048   5.980   4.392   9.800
21536SOL    HW166049   5.980   4.348   9.715
21536SOL    HW266050   5.888   4.399   9.824
21537SOL     OW66051   7.106   3.948  11.037
21537SOL    HW166052   7.114   3.971  11.129
21537SOL    HW266053   7.050   3.871  11.036
21538SOL     OW66054   6.255   3.813   9.387
21538SOL    HW166055   6.329   3.757   9.363
21538SOL    HW266056   6.185   3.789   9.327
21539SOL     OW66057   6.337   3.937  11.098
21539SOL    HW166058   6.430   3.923  11.083
21539SOL    HW266059   6.326   4.032  11.097
21540SOL     OW66060   6.518   5.247  10.457
21540SOL    HW166061   6.475   5.188  10.395
21540SOL    HW266062   6.549   5.189  10.527
21541SOL     OW66063   6.918   4.314  10.743
21541SOL    HW166064   6.953   4.283  10.826
21541SOL    HW266065   6.958   4.400  10.729
21542SOL     OW66066   6.401   5.107  10.247
21542SOL    HW166067   6.485   5.098  10.201
21542SOL    HW266068   6.336   5.110  10.177
21543SOL     OW66069   6.513   4.230  10.206
21543SOL    HW166070   6.488   4.224  10.114
21543SOL    HW266071   6.544   4.143  10.228
21544SOL     OW66072   7.018   4.928   9.351
21544SOL    HW166073   7.047   4.851   9.400
21544SOL    HW266074   6.929   4.943   9.381
21545SOL     OW66075   5.905   3.813   9.508
21545SOL    HW166076   5.913   3.882   9.441
21545SOL    HW266077   5.927   3.732   9.462
21546SOL     OW66078   6.534   3.973   9.759
21546SOL    HW166079   6.507   4.009   9.674
21546SOL    HW266080   6.627   3.992   9.765
21547SOL     OW66081   6.658   4.404  10.770
21547SOL    HW166082   6.593   4.333  10.762
21547SOL    HW266083   6.742   4.360  10.758
21548SOL     OW66084   6.812   5.309  10.105
21548SOL    HW166085   6.828   5.371  10.034
21548SOL    HW266086   6.893   5.308  10.156
21549SOL     OW66087   6.059   4.876  10.030
21549SOL    HW166088   5.989   4.860  10.093
21549SOL    HW266089   6.017   4.866   9.945
21550SOL     OW66090   6.849   5.520   9.923
21550SOL    HW166091   6.901   5.579   9.868
21550SOL    HW266092   6.774   5.574   9.952
21551SOL     OW66093   6.607   4.265   9.342
21551SOL    HW166094   6.566   4.348   9.320
21551SOL    HW266095   6.681   4.289   9.398
21552SOL     OW66096   5.685   4.276  10.702
21552SOL    HW166097   5.776   4.285  10.675
21552SOL    HW266098   5.671   4.347  10.765
21553SOL     OW66099   6.145   3.956  10.482
21553SOL    HW166100   6.182   3.874  10.513
21553SOL    HW266101   6.053   3.952  10.509
21554SOL     OW66102   6.450   4.178   9.944
21554SOL    HW166103   6.411   4.237   9.880
21554SOL    HW266104   6.477   4.102   9.893
21555SOL     OW66105   6.606   3.782  10.060
21555SOL    HW166106   6.551   3.783   9.982
21555SOL    HW266107   6.576   3.705  10.109
21556SOL     OW66108   7.039   4.883  10.173
21556SOL    HW166109   6.975   4.830  10.126
21556SOL    HW266110   7.108   4.901  10.109
21557SOL     OW66111   7.042   4.340  10.288
21557SOL    HW166112   6.991   4.259  10.280
21557SOL    HW266113   7.104   4.321  10.359
21558SOL     OW66114   7.475   4.531   9.658
21558SOL    HW166115   7.480   4.497   9.747
21558SOL    HW266116   7.432   4.462   9.608
21559SOL     OW66117   6.077   5.157   9.502
21559SOL    HW166118   5.998   5.128   9.547
21559SOL    HW266119   6.084   5.100   9.426
21560SOL     OW66120   7.241   5.004  10.026
21560SOL    HW166121   7.320   4.976   9.978
21560SOL    HW266122   7.216   5.086   9.983
21561SOL     OW66123   7.010   4.326   9.419
21561SOL    HW166124   6.941   4.283   9.469
21561SOL    HW266125   7.016   4.275   9.338
21562SOL     OW66126   6.155   3.975   9.585
21562SOL    HW166127   6.195   3.939   9.506
21562SOL    HW266128   6.126   4.063   9.560
21563SOL     OW66129   7.317   5.001  10.914
21563SOL    HW166130   7.383   4.932  10.924
21563SOL    HW266131   7.366   5.083  10.918
21564SOL     OW66132   6.628   5.088  10.659
21564SOL    HW166133   6.545   5.058  10.696
21564SOL    HW266134   6.694   5.040  10.709
21565SOL     OW66135   7.182   5.286  10.954
21565SOL    HW166136   7.171   5.349  10.883
21565SOL    HW266137   7.277   5.277  10.964
21566SOL     OW66138   6.721   4.953  10.412
21566SOL    HW166139   6.634   4.951  10.452
21566SOL    HW266140   6.704   4.976  10.320
21567SOL     OW66141   7.201   4.810  10.392
21567SOL    HW166142   7.178   4.870  10.462
21567SOL    HW266143   7.134   4.824  10.325
21568SOL     OW66144   6.504   3.814  10.703
21568SOL    HW166145   6.523   3.797  10.610
21568SOL    HW266146   6.584   3.854  10.737
21569SOL     OW66147   6.572   4.832  11.042
21569SOL    HW166148   6.482   4.857  11.065
21569SOL    HW266149   6.562   4.757  10.983
21570SOL     OW66150   6.310   4.798   9.690
21570SOL    HW166151   6.287   4.768   9.778
21570SOL    HW266152   6.385   4.743   9.664
21571SOL     OW66153   6.009   4.547  10.561
21571SOL    HW166154   6.076   4.558  10.629
21571SOL    HW266155   5.976   4.458  10.573
21572SOL     OW66156   6.847   4.093  10.596
21572SOL    HW166157   6.879   4.174  10.635
21572SOL    HW266158   6.757   4.113  10.569
21573SOL     OW66159   5.662   5.295  10.665
21573SOL    HW166160   5.625   5.356  10.602
21573SOL    HW266161   5.757   5.302  10.654
21574SOL     OW66162   5.930   4.842   9.788
21574SOL    HW166163   5.917   4.917   9.730
21574SOL    HW266164   5.930   4.766   9.730
21575SOL     OW66165   6.135   4.253  10.176
21575SOL    HW166166   6.146   4.313  10.103
21575SOL    HW266167   6.205   4.278  10.238
21576SOL     OW66168   6.829   5.078   9.696
21576SOL    HW166169   6.887   5.146   9.730
21576SOL    HW266170   6.743   5.100   9.731
21577SOL     OW66171   6.878   5.179  10.461
21577SOL    HW166172   6.925   5.162  10.542
21577SOL    HW266173   6.815   5.106  10.453
21578SOL     OW66174   7.166   4.345   9.792
21578SOL    HW166175   7.127   4.396   9.863
21578SOL    HW266176   7.170   4.407   9.718
21579SOL     OW66177   6.006   4.476  10.921
21579SOL    HW166178   6.070   4.514  10.860
21579SOL    HW266179   6.007   4.382  10.901
21580SOL     OW66180   7.202   4.511  10.997
21580SOL    HW166181   7.112   4.542  10.984
21580SOL    HW266182   7.251   4.549  10.924
21581SOL     OW66183   6.592   3.861  11.064
21581SOL    HW166184   6.648   3.935  11.041
21581SOL    HW266185   6.641   3.784  11.036
21582SOL     OW66186   6.064   3.761  11.086
21582SOL    HW166187   6.021   3.712  11.017
21582SOL    HW266188   6.010   3.839  11.098
21583SOL     OW66189   6.183   4.595  10.352
21583SOL    HW166190   6.187   4.688  10.331
21583SOL    HW266191   6.114   4.588  10.417
21584SOL     OW66192   6.928   4.582  10.353
21584SOL    HW166193   6.864   4.589  10.282
21584SOL    HW266194   6.974   4.499  10.336
21585SOL     OW66195   6.789   4.245   9.572
21585SOL    HW166196   6.792   4.166   9.626
21585SOL    HW266197   6.744   4.310   9.627
21586SOL     OW66198   5.888   3.917  10.562
21586SOL    HW166199   5.835   3.950  10.635
21586SOL    HW266200   5.869   3.824  10.558
21587SOL     OW66201   5.632   5.033  10.592
21587SOL    HW166202   5.670   4.983  10.664
21587SOL    HW266203   5.638   5.124  10.619
21588SOL     OW66204   6.314   4.355  10.369
21588SOL    HW166205   6.384   4.345  10.305
21588SOL    HW266206   6.278   4.443  10.353
21589SOL     OW66207   7.329   4.689  11.164
21589SOL    HW166208   7.291   4.618  11.113
21589SOL    HW266209   7.258   4.721  11.219
21590SOL     OW66210   5.897   3.793   9.923
21590SOL    HW166211   5.869   3.880   9.952
21590SOL    HW266212   5.911   3.743  10.004
21591SOL     OW66213   7.201   4.098   9.684
21591SOL    HW166214   7.240   4.044   9.753
21591SOL    HW266215   7.180   4.180   9.727
21592SOL     OW66216   6.606   4.483  10.259
21592SOL    HW166217   6.606   4.497  10.354
21592SOL    HW266218   6.583   4.391  10.249
21593SOL     OW66219   6.592   5.289  11.003
21593SOL    HW166220   6.559   5.348  10.936
21593SOL    HW266221   6.538   5.210  10.995
21594SOL     OW66222   7.450   5.238  10.915
21594SOL    HW166223   7.468   5.264  10.825
21594SOL    HW266224   7.533   5.252  10.961
21595SOL     OW66225   5.938   4.628  11.137
21595SOL    HW166226   6.023   4.664  11.161
21595SOL    HW266227   5.956   4.569  11.064
21596SOL     OW66228   7.153   3.957   9.451
21596SOL    HW166229   7.067   3.921   9.468
21596SOL    HW266230   7.168   4.020   9.522
21597SOL     OW66231   6.877   4.553   9.348
21597SOL    HW166232   6.929   4.474   9.361
21597SOL    HW266233   6.902   4.584   9.260
21598SOL     OW66234   6.659   5.066  10.164
21598SOL    HW166235   6.660   4.990  10.106
21598SOL    HW266236   6.717   5.129  10.121
21599SOL     OW66237   5.889   4.532  10.252
21599SOL    HW166238   5.978   4.546  10.220
21599SOL    HW266239   5.890   4.444  10.289
21600SOL     OW66240   5.915   4.254  10.331
21600SOL    HW166241   5.876   4.167  10.316
21600SOL    HW266242   5.991   4.256  10.272
21601SOL     OW66243   6.722   4.100  10.998
21601SOL    HW166244   6.677   4.158  11.060
21601SOL    HW266245   6.809   4.138  10.988
21602SOL     OW66246   6.745   3.920  10.786
21602SOL    HW166247   6.735   3.986  10.854
21602SOL    HW266248   6.788   3.966  10.714
21603SOL     OW66249   5.580   5.064   9.552
21603SOL    HW166250   5.497   5.081   9.507
21603SOL    HW266251   5.582   4.969   9.563
21604SOL     OW66252   5.681   5.504  10.257
21604SOL    HW166253   5.644   5.429  10.211
21604SOL    HW266254   5.767   5.517  10.218
21605SOL     OW66255   6.100   5.327  10.201
21605SOL    HW166256   6.166   5.322  10.270
21605SOL    HW266257   6.114   5.248  10.149
21606SOL     OW66258   6.564   4.507  10.528
21606SOL    HW166259   6.612   4.486  10.608
21606SOL    HW266260   6.476   4.471  10.543
21607SOL     OW66261   5.622   4.269  10.428
21607SOL    HW166262   5.703   4.271  10.377
21607SOL    HW266263   5.652   4.270  10.519
21608SOL     OW66264   5.783   4.246  11.036
21608SOL    HW166265   5.795   4.186  10.963
21608SOL    HW266266   5.744   4.324  10.997
21609SOL     OW66267   6.961   4.649  10.976
21609SOL    HW166268   6.966   4.745  10.973
21609SOL    HW266269   6.959   4.622  10.884
21610SOL     OW66270   6.399   4.295   9.685
21610SOL    HW166271   6.409   4.225   9.620
21610SOL    HW266272   6.330   4.351   9.650
21611SOL     OW66273   7.224   4.317  10.496
21611SOL    HW166274   7.217   4.252  10.566
21611SOL    HW266275   7.310   4.302  10.457
21612SOL     OW66276   5.811   5.260  11.046
21612SOL    HW166277   5.799   5.326  11.115
21612SOL    HW266278   5.819   5.177  11.093
21613SOL     OW66279   6.305   4.168  10.562
21613SOL    HW166280   6.245   4.097  10.536
21613SOL    HW266281   6.297   4.233  10.493
21614SOL     OW66282   6.506   5.404  10.757
21614SOL    HW166283   6.431   5.354  10.725
21614SOL    HW266284   6.478   5.495  10.749
21615SOL     OW66285   6.032   4.229   9.571
21615SOL    HW166286   6.094   4.299   9.552
21615SOL    HW266287   5.955   4.251   9.519
21616SOL     OW66288   5.727   4.867  10.794
21616SOL    HW166289   5.726   4.822  10.878
21616SOL    HW266290   5.739   4.796  10.730
21617SOL     OW66291   6.894   4.778  10.539
21617SOL    HW166292   6.915   4.710  10.474
21617SOL    HW266293   6.834   4.837  10.492
21618SOL     OW66294   6.903   4.584   9.620
21618SOL    HW166295   6.828   4.548   9.667
21618SOL    HW266296   6.882   4.570   9.527
21619SOL     OW66297   7.371   5.455  10.481
21619SOL    HW166298   7.426   5.485  10.408
21619SOL    HW266299   7.334   5.372  10.451
21620SOL     OW66300   6.806   5.443  10.413
21620SOL    HW166301   6.885   5.482  10.376
21620SOL    HW266302   6.830   5.352  10.431
21621SOL     OW66303   5.685   4.976  10.334
21621SOL    HW166304   5.663   4.998  10.424
21621SOL    HW266305   5.600   4.959  10.292
21622SOL     OW66306   6.257   5.400  11.017
21622SOL    HW166307   6.192   5.462  11.051
21622SOL    HW266308   6.273   5.429  10.927
21623SOL     OW66309   7.326   3.884   9.830
21623SOL    HW166310   7.384   3.869   9.755
21623SOL    HW266311   7.301   3.796   9.859
21624SOL     OW66312   6.978   5.294   9.803
21624SOL    HW166313   7.035   5.325   9.732
21624SOL    HW266314   6.922   5.369   9.823
21625SOL     OW66315   5.714   5.536  11.158
21625SOL    HW166316   5.671   5.460  11.196
21625SOL    HW266317   5.767   5.571  11.229
21626SOL     OW66318   6.872   4.659   9.988
21626SOL    HW166319   6.944   4.596   9.992
21626SOL    HW266320   6.902   4.726   9.928
21627SOL     OW66321   6.383   5.007  10.739
21627SOL    HW166322   6.354   5.039  10.824
21627SOL    HW266323   6.333   5.058  10.676
21628SOL     OW66324   6.255   5.358   9.464
21628SOL    HW166325   6.263   5.367   9.369
21628SOL    HW266326   6.199   5.282   9.476
21629SOL     OW66327   7.202   5.446  10.710
21629SOL    HW166328   7.259   5.452  10.633
21629SOL    HW266329   7.188   5.538  10.735
21630SOL     OW66330   7.429   3.896  10.278
21630SOL    HW166331   7.456   3.808  10.253
21630SOL    HW266332   7.343   3.907  10.237
21631SOL     OW66333   5.824   4.031  10.037
21631SOL    HW166334   5.739   4.066  10.011
21631SOL    HW266335   5.822   4.030  10.133
21632SOL     OW66336   6.798   5.323   9.338
21632SOL    HW166337   6.785   5.234   9.369
21632SOL    HW266338   6.738   5.332   9.264
21633SOL     OW66339   6.406   4.738  10.683
21633SOL    HW166340   6.419   4.736  10.588
21633SOL    HW266341   6.391   4.831  10.702
21634SOL     OW66342   6.520   4.648   9.615
21634SOL    HW166343   6.571   4.678   9.540
21634SOL    HW266344   6.565   4.570   9.645
21635SOL     OW66345   7.074   5.355   9.357
21635SOL    HW166346   6.980   5.342   9.346
21635SOL    HW266347   7.109   5.355   9.268
21636SOL     OW66348   5.975   5.006  10.803
21636SOL    HW166349   5.970   5.091  10.759
21636SOL    HW266350   5.890   4.965  10.785
21637SOL     OW66351   7.182   4.992  10.597
21637SOL    HW166352   7.276   5.006  10.612
21637SOL    HW266353   7.142   5.074  10.625
21638SOL     OW66354   6.649   4.836  10.029
21638SOL    HW166355   6.574   4.784  10.058
21638SOL    HW266356   6.711   4.773   9.995
21639SOL     OW66357   6.615   3.968  10.278
21639SOL    HW166358   6.613   3.923  10.194
21639SOL    HW266359   6.606   3.899  10.343
21640SOL     OW66360   6.198   5.210   9.787
21640SOL    HW166361   6.245   5.163   9.719
21640SOL    HW266362   6.111   5.225   9.751
21641SOL     OW66363   7.320   4.109  10.695
21641SOL    HW166364   7.390   4.174  10.690
21641SOL    HW266365   7.347   4.039  10.635
21642SOL     OW66366   5.854   5.057   9.627
21642SOL    HW166367   5.773   5.061   9.578
21642SOL    HW266368   5.836   5.103   9.709
21643SOL     OW66369   5.708   4.764  11.050
21643SOL    HW166370   5.626   4.736  11.092
21643SOL    HW266371   5.775   4.709  11.091
21644SOL     OW66372   6.258   3.905  10.811
21644SOL    HW166373   6.342   3.891  10.769
21644SOL    HW266374   6.279   3.925  10.903
21645SOL     OW66375   5.640   4.046   9.346
21645SOL    HW166376   5.564   4.029   9.291
21645SOL    HW266377   5.679   4.126   9.310
21646SOL     OW66378   7.007   4.586  10.713
21646SOL    HW166379   6.953   4.641  10.656
21646SOL    HW266380   7.092   4.583  10.669
21647SOL     OW66381   5.646   3.884   9.595
21647SOL    HW166382   5.612   3.946   9.531
21647SOL    HW266383   5.736   3.868   9.568
21648SOL     OW66384   6.760   5.064   9.421
21648SOL    HW166385   6.666   5.046   9.418
21648SOL    HW266386   6.782   5.055   9.514
21649SOL     OW66387   6.209   4.552  10.749
21649SOL    HW166388   6.264   4.628  10.731
21649SOL    HW266389   6.270   4.478  10.753
21650SOL     OW66390   7.056   5.517  10.301
21650SOL    HW166391   7.076   5.583  10.234
21650SOL    HW266392   7.141   5.476  10.320
21651SOL     OW66393   6.348   4.240  11.040
21651SOL    HW166394   6.307   4.320  11.071
21651SOL    HW266395   6.440   4.248  11.063
21652SOL     OW66396   5.963   5.496  10.880
21652SOL    HW166397   5.873   5.528  10.879
21652SOL    HW266398   5.959   5.412  10.833
21653SOL     OW66399   7.241   4.593  10.564
21653SOL    HW166400   7.238   4.507  10.520
21653SOL    HW266401   7.232   4.656  10.493
21654SOL     OW66402   6.800   4.037   9.773
21654SOL    HW166403   6.864   3.966   9.764
21654SOL    HW266404   6.833   4.089   9.846
21655SOL     OW66405   6.166   4.453   9.994
21655SOL    HW166406   6.207   4.537   9.971
21655SOL    HW266407   6.105   4.437   9.922
21656SOL     OW66408   7.333   4.090  10.969
21656SOL    HW166409   7.325   4.104  10.875
21656SOL    HW266410   7.261   4.031  10.990
21657SOL     OW66411   7.341   4.652  10.809
21657SOL    HW166412   7.356   4.746  10.800
21657SOL    HW266413   7.314   4.624  10.721
21658SOL     OW66414   6.465   5.115   9.364
21658SOL    HW166415   6.427   5.103   9.451
21658SOL    HW266416   6.394   5.154   9.313
21659SOL     OW66417   6.331   5.555  10.284
21659SOL    HW166418   6.259   5.617  10.271
21659SOL    HW266419   6.335   5.507  10.201
21660SOL     OW66420   6.450   4.701  10.171
21660SOL    HW166421   6.499   4.624  10.200
21660SOL    HW266422   6.417   4.740  10.251
21661SOL     OW66423   6.673   4.727   9.404
21661SOL    HW166424   6.645   4.764   9.320
21661SOL    HW266425   6.741   4.663   9.380
21662SOL     OW66426   7.435   5.277  10.146
21662SOL    HW166427   7.357   5.270  10.091
21662SOL    HW266428   7.438   5.193  10.193
21663SOL     OW66429   5.803   5.006  11.164
21663SOL    HW166430   5.761   4.937  11.112
21663SOL    HW266431   5.741   5.024  11.235
21664SOL     OW66432   5.678   4.948   9.975
21664SOL    HW166433   5.718   4.905  10.051
21664SOL    HW266434   5.729   4.915   9.901
21665SOL     OW66435   6.286   5.130  10.965
21665SOL    HW166436   6.198   5.093  10.975
21665SOL    HW266437   6.274   5.224  10.977
21666SOL     OW66438   7.398   3.898  10.549
21666SOL    HW166439   7.395   3.803  10.555
21666SOL    HW266440   7.410   3.916  10.455
21667SOL     OW66441   6.013   4.066   9.831
21667SOL    HW166442   6.035   4.144   9.780
21667SOL    HW266443   5.963   4.099   9.905
21668SOL     OW66444   7.266   5.218  10.407
21668SOL    HW166445   7.196   5.198  10.345
21668SOL    HW266446   7.291   5.133  10.443
21669SOL     OW66447   5.937   4.288  10.605
21669SOL    HW166448   5.987   4.222  10.653
21669SOL    HW266449   5.942   4.261  10.514
21670SOL     OW66450   6.406   5.313   9.989
21670SOL    HW166451   6.386   5.373   9.917
21670SOL    HW266452   6.334   5.250   9.988
21671SOL     OW66453   7.014   3.951  10.429
21671SOL    HW166454   7.029   3.864  10.466
21671SOL    HW266455   6.963   3.997  10.495
21672SOL     OW66456   6.591   3.738  10.445
21672SOL    HW166457   6.537   3.676  10.395
21672SOL    HW266458   6.678   3.699  10.445
21673SOL     OW66459   6.374   5.057   9.621
21673SOL    HW166460   6.335   4.970   9.632
21673SOL    HW266461   6.452   5.055   9.678
21674SOL     OW66462   6.288   5.259  10.641
21674SOL    HW166463   6.195   5.270  10.663
21674SOL    HW266464   6.293   5.277  10.547
21675SOL     OW66465   6.932   3.782   9.485
21675SOL    HW166466   6.938   3.766   9.391
21675SOL    HW266467   6.851   3.738   9.511
21676SOL     OW66468   6.885   4.185   9.989
21676SOL    HW166469   6.838   4.268   9.986
21676SOL    HW266470   6.878   4.156  10.080
21677SOL     OW66471   7.171   3.924  10.195
21677SOL    HW166472   7.115   3.950  10.268
21677SOL    HW266473   7.172   3.999  10.136
21678SOL     OW66474   5.622   4.792   9.629
21678SOL    HW166475   5.709   4.793   9.588
21678SOL    HW266476   5.604   4.700   9.647
21679SOL     OW66477   6.475   5.390   9.648
21679SOL    HW166478   6.402   5.370   9.588
21679SOL    HW266479   6.442   5.462   9.702
21680SOL     OW66480   5.806   4.329  11.305
21680SOL    HW166481   5.716   4.334  11.336
21680SOL    HW266482   5.798   4.318  11.210
21681SOL     OW66483   5.810   4.001  12.168
21681SOL    HW166484   5.841   3.967  12.252
21681SOL    HW266485   5.721   3.968  12.159
21682SOL     OW66486   5.580   4.103  11.817
21682SOL    HW166487   5.500   4.137  11.858
21682SOL    HW266488   5.551   4.026  11.768
21683SOL     OW66489   6.133   4.978  12.332
21683SOL    HW166490   6.055   5.000  12.282
21683SOL    HW266491   6.135   5.040  12.404
21684SOL     OW66492   7.143   5.230  11.880
21684SOL    HW166493   7.102   5.219  11.966
21684SOL    HW266494   7.070   5.244  11.820
21685SOL     OW66495   6.722   4.436  11.867
21685SOL    HW166496   6.786   4.507  11.882
21685SOL    HW266497   6.670   4.433  11.947
21686SOL     OW66498   7.356   4.324  11.400
21686SOL    HW166499   7.332   4.318  11.308
21686SOL    HW266500   7.323   4.243  11.439
21687SOL     OW66501   6.362   4.875  12.240
21687SOL    HW166502   6.276   4.897  12.275
21687SOL    HW266503   6.385   4.950  12.186
21688SOL     OW66504   6.279   4.727  11.822
21688SOL    HW166505   6.340   4.726  11.896
21688SOL    HW266506   6.206   4.782  11.852
21689SOL     OW66507   5.925   5.130  12.227
21689SOL    HW166508   5.841   5.090  12.202
21689SOL    HW266509   5.947   5.187  12.153
21690SOL     OW66510   7.186   4.175  11.915
21690SOL    HW166511   7.113   4.178  11.853
21690SOL    HW266512   7.156   4.228  11.989
21691SOL     OW66513   5.803   5.441  11.636
21691SOL    HW166514   5.825   5.517  11.690
21691SOL    HW266515   5.878   5.429  11.578
21692SOL     OW66516   5.821   5.174  11.721
21692SOL    HW166517   5.794   5.266  11.713
21692SOL    HW266518   5.756   5.135  11.780
21693SOL     OW66519   5.866   4.818  12.074
21693SOL    HW166520   5.845   4.731  12.108
21693SOL    HW266521   5.804   4.876  12.118
21694SOL     OW66522   6.184   4.705  11.310
21694SOL    HW166523   6.225   4.761  11.244
21694SOL    HW266524   6.212   4.741  11.393
21695SOL     OW66525   5.716   4.368  11.739
21695SOL    HW166526   5.664   4.290  11.756
21695SOL    HW266527   5.700   4.425  11.815
21696SOL     OW66528   7.429   5.483  11.507
21696SOL    HW166529   7.490   5.451  11.574
21696SOL    HW266530   7.445   5.578  11.504
21697SOL     OW66531   5.641   5.315  11.297
21697SOL    HW166532   5.610   5.225  11.306
21697SOL    HW266533   5.602   5.362  11.370
21698SOL     OW66534   7.284   4.642  11.821
21698SOL    HW166535   7.368   4.596  11.813
21698SOL    HW266536   7.269   4.682  11.736
21699SOL     OW66537   7.204   4.828  11.601
21699SOL    HW166538   7.290   4.834  11.559
21699SOL    HW266539   7.212   4.882  11.679
21700SOL     OW66540   5.756   4.487   0.217
21700SOL    HW166541   5.735   4.449   0.303
21700SOL    HW266542   5.675   4.527   0.188
21701SOL     OW66543   6.191   5.112  11.905
21701SOL    HW166544   6.145   5.029  11.911
21701SOL    HW266545   6.183   5.139  11.814
21702SOL     OW66546   6.392   3.722  11.645
21702SOL    HW166547   6.450   3.793  11.674
21702SOL    HW266548   6.304   3.750  11.673
21703SOL     OW66549   5.787   4.709  12.438
21703SOL    HW166550   5.857   4.648  12.417
21703SOL    HW266551   5.706   4.660  12.422
21704SOL     OW66552   7.092   4.748  11.351
21704SOL    HW166553   7.058   4.660  11.333
21704SOL    HW266554   7.154   4.735  11.422
21705SOL     OW66555   7.063   5.141  12.136
21705SOL    HW166556   6.986   5.160  12.189
21705SOL    HW266557   7.053   5.049  12.110
21706SOL     OW66558   7.250   5.455  11.759
21706SOL    HW166559   7.236   5.435  11.667
21706SOL    HW266560   7.216   5.378  11.806
21707SOL     OW66561   6.185   4.454  11.448
21707SOL    HW166562   6.185   4.534  11.396
21707SOL    HW266563   6.113   4.465  11.510
21708SOL     OW66564   6.859   4.090  12.105
21708SOL    HW166565   6.772   4.050  12.109
21708SOL    HW266566   6.913   4.034  12.162
21709SOL     OW66567   7.170   5.389  11.484
21709SOL    HW166568   7.257   5.427  11.476
21709SOL    HW266569   7.138   5.380  11.394
21710SOL     OW66570   6.579   4.133  12.370
21710SOL    HW166571   6.488   4.155  12.389
21710SOL    HW266572   6.574   4.055  12.315
21711SOL     OW66573   6.646   4.425  11.596
21711SOL    HW166574   6.663   4.419  11.690
21711SOL    HW266575   6.562   4.381  11.584
21712SOL     OW66576   5.681   4.537  11.950
21712SOL    HW166577   5.757   4.540  12.008
21712SOL    HW266578   5.626   4.610  11.977
21713SOL     OW66579   6.496   4.069  11.370
21713SOL    HW166580   6.525   4.135  11.307
21713SOL    HW266581   6.529   3.986  11.336
21714SOL     OW66582   6.125   3.877  12.067
21714SOL    HW166583   6.134   3.912  12.156
21714SOL    HW266584   6.116   3.955  12.012
21715SOL     OW66585   6.606   5.125  11.673
21715SOL    HW166586   6.586   5.205  11.625
21715SOL    HW266587   6.565   5.138  11.759
21716SOL     OW66588   5.944   5.542  12.035
21716SOL    HW166589   5.989   5.458  12.042
21716SOL    HW266590   6.011   5.608  12.052
21717SOL     OW66591   7.371   4.774  12.057
21717SOL    HW166592   7.338   4.760  11.968
21717SOL    HW266593   7.298   4.751  12.114
21718SOL     OW66594   5.907   4.677  11.431
21718SOL    HW166595   5.980   4.707  11.377
21718SOL    HW266596   5.865   4.607  11.380
21719SOL     OW66597   7.060   4.491  11.901
21719SOL    HW166598   7.057   4.430  11.975
21719SOL    HW266599   7.147   4.530  11.906
21720SOL     OW66600   6.734   5.512  11.397
21720SOL    HW166601   6.663   5.487  11.456
21720SOL    HW266602   6.732   5.447  11.327
21721SOL     OW66603   7.216   5.096  11.266
21721SOL    HW166604   7.184   5.185  11.258
21721SOL    HW266605   7.148   5.042  11.226
21722SOL     OW66606   6.047   5.457  11.498
21722SOL    HW166607   6.105   5.508  11.555
21722SOL    HW266608   6.105   5.425  11.428
21723SOL     OW66609   7.007   3.867  11.589
21723SOL    HW166610   6.991   3.819  11.507
21723SOL    HW266611   6.980   3.806  11.657
21724SOL     OW66612   5.841   5.484  12.398
21724SOL    HW166613   5.780   5.459  12.467
21724SOL    HW266614   5.792   5.473  12.317
21725SOL     OW66615   6.555   5.393  12.079
21725SOL    HW166616   6.638   5.350  12.060
21725SOL    HW266617   6.496   5.362  12.011
21726SOL     OW66618   5.983   4.409  11.647
21726SOL    HW166619   5.995   4.316  11.664
21726SOL    HW266620   5.889   4.424  11.658
21727SOL     OW66621   6.396   5.100  12.097
21727SOL    HW166622   6.482   5.106  12.054
21727SOL    HW266623   6.333   5.110  12.026
21728SOL     OW66624   6.539   4.228  12.056
21728SOL    HW166625   6.513   4.206  11.967
21728SOL    HW266626   6.559   4.144  12.097
21729SOL     OW66627   6.131   3.796  11.683
21729SOL    HW166628   6.050   3.788  11.732
21729SOL    HW266629   6.123   3.880  11.637
21730SOL     OW66630   7.013   4.939  11.156
21730SOL    HW166631   7.037   4.868  11.216
21730SOL    HW266632   6.924   4.964  11.184
21731SOL     OW66633   5.859   3.783  11.353
21731SOL    HW166634   5.901   3.846  11.294
21731SOL    HW266635   5.932   3.730  11.386
21732SOL     OW66636   6.527   3.992  11.641
21732SOL    HW166637   6.513   4.015  11.549
21732SOL    HW266638   6.622   3.985  11.650
21733SOL     OW66639   6.811   5.310  11.976
21733SOL    HW166640   6.815   5.364  11.897
21733SOL    HW266641   6.882   5.342  12.031
21734SOL     OW66642   6.061   4.871  11.896
21734SOL    HW166643   5.994   4.854  11.962
21734SOL    HW266644   6.014   4.863  11.812
21735SOL     OW66645   6.849   5.512  11.785
21735SOL    HW166646   6.900   5.571  11.731
21735SOL    HW266647   6.766   5.557  11.800
21736SOL     OW66648   6.601   4.265  11.195
21736SOL    HW166649   6.563   4.352  11.183
21736SOL    HW266650   6.667   4.275  11.263
21737SOL     OW66651   6.143   3.951  12.333
21737SOL    HW166652   6.188   3.892  12.393
21737SOL    HW266653   6.052   3.950  12.363
21738SOL     OW66654   6.411   4.187  11.799
21738SOL    HW166655   6.408   4.239  11.718
21738SOL    HW266656   6.447   4.103  11.772
21739SOL     OW66657   6.581   3.795  11.916
21739SOL    HW166658   6.656   3.765  11.863
21739SOL    HW266659   6.553   3.717  11.964
21740SOL     OW66660   7.048   4.886  12.039
21740SOL    HW166661   6.980   4.824  12.014
21740SOL    HW266662   7.102   4.897  11.960
21741SOL     OW66663   7.048   4.321  12.127
21741SOL    HW166664   6.989   4.246  12.139
21741SOL    HW266665   7.106   4.318  12.203
21742SOL     OW66666   7.412   4.529  11.565
21742SOL    HW166667   7.476   4.484  11.619
21742SOL    HW266668   7.393   4.468  11.494
21743SOL     OW66669   6.073   5.131  11.323
21743SOL    HW166670   6.003   5.104  11.383
21743SOL    HW266671   6.053   5.087  11.241
21744SOL     OW66672   7.225   4.973  11.829
21744SOL    HW166673   7.320   4.967  11.836
21744SOL    HW266674   7.205   5.065  11.843
21745SOL     OW66675   6.984   4.290  11.251
21745SOL    HW166676   6.916   4.267  11.315
21745SOL    HW266677   7.057   4.232  11.273
21746SOL     OW66678   6.101   4.012  11.518
21746SOL    HW166679   6.113   3.946  11.450
21746SOL    HW266680   6.079   4.092  11.471
21747SOL     OW66681   6.698   4.952  12.289
21747SOL    HW166682   6.611   4.959  12.329
21747SOL    HW266683   6.685   4.980  12.199
21748SOL     OW66684   6.296   4.785  11.548
21748SOL    HW166685   6.280   4.768  11.641
21748SOL    HW266686   6.377   4.737  11.528
21749SOL     OW66687   6.023   4.534  12.439
21749SOL    HW166688   6.061   4.574  12.518
21749SOL    HW266689   5.979   4.455  12.471
21750SOL     OW66690   6.840   4.096  12.433
21750SOL    HW166691   6.871   4.177  12.474
21750SOL    HW266692   6.749   4.114  12.411
21751SOL     OW66693   5.931   4.841  11.657
21751SOL    HW166694   5.920   4.919  11.602
21751SOL    HW266695   5.926   4.768  11.595
21752SOL     OW66696   6.853   5.048  11.587
21752SOL    HW166697   6.900   5.129  11.602
21752SOL    HW266698   6.764   5.066  11.616
21753SOL     OW66699   6.857   5.179  12.311
21753SOL    HW166700   6.910   5.180  12.392
21753SOL    HW266701   6.804   5.100  12.318
21754SOL     OW66702   7.152   4.350  11.649
21754SOL    HW166703   7.120   4.400  11.724
21754SOL    HW266704   7.223   4.403  11.614
21755SOL     OW66705   6.008   5.257  12.458
21755SOL    HW166706   5.970   5.199  12.392
21755SOL    HW266707   5.964   5.341  12.443
21756SOL     OW66708   6.163   4.589  12.215
21756SOL    HW166709   6.174   4.684  12.212
21756SOL    HW266710   6.116   4.573  12.297
21757SOL     OW66711   6.898   4.556  12.190
21757SOL    HW166712   6.809   4.528  12.168
21757SOL    HW266713   6.953   4.481  12.167
21758SOL     OW66714   6.776   4.249  11.426
21758SOL    HW166715   6.793   4.172  11.480
21758SOL    HW266716   6.737   4.312  11.486
21759SOL     OW66717   5.884   3.913  12.417
21759SOL    HW166718   5.871   3.933  12.510
21759SOL    HW266719   5.866   3.819  12.411
21760SOL     OW66720   5.672   5.055  12.444
21760SOL    HW166721   5.668   4.977  12.500
21760SOL    HW266722   5.656   5.128  12.503
21761SOL     OW66723   6.270   4.348  12.130
21761SOL    HW166724   6.349   4.330  12.180
21761SOL    HW266725   6.239   4.432  12.164
21762SOL     OW66726   5.886   3.789  11.801
21762SOL    HW166727   5.858   3.878  11.823
21762SOL    HW266728   5.896   3.746  11.886
21763SOL     OW66729   7.221   4.107  11.528
21763SOL    HW166730   7.223   4.031  11.586
21763SOL    HW266731   7.184   4.177  11.582
21764SOL     OW66732   6.630   4.472  12.138
21764SOL    HW166733   6.608   4.489  12.230
21764SOL    HW266734   6.598   4.383  12.123
21765SOL     OW66735   7.099   4.012  11.299
21765SOL    HW166736   7.043   3.938  11.325
21765SOL    HW266737   7.145   4.036  11.380
21766SOL     OW66738   6.913   4.555  11.232
21766SOL    HW166739   6.937   4.463  11.233
21766SOL    HW266740   6.925   4.582  11.141
21767SOL     OW66741   6.668   5.066  12.033
21767SOL    HW166742   6.675   4.992  11.972
21767SOL    HW266743   6.725   5.133  11.996
21768SOL     OW66744   5.897   4.534  12.122
21768SOL    HW166745   5.989   4.559  12.131
21768SOL    HW266746   5.891   4.450  12.167
21769SOL     OW66747   5.893   4.258  12.165
21769SOL    HW166748   5.880   4.164  12.179
21769SOL    HW266749   5.891   4.268  12.070
21770SOL     OW66750   6.732   3.958   0.160
21770SOL    HW166751   6.768   4.002   0.237
21770SOL    HW266752   6.782   3.994   0.087
21771SOL     OW66753   5.606   5.034  11.358
21771SOL    HW166754   5.518   5.054  11.326
21771SOL    HW266755   5.597   4.949  11.400
21772SOL     OW66756   5.680   5.510  12.103
21772SOL    HW166757   5.643   5.430  12.064
21772SOL    HW266758   5.770   5.514  12.070
21773SOL     OW66759   6.089   5.314  12.066
21773SOL    HW166760   6.167   5.333  12.118
21773SOL    HW266761   6.116   5.244  12.007
21774SOL     OW66762   6.567   4.523  12.395
21774SOL    HW166763   6.627   4.528  12.470
21774SOL    HW266764   6.483   4.554  12.430
21775SOL     OW66765   5.641   4.297  12.303
21775SOL    HW166766   5.716   4.268  12.251
21775SOL    HW266767   5.615   4.220  12.354
21776SOL     OW66768   6.404   4.300  11.543
21776SOL    HW166769   6.406   4.225  11.485
21776SOL    HW266770   6.332   4.354  11.511
21777SOL     OW66771   7.234   4.346  12.335
21777SOL    HW166772   7.221   4.285  12.408
21777SOL    HW266773   7.326   4.337  12.312
21778SOL     OW66774   6.310   4.180  12.386
21778SOL    HW166775   6.259   4.101  12.402
21778SOL    HW266776   6.245   4.246  12.360
21779SOL     OW66777   6.517   5.408   0.006
21779SOL    HW166778   6.430   5.384   0.039
21779SOL    HW266779   6.560   5.450   0.080
21780SOL     OW66780   6.049   4.227  11.371
21780SOL    HW166781   6.102   4.306  11.383
21780SOL    HW266782   5.962   4.259  11.349
21781SOL     OW66783   6.928   4.781  12.340
21781SOL    HW166784   6.918   4.710  12.276
21781SOL    HW266785   6.854   4.839  12.321
21782SOL     OW66786   6.857   4.610  11.507
21782SOL    HW166787   6.788   4.547  11.532
21782SOL    HW266788   6.866   4.599  11.412
21783SOL     OW66789   7.337   5.473  12.303
21783SOL    HW166790   7.410   5.495  12.245
21783SOL    HW266791   7.329   5.378  12.294
21784SOL     OW66792   6.804   5.450  12.276
21784SOL    HW166793   6.884   5.490  12.240
21784SOL    HW266794   6.827   5.358  12.287
21785SOL     OW66795   5.686   4.992  12.183
21785SOL    HW166796   5.673   5.016  12.275
21785SOL    HW266797   5.602   4.956  12.155
21786SOL     OW66798   7.347   3.884  11.700
21786SOL    HW166799   7.399   3.867  11.621
21786SOL    HW266800   7.310   3.799  11.723
21787SOL     OW66801   6.977   5.289  11.658
21787SOL    HW166802   7.038   5.325  11.594
21787SOL    HW266803   6.921   5.363  11.681
21788SOL     OW66804   6.924   4.679  11.762
21788SOL    HW166805   6.973   4.621  11.820
21788SOL    HW266806   6.894   4.622  11.691
21789SOL     OW66807   6.203   5.368  11.295
21789SOL    HW166808   6.241   5.366  11.207
21789SOL    HW266809   6.165   5.281  11.306
21790SOL     OW66810   7.215   5.507   0.046
21790SOL    HW166811   7.265   5.497  -0.035
21790SOL    HW266812   7.246   5.590   0.083
21791SOL     OW66813   7.452   3.899  12.135
21791SOL    HW166814   7.475   3.809  12.112
21791SOL    HW266815   7.363   3.910  12.102
21792SOL     OW66816   5.840   4.050  11.896
21792SOL    HW166817   5.752   4.075  11.866
21792SOL    HW266818   5.828   4.030  11.989
21793SOL     OW66819   6.803   5.321  11.189
21793SOL    HW166820   6.778   5.238  11.229
21793SOL    HW266821   6.736   5.337  11.122
21794SOL     OW66822   6.382   4.739  12.484
21794SOL    HW166823   6.383   4.790  12.404
21794SOL    HW266824   6.446   4.782  12.541
21795SOL     OW66825   6.521   4.652  11.483
21795SOL    HW166826   6.573   4.679  11.408
21795SOL    HW266827   6.561   4.570  11.512
21796SOL     OW66828   7.077   5.339  11.217
21796SOL    HW166829   6.981   5.339  11.209
21796SOL    HW266830   7.109   5.343  11.127
21797SOL     OW66831   6.660   4.831  11.894
21797SOL    HW166832   6.585   4.790  11.937
21797SOL    HW266833   6.675   4.776  11.817
21798SOL     OW66834   6.605   3.962  12.129
21798SOL    HW166835   6.594   3.916  12.046
21798SOL    HW266836   6.603   3.893  12.195
21799SOL     OW66837   6.190   5.204  11.651
21799SOL    HW166838   6.240   5.183  11.572
21799SOL    HW266839   6.119   5.260  11.620
21800SOL     OW66840   7.354   4.149   0.019
21800SOL    HW166841   7.382   4.132   0.109
21800SOL    HW266842   7.352   4.063  -0.022
21801SOL     OW66843   5.859   5.053  11.486
21801SOL    HW166844   5.773   5.056  11.445
21801SOL    HW266845   5.850   5.102  11.567
21802SOL     OW66846   5.658   4.046  11.194
21802SOL    HW166847   5.575   4.026  11.150
21802SOL    HW266848   5.684   4.131  11.158
21803SOL     OW66849   5.635   3.881  11.474
21803SOL    HW166850   5.612   3.956  11.420
21803SOL    HW266851   5.720   3.852  11.440
21804SOL     OW66852   6.755   5.062  11.282
21804SOL    HW166853   6.660   5.059  11.269
21804SOL    HW266854   6.766   5.065  11.377
21805SOL     OW66855   7.060   5.503  12.154
21805SOL    HW166856   7.079   5.573  12.092
21805SOL    HW266857   7.142   5.490  12.202
21806SOL     OW66858   7.241   4.627  12.337
21806SOL    HW166859   7.221   4.533  12.331
21806SOL    HW266860   7.333   4.629  12.364
21807SOL     OW66861   6.814   4.059  11.625
21807SOL    HW166862   6.874   3.987  11.610
21807SOL    HW266863   6.844   4.100  11.706
21808SOL     OW66864   6.182   4.472  11.820
21808SOL    HW166865   6.215   4.562  11.817
21808SOL    HW266866   6.109   4.472  11.758
21809SOL     OW66867   7.366   4.691   0.089
21809SOL    HW166868   7.417   4.730   0.161
21809SOL    HW266869   7.294   4.645   0.133
21810SOL     OW66870   6.486   5.097  11.229
21810SOL    HW166871   6.442   5.083  11.312
21810SOL    HW266872   6.460   5.185  11.202
21811SOL     OW66873   6.299   5.555  12.150
21811SOL    HW166874   6.241   5.621  12.113
21811SOL    HW266875   6.341   5.515  12.074
21812SOL     OW66876   6.462   4.703  12.037
21812SOL    HW166877   6.502   4.625  12.076
21812SOL    HW266878   6.424   4.750  12.112
21813SOL     OW66879   6.679   4.715  11.271
21813SOL    HW166880   6.643   4.764  11.197
21813SOL    HW266881   6.747   4.660  11.233
21814SOL     OW66882   7.439   5.277  12.023
21814SOL    HW166883   7.363   5.278  11.964
21814SOL    HW266884   7.408   5.233  12.101
21815SOL     OW66885   5.674   4.957  11.841
21815SOL    HW166886   5.670   4.905  11.921
21815SOL    HW266887   5.737   4.911  11.786
21816SOL     OW66888   7.400   3.913  12.410
21816SOL    HW166889   7.396   3.827  12.452
21816SOL    HW266890   7.415   3.893  12.317
21817SOL     OW66891   6.068   4.151  11.773
21817SOL    HW166892   6.083   4.107  11.690
21817SOL    HW266893   5.984   4.118  11.803
21818SOL     OW66894   7.301   5.206  12.263
21818SOL    HW166895   7.215   5.183  12.226
21818SOL    HW266896   7.304   5.158  12.346
21819SOL     OW66897   6.419   5.315  11.854
21819SOL    HW166898   6.449   5.356  11.773
21819SOL    HW266899   6.336   5.273  11.829
21820SOL     OW66900   7.021   3.962  12.283
21820SOL    HW166901   7.053   3.884  12.329
21820SOL    HW266902   6.963   4.005  12.346
21821SOL     OW66903   6.606   3.758  12.309
21821SOL    HW166904   6.552   3.690  12.350
21821SOL    HW266905   6.693   3.719  12.304
21822SOL     OW66906   6.379   5.040  11.468
21822SOL    HW166907   6.337   4.958  11.496
21822SOL    HW266908   6.430   5.068  11.544
21823SOL     OW66909   6.943   3.777  11.326
21823SOL    HW166910   6.979   3.697  11.288
21823SOL    HW266911   6.851   3.756  11.345
21824SOL     OW66912   6.894   4.197  11.856
21824SOL    HW166913   6.833   4.271  11.859
21824SOL    HW266914   6.880   4.151  11.939
21825SOL     OW66915   7.193   3.925  12.064
21825SOL    HW166916   7.124   3.942  12.129
21825SOL    HW266917   7.177   3.989  11.995
21826SOL     OW66918   5.628   4.790  11.490
21826SOL    HW166919   5.721   4.782  11.468
21826SOL    HW266920   5.600   4.700  11.509
21827SOL     OW66921   5.828   6.173   0.039
21827SOL    HW166922   5.818   6.239   0.107
21827SOL    HW266923   5.751   6.116   0.048
21828SOL     OW66924   5.571   5.978   0.631
21828SOL    HW166925   5.493   6.006   0.678
21828SOL    HW266926   5.547   5.893   0.593
21829SOL     OW66927   7.151   7.089   0.708
21829SOL    HW166928   7.106   7.064   0.789
21829SOL    HW266929   7.081   7.096   0.643
21830SOL     OW66930   6.674   6.337   0.683
21830SOL    HW166931   6.737   6.406   0.705
21830SOL    HW266932   6.640   6.308   0.768
21831SOL     OW66933   7.363   6.185   0.246
21831SOL    HW166934   7.311   6.166   0.168
21831SOL    HW266935   7.299   6.182   0.318
21832SOL     OW66936   6.299   6.771   1.080
21832SOL    HW166937   6.284   6.710   1.008
21832SOL    HW266938   6.346   6.845   1.040
21833SOL     OW66939   6.467   6.345   1.830
21833SOL    HW166940   6.447   6.413   1.895
21833SOL    HW266941   6.485   6.394   1.750
21834SOL     OW66942   6.269   6.576   0.647
21834SOL    HW166943   6.334   6.570   0.717
21834SOL    HW266944   6.201   6.634   0.682
21835SOL     OW66945   6.304   6.743   1.820
21835SOL    HW166946   6.346   6.822   1.852
21835SOL    HW266947   6.221   6.774   1.782
21836SOL     OW66948   5.932   6.994   1.076
21836SOL    HW166949   5.852   6.957   1.038
21836SOL    HW266950   5.970   7.047   1.007
21837SOL     OW66951   7.047   7.088   1.361
21837SOL    HW166952   7.099   7.167   1.374
21837SOL    HW266953   6.976   7.096   1.424
21838SOL     OW66954   6.036   5.986   1.479
21838SOL    HW166955   6.108   5.923   1.488
21838SOL    HW266956   5.958   5.937   1.504
21839SOL     OW66957   7.214   6.026   0.770
21839SOL    HW166958   7.141   6.028   0.708
21839SOL    HW266959   7.193   6.095   0.834
21840SOL     OW66960   6.726   6.926   1.690
21840SOL    HW166961   6.771   6.919   1.774
21840SOL    HW266962   6.673   6.847   1.684
21841SOL     OW66963   5.822   7.013   0.558
21841SOL    HW166964   5.820   7.109   0.548
21841SOL    HW266965   5.760   6.995   0.628
21842SOL     OW66966   5.864   6.671   0.897
21842SOL    HW166967   5.850   6.581   0.929
21842SOL    HW266968   5.803   6.724   0.948
21843SOL     OW66969   6.192   7.346   1.435
21843SOL    HW166970   6.107   7.343   1.480
21843SOL    HW266971   6.220   7.437   1.444
21844SOL     OW66972   6.162   6.544   0.144
21844SOL    HW166973   6.229   6.564   0.078
21844SOL    HW266974   6.193   6.589   0.223
21845SOL     OW66975   7.181   5.714   1.468
21845SOL    HW166976   7.194   5.799   1.427
21845SOL    HW266977   7.151   5.734   1.557
21846SOL     OW66978   5.697   6.233   0.558
21846SOL    HW166979   5.667   6.145   0.583
21846SOL    HW266980   5.689   6.285   0.638
21847SOL     OW66981   7.440   7.342   0.318
21847SOL    HW166982   7.499   7.315   0.389
21847SOL    HW266983   7.458   7.435   0.306
21848SOL     OW66984   5.617   7.121   0.124
21848SOL    HW166985   5.529   7.085   0.117
21848SOL    HW266986   5.610   7.194   0.185
21849SOL     OW66987   7.303   6.540   0.661
21849SOL    HW166988   7.349   6.457   0.650
21849SOL    HW266989   7.279   6.565   0.571
21850SOL     OW66990   7.244   6.702   0.429
21850SOL    HW166991   7.337   6.716   0.409
21850SOL    HW266992   7.227   6.759   0.504
21851SOL     OW66993   5.707   6.336   1.575
21851SOL    HW166994   5.795   6.374   1.581
21851SOL    HW266995   5.648   6.411   1.579
21852SOL     OW66996   6.204   6.980   0.726
21852SOL    HW166997   6.159   6.897   0.736
21852SOL    HW266998   6.186   7.008   0.637
21853SOL     OW66999   6.878   6.820   1.414
21853SOL    HW167000   6.911   6.751   1.356
21853SOL    HW267001   6.933   6.813   1.492
21854SOL     OW67002   6.395   5.584   0.523
21854SOL    HW167003   6.442   5.665   0.500
21854SOL    HW267004   6.303   5.610   0.527
21855SOL     OW67005   5.778   6.548   1.279
21855SOL    HW167006   5.860   6.502   1.263
21855SOL    HW267007   5.712   6.496   1.233
21856SOL     OW67008   7.101   6.603   0.220
21856SOL    HW167009   7.031   6.546   0.253
21856SOL    HW267010   7.146   6.634   0.299
21857SOL     OW67011   6.774   7.399   1.629
21857SOL    HW167012   6.775   7.464   1.559
21857SOL    HW267013   6.792   7.316   1.586
21858SOL     OW67014   5.929   5.841   1.810
21858SOL    HW167015   5.966   5.926   1.834
21858SOL    HW267016   5.837   5.846   1.839
21859SOL     OW67017   7.055   6.991   0.948
21859SOL    HW167018   6.991   7.011   1.015
21859SOL    HW267019   7.029   6.905   0.915
21860SOL     OW67020   7.255   7.311   0.584
21860SOL    HW167021   7.229   7.286   0.496
21860SOL    HW267022   7.219   7.242   0.640
21861SOL     OW67023   6.167   6.294   0.276
21861SOL    HW167024   6.180   6.381   0.238
21861SOL    HW267025   6.104   6.308   0.347
21862SOL     OW67026   6.887   5.986   0.968
21862SOL    HW167027   6.800   5.958   0.938
21862SOL    HW267028   6.919   5.913   1.021
21863SOL     OW67029   7.184   7.250   0.320
21863SOL    HW167030   7.276   7.278   0.316
21863SOL    HW267031   7.145   7.286   0.241
21864SOL     OW67032   6.377   6.204   1.446
21864SOL    HW167033   6.354   6.176   1.535
21864SOL    HW267034   6.346   6.132   1.390
21865SOL     OW67035   6.986   6.057   1.681
21865SOL    HW167036   6.989   6.101   1.766
21865SOL    HW267037   7.029   5.973   1.695
21866SOL     OW67038   6.537   6.471   1.588
21866SOL    HW167039   6.589   6.401   1.550
21866SOL    HW267040   6.484   6.504   1.515
21867SOL     OW67041   6.588   5.993   1.227
21867SOL    HW167042   6.497   6.006   1.256
21867SOL    HW267043   6.579   5.954   1.140
21868SOL     OW67044   6.640   6.298   0.419
21868SOL    HW167045   6.655   6.309   0.513
21868SOL    HW267046   6.556   6.252   0.413
21869SOL     OW67047   5.670   6.412   0.769
21869SOL    HW167048   5.747   6.394   0.822
21869SOL    HW267049   5.626   6.485   0.813
21870SOL     OW67050   5.710   7.453   1.583
21870SOL    HW167051   5.714   7.429   1.675
21870SOL    HW267052   5.620   7.434   1.557
21871SOL     OW67053   6.458   5.954   0.214
21871SOL    HW167054   6.499   6.009   0.147
21871SOL    HW267055   6.439   5.872   0.168
21872SOL     OW67056   7.312   6.154   1.822
21872SOL    HW167057   7.266   6.226   1.780
21872SOL    HW267058   7.322   6.088   1.754
21873SOL     OW67059   6.988   6.764   0.563
21873SOL    HW167060   7.002   6.744   0.470
21873SOL    HW267061   6.893   6.774   0.572
21874SOL     OW67062   6.185   5.765   0.899
21874SOL    HW167063   6.166   5.781   0.991
21874SOL    HW267064   6.143   5.838   0.853
21875SOL     OW67065   6.633   7.078   0.477
21875SOL    HW167066   6.554   7.121   0.445
21875SOL    HW267067   6.603   7.017   0.545
21876SOL     OW67068   5.925   7.389   0.919
21876SOL    HW167069   5.979   7.312   0.902
21876SOL    HW267070   5.948   7.451   0.849
21877SOL     OW67071   6.815   7.127   1.510
21877SOL    HW167072   6.803   7.054   1.571
21877SOL    HW267073   6.737   7.125   1.454
21878SOL     OW67074   5.908   6.575   0.264
21878SOL    HW167075   5.985   6.581   0.208
21878SOL    HW267076   5.870   6.489   0.244
21879SOL     OW67077   7.059   6.321   0.717
21879SOL    HW167078   7.021   6.245   0.672
21879SOL    HW267079   7.068   6.292   0.808
21880SOL     OW67080   6.057   6.850   1.725
21880SOL    HW167081   6.030   6.832   1.635
21880SOL    HW267082   5.975   6.852   1.775
21881SOL     OW67083   6.708   7.357   0.322
21881SOL    HW167084   6.626   7.309   0.329
21881SOL    HW267085   6.757   7.312   0.253
21882SOL     OW67086   5.783   5.872   1.522
21882SOL    HW167087   5.694   5.905   1.517
21882SOL    HW267088   5.774   5.785   1.562
21883SOL     OW67089   6.051   7.322   0.289
21883SOL    HW167090   6.036   7.350   0.380
21883SOL    HW267091   6.147   7.319   0.281
21884SOL     OW67092   6.986   5.668   0.444
21884SOL    HW167093   7.000   5.641   0.353
21884SOL    HW267094   7.069   5.708   0.470
21885SOL     OW67095   5.827   7.398   1.206
21885SOL    HW167096   5.871   7.325   1.251
21885SOL    HW267097   5.857   7.391   1.116
21886SOL     OW67098   6.539   7.289   0.897
21886SOL    HW167099   6.617   7.234   0.908
21886SOL    HW267100   6.487   7.244   0.830
21887SOL     OW67101   5.966   6.280   0.472
21887SOL    HW167102   5.991   6.189   0.481
21887SOL    HW267103   5.884   6.287   0.521
21888SOL     OW67104   7.107   5.802   1.730
21888SOL    HW167105   7.127   5.832   1.819
21888SOL    HW267106   7.040   5.735   1.742
21889SOL     OW67107   6.226   5.693   0.112
21889SOL    HW167108   6.321   5.685   0.109
21889SOL    HW267109   6.203   5.732   0.027
21890SOL     OW67110   6.348   5.864   1.752
21890SOL    HW167111   6.430   5.816   1.746
21890SOL    HW267112   6.308   5.834   1.834
21891SOL     OW67113   6.453   7.091   1.198
21891SOL    HW167114   6.446   7.068   1.105
21891SOL    HW267115   6.535   7.051   1.226
21892SOL     OW67116   6.925   6.174   1.439
21892SOL    HW167117   6.956   6.141   1.523
21892SOL    HW267118   6.962   6.262   1.433
21893SOL     OW67119   6.403   6.979   0.942
21893SOL    HW167120   6.488   6.964   0.902
21893SOL    HW267121   6.344   6.992   0.868
21894SOL     OW67122   6.516   6.092   0.900
21894SOL    HW167123   6.491   6.082   0.808
21894SOL    HW267124   6.546   6.005   0.926
21895SOL     OW67125   6.133   5.643   0.504
21895SOL    HW167126   6.052   5.649   0.555
21895SOL    HW267127   6.131   5.720   0.447
21896SOL     OW67128   7.078   6.835   0.071
21896SOL    HW167129   7.087   6.749   0.112
21896SOL    HW267130   6.984   6.851   0.068
21897SOL     OW67131   5.891   5.671   0.200
21897SOL    HW167132   5.965   5.726   0.227
21897SOL    HW267133   5.917   5.582   0.222
21898SOL     OW67134   6.521   5.820   0.453
21898SOL    HW167135   6.492   5.869   0.377
21898SOL    HW267136   6.615   5.833   0.457
21899SOL     OW67137   6.665   6.270   1.454
21899SOL    HW167138   6.599   6.202   1.465
21899SOL    HW267139   6.748   6.223   1.453
21900SOL     OW67140   6.805   7.154   0.831
21900SOL    HW167141   6.831   7.201   0.752
21900SOL    HW267142   6.875   7.172   0.894
21901SOL     OW67143   6.065   6.741   0.731
21901SOL    HW167144   6.001   6.717   0.797
21901SOL    HW267145   6.018   6.733   0.648
21902SOL     OW67146   6.628   6.108   0.034
21902SOL    HW167147   6.598   6.194   0.003
21902SOL    HW267148   6.677   6.127   0.114
21903SOL     OW67149   5.669   6.147   1.383
21903SOL    HW167150   5.762   6.142   1.360
21903SOL    HW267151   5.665   6.214   1.451
21904SOL     OW67152   6.163   5.802   1.182
21904SOL    HW167153   6.204   5.754   1.254
21904SOL    HW267154   6.069   5.798   1.200
21905SOL     OW67155   6.448   6.040   0.641
21905SOL    HW167156   6.411   6.104   0.580
21905SOL    HW267157   6.467   5.963   0.588
21906SOL     OW67158   6.616   5.632   0.747
21906SOL    HW167159   6.541   5.645   0.689
21906SOL    HW267160   6.590   5.558   0.803
21907SOL     OW67161   7.000   6.748   0.832
21907SOL    HW167162   6.933   6.681   0.845
21907SOL    HW267163   6.993   6.771   0.739
21908SOL     OW67164   7.060   6.197   0.967
21908SOL    HW167165   6.995   6.126   0.965
21908SOL    HW267166   7.107   6.184   1.049
21909SOL     OW67167   7.422   6.415   0.423
21909SOL    HW167168   7.463   6.345   0.473
21909SOL    HW267169   7.375   6.369   0.353
21910SOL     OW67170   6.082   6.976   0.194
21910SOL    HW167171   6.006   6.940   0.239
21910SOL    HW267172   6.047   7.020   0.117
21911SOL     OW67173   7.280   6.845   0.694
21911SOL    HW167174   7.374   6.854   0.679
21911SOL    HW267175   7.246   6.933   0.685
21912SOL     OW67176   6.995   6.143   0.094
21912SOL    HW167177   6.933   6.142   0.167
21912SOL    HW267178   7.058   6.074   0.116
21913SOL     OW67179   6.109   5.833   0.311
21913SOL    HW167180   6.163   5.788   0.246
21913SOL    HW267181   6.091   5.919   0.273
21914SOL     OW67182   7.331   6.828   1.553
21914SOL    HW167183   7.416   6.785   1.561
21914SOL    HW267184   7.346   6.918   1.583
21915SOL     OW67185   6.649   6.938   1.329
21915SOL    HW167186   6.577   6.907   1.384
21915SOL    HW267187   6.728   6.900   1.368
21916SOL     OW67188   7.195   7.215   1.661
21916SOL    HW167189   7.187   7.250   1.572
21916SOL    HW267190   7.276   7.163   1.659
21917SOL     OW67191   6.731   6.796   1.099
21917SOL    HW167192   6.666   6.828   1.162
21917SOL    HW267193   6.702   6.831   1.015
21918SOL     OW67194   7.195   6.696   1.069
21918SOL    HW167195   7.223   6.755   1.139
21918SOL    HW267196   7.103   6.679   1.088
21919SOL     OW67197   6.511   5.675   1.395
21919SOL    HW167198   6.537   5.669   1.304
21919SOL    HW267199   6.586   5.714   1.440
21920SOL     OW67200   6.567   6.703   1.721
21920SOL    HW167201   6.476   6.716   1.750
21920SOL    HW267202   6.565   6.624   1.668
21921SOL     OW67203   6.289   6.637   0.371
21921SOL    HW167204   6.280   6.621   0.465
21921SOL    HW267205   6.369   6.590   0.346
21922SOL     OW67206   6.012   6.405   1.253
21922SOL    HW167207   6.077   6.413   1.323
21922SOL    HW267208   5.976   6.317   1.263
21923SOL     OW67209   6.853   5.957   1.289
21923SOL    HW167210   6.884   6.036   1.334
21923SOL    HW267211   6.764   5.977   1.262
21924SOL     OW67212   5.651   7.171   1.360
21924SOL    HW167213   5.612   7.235   1.301
21924SOL    HW267214   5.746   7.179   1.346
21925SOL     OW67215   5.923   6.714   0.499
21925SOL    HW167216   5.912   6.797   0.452
21925SOL    HW267217   5.929   6.648   0.430
21926SOL     OW67218   6.133   6.118   0.852
21926SOL    HW167219   6.151   6.178   0.780
21926SOL    HW267220   6.201   6.137   0.917
21927SOL     OW67221   6.850   6.937   0.358
21927SOL    HW167222   6.911   6.988   0.412
21927SOL    HW267223   6.771   6.929   0.413
21928SOL     OW67224   6.881   7.046   1.146
21928SOL    HW167225   6.932   7.051   1.227
21928SOL    HW267226   6.822   6.972   1.159
21929SOL     OW67227   7.183   6.235   0.441
21929SOL    HW167228   7.121   6.178   0.487
21929SOL    HW267229   7.156   6.324   0.464
21930SOL     OW67230   5.920   7.154   1.295
21930SOL    HW167231   5.909   7.107   1.213
21930SOL    HW267232   6.014   7.168   1.303
21931SOL     OW67233   6.003   6.338   1.603
21931SOL    HW167234   6.074   6.372   1.549
21931SOL    HW267235   6.022   6.245   1.612
21932SOL     OW67236   7.202   6.366   1.689
21932SOL    HW167237   7.114   6.404   1.687
21932SOL    HW267238   7.249   6.411   1.618
21933SOL     OW67239   6.577   5.719   1.736
21933SOL    HW167240   6.641   5.790   1.739
21933SOL    HW267241   6.630   5.640   1.724
21934SOL     OW67242   6.081   5.618   1.744
21934SOL    HW167243   6.030   5.565   1.683
21934SOL    HW267244   6.027   5.694   1.762
21935SOL     OW67245   6.145   6.443   1.014
21935SOL    HW167246   6.221   6.501   1.025
21935SOL    HW267247   6.106   6.440   1.102
21936SOL     OW67248   6.949   6.448   1.012
21936SOL    HW167249   6.885   6.454   0.941
21936SOL    HW267250   6.982   6.358   1.007
21937SOL     OW67251   6.784   6.119   0.270
21937SOL    HW167252   6.809   6.050   0.332
21937SOL    HW267253   6.742   6.186   0.324
21938SOL     OW67254   5.908   5.765   1.283
21938SOL    HW167255   5.851   5.804   1.348
21938SOL    HW267256   5.866   5.784   1.199
21939SOL     OW67257   5.664   6.903   1.279
21939SOL    HW167258   5.673   6.846   1.355
21939SOL    HW267259   5.643   6.989   1.316
21940SOL     OW67260   6.314   6.212   1.047
21940SOL    HW167261   6.389   6.190   0.992
21940SOL    HW267262   6.282   6.296   1.011
21941SOL     OW67263   7.324   6.551   1.858
21941SOL    HW167264   7.286   6.477   1.811
21941SOL    HW267265   7.263   6.568   1.930
21942SOL     OW67266   5.888   5.656   0.613
21942SOL    HW167267   5.861   5.746   0.633
21942SOL    HW267268   5.893   5.613   0.698
21943SOL     OW67269   7.195   5.934   0.362
21943SOL    HW167270   7.235   5.877   0.427
21943SOL    HW267271   7.142   5.995   0.413
21944SOL     OW67272   6.611   6.342   0.960
21944SOL    HW167273   6.607   6.360   1.054
21944SOL    HW267274   6.595   6.248   0.953
21945SOL     OW67275   6.567   7.145   1.722
21945SOL    HW167276   6.549   7.192   1.640
21945SOL    HW267277   6.616   7.068   1.695
21946SOL     OW67278   7.434   7.083   1.604
21946SOL    HW167279   7.456   7.114   1.517
21946SOL    HW267280   7.513   7.096   1.656
21947SOL     OW67281   5.932   6.490   1.820
21947SOL    HW167282   6.013   6.509   1.866
21947SOL    HW267283   5.958   6.431   1.749
21948SOL     OW67284   7.087   5.857   0.128
21948SOL    HW167285   7.039   5.778   0.154
21948SOL    HW267286   7.133   5.885   0.207
21949SOL     OW67287   6.886   6.397   0.042
21949SOL    HW167288   6.933   6.314   0.043
21949SOL    HW267289   6.942   6.456  -0.008
21950SOL     OW67290   6.657   6.925   0.868
21950SOL    HW167291   6.663   6.870   0.789
21950SOL    HW267292   6.711   7.001   0.848
21951SOL     OW67293   5.882   6.381   0.941
21951SOL    HW167294   5.975   6.404   0.947
21951SOL    HW267295   5.877   6.291   0.974
21952SOL     OW67296   5.916   6.096   1.013
21952SOL    HW167297   5.891   6.004   1.005
21952SOL    HW267298   5.990   6.107   0.954
21953SOL     OW67299   6.723   5.962   1.681
21953SOL    HW167300   6.674   6.011   1.747
21953SOL    HW267301   6.811   5.999   1.683
21954SOL     OW67302   6.754   5.779   1.475
21954SOL    HW167303   6.737   5.839   1.548
21954SOL    HW267304   6.794   5.834   1.408
21955SOL     OW67305   5.657   7.367   0.934
21955SOL    HW167306   5.636   7.286   0.888
21955SOL    HW267307   5.751   7.379   0.921
21956SOL     OW67308   6.088   7.149   0.916
21956SOL    HW167309   6.149   7.223   0.925
21956SOL    HW267310   6.124   7.097   0.844
21957SOL     OW67311   6.551   6.378   1.228
21957SOL    HW167312   6.609   6.353   1.300
21957SOL    HW267313   6.472   6.326   1.241
21958SOL     OW67314   5.616   6.137   1.111
21958SOL    HW167315   5.686   6.092   1.064
21958SOL    HW267316   5.645   6.138   1.202
21959SOL     OW67317   5.798   6.137   1.745
21959SOL    HW167318   5.816   6.065   1.684
21959SOL    HW267319   5.755   6.204   1.691
21960SOL     OW67320   6.970   6.515   1.658
21960SOL    HW167321   6.990   6.608   1.654
21960SOL    HW267322   6.965   6.487   1.567
21961SOL     OW67323   6.400   6.167   0.379
21961SOL    HW167324   6.406   6.091   0.321
21961SOL    HW267325   6.322   6.214   0.349
21962SOL     OW67326   7.227   6.191   1.188
21962SOL    HW167327   7.218   6.126   1.257
21962SOL    HW267328   7.312   6.173   1.149
21963SOL     OW67329   5.829   7.131   1.722
21963SOL    HW167330   5.802   7.200   1.782
21963SOL    HW267331   5.827   7.051   1.775
21964SOL     OW67332   6.310   6.030   1.248
21964SOL    HW167333   6.252   5.957   1.226
21964SOL    HW267334   6.297   6.093   1.178
21965SOL     OW67335   6.518   7.253   1.469
21965SOL    HW167336   6.476   7.220   1.390
21965SOL    HW267337   6.515   7.349   1.460
21966SOL     OW67338   6.058   6.061   0.176
21966SOL    HW167339   6.105   6.138   0.209
21966SOL    HW267340   5.985   6.097   0.126
21967SOL     OW67341   5.752   6.726   1.482
21967SOL    HW167342   5.735   6.680   1.564
21967SOL    HW267343   5.754   6.657   1.415
21968SOL     OW67344   6.926   6.635   1.201
21968SOL    HW167345   6.930   6.562   1.140
21968SOL    HW267346   6.855   6.690   1.169
21969SOL     OW67347   6.895   6.443   0.319
21969SOL    HW167348   6.823   6.409   0.372
21969SOL    HW267349   6.876   6.411   0.230
21970SOL     OW67350   7.359   7.320   1.150
21970SOL    HW167351   7.423   7.347   1.085
21970SOL    HW267352   7.339   7.229   1.128
21971SOL     OW67353   6.832   7.317   1.101
21971SOL    HW167354   6.916   7.342   1.061
21971SOL    HW267355   6.843   7.225   1.124
21972SOL     OW67356   5.691   6.842   1.020
21972SOL    HW167357   5.675   6.863   1.112
21972SOL    HW267358   5.610   6.802   0.989
21973SOL     OW67359   6.260   7.262   1.743
21973SOL    HW167360   6.195   7.332   1.744
21973SOL    HW267361   6.322   7.287   1.675
21974SOL     OW67362   6.498   5.686   0.123
21974SOL    HW167363   6.574   5.738   0.099
21974SOL    HW267364   6.530   5.626   0.191
21975SOL     OW67365   7.312   5.736   0.515
21975SOL    HW167366   7.380   5.709   0.453
21975SOL    HW267367   7.286   5.654   0.558
21976SOL     OW67368   6.985   7.152   0.489
21976SOL    HW167369   7.049   7.184   0.425
21976SOL    HW267370   6.902   7.189   0.459
21977SOL     OW67371   5.735   7.374   1.840
21977SOL    HW167372   5.683   7.309   1.887
21977SOL    HW267373   5.776   7.427   1.908
21978SOL     OW67374   6.864   6.524   0.742
21978SOL    HW167375   6.930   6.474   0.694
21978SOL    HW267376   6.825   6.581   0.676
21979SOL     OW67377   6.404   6.870   1.434
21979SOL    HW167378   6.371   6.893   1.521
21979SOL    HW267379   6.372   6.939   1.377
21980SOL     OW67380   6.263   7.179   0.154
21980SOL    HW167381   6.201   7.217   0.092
21980SOL    HW267382   6.223   7.096   0.180
21981SOL     OW67383   7.204   7.314   1.391
21981SOL    HW167384   7.257   7.320   1.311
21981SOL    HW267385   7.190   7.405   1.417
21982SOL     OW67386   7.428   5.757   0.961
21982SOL    HW167387   7.456   5.668   0.938
21982SOL    HW267388   7.338   5.763   0.927
21983SOL     OW67389   5.837   5.911   0.692
21983SOL    HW167390   5.746   5.942   0.683
21983SOL    HW267391   5.844   5.888   0.784
21984SOL     OW67392   6.794   7.188   0.079
21984SOL    HW167393   6.786   7.095   0.098
21984SOL    HW267394   6.708   7.214   0.045
21985SOL     OW67395   6.406   6.595   1.379
21985SOL    HW167396   6.455   6.579   1.298
21985SOL    HW267397   6.409   6.690   1.390
21986SOL     OW67398   6.506   6.502   0.277
21986SOL    HW167399   6.574   6.532   0.217
21986SOL    HW267400   6.551   6.442   0.337
21987SOL     OW67401   7.064   7.158   0.034
21987SOL    HW167402   6.973   7.178   0.054
21987SOL    HW267403   7.108   7.243   0.031
21988SOL     OW67404   5.963   6.889   1.441
21988SOL    HW167405   5.927   6.972   1.469
21988SOL    HW267406   5.892   6.826   1.453
21989SOL     OW67407   7.213   6.880   1.284
21989SOL    HW167408   7.259   6.855   1.364
21989SOL    HW267409   7.145   6.941   1.313
21990SOL     OW67410   6.613   5.833   0.968
21990SOL    HW167411   6.620   5.786   0.885
21990SOL    HW267412   6.606   5.765   1.034
21991SOL     OW67413   6.178   7.077   0.472
21991SOL    HW167414   6.191   7.024   0.393
21991SOL    HW267415   6.096   7.124   0.455
21992SOL     OW67416   7.310   5.980   1.371
21992SOL    HW167417   7.384   6.039   1.374
21992SOL    HW267418   7.340   5.906   1.317
21993SOL     OW67419   5.838   6.918   0.309
21993SOL    HW167420   5.775   6.966   0.256
21993SOL    HW267421   5.831   6.958   0.396
21994SOL     OW67422   5.700   6.624   1.732
21994SOL    HW167423   5.620   6.598   1.778
21994SOL    HW267424   5.770   6.575   1.775
21995SOL     OW67425   6.267   5.774   1.494
21995SOL    HW167426   6.355   5.751   1.463
21995SOL    HW267427   6.282   5.807   1.583
21996SOL     OW67428   7.010   6.446   1.397
21996SOL    HW167429   6.961   6.504   1.338
21996SOL    HW267430   7.098   6.444   1.360
21997SOL     OW67431   5.648   5.727   0.318
21997SOL    HW167432   5.634   5.819   0.297
21997SOL    HW267433   5.733   5.706   0.278
21998SOL     OW67434   6.782   6.913   0.100
21998SOL    HW167435   6.686   6.911   0.095
21998SOL    HW267436   6.801   6.912   0.194
21999SOL     OW67437   6.209   6.417   1.438
21999SOL    HW167438   6.269   6.490   1.423
21999SOL    HW267439   6.266   6.340   1.445
22000SOL     OW67440   7.076   7.372   0.978
22000SOL    HW167441   7.092   7.450   0.924
22000SOL    HW267442   7.159   7.358   1.024
22001SOL     OW67443   6.313   6.139   1.699
22001SOL    HW167444   6.357   6.193   1.765
22001SOL    HW267445   6.326   6.049   1.729
22002SOL     OW67446   7.058   6.778   1.627
22002SOL    HW167447   7.045   6.794   1.720
22002SOL    HW267448   7.150   6.799   1.612
22003SOL     OW67449   5.953   7.323   1.566
22003SOL    HW167450   5.873   7.372   1.550
22003SOL    HW267451   5.924   7.245   1.614
22004SOL     OW67452   7.249   6.460   1.254
22004SOL    HW167453   7.244   6.369   1.225
22004SOL    HW267454   7.242   6.512   1.174
22005SOL     OW67455   6.794   5.868   0.421
22005SOL    HW167456   6.851   5.791   0.428
22005SOL    HW267457   6.832   5.931   0.481
22006SOL     OW67458   6.179   6.313   0.661
22006SOL    HW167459   6.216   6.401   0.656
22006SOL    HW267460   6.107   6.314   0.598
22007SOL     OW67461   7.338   5.948   1.641
22007SOL    HW167462   7.312   5.964   1.550
22007SOL    HW267463   7.272   5.889   1.675
22008SOL     OW67464   7.335   6.522   1.507
22008SOL    HW167465   7.316   6.615   1.519
22008SOL    HW267466   7.313   6.505   1.415
22009SOL     OW67467   6.509   6.944   0.054
22009SOL    HW167468   6.455   6.926   0.131
22009SOL    HW267469   6.498   7.038   0.038
22010SOL     OW67470   6.249   7.366   0.918
22010SOL    HW167471   6.218   7.456   0.908
22010SOL    HW267472   6.344   7.373   0.928
22011SOL     OW67473   6.418   6.543   0.901
22011SOL    HW167474   6.475   6.466   0.893
22011SOL    HW267475   6.476   6.613   0.930
22012SOL     OW67476   6.680   6.576   0.068
22012SOL    HW167477   6.714   6.663   0.050
22012SOL    HW267478   6.757   6.519   0.068
22013SOL     OW67479   7.430   7.133   0.847
22013SOL    HW167480   7.357   7.138   0.785
22013SOL    HW267481   7.390   7.100   0.927
22014SOL     OW67482   5.818   6.882   1.851
22014SOL    HW167483   5.756   6.815   1.822
22014SOL    HW267484   5.792   6.901   1.941
22015SOL     OW67485   5.654   6.795   0.667
22015SOL    HW167486   5.668   6.752   0.752
22015SOL    HW267487   5.736   6.781   0.619
22016SOL     OW67488   6.264   7.001   1.630
22016SOL    HW167489   6.188   6.957   1.667
22016SOL    HW267490   6.263   7.089   1.668
22017SOL     OW67491   7.400   5.768   1.233
22017SOL    HW167492   7.400   5.674   1.246
22017SOL    HW267493   7.411   5.779   1.138
22018SOL     OW67494   6.013   6.022   0.511
22018SOL    HW167495   6.050   5.946   0.467
22018SOL    HW267496   5.961   5.985   0.583
22019SOL     OW67497   7.292   7.055   1.075
22019SOL    HW167498   7.207   7.040   1.033
22019SOL    HW267499   7.289   7.004   1.155
22020SOL     OW67500   5.925   6.149   1.289
22020SOL    HW167501   5.975   6.089   1.346
22020SOL    HW267502   5.936   6.112   1.201
22021SOL     OW67503   6.410   7.176   0.684
22021SOL    HW167504   6.383   7.245   0.622
22021SOL    HW267505   6.339   7.111   0.680
22022SOL     OW67506   7.015   5.802   1.133
22022SOL    HW167507   7.036   5.723   1.182
22022SOL    HW267508   6.965   5.857   1.194
22023SOL     OW67509   6.601   5.607   1.137
22023SOL    HW167510   6.539   5.535   1.129
22023SOL    HW267511   6.687   5.566   1.124
22024SOL     OW67512   6.392   6.889   0.298
22024SOL    HW167513   6.337   6.812   0.315
22024SOL    HW267514   6.457   6.887   0.369
22025SOL     OW67515   6.200   7.116   1.288
22025SOL    HW167516   6.201   7.194   1.343
22025SOL    HW267517   6.284   7.118   1.242
22026SOL     OW67518   6.952   5.615   0.173
22026SOL    HW167519   6.959   5.591   0.081
22026SOL    HW267520   6.858   5.627   0.187
22027SOL     OW67521   7.162   5.772   0.895
22027SOL    HW167522   7.109   5.797   0.970
22027SOL    HW267523   7.164   5.850   0.840
22028SOL     OW67524   5.616   6.663   0.317
22028SOL    HW167525   5.706   6.692   0.308
22028SOL    HW267526   5.620   6.591   0.381
22029SOL     OW67527   6.459   7.249   0.331
22029SOL    HW167528   6.383   7.215   0.283
22029SOL    HW267529   6.423   7.311   0.394
22030SOL     OW67530   5.844   5.864   2.851
22030SOL    HW167531   5.858   5.828   2.938
22030SOL    HW267532   5.752   5.846   2.832
22031SOL     OW67533   5.589   5.994   2.475
22031SOL    HW167534   5.512   6.022   2.525
22031SOL    HW267535   5.567   5.907   2.444
22032SOL     OW67536   6.161   6.887   3.040
22032SOL    HW167537   6.070   6.880   3.010
22032SOL    HW267538   6.167   6.975   3.077
22033SOL     OW67539   7.149   7.104   2.574
22033SOL    HW167540   7.109   7.078   2.657
22033SOL    HW267541   7.075   7.107   2.513
22034SOL     OW67542   6.703   6.306   2.543
22034SOL    HW167543   6.755   6.386   2.552
22034SOL    HW267544   6.662   6.294   2.629
22035SOL     OW67545   7.380   6.183   2.083
22035SOL    HW167546   7.347   6.174   1.993
22035SOL    HW267547   7.334   6.114   2.131
22036SOL     OW67548   6.340   6.734   2.888
22036SOL    HW167549   6.280   6.751   2.960
22036SOL    HW267550   6.373   6.821   2.863
22037SOL     OW67551   6.469   6.347   3.688
22037SOL    HW167552   6.418   6.415   3.731
22037SOL    HW267553   6.490   6.383   3.602
22038SOL     OW67554   6.275   6.586   2.507
22038SOL    HW167555   6.340   6.574   2.576
22038SOL    HW267556   6.205   6.637   2.548
22039SOL     OW67557   6.301   6.736   3.690
22039SOL    HW167558   6.349   6.815   3.715
22039SOL    HW267559   6.225   6.768   3.641
22040SOL     OW67560   5.909   7.003   2.927
22040SOL    HW167561   5.835   6.955   2.892
22040SOL    HW267562   5.945   7.051   2.852
22041SOL     OW67563   7.030   7.093   3.198
22041SOL    HW167564   7.087   7.169   3.210
22041SOL    HW267565   6.972   7.094   3.274
22042SOL     OW67566   6.035   5.973   3.335
22042SOL    HW167567   6.110   5.914   3.345
22042SOL    HW267568   5.959   5.920   3.358
22043SOL     OW67569   7.198   6.037   2.620
22043SOL    HW167570   7.113   6.046   2.576
22043SOL    HW267571   7.189   6.089   2.700
22044SOL     OW67572   5.807   7.301   2.332
22044SOL    HW167573   5.825   7.377   2.387
22044SOL    HW267574   5.876   7.301   2.266
22045SOL     OW67575   6.721   6.928   3.559
22045SOL    HW167576   6.763   6.915   3.644
22045SOL    HW267577   6.670   6.848   3.545
22046SOL     OW67578   5.832   7.025   2.405
22046SOL    HW167579   5.798   7.115   2.411
22046SOL    HW267580   5.776   6.974   2.464
22047SOL     OW67581   5.870   6.677   2.761
22047SOL    HW167582   5.859   6.587   2.790
22047SOL    HW267583   5.803   6.727   2.808
22048SOL     OW67584   6.179   7.386   3.281
22048SOL    HW167585   6.104   7.357   3.332
22048SOL    HW267586   6.209   7.465   3.326
22049SOL     OW67587   6.164   6.570   2.000
22049SOL    HW167588   6.216   6.616   1.934
22049SOL    HW267589   6.200   6.598   2.083
22050SOL     OW67590   7.183   5.716   3.330
22050SOL    HW167591   7.203   5.795   3.280
22050SOL    HW267592   7.166   5.747   3.419
22051SOL     OW67593   5.710   6.242   2.420
22051SOL    HW167594   5.670   6.157   2.438
22051SOL    HW267595   5.692   6.295   2.498
22052SOL     OW67596   7.430   7.335   2.189
22052SOL    HW167597   7.494   7.312   2.256
22052SOL    HW267598   7.446   7.428   2.173
22053SOL     OW67599   5.631   7.169   1.976
22053SOL    HW167600   5.607   7.078   1.997
22053SOL    HW267601   5.602   7.219   2.052
22054SOL     OW67602   7.309   6.537   2.509
22054SOL    HW167603   7.360   6.459   2.486
22054SOL    HW267604   7.264   6.561   2.428
22055SOL     OW67605   7.235   6.693   2.281
22055SOL    HW167606   7.323   6.685   2.242
22055SOL    HW267607   7.245   6.761   2.347
22056SOL     OW67608   5.713   6.328   3.442
22056SOL    HW167609   5.802   6.364   3.437
22056SOL    HW267610   5.656   6.404   3.433
22057SOL     OW67611   6.208   6.981   2.596
22057SOL    HW167612   6.166   6.897   2.613
22057SOL    HW267613   6.183   7.003   2.507
22058SOL     OW67614   6.877   6.829   3.273
22058SOL    HW167615   6.904   6.756   3.218
22058SOL    HW267616   6.927   6.818   3.354
22059SOL     OW67617   6.403   5.576   2.372
22059SOL    HW167618   6.445   5.660   2.353
22059SOL    HW267619   6.310   5.597   2.381
22060SOL     OW67620   5.771   6.543   3.145
22060SOL    HW167621   5.858   6.504   3.129
22060SOL    HW267622   5.712   6.490   3.091
22061SOL     OW67623   7.116   6.589   2.056
22061SOL    HW167624   7.046   6.532   2.088
22061SOL    HW267625   7.159   6.621   2.136
22062SOL     OW67626   6.777   7.398   3.490
22062SOL    HW167627   6.774   7.454   3.412
22062SOL    HW267628   6.788   7.310   3.455
22063SOL     OW67629   5.936   5.836   3.700
22063SOL    HW167630   5.969   5.925   3.712
22063SOL    HW267631   5.842   5.843   3.717
22064SOL     OW67632   7.050   6.999   2.806
22064SOL    HW167633   6.980   7.015   2.870
22064SOL    HW267634   7.037   6.909   2.778
22065SOL     OW67635   7.244   7.337   2.440
22065SOL    HW167636   7.219   7.306   2.353
22065SOL    HW267637   7.216   7.267   2.499
22066SOL     OW67638   6.163   6.292   2.123
22066SOL    HW167639   6.177   6.380   2.088
22066SOL    HW267640   6.110   6.306   2.202
22067SOL     OW67641   6.866   5.950   2.797
22067SOL    HW167642   6.776   5.919   2.804
22067SOL    HW267643   6.916   5.895   2.857
22068SOL     OW67644   7.163   7.262   2.175
22068SOL    HW167645   7.256   7.284   2.166
22068SOL    HW267646   7.134   7.245   2.085
22069SOL     OW67647   6.431   6.136   3.320
22069SOL    HW167648   6.378   6.153   3.398
22069SOL    HW267649   6.367   6.109   3.253
22070SOL     OW67650   6.980   6.062   3.540
22070SOL    HW167651   6.986   6.105   3.625
22070SOL    HW267652   7.036   5.984   3.549
22071SOL     OW67653   6.522   6.468   3.447
22071SOL    HW167654   6.580   6.409   3.399
22071SOL    HW267655   6.442   6.470   3.394
22072SOL     OW67656   6.591   5.997   3.103
22072SOL    HW167657   6.525   6.033   3.162
22072SOL    HW267658   6.541   5.960   3.031
22073SOL     OW67659   6.629   6.296   2.282
22073SOL    HW167660   6.650   6.292   2.376
22073SOL    HW267661   6.550   6.243   2.273
22074SOL     OW67662   5.677   6.429   2.619
22074SOL    HW167663   5.749   6.412   2.679
22074SOL    HW267664   5.622   6.494   2.665
22075SOL     OW67665   5.724   7.477   3.444
22075SOL    HW167666   5.716   7.452   3.536
22075SOL    HW267667   5.655   7.427   3.400
22076SOL     OW67668   6.479   5.937   2.054
22076SOL    HW167669   6.519   5.993   1.987
22076SOL    HW267670   6.540   5.863   2.061
22077SOL     OW67671   7.291   6.168   3.695
22077SOL    HW167672   7.256   6.238   3.641
22077SOL    HW267673   7.318   6.100   3.633
22078SOL     OW67674   6.968   6.725   2.377
22078SOL    HW167675   7.061   6.723   2.356
22078SOL    HW267676   6.925   6.695   2.296
22079SOL     OW67677   6.153   5.764   2.765
22079SOL    HW167678   6.148   5.787   2.858
22079SOL    HW267679   6.135   5.846   2.719
22080SOL     OW67680   5.943   7.397   2.720
22080SOL    HW167681   5.979   7.309   2.732
22080SOL    HW267682   6.012   7.456   2.749
22081SOL     OW67683   7.393   6.671   2.729
22081SOL    HW167684   7.349   6.628   2.656
22081SOL    HW267685   7.330   6.667   2.801
22082SOL     OW67686   6.813   7.129   3.380
22082SOL    HW167687   6.806   7.061   3.448
22082SOL    HW267688   6.752   7.101   3.312
22083SOL     OW67689   5.908   6.570   2.119
22083SOL    HW167690   5.992   6.575   2.073
22083SOL    HW267691   5.869   6.488   2.088
22084SOL     OW67692   7.058   6.334   2.569
22084SOL    HW167693   7.008   6.253   2.582
22084SOL    HW267694   7.111   6.342   2.648
22085SOL     OW67695   6.054   6.860   3.603
22085SOL    HW167696   6.028   6.865   3.512
22085SOL    HW267697   5.973   6.844   3.651
22086SOL     OW67698   6.713   7.362   2.090
22086SOL    HW167699   6.640   7.322   2.137
22086SOL    HW267700   6.736   7.298   2.023
22087SOL     OW67701   5.786   5.854   3.371
22087SOL    HW167702   5.701   5.899   3.365
22087SOL    HW267703   5.764   5.767   3.404
22088SOL     OW67704   7.218   6.967   1.952
22088SOL    HW167705   7.177   7.053   1.941
22088SOL    HW267706   7.149   6.904   1.932
22089SOL     OW67707   6.051   7.331   2.171
22089SOL    HW167708   6.091   7.383   2.241
22089SOL    HW267709   6.125   7.287   2.129
22090SOL     OW67710   6.996   5.649   2.306
22090SOL    HW167711   6.936   5.712   2.268
22090SOL    HW267712   7.077   5.699   2.322
22091SOL     OW67713   5.861   7.382   3.068
22091SOL    HW167714   5.890   7.299   3.105
22091SOL    HW267715   5.800   7.358   2.999
22092SOL     OW67716   6.518   7.288   2.752
22092SOL    HW167717   6.571   7.234   2.811
22092SOL    HW267718   6.486   7.227   2.686
22093SOL     OW67719   5.973   6.281   2.330
22093SOL    HW167720   5.989   6.188   2.349
22093SOL    HW267721   5.883   6.296   2.358
22094SOL     OW67722   7.115   5.817   3.585
22094SOL    HW167723   7.130   5.840   3.677
22094SOL    HW267724   7.051   5.746   3.588
22095SOL     OW67725   6.231   5.705   1.956
22095SOL    HW167726   6.292   5.635   1.981
22095SOL    HW267727   6.179   5.667   1.885
22096SOL     OW67728   6.351   5.867   3.619
22096SOL    HW167729   6.432   5.816   3.612
22096SOL    HW267730   6.301   5.825   3.689
22097SOL     OW67731   6.470   7.123   3.052
22097SOL    HW167732   6.447   7.071   2.974
22097SOL    HW267733   6.531   7.067   3.100
22098SOL     OW67734   6.927   6.172   3.294
22098SOL    HW167735   6.956   6.140   3.380
22098SOL    HW267736   6.959   6.262   3.290
22099SOL     OW67737   6.415   6.991   2.797
22099SOL    HW167738   6.488   6.978   2.737
22099SOL    HW267739   6.337   6.983   2.743
22100SOL     OW67740   6.530   6.100   2.759
22100SOL    HW167741   6.499   6.085   2.669
22100SOL    HW267742   6.552   6.013   2.791
22101SOL     OW67743   6.139   5.644   2.358
22101SOL    HW167744   6.061   5.648   2.413
22101SOL    HW267745   6.131   5.720   2.301
22102SOL     OW67746   7.012   6.790   1.898
22102SOL    HW167747   7.044   6.714   1.947
22102SOL    HW267748   6.926   6.808   1.937
22103SOL     OW67749   5.890   5.638   2.045
22103SOL    HW167750   5.956   5.707   2.038
22103SOL    HW267751   5.935   5.566   2.089
22104SOL     OW67752   6.517   5.827   2.323
22104SOL    HW167753   6.484   5.876   2.248
22104SOL    HW267754   6.611   5.824   2.310
22105SOL     OW67755   6.665   6.273   3.318
22105SOL    HW167756   6.591   6.212   3.324
22105SOL    HW267757   6.742   6.218   3.314
22106SOL     OW67758   6.831   7.149   2.640
22106SOL    HW167759   6.836   7.228   2.586
22106SOL    HW267760   6.881   7.170   2.719
22107SOL     OW67761   6.068   6.747   2.592
22107SOL    HW167762   6.006   6.723   2.661
22107SOL    HW267763   6.020   6.734   2.510
22108SOL     OW67764   6.850   7.379   2.474
22108SOL    HW167765   6.896   7.444   2.421
22108SOL    HW267766   6.779   7.427   2.516
22109SOL     OW67767   6.613   6.117   1.882
22109SOL    HW167768   6.568   6.200   1.869
22109SOL    HW267769   6.673   6.133   1.955
22110SOL     OW67770   5.673   6.133   3.253
22110SOL    HW167771   5.764   6.135   3.224
22110SOL    HW267772   5.667   6.202   3.320
22111SOL     OW67773   6.145   5.809   3.037
22111SOL    HW167774   6.186   5.744   3.095
22111SOL    HW267775   6.053   5.809   3.063
22112SOL     OW67776   6.460   6.046   2.500
22112SOL    HW167777   6.408   6.095   2.437
22112SOL    HW267778   6.480   5.963   2.456
22113SOL     OW67779   6.608   5.642   2.611
22113SOL    HW167780   6.547   5.639   2.538
22113SOL    HW267781   6.584   5.568   2.667
22114SOL     OW67782   7.009   6.745   2.711
22114SOL    HW167783   6.956   6.667   2.731
22114SOL    HW267784   7.013   6.746   2.615
22115SOL     OW67785   7.060   6.196   2.838
22115SOL    HW167786   6.996   6.124   2.846
22115SOL    HW267787   7.112   6.190   2.918
22116SOL     OW67788   7.424   6.392   2.251
22116SOL    HW167789   7.480   6.342   2.310
22116SOL    HW267790   7.402   6.330   2.181
22117SOL     OW67791   6.083   6.999   2.027
22117SOL    HW167792   6.004   6.982   2.078
22117SOL    HW267793   6.068   6.956   1.943
22118SOL     OW67794   7.261   6.872   2.474
22118SOL    HW167795   7.349   6.869   2.511
22118SOL    HW267796   7.223   6.951   2.511
22119SOL     OW67797   6.988   6.155   1.935
22119SOL    HW167798   6.915   6.149   1.997
22119SOL    HW267799   7.053   6.094   1.969
22120SOL     OW67800   6.119   5.838   2.165
22120SOL    HW167801   6.169   5.796   2.095
22120SOL    HW267802   6.111   5.929   2.137
22121SOL     OW67803   6.642   6.976   3.221
22121SOL    HW167804   6.562   6.933   3.252
22121SOL    HW267805   6.711   6.912   3.240
22122SOL     OW67806   7.182   7.224   3.532
22122SOL    HW167807   7.151   7.225   3.441
22122SOL    HW267808   7.259   7.167   3.530
22123SOL     OW67809   6.693   6.780   2.988
22123SOL    HW167810   6.636   6.748   3.058
22123SOL    HW267811   6.644   6.763   2.908
22124SOL     OW67812   7.215   6.681   2.934
22124SOL    HW167813   7.212   6.740   3.009
22124SOL    HW267814   7.126   6.682   2.899
22125SOL     OW67815   6.509   5.673   3.254
22125SOL    HW167816   6.530   5.660   3.162
22125SOL    HW267817   6.586   5.716   3.291
22126SOL     OW67818   6.567   6.696   3.585
22126SOL    HW167819   6.476   6.712   3.608
22126SOL    HW267820   6.564   6.621   3.526
22127SOL     OW67821   6.288   6.638   2.235
22127SOL    HW167822   6.273   6.619   2.328
22127SOL    HW267823   6.366   6.587   2.212
22128SOL     OW67824   6.009   6.409   3.112
22128SOL    HW167825   6.085   6.426   3.167
22128SOL    HW267826   5.983   6.319   3.135
22129SOL     OW67827   6.855   5.958   3.142
22129SOL    HW167828   6.884   6.035   3.189
22129SOL    HW267829   6.764   5.976   3.120
22130SOL     OW67830   5.659   7.174   3.235
22130SOL    HW167831   5.616   7.221   3.163
22130SOL    HW267832   5.749   7.161   3.206
22131SOL     OW67833   5.937   6.714   2.355
22131SOL    HW167834   5.908   6.790   2.305
22131SOL    HW267835   5.932   6.641   2.295
22132SOL     OW67836   6.142   6.109   2.697
22132SOL    HW167837   6.159   6.174   2.629
22132SOL    HW267838   6.199   6.133   2.769
22133SOL     OW67839   6.765   6.968   2.289
22133SOL    HW167840   6.834   7.033   2.298
22133SOL    HW267841   6.796   6.894   2.342
22134SOL     OW67842   6.856   7.036   2.994
22134SOL    HW167843   6.909   7.043   3.073
22134SOL    HW267844   6.795   6.964   3.011
22135SOL     OW67845   7.162   6.220   2.332
22135SOL    HW167846   7.116   6.251   2.410
22135SOL    HW267847   7.207   6.297   2.297
22136SOL     OW67848   5.925   7.127   3.162
22136SOL    HW167849   5.911   7.076   3.082
22136SOL    HW267850   6.021   7.133   3.170
22137SOL     OW67851   6.015   6.350   3.455
22137SOL    HW167852   6.084   6.392   3.403
22137SOL    HW267853   6.045   6.259   3.464
22138SOL     OW67854   7.202   6.377   3.545
22138SOL    HW167855   7.114   6.413   3.542
22138SOL    HW267856   7.251   6.425   3.478
22139SOL     OW67857   6.583   5.721   3.612
22139SOL    HW167858   6.641   5.795   3.594
22139SOL    HW267859   6.635   5.644   3.591
22140SOL     OW67860   6.080   5.620   3.618
22140SOL    HW167861   6.031   5.568   3.554
22140SOL    HW267862   6.025   5.696   3.634
22141SOL     OW67863   6.166   6.459   2.893
22141SOL    HW167864   6.208   6.544   2.910
22141SOL    HW267865   6.115   6.441   2.971
22142SOL     OW67866   6.924   6.444   2.868
22142SOL    HW167867   6.833   6.416   2.855
22142SOL    HW267868   6.975   6.364   2.863
22143SOL     OW67869   6.775   6.150   2.101
22143SOL    HW167870   6.786   6.061   2.133
22143SOL    HW267871   6.730   6.196   2.172
22144SOL     OW67872   5.886   5.782   3.113
22144SOL    HW167873   5.843   5.811   3.193
22144SOL    HW267874   5.866   5.688   3.108
22145SOL     OW67875   5.665   6.904   3.137
22145SOL    HW167876   5.681   6.840   3.206
22145SOL    HW267877   5.634   6.982   3.184
22146SOL     OW67878   6.294   6.206   2.898
22146SOL    HW167879   6.384   6.206   2.865
22146SOL    HW267880   6.269   6.299   2.899
22147SOL     OW67881   7.331   6.547   3.723
22147SOL    HW167882   7.290   6.480   3.668
22147SOL    HW267883   7.267   6.564   3.792
22148SOL     OW67884   5.892   5.663   2.474
22148SOL    HW167885   5.860   5.750   2.500
22148SOL    HW267886   5.901   5.616   2.557
22149SOL     OW67887   7.233   5.976   2.220
22149SOL    HW167888   7.249   5.907   2.283
22149SOL    HW267889   7.193   6.047   2.271
22150SOL     OW67890   6.624   6.345   2.825
22150SOL    HW167891   6.603   6.359   2.918
22150SOL    HW267892   6.598   6.255   2.807
22151SOL     OW67893   6.568   7.154   3.585
22151SOL    HW167894   6.549   7.196   3.501
22151SOL    HW267895   6.607   7.070   3.562
22152SOL     OW67896   7.462   7.163   3.436
22152SOL    HW167897   7.422   7.076   3.430
22152SOL    HW267898   7.538   7.152   3.493
22153SOL     OW67899   5.940   6.510   3.665
22153SOL    HW167900   6.022   6.518   3.715
22153SOL    HW267901   5.962   6.450   3.594
22154SOL     OW67902   7.123   5.884   1.985
22154SOL    HW167903   7.053   5.821   2.003
22154SOL    HW267904   7.155   5.909   2.072
22155SOL     OW67905   6.875   6.411   1.895
22155SOL    HW167906   6.914   6.324   1.902
22155SOL    HW267907   6.907   6.444   1.811
22156SOL     OW67908   6.621   6.961   2.614
22156SOL    HW167909   6.643   6.868   2.607
22156SOL    HW267910   6.704   7.003   2.638
22157SOL     OW67911   5.891   6.394   2.801
22157SOL    HW167912   5.983   6.413   2.814
22157SOL    HW267913   5.879   6.306   2.836
22158SOL     OW67914   5.935   6.117   2.875
22158SOL    HW167915   5.895   6.030   2.866
22158SOL    HW267916   6.004   6.118   2.810
22159SOL     OW67917   6.724   5.953   3.548
22159SOL    HW167918   6.673   6.009   3.607
22159SOL    HW267919   6.810   5.996   3.544
22160SOL     OW67920   6.750   5.780   3.333
22160SOL    HW167921   6.737   5.843   3.404
22160SOL    HW267922   6.791   5.832   3.264
22161SOL     OW67923   5.597   6.899   2.043
22161SOL    HW167924   5.508   6.914   2.011
22161SOL    HW267925   5.593   6.812   2.084
22162SOL     OW67926   5.682   7.365   2.811
22162SOL    HW167927   5.641   7.291   2.766
22162SOL    HW267928   5.767   7.375   2.767
22163SOL     OW67929   6.077   7.164   2.763
22163SOL    HW167930   6.147   7.221   2.794
22163SOL    HW267931   6.122   7.095   2.714
22164SOL     OW67932   6.545   6.357   3.083
22164SOL    HW167933   6.602   6.335   3.157
22164SOL    HW267934   6.458   6.364   3.121
22165SOL     OW67935   5.614   6.160   2.974
22165SOL    HW167936   5.640   6.084   2.921
22165SOL    HW267937   5.655   6.144   3.059
22166SOL     OW67938   5.780   6.108   3.596
22166SOL    HW167939   5.816   6.052   3.527
22166SOL    HW267940   5.745   6.184   3.548
22167SOL     OW67941   6.966   6.520   3.524
22167SOL    HW167942   6.987   6.613   3.516
22167SOL    HW267943   6.958   6.489   3.434
22168SOL     OW67944   6.402   6.155   2.217
22168SOL    HW167945   6.414   6.081   2.158
22168SOL    HW267946   6.322   6.198   2.186
22169SOL     OW67947   7.226   6.196   3.052
22169SOL    HW167948   7.218   6.132   3.123
22169SOL    HW267949   7.313   6.179   3.015
22170SOL     OW67950   5.824   7.130   3.595
22170SOL    HW167951   5.801   7.175   3.676
22170SOL    HW267952   5.834   7.039   3.620
22171SOL     OW67953   6.295   6.033   3.108
22171SOL    HW167954   6.237   5.960   3.086
22171SOL    HW267955   6.283   6.096   3.037
22172SOL     OW67956   6.494   7.272   3.344
22172SOL    HW167957   6.487   7.219   3.265
22172SOL    HW267958   6.485   7.362   3.313
22173SOL     OW67959   5.951   6.108   2.069
22173SOL    HW167960   6.026   6.166   2.062
22173SOL    HW267961   5.946   6.084   2.161
22174SOL     OW67962   5.733   6.727   3.339
22174SOL    HW167963   5.733   6.681   3.422
22174SOL    HW267964   5.747   6.659   3.273
22175SOL     OW67965   6.917   6.633   3.068
22175SOL    HW167966   6.923   6.565   3.002
22175SOL    HW267967   6.840   6.685   3.043
22176SOL     OW67968   6.893   6.467   2.171
22176SOL    HW167969   6.840   6.412   2.229
22176SOL    HW267970   6.871   6.435   2.083
22177SOL     OW67971   6.815   7.315   2.965
22177SOL    HW167972   6.893   7.335   2.915
22177SOL    HW267973   6.823   7.222   2.987
22178SOL     OW67974   5.681   6.843   2.876
22178SOL    HW167975   5.671   6.863   2.969
22178SOL    HW267976   5.595   6.811   2.848
22179SOL     OW67977   6.270   7.264   3.610
22179SOL    HW167978   6.214   7.337   3.586
22179SOL    HW267979   6.345   7.270   3.550
22180SOL     OW67980   7.314   5.747   2.371
22180SOL    HW167981   7.384   5.726   2.310
22180SOL    HW267982   7.293   5.664   2.413
22181SOL     OW67983   6.965   7.156   2.342
22181SOL    HW167984   7.029   7.191   2.280
22181SOL    HW267985   6.923   7.234   2.379
22182SOL     OW67986   5.717   7.405   3.711
22182SOL    HW167987   5.675   7.327   3.747
22182SOL    HW267988   5.756   7.449   3.786
22183SOL     OW67989   6.869   6.527   2.539
22183SOL    HW167990   6.938   6.461   2.549
22183SOL    HW267991   6.907   6.591   2.478
22184SOL     OW67992   6.388   6.889   3.288
22184SOL    HW167993   6.352   6.929   3.367
22184SOL    HW267994   6.311   6.854   3.242
22185SOL     OW67995   6.270   7.195   2.017
22185SOL    HW167996   6.272   7.220   1.924
22185SOL    HW267997   6.203   7.127   2.022
22186SOL     OW67998   7.205   7.310   3.239
22186SOL    HW167999   7.293   7.288   3.268
22186SOL    HW268000   7.192   7.400   3.266
22187SOL     OW68001   7.431   5.763   2.814
22187SOL    HW168002   7.468   5.676   2.799
22187SOL    HW268003   7.342   5.758   2.780
22188SOL     OW68004   5.840   5.916   2.570
22188SOL    HW168005   5.750   5.943   2.557
22188SOL    HW268006   5.847   5.900   2.664
22189SOL     OW68007   6.796   7.184   1.894
22189SOL    HW168008   6.781   7.094   1.921
22189SOL    HW268009   6.730   7.201   1.827
22190SOL     OW68010   6.510   6.671   3.165
22190SOL    HW168011   6.454   6.593   3.169
22190SOL    HW268012   6.472   6.731   3.229
22191SOL     OW68013   6.507   6.507   2.145
22191SOL    HW168014   6.575   6.537   2.085
22191SOL    HW268015   6.548   6.436   2.195
22192SOL     OW68016   7.074   7.215   1.910
22192SOL    HW168017   6.981   7.204   1.895
22192SOL    HW268018   7.112   7.222   1.823
22193SOL     OW68019   5.946   6.906   3.359
22193SOL    HW168020   5.929   6.973   3.294
22193SOL    HW268021   5.880   6.839   3.342
22194SOL     OW68022   7.188   6.870   3.131
22194SOL    HW168023   7.236   6.858   3.213
22194SOL    HW268024   7.113   6.925   3.156
22195SOL     OW68025   6.652   6.697   2.563
22195SOL    HW168026   6.580   6.651   2.604
22195SOL    HW268027   6.721   6.631   2.553
22196SOL     OW68028   6.613   5.831   2.822
22196SOL    HW168029   6.610   5.779   2.742
22196SOL    HW268030   6.605   5.767   2.893
22197SOL     OW68031   6.172   7.077   2.336
22197SOL    HW168032   6.179   7.033   2.251
22197SOL    HW268033   6.082   7.110   2.338
22198SOL     OW68034   7.309   5.979   3.233
22198SOL    HW168035   7.384   6.038   3.237
22198SOL    HW268036   7.337   5.907   3.177
22199SOL     OW68037   5.847   6.939   2.154
22199SOL    HW168038   5.755   6.927   2.129
22199SOL    HW268039   5.844   6.975   2.242
22200SOL     OW68040   5.702   6.638   3.601
22200SOL    HW168041   5.623   6.604   3.643
22200SOL    HW268042   5.773   6.582   3.633
22201SOL     OW68043   6.264   5.775   3.360
22201SOL    HW168044   6.350   5.754   3.322
22201SOL    HW268045   6.285   5.814   3.445
22202SOL     OW68046   5.663   5.911   1.889
22202SOL    HW168047   5.627   5.853   1.956
22202SOL    HW268048   5.597   5.914   1.821
22203SOL     OW68049   7.009   6.447   3.262
22203SOL    HW168050   6.961   6.506   3.204
22203SOL    HW268051   7.099   6.449   3.229
22204SOL     OW68052   5.644   5.752   2.121
22204SOL    HW168053   5.625   5.774   2.212
22204SOL    HW268054   5.732   5.715   2.122
22205SOL     OW68055   6.757   6.922   1.984
22205SOL    HW168056   6.671   6.881   1.973
22205SOL    HW268057   6.766   6.933   2.079
22206SOL     OW68058   7.046   7.365   2.823
22206SOL    HW168059   7.072   7.437   2.766
22206SOL    HW268060   7.122   7.351   2.880
22207SOL     OW68061   6.300   6.145   3.564
22207SOL    HW168062   6.352   6.198   3.625
22207SOL    HW268063   6.317   6.055   3.591
22208SOL     OW68064   7.048   6.786   3.493
22208SOL    HW168065   7.044   6.797   3.588
22208SOL    HW268066   7.135   6.817   3.468
22209SOL     OW68067   5.959   7.325   3.436
22209SOL    HW168068   5.877   7.369   3.416
22209SOL    HW268069   5.932   7.241   3.474
22210SOL     OW68070   7.253   6.467   3.124
22210SOL    HW168071   7.247   6.377   3.091
22210SOL    HW268072   7.244   6.521   3.045
22211SOL     OW68073   6.184   6.316   2.513
22211SOL    HW168074   6.216   6.406   2.514
22211SOL    HW268075   6.104   6.320   2.460
22212SOL     OW68076   7.360   5.975   3.506
22212SOL    HW168077   7.321   5.978   3.418
22212SOL    HW268078   7.321   5.898   3.547
22213SOL     OW68079   7.336   6.545   3.377
22213SOL    HW168080   7.336   6.640   3.386
22213SOL    HW268081   7.314   6.530   3.285
22214SOL     OW68082   6.447   6.967   1.908
22214SOL    HW168083   6.405   7.018   1.977
22214SOL    HW268084   6.475   7.031   1.843
22215SOL     OW68085   6.252   7.380   2.799
22215SOL    HW168086   6.236   7.470   2.773
22215SOL    HW268087   6.346   7.368   2.790
22216SOL     OW68088   6.467   6.564   2.712
22216SOL    HW168089   6.506   6.487   2.754
22216SOL    HW268090   6.419   6.608   2.782
22217SOL     OW68091   6.679   6.596   1.951
22217SOL    HW168092   6.650   6.630   1.867
22217SOL    HW268093   6.744   6.530   1.929
22218SOL     OW68094   7.434   7.116   2.720
22218SOL    HW168095   7.352   7.118   2.670
22218SOL    HW268096   7.454   7.023   2.729
22219SOL     OW68097   5.798   6.874   3.705
22219SOL    HW168098   5.764   6.796   3.661
22219SOL    HW268099   5.742   6.884   3.782
22220SOL     OW68100   5.686   6.813   2.538
22220SOL    HW168101   5.650   6.772   2.616
22220SOL    HW268102   5.754   6.753   2.508
22221SOL     OW68103   6.266   7.003   3.503
22221SOL    HW168104   6.189   6.955   3.533
22221SOL    HW268105   6.258   7.089   3.545
22222SOL     OW68106   7.393   5.771   3.087
22222SOL    HW168107   7.404   5.678   3.105
22222SOL    HW268108   7.407   5.779   2.993
22223SOL     OW68109   5.987   6.013   2.353
22223SOL    HW168110   6.040   5.935   2.338
22223SOL    HW268111   5.939   5.994   2.433
22224SOL     OW68112   7.267   7.066   2.961
22224SOL    HW168113   7.192   7.054   2.902
22224SOL    HW268114   7.254   7.003   3.031
22225SOL     OW68115   5.925   6.149   3.155
22225SOL    HW168116   5.977   6.088   3.207
22225SOL    HW268117   5.941   6.123   3.065
22226SOL     OW68118   6.406   7.169   2.520
22226SOL    HW168119   6.371   7.251   2.487
22226SOL    HW268120   6.330   7.119   2.549
22227SOL     OW68121   7.019   5.815   2.978
22227SOL    HW168122   7.041   5.732   3.021
22227SOL    HW268123   6.968   5.863   3.043
22228SOL     OW68124   6.597   5.605   2.995
22228SOL    HW168125   6.539   5.540   2.957
22228SOL    HW268126   6.684   5.565   2.993
22229SOL     OW68127   6.417   6.890   2.219
22229SOL    HW168128   6.341   6.837   2.239
22229SOL    HW268129   6.466   6.838   2.154
22230SOL     OW68130   6.203   7.147   3.143
22230SOL    HW168131   6.204   7.230   3.192
22230SOL    HW268132   6.294   7.135   3.116
22231SOL     OW68133   6.942   5.668   1.964
22231SOL    HW168134   6.946   5.575   1.984
22231SOL    HW268135   6.873   5.703   2.021
22232SOL     OW68136   6.928   6.094   2.575
22232SOL    HW168137   6.847   6.105   2.525
22232SOL    HW268138   6.902   6.039   2.649
22233SOL     OW68139   7.166   5.772   2.745
22233SOL    HW168140   7.113   5.796   2.821
22233SOL    HW268141   7.164   5.850   2.689
22234SOL     OW68142   5.646   6.654   2.159
22234SOL    HW168143   5.741   6.647   2.150
22234SOL    HW268144   5.617   6.565   2.177
22235SOL     OW68145   6.480   7.221   2.213
22235SOL    HW168146   6.410   7.213   2.148
22235SOL    HW268147   6.453   7.295   2.268
22236SOL     OW68148   5.806   6.217   3.857
22236SOL    HW168149   5.719   6.201   3.895
22236SOL    HW268150   5.798   6.189   3.766
22237SOL     OW68151   5.808   5.883   4.723
22237SOL    HW168152   5.839   5.844   4.805
22237SOL    HW268153   5.723   5.841   4.707
22238SOL     OW68154   5.585   5.983   4.353
22238SOL    HW168155   5.509   6.022   4.396
22238SOL    HW268156   5.551   5.902   4.313
22239SOL     OW68157   6.166   6.880   4.909
22239SOL    HW168158   6.078   6.871   4.872
22239SOL    HW268159   6.173   6.972   4.935
22240SOL     OW68160   7.159   7.103   4.433
22240SOL    HW168161   7.115   7.078   4.514
22240SOL    HW268162   7.089   7.106   4.367
22241SOL     OW68163   6.698   6.297   4.428
22241SOL    HW168164   6.792   6.305   4.440
22241SOL    HW268165   6.664   6.275   4.515
22242SOL     OW68166   7.328   6.191   3.964
22242SOL    HW168167   7.317   6.191   3.869
22242SOL    HW268168   7.322   6.099   3.988
22243SOL     OW68169   6.347   6.729   4.752
22243SOL    HW168170   6.282   6.752   4.818
22243SOL    HW268171   6.377   6.814   4.717
22244SOL     OW68172   6.465   6.361   5.564
22244SOL    HW168173   6.484   6.436   5.620
22244SOL    HW268174   6.484   6.392   5.475
22245SOL     OW68175   6.290   6.593   4.371
22245SOL    HW168176   6.334   6.576   4.455
22245SOL    HW268177   6.212   6.644   4.395
22246SOL     OW68178   6.303   6.740   5.534
22246SOL    HW168179   6.347   6.818   5.567
22246SOL    HW268180   6.221   6.772   5.497
22247SOL     OW68181   5.916   7.003   4.789
22247SOL    HW168182   5.841   6.958   4.750
22247SOL    HW268183   5.956   7.051   4.717
22248SOL     OW68184   7.042   7.093   5.086
22248SOL    HW168185   7.096   7.172   5.098
22248SOL    HW268186   6.973   7.101   5.151
22249SOL     OW68187   6.036   5.973   5.200
22249SOL    HW168188   6.110   5.914   5.212
22249SOL    HW268189   5.959   5.920   5.221
22250SOL     OW68190   7.192   6.018   4.466
22250SOL    HW168191   7.127   6.045   4.401
22250SOL    HW268192   7.210   6.097   4.516
22251SOL     OW68193   5.808   7.326   4.178
22251SOL    HW168194   5.836   7.391   4.242
22251SOL    HW268195   5.887   7.305   4.128
22252SOL     OW68196   6.723   6.930   5.418
22252SOL    HW168197   6.763   6.921   5.505
22252SOL    HW268198   6.670   6.850   5.409
22253SOL     OW68199   5.818   7.033   4.269
22253SOL    HW168200   5.781   7.119   4.286
22253SOL    HW268201   5.769   6.974   4.327
22254SOL     OW68202   5.882   6.679   4.634
22254SOL    HW168203   5.864   6.587   4.657
22254SOL    HW268204   5.808   6.727   4.671
22255SOL     OW68205   6.190   7.381   5.150
22255SOL    HW168206   6.115   7.359   5.204
22255SOL    HW268207   6.213   7.471   5.175
22256SOL     OW68208   6.162   6.568   3.864
22256SOL    HW168209   6.209   6.614   3.795
22256SOL    HW268210   6.199   6.602   3.945
22257SOL     OW68211   7.181   5.710   5.192
22257SOL    HW168212   7.197   5.793   5.148
22257SOL    HW268213   7.154   5.734   5.280
22258SOL     OW68214   5.710   6.238   4.280
22258SOL    HW168215   5.674   6.151   4.298
22258SOL    HW268216   5.701   6.285   4.362
22259SOL     OW68217   7.434   7.336   4.052
22259SOL    HW168218   7.504   7.311   4.113
22259SOL    HW268219   7.451   7.428   4.032
22260SOL     OW68220   5.633   7.182   3.846
22260SOL    HW168221   5.619   7.087   3.851
22260SOL    HW268222   5.590   7.216   3.924
22261SOL     OW68223   7.277   6.504   4.370
22261SOL    HW168224   7.350   6.445   4.350
22261SOL    HW268225   7.258   6.548   4.287
22262SOL     OW68226   7.234   6.687   4.155
22262SOL    HW168227   7.319   6.687   4.111
22262SOL    HW268228   7.244   6.751   4.226
22263SOL     OW68229   5.705   6.324   5.308
22263SOL    HW168230   5.792   6.363   5.305
22263SOL    HW268231   5.646   6.398   5.292
22264SOL     OW68232   6.206   6.977   4.460
22264SOL    HW168233   6.162   6.893   4.469
22264SOL    HW268234   6.188   7.005   4.371
22265SOL     OW68235   6.874   6.824   5.142
22265SOL    HW168236   6.905   6.754   5.084
22265SOL    HW268237   6.928   6.816   5.220
22266SOL     OW68238   6.412   5.593   4.238
22266SOL    HW168239   6.448   5.678   4.213
22266SOL    HW268240   6.318   5.608   4.244
22267SOL     OW68241   5.774   6.543   5.005
22267SOL    HW168242   5.859   6.503   4.986
22267SOL    HW268243   5.711   6.490   4.958
22268SOL     OW68244   7.117   6.585   3.924
22268SOL    HW168245   7.050   6.524   3.953
22268SOL    HW268246   7.159   6.615   4.005
22269SOL     OW68247   6.771   7.397   5.352
22269SOL    HW168248   6.775   7.458   5.278
22269SOL    HW268249   6.788   7.311   5.314
22270SOL     OW68250   5.926   5.824   5.559
22270SOL    HW168251   5.959   5.908   5.527
22270SOL    HW268252   5.834   5.841   5.579
22271SOL     OW68253   7.058   6.999   4.670
22271SOL    HW168254   6.990   7.018   4.734
22271SOL    HW268255   7.041   6.909   4.643
22272SOL     OW68256   7.238   7.343   4.301
22272SOL    HW168257   7.218   7.311   4.213
22272SOL    HW268258   7.217   7.270   4.359
22273SOL     OW68259   6.176   6.308   4.001
22273SOL    HW168260   6.162   6.388   3.950
22273SOL    HW268261   6.107   6.310   4.068
22274SOL     OW68262   6.863   5.956   4.658
22274SOL    HW168263   6.775   5.920   4.667
22274SOL    HW268264   6.917   5.903   4.717
22275SOL     OW68265   7.164   7.265   4.039
22275SOL    HW168266   7.258   7.282   4.028
22275SOL    HW268267   7.132   7.249   3.950
22276SOL     OW68268   6.370   6.208   5.174
22276SOL    HW168269   6.348   6.181   5.263
22276SOL    HW268270   6.344   6.134   5.119
22277SOL     OW68271   6.992   6.069   5.403
22277SOL    HW168272   6.988   6.106   5.491
22277SOL    HW268273   7.029   5.982   5.415
22278SOL     OW68274   6.541   6.466   5.315
22278SOL    HW168275   6.592   6.394   5.277
22278SOL    HW268276   6.484   6.495   5.244
22279SOL     OW68277   6.584   6.000   4.944
22279SOL    HW168278   6.498   6.014   4.983
22279SOL    HW268279   6.569   5.936   4.874
22280SOL     OW68280   6.633   6.278   4.158
22280SOL    HW168281   6.648   6.248   4.248
22280SOL    HW268282   6.552   6.234   4.131
22281SOL     OW68283   5.689   6.412   4.490
22281SOL    HW168284   5.760   6.399   4.552
22281SOL    HW268285   5.626   6.467   4.536
22282SOL     OW68286   6.481   5.939   3.923
22282SOL    HW168287   6.527   5.993   3.858
22282SOL    HW268288   6.452   5.862   3.874
22283SOL     OW68289   7.310   6.160   5.552
22283SOL    HW168290   7.265   6.231   5.506
22283SOL    HW268291   7.318   6.090   5.487
22284SOL     OW68292   6.968   6.740   4.259
22284SOL    HW168293   7.046   6.717   4.210
22284SOL    HW268294   6.921   6.801   4.203
22285SOL     OW68295   6.151   5.762   4.629
22285SOL    HW168296   6.148   5.790   4.720
22285SOL    HW268297   6.130   5.840   4.578
22286SOL     OW68298   6.583   7.034   4.198
22286SOL    HW168299   6.557   7.104   4.139
22286SOL    HW268300   6.550   7.060   4.284
22287SOL     OW68301   5.939   7.400   4.592
22287SOL    HW168302   5.980   7.313   4.598
22287SOL    HW268303   6.008   7.461   4.618
22288SOL     OW68304   7.370   6.642   4.590
22288SOL    HW168305   7.341   6.611   4.504
22288SOL    HW268306   7.288   6.653   4.640
22289SOL     OW68307   6.811   7.127   5.237
22289SOL    HW168308   6.801   7.057   5.301
22289SOL    HW268309   6.741   7.112   5.174
22290SOL     OW68310   5.891   6.539   3.976
22290SOL    HW168311   5.968   6.557   3.922
22290SOL    HW268312   5.860   6.453   3.946
22291SOL     OW68313   7.027   6.371   4.465
22291SOL    HW168314   7.039   6.305   4.533
22291SOL    HW268315   7.117   6.396   4.440
22292SOL     OW68316   6.056   6.859   5.463
22292SOL    HW168317   6.027   6.866   5.373
22292SOL    HW268318   5.976   6.844   5.513
22293SOL     OW68319   6.715   7.366   3.946
22293SOL    HW168320   6.637   7.330   3.989
22293SOL    HW268321   6.737   7.300   3.880
22294SOL     OW68322   5.780   5.860   5.243
22294SOL    HW168323   5.694   5.888   5.212
22294SOL    HW268324   5.768   5.769   5.271
22295SOL     OW68325   7.215   6.978   3.833
22295SOL    HW168326   7.170   7.059   3.809
22295SOL    HW268327   7.156   6.908   3.805
22296SOL     OW68328   6.041   7.343   4.029
22296SOL    HW168329   6.092   7.386   4.097
22296SOL    HW268330   6.106   7.292   3.980
22297SOL     OW68331   6.989   5.694   4.168
22297SOL    HW168332   6.983   5.668   4.076
22297SOL    HW268333   7.083   5.695   4.187
22298SOL     OW68334   5.854   7.376   4.951
22298SOL    HW168335   5.896   7.293   4.972
22298SOL    HW268336   5.813   7.361   4.866
22299SOL     OW68337   6.520   7.291   4.618
22299SOL    HW168338   6.598   7.242   4.646
22299SOL    HW268339   6.482   7.238   4.548
22300SOL     OW68340   5.984   6.276   4.202
22300SOL    HW168341   6.002   6.182   4.215
22300SOL    HW268342   5.890   6.284   4.217
22301SOL     OW68343   7.101   5.809   5.448
22301SOL    HW168344   7.113   5.827   5.541
22301SOL    HW268345   7.026   5.750   5.444
22302SOL     OW68346   6.241   5.704   3.822
22302SOL    HW168347   6.283   5.624   3.853
22302SOL    HW268348   6.181   5.675   3.753
22303SOL     OW68349   6.464   7.112   4.917
22303SOL    HW168350   6.446   7.072   4.832
22303SOL    HW268351   6.528   7.054   4.958
22304SOL     OW68352   6.933   6.175   5.158
22304SOL    HW168353   6.958   6.140   5.244
22304SOL    HW268354   6.966   6.265   5.159
22305SOL     OW68355   6.415   6.981   4.664
22305SOL    HW168356   6.496   6.970   4.615
22305SOL    HW268357   6.347   6.988   4.596
22306SOL     OW68358   6.528   6.105   4.613
22306SOL    HW168359   6.499   6.088   4.523
22306SOL    HW268360   6.544   6.018   4.650
22307SOL     OW68361   6.146   5.651   4.219
22307SOL    HW168362   6.066   5.649   4.272
22307SOL    HW268363   6.134   5.727   4.161
22308SOL     OW68364   7.021   6.792   3.768
22308SOL    HW168365   7.050   6.714   3.814
22308SOL    HW268366   6.931   6.806   3.799
22309SOL     OW68367   5.876   5.638   3.903
22309SOL    HW168368   5.933   5.701   3.860
22309SOL    HW268369   5.936   5.578   3.947
22310SOL     OW68370   6.534   5.841   4.179
22310SOL    HW168371   6.510   5.873   4.092
22310SOL    HW268372   6.629   5.849   4.182
22311SOL     OW68373   6.666   6.262   5.181
22311SOL    HW168374   6.601   6.195   5.204
22311SOL    HW268375   6.750   6.216   5.184
22312SOL     OW68376   6.806   7.168   4.527
22312SOL    HW168377   6.817   7.230   4.454
22312SOL    HW268378   6.872   7.195   4.591
22313SOL     OW68379   6.068   6.738   4.444
22313SOL    HW168380   6.006   6.717   4.514
22313SOL    HW268381   6.017   6.726   4.363
22314SOL     OW68382   6.846   7.377   4.339
22314SOL    HW168383   6.892   7.440   4.283
22314SOL    HW268384   6.775   7.429   4.379
22315SOL     OW68385   6.612   6.116   3.750
22315SOL    HW168386   6.569   6.199   3.729
22315SOL    HW268387   6.678   6.139   3.815
22316SOL     OW68388   5.682   6.141   5.106
22316SOL    HW168389   5.775   6.142   5.083
22316SOL    HW268390   5.674   6.203   5.178
22317SOL     OW68391   6.148   5.816   4.901
22317SOL    HW168392   6.187   5.743   4.951
22317SOL    HW268393   6.055   5.815   4.926
22318SOL     OW68394   6.470   6.056   4.351
22318SOL    HW168395   6.399   6.095   4.300
22318SOL    HW268396   6.487   5.972   4.308
22319SOL     OW68397   6.604   5.643   4.462
22319SOL    HW168398   6.542   5.634   4.389
22319SOL    HW268399   6.583   5.570   4.520
22320SOL     OW68400   7.031   6.740   4.579
22320SOL    HW168401   6.971   6.665   4.582
22320SOL    HW268402   7.052   6.749   4.486
22321SOL     OW68403   7.045   6.198   4.692
22321SOL    HW168404   6.991   6.119   4.692
22321SOL    HW268405   7.103   6.187   4.767
22322SOL     OW68406   7.428   6.398   4.112
22322SOL    HW168407   7.484   6.344   4.167
22322SOL    HW268408   7.391   6.338   4.047
22323SOL     OW68409   6.073   7.008   3.871
22323SOL    HW168410   5.999   6.978   3.924
22323SOL    HW268411   6.071   6.954   3.793
22324SOL     OW68412   7.269   6.854   4.364
22324SOL    HW168413   7.364   6.855   4.378
22324SOL    HW268414   7.241   6.943   4.384
22325SOL     OW68415   6.982   6.161   3.798
22325SOL    HW168416   6.919   6.136   3.865
22325SOL    HW268417   7.061   6.112   3.819
22326SOL     OW68418   6.119   5.850   4.032
22326SOL    HW168419   6.165   5.805   3.961
22326SOL    HW268420   6.086   5.930   3.992
22327SOL     OW68421   7.329   6.831   5.280
22327SOL    HW168422   7.408   6.782   5.302
22327SOL    HW268423   7.347   6.921   5.307
22328SOL     OW68424   6.639   6.941   5.057
22328SOL    HW168425   6.562   6.908   5.104
22328SOL    HW268426   6.713   6.899   5.101
22329SOL     OW68427   7.195   7.221   5.384
22329SOL    HW168428   7.188   7.252   5.294
22329SOL    HW268429   7.273   7.166   5.385
22330SOL     OW68430   6.722   6.802   4.828
22330SOL    HW168431   6.665   6.833   4.899
22330SOL    HW268432   6.678   6.831   4.748
22331SOL     OW68433   7.221   6.711   4.814
22331SOL    HW168434   7.206   6.760   4.895
22331SOL    HW268435   7.135   6.710   4.770
22332SOL     OW68436   6.507   5.671   5.114
22332SOL    HW168437   6.531   5.659   5.022
22332SOL    HW268438   6.582   5.714   5.153
22333SOL     OW68439   6.568   6.704   5.439
22333SOL    HW168440   6.477   6.717   5.465
22333SOL    HW268441   6.568   6.622   5.389
22334SOL     OW68442   6.303   6.656   4.090
22334SOL    HW168443   6.278   6.635   4.181
22334SOL    HW268444   6.384   6.607   4.076
22335SOL     OW68445   6.014   6.407   4.971
22335SOL    HW168446   6.076   6.417   5.043
22335SOL    HW268447   5.979   6.318   4.980
22336SOL     OW68448   6.850   5.964   5.004
22336SOL    HW168449   6.880   6.038   5.056
22336SOL    HW268450   6.759   5.984   4.984
22337SOL     OW68451   5.667   7.159   5.089
22337SOL    HW168452   5.626   7.215   5.024
22337SOL    HW268453   5.757   7.148   5.060
22338SOL     OW68454   5.936   6.704   4.205
22338SOL    HW168455   5.923   6.775   4.142
22338SOL    HW268456   5.924   6.624   4.153
22339SOL     OW68457   6.144   6.111   4.575
22339SOL    HW168458   6.159   6.174   4.505
22339SOL    HW268459   6.205   6.138   4.644
22340SOL     OW68460   6.829   6.940   4.118
22340SOL    HW168461   6.887   7.011   4.147
22340SOL    HW268462   6.742   6.966   4.150
22341SOL     OW68463   6.879   7.047   4.870
22341SOL    HW168464   6.931   7.053   4.950
22341SOL    HW268465   6.821   6.972   4.884
22342SOL     OW68466   7.172   6.207   4.219
22342SOL    HW168467   7.101   6.270   4.219
22342SOL    HW268468   7.222   6.227   4.140
22343SOL     OW68469   5.934   7.121   5.026
22343SOL    HW168470   5.920   7.072   4.946
22343SOL    HW268471   6.029   7.128   5.034
22344SOL     OW68472   5.996   6.341   5.333
22344SOL    HW168473   6.065   6.375   5.276
22344SOL    HW268474   6.015   6.248   5.341
22345SOL     OW68475   7.201   6.367   5.412
22345SOL    HW168476   7.112   6.403   5.410
22345SOL    HW268477   7.246   6.409   5.339
22346SOL     OW68478   6.671   5.742   5.511
22346SOL    HW168479   6.577   5.760   5.509
22346SOL    HW268480   6.680   5.655   5.472
22347SOL     OW68481   6.069   5.600   5.487
22347SOL    HW168482   6.022   5.554   5.418
22347SOL    HW268483   6.021   5.682   5.498
22348SOL     OW68484   6.176   6.455   4.754
22348SOL    HW168485   6.191   6.549   4.755
22348SOL    HW268486   6.117   6.439   4.828
22349SOL     OW68487   6.922   6.442   4.751
22349SOL    HW168488   6.832   6.415   4.735
22349SOL    HW268489   6.974   6.362   4.736
22350SOL     OW68490   6.786   6.115   3.987
22350SOL    HW168491   6.797   6.033   4.035
22350SOL    HW268492   6.735   6.170   4.046
22351SOL     OW68493   5.888   5.789   4.972
22351SOL    HW168494   5.835   5.811   5.049
22351SOL    HW268495   5.877   5.694   4.962
22352SOL     OW68496   5.666   6.895   4.991
22352SOL    HW168497   5.680   6.830   5.059
22352SOL    HW268498   5.635   6.973   5.037
22353SOL     OW68499   6.309   6.213   4.771
22353SOL    HW168500   6.386   6.205   4.714
22353SOL    HW268501   6.277   6.301   4.757
22354SOL     OW68502   7.324   6.555   5.573
22354SOL    HW168503   7.284   6.479   5.530
22354SOL    HW268504   7.269   6.571   5.650
22355SOL     OW68505   5.904   5.656   4.344
22355SOL    HW168506   5.870   5.742   4.367
22355SOL    HW268507   5.907   5.609   4.428
22356SOL     OW68508   7.206   5.958   4.088
22356SOL    HW168509   7.239   5.885   4.140
22356SOL    HW268510   7.188   6.027   4.153
22357SOL     OW68511   6.628   6.341   4.703
22357SOL    HW168512   6.609   6.358   4.796
22357SOL    HW268513   6.599   6.251   4.689
22358SOL     OW68514   6.568   7.155   5.447
22358SOL    HW168515   6.553   7.195   5.362
22358SOL    HW268516   6.607   7.070   5.427
22359SOL     OW68517   7.432   7.087   5.321
22359SOL    HW168518   7.458   7.107   5.231
22359SOL    HW268519   7.512   7.101   5.373
22360SOL     OW68520   5.936   6.502   5.545
22360SOL    HW168521   6.021   6.525   5.582
22360SOL    HW268522   5.955   6.442   5.474
22361SOL     OW68523   7.095   5.876   3.850
22361SOL    HW168524   7.042   5.800   3.876
22361SOL    HW268525   7.141   5.901   3.930
22362SOL     OW68526   6.875   6.414   3.762
22362SOL    HW168527   6.915   6.327   3.764
22362SOL    HW268528   6.904   6.452   3.678
22363SOL     OW68529   6.667   6.935   4.565
22363SOL    HW168530   6.714   6.871   4.511
22363SOL    HW268531   6.714   7.017   4.552
22364SOL     OW68532   5.892   6.393   4.672
22364SOL    HW168533   5.988   6.402   4.667
22364SOL    HW268534   5.879   6.304   4.706
22365SOL     OW68535   5.931   6.120   4.740
22365SOL    HW168536   5.883   6.038   4.729
22365SOL    HW268537   6.002   6.114   4.676
22366SOL     OW68538   6.713   6.008   5.350
22366SOL    HW168539   6.653   5.996   5.424
22366SOL    HW268540   6.797   6.029   5.390
22367SOL     OW68541   6.748   5.779   5.192
22367SOL    HW168542   6.727   5.840   5.263
22367SOL    HW268543   6.790   5.834   5.126
22368SOL     OW68544   5.605   6.898   3.908
22368SOL    HW168545   5.516   6.916   3.879
22368SOL    HW268546   5.600   6.811   3.949
22369SOL     OW68547   5.676   7.364   4.665
22369SOL    HW168548   5.643   7.286   4.620
22369SOL    HW268549   5.764   7.376   4.631
22370SOL     OW68550   6.076   7.163   4.623
22370SOL    HW168551   6.145   7.224   4.647
22370SOL    HW268552   6.120   7.098   4.568
22371SOL     OW68553   6.550   6.373   4.960
22371SOL    HW168554   6.607   6.344   5.030
22371SOL    HW268555   6.467   6.327   4.975
22372SOL     OW68556   5.623   6.159   4.836
22372SOL    HW168557   5.663   6.086   4.788
22372SOL    HW268558   5.649   6.145   4.927
22373SOL     OW68559   5.786   6.102   5.457
22373SOL    HW168560   5.795   6.035   5.389
22373SOL    HW268561   5.746   6.177   5.412
22374SOL     OW68562   6.969   6.516   5.385
22374SOL    HW168563   6.988   6.610   5.382
22374SOL    HW268564   6.964   6.489   5.294
22375SOL     OW68565   6.404   6.166   4.076
22375SOL    HW168566   6.409   6.086   4.025
22375SOL    HW268567   6.322   6.208   4.049
22376SOL     OW68568   7.223   6.193   4.907
22376SOL    HW168569   7.211   6.128   4.976
22376SOL    HW268570   7.310   6.175   4.872
22377SOL     OW68571   5.840   7.130   5.466
22377SOL    HW168572   5.813   7.169   5.549
22377SOL    HW268573   5.851   7.037   5.485
22378SOL     OW68574   6.308   6.031   4.977
22378SOL    HW168575   6.248   5.958   4.962
22378SOL    HW268576   6.293   6.091   4.904
22379SOL     OW68577   6.507   7.263   5.197
22379SOL    HW168578   6.481   7.220   5.115
22379SOL    HW268579   6.497   7.356   5.179
22380SOL     OW68580   6.042   6.079   3.906
22380SOL    HW168581   6.100   6.152   3.929
22380SOL    HW268582   5.956   6.120   3.896
22381SOL     OW68583   5.729   6.725   5.202
22381SOL    HW168584   5.729   6.679   5.286
22381SOL    HW268585   5.744   6.656   5.137
22382SOL     OW68586   6.920   6.640   4.932
22382SOL    HW168587   6.926   6.568   4.870
22382SOL    HW268588   6.849   6.695   4.898
22383SOL     OW68589   6.895   6.439   4.034
22383SOL    HW168590   6.824   6.389   4.075
22383SOL    HW268591   6.879   6.432   3.940
22384SOL     OW68592   7.350   7.316   4.865
22384SOL    HW168593   7.418   7.342   4.804
22384SOL    HW268594   7.336   7.223   4.848
22385SOL     OW68595   6.825   7.316   4.823
22385SOL    HW168596   6.910   7.343   4.787
22385SOL    HW268597   6.836   7.224   4.846
22386SOL     OW68598   5.677   6.867   4.723
22386SOL    HW168599   5.665   6.872   4.817
22386SOL    HW268600   5.610   6.805   4.693
22387SOL     OW68601   6.271   7.260   5.469
22387SOL    HW168602   6.213   7.334   5.451
22387SOL    HW268603   6.344   7.272   5.409
22388SOL     OW68604   7.300   5.738   4.221
22388SOL    HW168605   7.376   5.725   4.163
22388SOL    HW268606   7.290   5.654   4.265
22389SOL     OW68607   6.980   7.155   4.219
22389SOL    HW168608   7.036   7.190   4.150
22389SOL    HW268609   6.927   7.231   4.247
22390SOL     OW68610   5.672   7.395   5.538
22390SOL    HW168611   5.660   7.319   5.595
22390SOL    HW268612   5.733   7.451   5.586
22391SOL     OW68613   6.831   6.552   4.393
22391SOL    HW168614   6.898   6.489   4.418
22391SOL    HW268615   6.878   6.617   4.341
22392SOL     OW68616   6.386   6.865   5.137
22392SOL    HW168617   6.357   6.908   5.218
22392SOL    HW268618   6.310   6.870   5.079
22393SOL     OW68619   6.249   7.215   3.882
22393SOL    HW168620   6.264   7.229   3.788
22393SOL    HW268621   6.195   7.136   3.886
22394SOL     OW68622   7.205   7.316   5.113
22394SOL    HW168623   7.254   7.321   5.031
22394SOL    HW268624   7.190   7.408   5.137
22395SOL     OW68625   7.425   5.754   4.682
22395SOL    HW168626   7.464   5.668   4.667
22395SOL    HW268627   7.339   5.750   4.641
22396SOL     OW68628   5.838   5.907   4.438
22396SOL    HW168629   5.750   5.935   4.411
22396SOL    HW268630   5.832   5.900   4.534
22397SOL     OW68631   6.791   7.181   3.758
22397SOL    HW168632   6.782   7.089   3.785
22397SOL    HW268633   6.724   7.193   3.691
22398SOL     OW68634   6.407   6.589   5.107
22398SOL    HW168635   6.457   6.570   5.028
22398SOL    HW268636   6.409   6.685   5.114
22399SOL     OW68637   6.545   6.528   4.069
22399SOL    HW168638   6.582   6.558   3.986
22399SOL    HW268639   6.560   6.433   4.068
22400SOL     OW68640   7.064   7.235   3.778
22400SOL    HW168641   6.973   7.211   3.762
22400SOL    HW268642   7.105   7.236   3.691
22401SOL     OW68643   5.944   6.901   5.222
22401SOL    HW168644   5.935   6.966   5.152
22401SOL    HW268645   5.875   6.837   5.204
22402SOL     OW68646   7.209   6.884   5.026
22402SOL    HW168647   7.251   6.860   5.109
22402SOL    HW268648   7.141   6.947   5.051
22403SOL     OW68649   6.610   5.831   4.681
22403SOL    HW168650   6.604   5.784   4.598
22403SOL    HW268651   6.602   5.763   4.748
22404SOL     OW68652   6.190   7.074   4.206
22404SOL    HW168653   6.243   7.028   4.141
22404SOL    HW268654   6.103   7.081   4.166
22405SOL     OW68655   7.311   5.980   5.101
22405SOL    HW168656   7.387   6.040   5.100
22405SOL    HW268657   7.337   5.908   5.044
22406SOL     OW68658   5.860   6.927   4.028
22406SOL    HW168659   5.772   6.919   3.992
22406SOL    HW268660   5.848   6.969   4.113
22407SOL     OW68661   5.705   6.637   5.466
22407SOL    HW168662   5.624   6.605   5.506
22407SOL    HW268663   5.773   6.579   5.500
22408SOL     OW68664   6.263   5.776   5.218
22408SOL    HW168665   6.347   5.751   5.181
22408SOL    HW268666   6.283   5.802   5.308
22409SOL     OW68667   5.673   5.910   3.757
22409SOL    HW168668   5.582   5.889   3.735
22409SOL    HW268669   5.693   5.988   3.705
22410SOL     OW68670   7.012   6.453   5.124
22410SOL    HW168671   6.962   6.510   5.066
22410SOL    HW268672   7.098   6.446   5.083
22411SOL     OW68673   5.652   5.732   4.028
22411SOL    HW168674   5.637   5.816   3.984
22411SOL    HW268675   5.735   5.701   3.992
22412SOL     OW68676   6.763   6.917   3.843
22412SOL    HW168677   6.673   6.883   3.840
22412SOL    HW268678   6.786   6.916   3.936
22413SOL     OW68679   6.201   6.419   5.165
22413SOL    HW168680   6.264   6.490   5.151
22413SOL    HW268681   6.256   6.340   5.172
22414SOL     OW68682   7.074   7.371   4.711
22414SOL    HW168683   7.090   7.438   4.645
22414SOL    HW268684   7.159   7.356   4.752
22415SOL     OW68685   6.299   6.161   5.432
22415SOL    HW168686   6.352   6.209   5.495
22415SOL    HW268687   6.314   6.069   5.453
22416SOL     OW68688   7.056   6.782   5.354
22416SOL    HW168689   7.042   6.794   5.448
22416SOL    HW268690   7.149   6.801   5.340
22417SOL     OW68691   5.962   7.317   5.295
22417SOL    HW168692   5.904   7.312   5.219
22417SOL    HW268693   5.934   7.244   5.351
22418SOL     OW68694   7.251   6.459   4.978
22418SOL    HW168695   7.246   6.368   4.950
22418SOL    HW268696   7.232   6.509   4.900
22419SOL     OW68697   6.811   5.907   4.179
22419SOL    HW168698   6.867   5.831   4.170
22419SOL    HW268699   6.845   5.953   4.256
22420SOL     OW68700   6.185   6.322   4.391
22420SOL    HW168701   6.208   6.413   4.372
22420SOL    HW268702   6.113   6.302   4.332
22421SOL     OW68703   7.331   5.952   5.374
22421SOL    HW168704   7.314   5.969   5.281
22421SOL    HW268705   7.261   5.893   5.401
22422SOL     OW68706   7.340   6.522   5.229
22422SOL    HW168707   7.309   6.612   5.241
22422SOL    HW268708   7.316   6.500   5.139
22423SOL     OW68709   6.453   6.954   3.773
22423SOL    HW168710   6.410   6.982   3.853
22423SOL    HW268711   6.466   7.035   3.723
22424SOL     OW68712   6.248   7.374   4.657
22424SOL    HW168713   6.232   7.467   4.639
22424SOL    HW268714   6.343   7.364   4.652
22425SOL     OW68715   6.494   6.552   4.570
22425SOL    HW168716   6.533   6.483   4.624
22425SOL    HW268717   6.447   6.607   4.632
22426SOL     OW68718   6.663   6.587   3.824
22426SOL    HW168719   6.633   6.626   3.742
22426SOL    HW268720   6.732   6.526   3.797
22427SOL     OW68721   7.422   7.136   4.573
22427SOL    HW168722   7.352   7.132   4.508
22427SOL    HW268723   7.386   7.096   4.652
22428SOL     OW68724   5.799   6.873   5.565
22428SOL    HW168725   5.766   6.793   5.524
22428SOL    HW268726   5.741   6.887   5.641
22429SOL     OW68727   5.680   6.821   4.396
22429SOL    HW168728   5.650   6.771   4.472
22429SOL    HW268729   5.732   6.759   4.346
22430SOL     OW68730   6.268   7.000   5.346
22430SOL    HW168731   6.194   6.952   5.384
22430SOL    HW268732   6.271   7.082   5.394
22431SOL     OW68733   7.392   5.772   4.954
22431SOL    HW168734   7.392   5.678   4.972
22431SOL    HW268735   7.407   5.779   4.859
22432SOL     OW68736   6.024   6.017   4.256
22432SOL    HW168737   6.045   5.945   4.196
22432SOL    HW268738   5.966   5.977   4.321
22433SOL     OW68739   7.293   7.046   4.803
22433SOL    HW168740   7.210   7.033   4.758
22433SOL    HW268741   7.284   6.998   4.885
22434SOL     OW68742   5.937   6.152   5.018
22434SOL    HW168743   5.981   6.086   5.072
22434SOL    HW268744   5.944   6.118   4.929
22435SOL     OW68745   6.420   7.168   4.395
22435SOL    HW168746   6.397   7.241   4.337
22435SOL    HW268747   6.343   7.111   4.394
22436SOL     OW68748   7.015   5.822   4.838
22436SOL    HW168749   7.034   5.737   4.877
22436SOL    HW268750   6.964   5.868   4.905
22437SOL     OW68751   6.595   5.612   4.852
22437SOL    HW168752   6.536   5.543   4.822
22437SOL    HW268753   6.682   5.572   4.850
22438SOL     OW68754   6.358   6.927   4.045
22438SOL    HW168755   6.328   6.836   4.046
22438SOL    HW268756   6.441   6.926   4.091
22439SOL     OW68757   6.206   7.145   5.007
22439SOL    HW168758   6.208   7.227   5.056
22439SOL    HW268759   6.296   7.136   4.973
22440SOL     OW68760   6.951   5.637   3.900
22440SOL    HW168761   6.990   5.565   3.850
22440SOL    HW268762   6.861   5.609   3.917
22441SOL     OW68763   6.878   6.054   4.405
22441SOL    HW168764   6.790   6.092   4.407
22441SOL    HW268765   6.887   6.010   4.490
22442SOL     OW68766   7.162   5.772   4.603
22442SOL    HW168767   7.111   5.801   4.679
22442SOL    HW268768   7.166   5.850   4.547
22443SOL     OW68769   5.633   6.647   4.033
22443SOL    HW168770   5.724   6.632   4.008
22443SOL    HW268771   5.600   6.560   4.057
22444SOL     OW68772   6.479   7.245   4.053
22444SOL    HW168773   6.402   7.226   3.999
22444SOL    HW268774   6.449   7.309   4.117
22445SOL     OW68775   5.776   6.204   5.735
22445SOL    HW168776   5.682   6.203   5.750
22445SOL    HW268777   5.785   6.187   5.641
22446SOL     OW68778   5.816   5.868   6.577
22446SOL    HW168779   5.872   5.791   6.581
22446SOL    HW268780   5.727   5.833   6.574
22447SOL     OW68781   5.577   5.975   6.218
22447SOL    HW168782   5.495   6.000   6.261
22447SOL    HW268783   5.555   5.894   6.172
22448SOL     OW68784   6.155   6.885   6.777
22448SOL    HW168785   6.071   6.887   6.730
22448SOL    HW268786   6.172   6.977   6.798
22449SOL     OW68787   7.151   7.111   6.284
22449SOL    HW168788   7.103   7.086   6.362
22449SOL    HW268789   7.087   7.108   6.213
22450SOL     OW68790   6.721   6.289   6.279
22450SOL    HW168791   6.769   6.371   6.270
22450SOL    HW268792   6.673   6.298   6.361
22451SOL     OW68793   7.368   6.188   5.814
22451SOL    HW168794   7.343   6.181   5.722
22451SOL    HW268795   7.326   6.113   5.856
22452SOL     OW68796   6.324   6.719   6.634
22452SOL    HW168797   6.262   6.759   6.695
22452SOL    HW268798   6.366   6.793   6.591
22453SOL     OW68799   6.467   6.343   7.411
22453SOL    HW168800   6.444   6.415   7.469
22453SOL    HW268801   6.486   6.384   7.327
22454SOL     OW68802   6.275   6.587   6.227
22454SOL    HW168803   6.341   6.578   6.296
22454SOL    HW268804   6.207   6.642   6.267
22455SOL     OW68805   6.297   6.731   7.410
22455SOL    HW168806   6.345   6.809   7.441
22455SOL    HW268807   6.220   6.766   7.367
22456SOL     OW68808   5.912   7.007   6.651
22456SOL    HW168809   5.840   6.962   6.606
22456SOL    HW268810   5.958   7.053   6.581
22457SOL     OW68811   7.041   7.079   6.954
22457SOL    HW168812   7.102   7.153   6.961
22457SOL    HW268813   6.972   7.098   7.017
22458SOL     OW68814   6.034   5.958   7.043
22458SOL    HW168815   6.115   5.911   7.061
22458SOL    HW268816   5.965   5.905   7.083
22459SOL     OW68817   7.195   6.027   6.332
22459SOL    HW168818   7.122   6.043   6.273
22459SOL    HW268819   7.191   6.099   6.395
22460SOL     OW68820   5.804   7.306   6.054
22460SOL    HW168821   5.828   7.380   6.110
22460SOL    HW268822   5.878   7.295   5.995
22461SOL     OW68823   6.720   6.928   7.291
22461SOL    HW168824   6.767   6.912   7.373
22461SOL    HW268825   6.670   6.848   7.276
22462SOL     OW68826   5.823   7.032   6.123
22462SOL    HW168827   5.796   7.124   6.127
22462SOL    HW268828   5.767   6.988   6.187
22463SOL     OW68829   5.863   6.677   6.485
22463SOL    HW168830   5.859   6.586   6.514
22463SOL    HW268831   5.796   6.722   6.537
22464SOL     OW68832   6.161   7.396   6.981
22464SOL    HW168833   6.097   7.369   7.046
22464SOL    HW268834   6.206   7.471   7.021
22465SOL     OW68835   6.163   6.590   5.721
22465SOL    HW168836   6.217   6.628   5.652
22465SOL    HW268837   6.206   6.617   5.802
22466SOL     OW68838   7.183   5.710   7.057
22466SOL    HW168839   7.208   5.786   7.004
22466SOL    HW268840   7.151   5.747   7.139
22467SOL     OW68841   5.711   6.210   6.133
22467SOL    HW168842   5.661   6.134   6.164
22467SOL    HW268843   5.713   6.270   6.208
22468SOL     OW68844   7.425   7.340   5.911
22468SOL    HW168845   7.492   7.316   5.974
22468SOL    HW268846   7.445   7.431   5.888
22469SOL     OW68847   5.641   7.179   5.693
22469SOL    HW168848   5.615   7.088   5.709
22469SOL    HW268849   5.614   7.226   5.772
22470SOL     OW68850   7.272   6.500   6.231
22470SOL    HW168851   7.356   6.460   6.211
22470SOL    HW268852   7.259   6.564   6.160
22471SOL     OW68853   5.708   6.330   7.158
22471SOL    HW168854   5.796   6.365   7.164
22471SOL    HW268855   5.652   6.407   7.154
22472SOL     OW68856   6.198   6.980   6.320
22472SOL    HW168857   6.156   6.895   6.327
22472SOL    HW268858   6.185   7.006   6.229
22473SOL     OW68859   6.858   6.805   7.013
22473SOL    HW168860   6.889   6.741   6.949
22473SOL    HW268861   6.927   6.807   7.079
22474SOL     OW68862   6.421   5.608   6.107
22474SOL    HW168863   6.450   5.692   6.071
22474SOL    HW268864   6.325   5.615   6.108
22475SOL     OW68865   5.772   6.546   6.863
22475SOL    HW168866   5.859   6.508   6.851
22475SOL    HW268867   5.714   6.491   6.811
22476SOL     OW68868   7.121   6.585   5.777
22476SOL    HW168869   7.053   6.531   5.816
22476SOL    HW268870   7.166   6.626   5.851
22477SOL     OW68871   5.918   5.852   7.375
22477SOL    HW168872   5.969   5.916   7.425
22477SOL    HW268873   5.834   5.848   7.421
22478SOL     OW68874   6.998   7.021   6.490
22478SOL    HW168875   6.979   7.038   6.582
22478SOL    HW268876   7.011   6.927   6.485
22479SOL     OW68877   7.230   7.350   6.158
22479SOL    HW168878   7.213   7.311   6.072
22479SOL    HW268879   7.218   7.279   6.220
22480SOL     OW68880   6.193   6.312   5.838
22480SOL    HW168881   6.244   6.357   5.771
22480SOL    HW268882   6.147   6.382   5.885
22481SOL     OW68883   6.862   5.957   6.522
22481SOL    HW168884   6.774   5.918   6.525
22481SOL    HW268885   6.915   5.901   6.578
22482SOL     OW68886   7.158   7.271   5.895
22482SOL    HW168887   7.252   7.287   5.888
22482SOL    HW268888   7.130   7.249   5.806
22483SOL     OW68889   6.372   6.202   7.031
22483SOL    HW168890   6.350   6.171   7.119
22483SOL    HW268891   6.344   6.132   6.973
22484SOL     OW68892   6.981   6.070   7.260
22484SOL    HW168893   6.987   6.111   7.347
22484SOL    HW268894   7.032   5.989   7.268
22485SOL     OW68895   6.536   6.468   7.174
22485SOL    HW168896   6.589   6.399   7.134
22485SOL    HW268897   6.485   6.504   7.101
22486SOL     OW68898   6.583   5.994   6.811
22486SOL    HW168899   6.492   6.005   6.838
22486SOL    HW268900   6.579   5.942   6.732
22487SOL     OW68901   6.638   6.289   6.011
22487SOL    HW168902   6.659   6.281   6.104
22487SOL    HW268903   6.557   6.240   6.001
22488SOL     OW68904   5.696   6.395   6.340
22488SOL    HW168905   5.767   6.392   6.405
22488SOL    HW268906   5.638   6.463   6.373
22489SOL     OW68907   5.697   7.426   7.153
22489SOL    HW168908   5.705   7.423   7.248
22489SOL    HW268909   5.619   7.376   7.134
22490SOL     OW68910   6.478   5.957   5.779
22490SOL    HW168911   6.544   6.001   5.725
22490SOL    HW268912   6.427   5.905   5.716
22491SOL     OW68913   7.303   6.166   7.420
22491SOL    HW168914   7.265   6.238   7.369
22491SOL    HW268915   7.318   6.097   7.355
22492SOL     OW68916   6.963   6.733   6.124
22492SOL    HW168917   7.051   6.730   6.088
22492SOL    HW268918   6.915   6.791   6.064
22493SOL     OW68919   6.095   5.773   6.481
22493SOL    HW168920   6.127   5.797   6.569
22493SOL    HW268921   6.122   5.847   6.426
22494SOL     OW68922   6.583   7.030   6.055
22494SOL    HW168923   6.555   7.107   6.005
22494SOL    HW268924   6.564   7.052   6.146
22495SOL     OW68925   5.945   7.408   6.464
22495SOL    HW168926   5.987   7.322   6.467
22495SOL    HW268927   6.018   7.470   6.474
22496SOL     OW68928   7.397   6.629   6.454
22496SOL    HW168929   7.332   6.625   6.384
22496SOL    HW268930   7.345   6.641   6.534
22497SOL     OW68931   6.806   7.103   7.093
22497SOL    HW168932   6.793   7.036   7.160
22497SOL    HW268933   6.752   7.074   7.020
22498SOL     OW68934   5.924   6.521   5.849
22498SOL    HW168935   5.999   6.551   5.798
22498SOL    HW268936   5.875   6.465   5.789
22499SOL     OW68937   7.063   6.341   6.307
22499SOL    HW168938   7.069   6.297   6.392
22499SOL    HW268939   7.143   6.393   6.301
22500SOL     OW68940   6.057   6.862   7.331
22500SOL    HW168941   6.030   6.868   7.239
22500SOL    HW268942   5.975   6.845   7.378
22501SOL     OW68943   6.712   7.368   5.806
22501SOL    HW168944   6.638   7.331   5.853
22501SOL    HW268945   6.737   7.301   5.743
22502SOL     OW68946   5.768   5.840   7.101
22502SOL    HW168947   5.697   5.905   7.105
22502SOL    HW268948   5.777   5.810   7.192
22503SOL     OW68949   7.223   6.973   5.662
22503SOL    HW168950   7.173   7.055   5.658
22503SOL    HW268951   7.157   6.904   5.654
22504SOL     OW68952   6.042   7.328   5.898
22504SOL    HW168953   6.090   7.376   5.965
22504SOL    HW268954   6.109   7.285   5.846
22505SOL     OW68955   6.984   5.694   6.025
22505SOL    HW168956   6.971   5.667   5.934
22505SOL    HW268957   7.078   5.686   6.039
22506SOL     OW68958   5.848   7.376   6.809
22506SOL    HW168959   5.900   7.301   6.838
22506SOL    HW268960   5.835   7.362   6.715
22507SOL     OW68961   6.530   7.284   6.482
22507SOL    HW168962   6.616   7.243   6.491
22507SOL    HW268963   6.487   7.233   6.413
22508SOL     OW68964   7.099   5.814   7.308
22508SOL    HW168965   7.107   5.830   7.402
22508SOL    HW268966   7.028   5.751   7.301
22509SOL     OW68967   6.206   5.698   5.705
22509SOL    HW168968   6.273   5.744   5.655
22509SOL    HW268969   6.158   5.646   5.639
22510SOL     OW68970   6.350   5.858   7.354
22510SOL    HW168971   6.432   5.810   7.345
22510SOL    HW268972   6.300   5.808   7.419
22511SOL     OW68973   6.460   7.108   6.786
22511SOL    HW168974   6.445   7.072   6.698
22511SOL    HW268975   6.531   7.054   6.822
22512SOL     OW68976   6.922   6.178   7.015
22512SOL    HW168977   6.955   6.148   7.100
22512SOL    HW268978   6.961   6.264   7.003
22513SOL     OW68979   6.398   6.976   6.537
22513SOL    HW168980   6.484   6.961   6.498
22513SOL    HW268981   6.339   6.981   6.462
22514SOL     OW68982   6.512   6.093   6.482
22514SOL    HW168983   6.489   6.084   6.389
22514SOL    HW268984   6.542   6.007   6.508
22515SOL     OW68985   6.148   5.650   6.092
22515SOL    HW168986   6.064   5.644   6.136
22515SOL    HW268987   6.138   5.722   6.030
22516SOL     OW68988   7.018   6.788   5.625
22516SOL    HW168989   7.051   6.713   5.673
22516SOL    HW268990   6.934   6.809   5.666
22517SOL     OW68991   5.881   5.636   5.775
22517SOL    HW168992   5.937   5.686   5.715
22517SOL    HW268993   5.939   5.572   5.816
22518SOL     OW68994   6.533   5.852   6.033
22518SOL    HW168995   6.510   5.876   5.943
22518SOL    HW268996   6.628   5.861   6.036
22519SOL     OW68997   6.665   6.269   7.042
22519SOL    HW168998   6.603   6.196   7.042
22519SOL    HW268999   6.750   6.227   7.032
22520SOL     OW69000   6.782   7.163   6.388
22520SOL    HW169001   6.817   7.225   6.324
22520SOL    HW269002   6.860   7.123   6.427
22521SOL     OW69003   6.058   6.742   6.307
22521SOL    HW169004   5.995   6.720   6.375
22521SOL    HW269005   6.012   6.727   6.225
22522SOL     OW69006   6.848   7.379   6.197
22522SOL    HW169007   6.893   7.444   6.142
22522SOL    HW269008   6.778   7.428   6.241
22523SOL     OW69009   6.629   6.133   5.617
22523SOL    HW169010   6.579   6.213   5.606
22523SOL    HW269011   6.686   6.150   5.691
22524SOL     OW69012   5.681   6.132   6.972
22524SOL    HW169013   5.773   6.134   6.947
22524SOL    HW269014   5.672   6.200   7.039
22525SOL     OW69015   6.176   5.792   6.750
22525SOL    HW169016   6.224   5.715   6.719
22525SOL    HW269017   6.139   5.766   6.833
22526SOL     OW69018   6.450   6.047   6.220
22526SOL    HW169019   6.413   6.100   6.149
22526SOL    HW269020   6.478   5.966   6.176
22527SOL     OW69021   6.603   5.644   6.323
22527SOL    HW169022   6.544   5.635   6.248
22527SOL    HW269023   6.581   5.570   6.379
22528SOL     OW69024   7.037   6.748   6.455
22528SOL    HW169025   6.975   6.686   6.416
22528SOL    HW269026   7.100   6.765   6.386
22529SOL     OW69027   7.055   6.194   6.547
22529SOL    HW169028   6.995   6.119   6.551
22529SOL    HW269029   7.108   6.186   6.626
22530SOL     OW69030   7.504   6.390   5.939
22530SOL    HW169031   7.530   6.337   6.015
22530SOL    HW269032   7.445   6.333   5.890
22531SOL     OW69033   6.073   7.010   5.738
22531SOL    HW169034   5.998   6.976   5.786
22531SOL    HW269035   6.079   6.953   5.661
22532SOL     OW69036   7.246   6.849   6.296
22532SOL    HW169037   7.255   6.813   6.208
22532SOL    HW269038   7.225   6.941   6.283
22533SOL     OW69039   6.983   6.156   5.663
22533SOL    HW169040   6.914   6.138   5.727
22533SOL    HW269041   7.058   6.105   5.693
22534SOL     OW69042   6.117   5.850   5.910
22534SOL    HW169043   6.152   5.792   5.843
22534SOL    HW269044   6.092   5.930   5.863
22535SOL     OW69045   7.342   6.822   7.181
22535SOL    HW169046   7.427   6.789   7.152
22535SOL    HW269047   7.355   6.916   7.192
22536SOL     OW69048   6.636   6.937   6.923
22536SOL    HW169049   6.559   6.902   6.968
22536SOL    HW269050   6.709   6.887   6.960
22537SOL     OW69051   7.212   7.214   7.259
22537SOL    HW169052   7.188   7.247   7.173
22537SOL    HW269053   7.291   7.161   7.245
22538SOL     OW69054   6.730   6.809   6.691
22538SOL    HW169055   6.668   6.846   6.753
22538SOL    HW269056   6.698   6.837   6.605
22539SOL     OW69057   7.214   6.673   6.664
22539SOL    HW169058   7.202   6.733   6.738
22539SOL    HW269059   7.143   6.696   6.603
22540SOL     OW69060   6.497   5.692   6.974
22540SOL    HW169061   6.517   5.666   6.884
22540SOL    HW269062   6.580   5.724   7.008
22541SOL     OW69063   6.568   6.697   7.314
22541SOL    HW169064   6.476   6.711   7.335
22541SOL    HW269065   6.568   6.620   7.257
22542SOL     OW69066   6.299   6.652   5.956
22542SOL    HW169067   6.286   6.632   6.049
22542SOL    HW269068   6.373   6.597   5.930
22543SOL     OW69069   6.010   6.410   6.840
22543SOL    HW169070   6.078   6.419   6.907
22543SOL    HW269071   5.979   6.320   6.849
22544SOL     OW69072   6.849   5.957   6.870
22544SOL    HW169073   6.881   6.037   6.911
22544SOL    HW269074   6.759   5.977   6.844
22545SOL     OW69075   5.665   7.164   6.950
22545SOL    HW169076   5.629   7.213   6.876
22545SOL    HW269077   5.758   7.156   6.930
22546SOL     OW69078   5.924   6.701   6.067
22546SOL    HW169079   5.923   6.775   6.007
22546SOL    HW269080   5.927   6.624   6.011
22547SOL     OW69081   6.131   6.116   6.441
22547SOL    HW169082   6.149   6.171   6.365
22547SOL    HW269083   6.200   6.138   6.503
22548SOL     OW69084   6.829   6.940   5.968
22548SOL    HW169085   6.887   7.007   6.005
22548SOL    HW269086   6.744   6.958   6.007
22549SOL     OW69087   6.877   7.056   6.738
22549SOL    HW169088   6.937   7.057   6.812
22549SOL    HW269089   6.837   6.969   6.741
22550SOL     OW69090   7.160   6.208   6.072
22550SOL    HW169091   7.110   6.251   6.141
22550SOL    HW269092   7.181   6.278   6.010
22551SOL     OW69093   5.932   7.119   6.891
22551SOL    HW169094   5.919   7.073   6.808
22551SOL    HW269095   6.027   7.127   6.899
22552SOL     OW69096   6.000   6.340   7.191
22552SOL    HW169097   6.068   6.375   7.133
22552SOL    HW269098   6.030   6.251   7.212
22553SOL     OW69099   7.202   6.376   7.277
22553SOL    HW169100   7.115   6.413   7.267
22553SOL    HW269101   7.252   6.413   7.204
22554SOL     OW69102   6.586   5.724   7.334
22554SOL    HW169103   6.647   5.793   7.309
22554SOL    HW269104   6.632   5.643   7.315
22555SOL     OW69105   6.085   5.632   7.328
22555SOL    HW169106   6.033   5.568   7.278
22555SOL    HW269107   6.025   5.705   7.342
22556SOL     OW69108   6.165   6.465   6.614
22556SOL    HW169109   6.208   6.550   6.621
22556SOL    HW269110   6.116   6.456   6.696
22557SOL     OW69111   6.931   6.437   6.611
22557SOL    HW169112   6.853   6.427   6.556
22557SOL    HW269113   6.981   6.357   6.596
22558SOL     OW69114   6.787   6.121   5.851
22558SOL    HW169115   6.795   6.039   5.900
22558SOL    HW269116   6.741   6.180   5.911
22559SOL     OW69117   5.633   6.898   6.860
22559SOL    HW169118   5.664   6.836   6.926
22559SOL    HW269119   5.638   6.983   6.903
22560SOL     OW69120   6.307   6.214   6.632
22560SOL    HW169121   6.384   6.195   6.578
22560SOL    HW269122   6.283   6.304   6.610
22561SOL     OW69123   7.332   6.539   7.461
22561SOL    HW169124   7.293   6.478   7.397
22561SOL    HW269125   7.260   6.560   7.521
22562SOL     OW69126   5.901   5.649   6.213
22562SOL    HW169127   5.871   5.736   6.237
22562SOL    HW269128   5.906   5.601   6.295
22563SOL     OW69129   7.218   5.970   5.946
22563SOL    HW169130   7.242   5.902   6.009
22563SOL    HW269131   7.189   6.043   6.000
22564SOL     OW69132   6.608   6.344   6.541
22564SOL    HW169133   6.603   6.359   6.635
22564SOL    HW269134   6.585   6.251   6.530
22565SOL     OW69135   6.544   7.138   7.305
22565SOL    HW169136   6.538   7.182   7.221
22565SOL    HW269137   6.608   7.067   7.292
22566SOL     OW69138   7.448   7.085   7.190
22566SOL    HW169139   7.459   7.120   7.102
22566SOL    HW269140   7.533   7.096   7.232
22567SOL     OW69141   5.938   6.521   7.386
22567SOL    HW169142   6.015   6.523   7.444
22567SOL    HW269143   5.959   6.453   7.322
22568SOL     OW69144   7.109   5.866   5.713
22568SOL    HW169145   7.047   5.798   5.738
22568SOL    HW269146   7.147   5.896   5.795
22569SOL     OW69147   6.866   6.405   5.615
22569SOL    HW169148   6.906   6.319   5.621
22569SOL    HW269149   6.901   6.443   5.534
22570SOL     OW69150   6.645   6.921   6.448
22570SOL    HW169151   6.653   6.848   6.385
22570SOL    HW269152   6.700   6.990   6.412
22571SOL     OW69153   5.898   6.395   6.531
22571SOL    HW169154   5.991   6.415   6.539
22571SOL    HW269155   5.890   6.304   6.561
22572SOL     OW69156   5.913   6.116   6.600
22572SOL    HW169157   5.879   6.027   6.592
22572SOL    HW269158   5.989   6.118   6.541
22573SOL     OW69159   6.725   5.961   7.266
22573SOL    HW169160   6.675   6.011   7.330
22573SOL    HW269161   6.808   6.008   7.259
22574SOL     OW69162   6.745   5.781   7.058
22574SOL    HW169163   6.734   5.847   7.126
22574SOL    HW269164   6.787   5.827   6.986
22575SOL     OW69165   5.599   6.902   5.765
22575SOL    HW169166   5.512   6.922   5.732
22575SOL    HW269167   5.590   6.817   5.808
22576SOL     OW69168   5.683   7.362   6.537
22576SOL    HW169169   5.647   7.286   6.491
22576SOL    HW269170   5.769   7.375   6.497
22577SOL     OW69171   6.077   7.165   6.489
22577SOL    HW169172   6.149   7.222   6.516
22577SOL    HW269173   6.118   7.101   6.431
22578SOL     OW69174   6.551   6.374   6.810
22578SOL    HW169175   6.614   6.356   6.880
22578SOL    HW269176   6.474   6.321   6.832
22579SOL     OW69177   5.624   6.153   6.700
22579SOL    HW169178   5.699   6.126   6.648
22579SOL    HW269179   5.652   6.141   6.791
22580SOL     OW69180   5.773   6.123   7.329
22580SOL    HW169181   5.824   6.068   7.270
22580SOL    HW269182   5.735   6.190   7.273
22581SOL     OW69183   6.968   6.519   7.243
22581SOL    HW169184   6.989   6.612   7.236
22581SOL    HW269185   6.962   6.489   7.152
22582SOL     OW69186   6.405   6.157   5.958
22582SOL    HW169187   6.421   6.083   5.900
22582SOL    HW269188   6.327   6.199   5.922
22583SOL     OW69189   7.209   6.184   6.772
22583SOL    HW169190   7.198   6.117   6.839
22583SOL    HW269191   7.302   6.180   6.749
22584SOL     OW69192   5.820   7.123   7.311
22584SOL    HW169193   5.838   7.180   7.387
22584SOL    HW269194   5.831   7.034   7.345
22585SOL     OW69195   6.305   6.029   6.833
22585SOL    HW169196   6.256   5.951   6.806
22585SOL    HW269197   6.293   6.091   6.761
22586SOL     OW69198   6.493   7.265   7.068
22586SOL    HW169199   6.485   7.222   6.983
22586SOL    HW269200   6.548   7.342   7.051
22587SOL     OW69201   6.029   6.095   5.806
22587SOL    HW169202   6.101   6.158   5.809
22587SOL    HW269203   5.985   6.112   5.722
22588SOL     OW69204   5.731   6.729   7.058
22588SOL    HW169205   5.731   6.684   7.142
22588SOL    HW269206   5.745   6.660   6.993
22589SOL     OW69207   6.898   6.623   6.805
22589SOL    HW169208   6.921   6.560   6.737
22589SOL    HW269209   6.841   6.686   6.761
22590SOL     OW69210   6.902   6.445   5.887
22590SOL    HW169211   6.834   6.405   5.940
22590SOL    HW269212   6.878   6.425   5.797
22591SOL     OW69213   7.370   7.384   6.744
22591SOL    HW169214   7.431   7.396   6.671
22591SOL    HW269215   7.347   7.292   6.741
22592SOL     OW69216   6.825   7.327   6.699
22592SOL    HW169217   6.908   7.349   6.657
22592SOL    HW269218   6.831   7.233   6.718
22593SOL     OW69219   5.665   6.867   6.589
22593SOL    HW169220   5.648   6.872   6.683
22593SOL    HW269221   5.605   6.800   6.557
22594SOL     OW69222   6.275   7.257   7.331
22594SOL    HW169223   6.235   7.339   7.301
22594SOL    HW269224   6.360   7.255   7.287
22595SOL     OW69225   7.320   5.746   6.093
22595SOL    HW169226   7.385   5.728   6.026
22595SOL    HW269227   7.298   5.660   6.130
22596SOL     OW69228   6.972   7.156   6.073
22596SOL    HW169229   7.030   7.193   6.005
22596SOL    HW269230   6.923   7.232   6.106
22597SOL     OW69231   5.716   7.384   7.427
22597SOL    HW169232   5.665   7.320   7.477
22597SOL    HW269233   5.770   7.429   7.493
22598SOL     OW69234   6.865   6.523   6.262
22598SOL    HW169235   6.937   6.461   6.271
22598SOL    HW269236   6.899   6.591   6.205
22599SOL     OW69237   6.384   6.861   7.004
22599SOL    HW169238   6.355   6.904   7.084
22599SOL    HW269239   6.312   6.873   6.942
22600SOL     OW69240   6.250   7.216   5.743
22600SOL    HW169241   6.266   7.229   5.650
22600SOL    HW269242   6.197   7.137   5.748
22601SOL     OW69243   7.206   7.304   6.993
22601SOL    HW169244   7.261   7.302   6.915
22601SOL    HW269245   7.198   7.398   7.014
22602SOL     OW69246   7.435   5.754   6.554
22602SOL    HW169247   7.459   5.665   6.528
22602SOL    HW269248   7.347   5.767   6.517
22603SOL     OW69249   5.832   5.902   6.302
22603SOL    HW169250   5.743   5.927   6.277
22603SOL    HW269251   5.831   5.900   6.397
22604SOL     OW69252   6.792   7.182   5.620
22604SOL    HW169253   6.782   7.091   5.649
22604SOL    HW269254   6.725   7.194   5.554
22605SOL     OW69255   6.410   6.589   6.964
22605SOL    HW169256   6.458   6.572   6.883
22605SOL    HW269257   6.409   6.684   6.972
22606SOL     OW69258   6.503   6.498   5.876
22606SOL    HW169259   6.565   6.531   5.811
22606SOL    HW269260   6.551   6.430   5.922
22607SOL     OW69261   7.068   7.230   5.633
22607SOL    HW169262   6.976   7.209   5.617
22607SOL    HW269263   7.108   7.230   5.545
22608SOL     OW69264   5.945   6.902   7.089
22608SOL    HW169265   5.941   6.966   7.017
22608SOL    HW269266   5.876   6.840   7.069
22609SOL     OW69267   7.193   6.858   6.868
22609SOL    HW169268   7.242   6.922   6.817
22609SOL    HW269269   7.128   6.910   6.916
22610SOL     OW69270   6.646   6.697   6.297
22610SOL    HW169271   6.576   6.642   6.333
22610SOL    HW269272   6.716   6.636   6.274
22611SOL     OW69273   6.610   5.827   6.547
22611SOL    HW169274   6.604   5.782   6.463
22611SOL    HW269275   6.603   5.758   6.612
22612SOL     OW69276   6.193   7.072   6.062
22612SOL    HW169277   6.248   7.022   6.002
22612SOL    HW269278   6.112   7.087   6.014
22613SOL     OW69279   7.317   5.961   6.972
22613SOL    HW169280   7.378   6.033   6.953
22613SOL    HW269281   7.345   5.890   6.914
22614SOL     OW69282   5.855   6.920   5.884
22614SOL    HW169283   5.766   6.919   5.849
22614SOL    HW269284   5.847   6.963   5.969
22615SOL     OW69285   5.700   6.644   7.322
22615SOL    HW169286   5.623   6.608   7.365
22615SOL    HW269287   5.773   6.590   7.354
22616SOL     OW69288   6.259   5.791   7.086
22616SOL    HW169289   6.341   5.765   7.043
22616SOL    HW269290   6.286   5.813   7.176
22617SOL     OW69291   5.663   5.913   5.627
22617SOL    HW169292   5.586   5.876   5.583
22617SOL    HW269293   5.685   5.991   5.575
22618SOL     OW69294   7.011   6.443   6.983
22618SOL    HW169295   6.959   6.501   6.928
22618SOL    HW269296   7.098   6.445   6.944
22619SOL     OW69297   5.656   5.749   5.879
22619SOL    HW169298   5.639   5.810   5.807
22619SOL    HW269299   5.740   5.708   5.857
22620SOL     OW69300   6.763   6.916   5.703
22620SOL    HW169301   6.682   6.865   5.707
22620SOL    HW269302   6.793   6.922   5.794
22621SOL     OW69303   6.207   6.417   7.025
22621SOL    HW169304   6.267   6.490   7.009
22621SOL    HW269305   6.263   6.340   7.029
22622SOL     OW69306   7.072   7.372   6.589
22622SOL    HW169307   7.109   7.408   6.508
22622SOL    HW269308   7.131   7.300   6.612
22623SOL     OW69309   6.308   6.132   7.284
22623SOL    HW169310   6.351   6.188   7.349
22623SOL    HW269311   6.320   6.043   7.317
22624SOL     OW69312   7.061   6.778   7.213
22624SOL    HW169313   7.055   6.798   7.307
22624SOL    HW269314   7.152   6.798   7.191
22625SOL     OW69315   5.957   7.326   7.157
22625SOL    HW169316   5.865   7.351   7.152
22625SOL    HW269317   5.956   7.234   7.181
22626SOL     OW69318   7.250   6.464   6.847
22626SOL    HW169319   7.252   6.379   6.803
22626SOL    HW269320   7.243   6.528   6.776
22627SOL     OW69321   6.809   5.913   6.040
22627SOL    HW169322   6.865   5.835   6.034
22627SOL    HW269323   6.840   5.958   6.118
22628SOL     OW69324   6.171   6.325   6.260
22628SOL    HW169325   6.230   6.397   6.239
22628SOL    HW269326   6.083   6.359   6.239
22629SOL     OW69327   7.335   5.949   7.251
22629SOL    HW169328   7.337   5.961   7.156
22629SOL    HW269329   7.258   5.893   7.266
22630SOL     OW69330   7.348   6.523   7.096
22630SOL    HW169331   7.324   6.615   7.109
22630SOL    HW269332   7.324   6.504   7.005
22631SOL     OW69333   6.431   6.959   5.627
22631SOL    HW169334   6.411   6.977   5.719
22631SOL    HW269335   6.462   7.043   5.593
22632SOL     OW69336   6.255   7.373   6.529
22632SOL    HW169337   6.246   7.465   6.502
22632SOL    HW269338   6.348   7.355   6.520
22633SOL     OW69339   6.454   6.555   6.438
22633SOL    HW169340   6.505   6.482   6.473
22633SOL    HW269341   6.416   6.596   6.516
22634SOL     OW69342   6.659   6.578   5.669
22634SOL    HW169343   6.643   6.625   5.587
22634SOL    HW269344   6.732   6.520   5.649
22635SOL     OW69345   7.436   7.152   6.433
22635SOL    HW169346   7.374   7.112   6.372
22635SOL    HW269347   7.408   7.119   6.519
22636SOL     OW69348   5.802   6.874   7.433
22636SOL    HW169349   5.762   6.800   7.388
22636SOL    HW269350   5.768   6.870   7.522
22637SOL     OW69351   5.680   6.825   6.256
22637SOL    HW169352   5.668   6.770   6.334
22637SOL    HW269353   5.739   6.774   6.200
22638SOL     OW69354   6.265   6.996   7.210
22638SOL    HW169355   6.192   6.952   7.254
22638SOL    HW269356   6.272   7.081   7.253
22639SOL     OW69357   7.401   5.751   6.827
22639SOL    HW169358   7.392   5.656   6.825
22639SOL    HW269359   7.417   5.776   6.735
22640SOL     OW69360   5.986   6.014   6.103
22640SOL    HW169361   6.050   5.952   6.066
22640SOL    HW269362   5.954   5.971   6.182
22641SOL     OW69363   5.934   6.150   6.877
22641SOL    HW169364   5.981   6.083   6.927
22641SOL    HW269365   5.943   6.121   6.786
22642SOL     OW69366   6.413   7.171   6.263
22642SOL    HW169367   6.391   7.237   6.197
22642SOL    HW269368   6.341   7.109   6.260
22643SOL     OW69369   7.011   5.812   6.698
22643SOL    HW169370   7.008   5.720   6.723
22643SOL    HW269371   6.963   5.857   6.768
22644SOL     OW69372   6.597   5.612   6.723
22644SOL    HW169373   6.535   5.552   6.681
22644SOL    HW269374   6.679   5.563   6.726
22645SOL     OW69375   6.366   6.920   5.908
22645SOL    HW169376   6.340   6.829   5.917
22645SOL    HW269377   6.447   6.928   5.959
22646SOL     OW69378   6.203   7.148   6.866
22646SOL    HW169379   6.202   7.236   6.904
22646SOL    HW269380   6.294   7.134   6.839
22647SOL     OW69381   6.944   5.643   5.756
22647SOL    HW169382   6.971   5.576   5.693
22647SOL    HW269383   6.854   5.619   5.779
22648SOL     OW69384   6.891   6.054   6.266
22648SOL    HW169385   6.836   6.132   6.267
22648SOL    HW269386   6.879   6.016   6.353
22649SOL     OW69387   7.177   5.782   6.472
22649SOL    HW169388   7.119   5.806   6.544
22649SOL    HW269389   7.175   5.858   6.413
22650SOL     OW69390   5.626   6.656   5.901
22650SOL    HW169391   5.720   6.651   5.885
22650SOL    HW269392   5.600   6.565   5.919
22651SOL     OW69393   6.479   7.248   5.918
22651SOL    HW169394   6.401   7.230   5.865
22651SOL    HW269395   6.450   7.314   5.981
22652SOL     OW69396   5.804   6.229   7.584
22652SOL    HW169397   5.717   6.219   7.623
22652SOL    HW269398   5.794   6.197   7.495
22653SOL     OW69399   5.803   5.884   8.450
22653SOL    HW169400   5.836   5.842   8.529
22653SOL    HW269401   5.720   5.840   8.432
22654SOL     OW69402   5.589   5.975   8.095
22654SOL    HW169403   5.533   5.940   8.164
22654SOL    HW269404   5.574   5.918   8.020
22655SOL     OW69405   6.157   6.875   8.640
22655SOL    HW169406   6.073   6.870   8.594
22655SOL    HW269407   6.167   6.968   8.661
22656SOL     OW69408   7.163   7.103   8.156
22656SOL    HW169409   7.117   7.076   8.236
22656SOL    HW269410   7.095   7.107   8.089
22657SOL     OW69411   6.734   6.274   8.144
22657SOL    HW169412   6.764   6.364   8.135
22657SOL    HW269413   6.674   6.276   8.219
22658SOL     OW69414   7.358   6.182   7.683
22658SOL    HW169415   7.336   6.186   7.590
22658SOL    HW269416   7.322   6.099   7.713
22659SOL     OW69417   6.336   6.724   8.496
22659SOL    HW169418   6.271   6.758   8.558
22659SOL    HW269419   6.368   6.801   8.450
22660SOL     OW69420   6.467   6.344   9.275
22660SOL    HW169421   6.465   6.419   9.333
22660SOL    HW269422   6.489   6.381   9.189
22661SOL     OW69423   6.273   6.588   8.091
22661SOL    HW169424   6.338   6.574   8.160
22661SOL    HW269425   6.204   6.639   8.132
22662SOL     OW69426   6.290   6.747   9.269
22662SOL    HW169427   6.324   6.831   9.297
22662SOL    HW269428   6.207   6.767   9.225
22663SOL     OW69429   5.912   7.004   8.514
22663SOL    HW169430   5.840   6.959   8.470
22663SOL    HW269431   5.957   7.050   8.443
22664SOL     OW69432   7.045   7.087   8.808
22664SOL    HW169433   7.098   7.165   8.819
22664SOL    HW269434   6.979   7.093   8.877
22665SOL     OW69435   6.033   5.978   8.931
22665SOL    HW169436   6.108   5.919   8.932
22665SOL    HW269437   5.958   5.922   8.947
22666SOL     OW69438   7.195   6.070   8.194
22666SOL    HW169439   7.114   6.062   8.144
22666SOL    HW269440   7.166   6.101   8.280
22667SOL     OW69441   5.807   7.329   7.897
22667SOL    HW169442   5.836   7.393   7.962
22667SOL    HW269443   5.888   7.302   7.852
22668SOL     OW69444   6.702   6.936   9.152
22668SOL    HW169445   6.760   6.925   9.227
22668SOL    HW269446   6.660   6.851   9.142
22669SOL     OW69447   5.793   7.035   7.983
22669SOL    HW169448   5.795   7.110   8.042
22669SOL    HW269449   5.757   6.964   8.037
22670SOL     OW69450   5.866   6.674   8.356
22670SOL    HW169451   5.867   6.580   8.377
22670SOL    HW269452   5.793   6.709   8.406
22671SOL     OW69453   6.156   6.569   7.592
22671SOL    HW169454   6.207   6.611   7.522
22671SOL    HW269455   6.198   6.599   7.673
22672SOL     OW69456   7.195   5.713   8.906
22672SOL    HW169457   7.190   5.799   8.864
22672SOL    HW269458   7.169   5.729   8.997
22673SOL     OW69459   5.709   6.237   8.008
22673SOL    HW169460   5.675   6.148   8.021
22673SOL    HW269461   5.698   6.279   8.093
22674SOL     OW69462   7.425   7.341   7.775
22674SOL    HW169463   7.490   7.318   7.842
22674SOL    HW269464   7.445   7.432   7.753
22675SOL     OW69465   5.589   7.185   7.609
22675SOL    HW169466   5.629   7.098   7.616
22675SOL    HW269467   5.504   7.169   7.570
22676SOL     OW69468   7.304   6.502   8.069
22676SOL    HW169469   7.368   6.478   8.001
22676SOL    HW269470   7.244   6.561   8.025
22677SOL     OW69471   7.229   6.696   7.875
22677SOL    HW169472   7.311   6.703   7.828
22677SOL    HW269473   7.236   6.759   7.947
22678SOL     OW69474   5.715   6.322   9.033
22678SOL    HW169475   5.809   6.342   9.032
22678SOL    HW269476   5.672   6.407   9.026
22679SOL     OW69477   6.198   6.979   8.185
22679SOL    HW169478   6.156   6.894   8.191
22679SOL    HW269479   6.185   7.006   8.093
22680SOL     OW69480   6.871   6.818   8.866
22680SOL    HW169481   6.900   6.749   8.805
22680SOL    HW269482   6.930   6.810   8.941
22681SOL     OW69483   6.408   5.604   7.994
22681SOL    HW169484   6.442   5.681   7.948
22681SOL    HW269485   6.313   5.617   7.996
22682SOL     OW69486   5.767   6.541   8.725
22682SOL    HW169487   5.855   6.505   8.712
22682SOL    HW269488   5.711   6.488   8.669
22683SOL     OW69489   7.119   6.580   7.649
22683SOL    HW169490   7.048   6.522   7.678
22683SOL    HW269491   7.151   6.620   7.730
22684SOL     OW69492   6.683   7.360   9.014
22684SOL    HW169493   6.725   7.443   8.991
22684SOL    HW269494   6.751   7.294   8.997
22685SOL     OW69495   5.930   5.833   9.296
22685SOL    HW169496   5.967   5.922   9.301
22685SOL    HW269497   5.837   5.845   9.312
22686SOL     OW69498   7.053   7.004   8.388
22686SOL    HW169499   6.988   7.020   8.457
22686SOL    HW269500   7.039   6.913   8.362
22687SOL     OW69501   7.236   7.346   8.021
22687SOL    HW169502   7.214   7.313   7.934
22687SOL    HW269503   7.220   7.272   8.080
22688SOL     OW69504   6.175   6.298   7.720
22688SOL    HW169505   6.170   6.382   7.675
22688SOL    HW269506   6.108   6.303   7.788
22689SOL     OW69507   6.869   5.947   8.381
22689SOL    HW169508   6.778   5.919   8.383
22689SOL    HW269509   6.912   5.894   8.448
22690SOL     OW69510   7.160   7.266   7.764
22690SOL    HW169511   7.252   7.287   7.750
22690SOL    HW269512   7.126   7.249   7.676
22691SOL     OW69513   6.335   6.217   8.890
22691SOL    HW169514   6.330   6.183   8.979
22691SOL    HW269515   6.322   6.141   8.834
22692SOL     OW69516   6.995   6.053   9.119
22692SOL    HW169517   6.985   6.104   9.199
22692SOL    HW269518   7.042   5.975   9.145
22693SOL     OW69519   6.538   6.466   9.040
22693SOL    HW169520   6.608   6.410   9.006
22693SOL    HW269521   6.483   6.484   8.964
22694SOL     OW69522   6.593   5.983   8.682
22694SOL    HW169523   6.537   6.033   8.742
22694SOL    HW269524   6.532   5.946   8.618
22695SOL     OW69525   6.642   6.284   7.872
22695SOL    HW169526   6.658   6.270   7.965
22695SOL    HW269527   6.558   6.241   7.855
22696SOL     OW69528   5.679   6.404   8.226
22696SOL    HW169529   5.758   6.394   8.279
22696SOL    HW269530   5.632   6.477   8.267
22697SOL     OW69531   5.731   7.459   9.029
22697SOL    HW169532   5.730   7.435   9.121
22697SOL    HW269533   5.649   7.422   8.994
22698SOL     OW69534   6.471   5.936   7.648
22698SOL    HW169535   6.517   5.979   7.576
22698SOL    HW269536   6.426   5.862   7.607
22699SOL     OW69537   7.294   6.154   9.274
22699SOL    HW169538   7.257   6.230   9.229
22699SOL    HW269539   7.314   6.092   9.204
22700SOL     OW69540   6.969   6.732   7.993
22700SOL    HW169541   7.044   6.720   7.934
22700SOL    HW269542   6.911   6.792   7.946
22701SOL     OW69543   6.139   5.743   8.338
22701SOL    HW169544   6.135   5.809   8.407
22701SOL    HW269545   6.135   5.794   8.257
22702SOL     OW69546   6.590   7.034   7.919
22702SOL    HW169547   6.557   7.105   7.865
22702SOL    HW269548   6.560   7.055   8.008
22703SOL     OW69549   5.940   7.400   8.323
22703SOL    HW169550   5.987   7.317   8.330
22703SOL    HW269551   6.006   7.467   8.340
22704SOL     OW69552   7.395   6.631   8.316
22704SOL    HW169553   7.341   6.620   8.237
22704SOL    HW269554   7.331   6.642   8.386
22705SOL     OW69555   6.808   7.117   8.958
22705SOL    HW169556   6.803   7.056   9.032
22705SOL    HW269557   6.756   7.075   8.890
22706SOL     OW69558   5.891   6.546   7.699
22706SOL    HW169559   5.975   6.557   7.655
22706SOL    HW269560   5.861   6.459   7.673
22707SOL     OW69561   7.067   6.347   8.172
22707SOL    HW169562   7.045   6.292   8.247
22707SOL    HW269563   7.135   6.406   8.204
22708SOL     OW69564   6.047   6.868   9.192
22708SOL    HW169565   6.020   6.873   9.100
22708SOL    HW269566   5.965   6.855   9.240
22709SOL     OW69567   6.715   7.359   7.695
22709SOL    HW169568   6.634   7.318   7.727
22709SOL    HW269569   6.744   7.301   7.624
22710SOL     OW69570   5.784   5.855   8.960
22710SOL    HW169571   5.698   5.889   8.936
22710SOL    HW269572   5.767   5.765   8.989
22711SOL     OW69573   7.225   6.972   7.554
22711SOL    HW169574   7.184   7.056   7.534
22711SOL    HW269575   7.161   6.907   7.526
22712SOL     OW69576   6.053   7.324   7.762
22712SOL    HW169577   6.101   7.373   7.828
22712SOL    HW269578   6.120   7.285   7.706
22713SOL     OW69579   6.985   5.691   7.884
22713SOL    HW169580   6.964   5.668   7.793
22713SOL    HW269581   7.073   5.654   7.897
22714SOL     OW69582   5.850   7.372   8.671
22714SOL    HW169583   5.893   7.293   8.704
22714SOL    HW269584   5.833   7.354   8.579
22715SOL     OW69585   6.525   7.285   8.342
22715SOL    HW169586   6.608   7.240   8.356
22715SOL    HW269587   6.483   7.235   8.272
22716SOL     OW69588   5.981   6.277   7.923
22716SOL    HW169589   6.002   6.184   7.936
22716SOL    HW269590   5.887   6.283   7.936
22717SOL     OW69591   7.116   5.799   9.170
22717SOL    HW169592   7.127   5.815   9.264
22717SOL    HW269593   7.033   5.752   9.164
22718SOL     OW69594   6.224   5.695   7.556
22718SOL    HW169595   6.212   5.626   7.622
22718SOL    HW269596   6.178   5.662   7.479
22719SOL     OW69597   6.350   5.867   9.209
22719SOL    HW169598   6.432   5.817   9.205
22719SOL    HW269599   6.299   5.825   9.277
22720SOL     OW69600   6.461   7.112   8.642
22720SOL    HW169601   6.446   7.073   8.555
22720SOL    HW269602   6.533   7.060   8.679
22721SOL     OW69603   7.020   6.158   8.860
22721SOL    HW169604   7.023   6.123   8.949
22721SOL    HW269605   6.945   6.218   8.860
22722SOL     OW69606   6.400   6.977   8.394
22722SOL    HW169607   6.486   6.966   8.353
22722SOL    HW269608   6.339   6.983   8.320
22723SOL     OW69609   6.524   6.101   8.342
22723SOL    HW169610   6.497   6.089   8.251
22723SOL    HW269611   6.549   6.013   8.372
22724SOL     OW69612   6.149   5.722   8.012
22724SOL    HW169613   6.077   5.659   8.015
22724SOL    HW269614   6.151   5.753   7.921
22725SOL     OW69615   7.026   6.792   7.489
22725SOL    HW169616   7.046   6.712   7.537
22725SOL    HW269617   6.938   6.816   7.518
22726SOL     OW69618   5.878   5.646   7.632
22726SOL    HW169619   5.939   5.720   7.627
22726SOL    HW269620   5.928   5.577   7.674
22727SOL     OW69621   6.534   5.844   7.904
22727SOL    HW169622   6.504   5.871   7.818
22727SOL    HW269623   6.629   5.857   7.901
22728SOL     OW69624   6.794   7.167   8.247
22728SOL    HW169625   6.812   7.229   8.176
22728SOL    HW269626   6.870   7.174   8.305
22729SOL     OW69627   6.058   6.744   8.176
22729SOL    HW169628   5.995   6.719   8.244
22729SOL    HW269629   6.012   6.728   8.094
22730SOL     OW69630   6.848   7.380   8.064
22730SOL    HW169631   6.892   7.439   8.002
22730SOL    HW269632   6.776   7.433   8.099
22731SOL     OW69633   6.613   6.116   7.470
22731SOL    HW169634   6.566   6.196   7.451
22731SOL    HW269635   6.671   6.138   7.543
22732SOL     OW69636   5.679   6.136   8.836
22732SOL    HW169637   5.771   6.135   8.809
22732SOL    HW269638   5.675   6.202   8.905
22733SOL     OW69639   6.146   5.819   8.618
22733SOL    HW169640   6.176   5.728   8.618
22733SOL    HW269641   6.055   5.814   8.648
22734SOL     OW69642   6.461   6.052   8.082
22734SOL    HW169643   6.403   6.099   8.023
22734SOL    HW269644   6.479   5.969   8.037
22735SOL     OW69645   6.609   5.633   8.184
22735SOL    HW169646   6.543   5.633   8.114
22735SOL    HW269647   6.584   5.560   8.241
22736SOL     OW69648   7.017   6.745   8.297
22736SOL    HW169649   6.948   6.679   8.309
22736SOL    HW269650   7.024   6.754   8.202
22737SOL     OW69651   7.051   6.181   8.406
22737SOL    HW169652   6.984   6.114   8.421
22737SOL    HW269653   7.101   6.183   8.488
22738SOL     OW69654   7.453   6.381   7.849
22738SOL    HW169655   7.544   6.369   7.825
22738SOL    HW269656   7.404   6.327   7.787
22739SOL     OW69657   6.072   7.013   7.593
22739SOL    HW169658   5.996   6.980   7.642
22739SOL    HW269659   6.081   6.953   7.519
22740SOL     OW69660   7.265   6.850   8.090
22740SOL    HW169661   7.359   6.853   8.106
22740SOL    HW269662   7.235   6.939   8.110
22741SOL     OW69663   6.984   6.153   7.523
22741SOL    HW169664   6.916   6.138   7.588
22741SOL    HW269665   7.052   6.090   7.544
22742SOL     OW69666   6.127   5.863   7.762
22742SOL    HW169667   6.163   5.800   7.700
22742SOL    HW269668   6.095   5.935   7.708
22743SOL     OW69669   7.326   6.830   9.008
22743SOL    HW169670   7.405   6.781   9.030
22743SOL    HW269671   7.345   6.920   9.034
22744SOL     OW69672   6.645   6.954   8.794
22744SOL    HW169673   6.567   6.913   8.831
22744SOL    HW269674   6.717   6.897   8.821
22745SOL     OW69675   7.194   7.217   9.103
22745SOL    HW169676   7.189   7.248   9.013
22745SOL    HW269677   7.273   7.163   9.105
22746SOL     OW69678   6.725   6.810   8.544
22746SOL    HW169679   6.645   6.812   8.597
22746SOL    HW269680   6.697   6.841   8.457
22747SOL     OW69681   7.216   6.688   8.519
22747SOL    HW169682   7.211   6.745   8.595
22747SOL    HW269683   7.132   6.700   8.473
22748SOL     OW69684   6.505   5.685   8.836
22748SOL    HW169685   6.523   5.670   8.743
22748SOL    HW269686   6.585   5.728   8.868
22749SOL     OW69687   6.556   6.702   9.170
22749SOL    HW169688   6.463   6.709   9.192
22749SOL    HW269689   6.562   6.625   9.115
22750SOL     OW69690   6.295   6.650   7.819
22750SOL    HW169691   6.282   6.628   7.911
22750SOL    HW269692   6.372   6.599   7.793
22751SOL     OW69693   6.006   6.412   8.699
22751SOL    HW169694   6.070   6.424   8.769
22751SOL    HW269695   5.978   6.321   8.707
22752SOL     OW69696   6.858   5.959   8.731
22752SOL    HW169697   6.891   6.039   8.773
22752SOL    HW269698   6.767   5.980   8.709
22753SOL     OW69699   5.664   7.159   8.804
22753SOL    HW169700   5.631   7.227   8.744
22753SOL    HW269701   5.759   7.160   8.791
22754SOL     OW69702   5.916   6.704   7.942
22754SOL    HW169703   5.929   6.766   7.869
22754SOL    HW269704   5.911   6.618   7.900
22755SOL     OW69705   6.132   6.125   8.309
22755SOL    HW169706   6.148   6.180   8.233
22755SOL    HW269707   6.204   6.144   8.369
22756SOL     OW69708   6.835   6.933   7.846
22756SOL    HW169709   6.890   7.006   7.873
22756SOL    HW269710   6.747   6.958   7.874
22757SOL     OW69711   6.878   7.046   8.592
22757SOL    HW169712   6.930   7.048   8.672
22757SOL    HW269713   6.823   6.969   8.600
22758SOL     OW69714   7.186   6.232   7.943
22758SOL    HW169715   7.119   6.270   7.998
22758SOL    HW269716   7.164   6.262   7.854
22759SOL     OW69717   5.934   7.120   8.752
22759SOL    HW169718   5.923   7.073   8.669
22759SOL    HW269719   6.029   7.131   8.761
22760SOL     OW69720   5.993   6.331   9.051
22760SOL    HW169721   6.059   6.374   8.997
22760SOL    HW269722   6.025   6.240   9.059
22761SOL     OW69723   7.195   6.368   9.136
22761SOL    HW169724   7.106   6.400   9.126
22761SOL    HW269725   7.242   6.404   9.061
22762SOL     OW69726   6.585   5.727   9.216
22762SOL    HW169727   6.642   5.800   9.192
22762SOL    HW269728   6.634   5.649   9.194
22763SOL     OW69729   6.076   5.618   9.213
22763SOL    HW169730   6.032   5.567   9.146
22763SOL    HW269731   6.020   5.694   9.226
22764SOL     OW69732   6.177   6.457   8.483
22764SOL    HW169733   6.210   6.547   8.491
22764SOL    HW269734   6.116   6.447   8.556
22765SOL     OW69735   6.924   6.443   8.458
22765SOL    HW169736   6.832   6.423   8.437
22765SOL    HW269737   6.966   6.357   8.464
22766SOL     OW69738   6.791   6.116   7.712
22766SOL    HW169739   6.794   6.036   7.764
22766SOL    HW269740   6.742   6.178   7.766
22767SOL     OW69741   5.887   5.788   8.698
22767SOL    HW169742   5.845   5.809   8.781
22767SOL    HW269743   5.872   5.694   8.686
22768SOL     OW69744   5.599   6.899   8.734
22768SOL    HW169745   5.644   6.840   8.794
22768SOL    HW269746   5.626   6.987   8.762
22769SOL     OW69747   6.313   6.212   8.499
22769SOL    HW169748   6.388   6.200   8.440
22769SOL    HW269749   6.283   6.301   8.481
22770SOL     OW69750   7.322   6.546   9.308
22770SOL    HW169751   7.277   6.479   9.256
22770SOL    HW269752   7.262   6.564   9.381
22771SOL     OW69753   5.877   5.644   8.074
22771SOL    HW169754   5.864   5.737   8.094
22771SOL    HW269755   5.889   5.603   8.160
22772SOL     OW69756   7.219   5.961   7.812
22772SOL    HW169757   7.244   5.887   7.867
22772SOL    HW269758   7.174   6.021   7.873
22773SOL     OW69759   6.621   6.346   8.417
22773SOL    HW169760   6.603   6.361   8.510
22773SOL    HW269761   6.594   6.256   8.402
22774SOL     OW69762   6.549   7.163   9.160
22774SOL    HW169763   6.594   7.229   9.108
22774SOL    HW269764   6.598   7.082   9.145
22775SOL     OW69765   7.433   7.083   9.055
22775SOL    HW169766   7.459   7.115   8.968
22775SOL    HW269767   7.511   7.095   9.109
22776SOL     OW69768   5.937   6.517   9.242
22776SOL    HW169769   6.015   6.522   9.297
22776SOL    HW269770   5.956   6.448   9.180
22777SOL     OW69771   7.098   5.867   7.576
22777SOL    HW169772   7.038   5.797   7.602
22777SOL    HW269773   7.142   5.892   7.658
22778SOL     OW69774   6.883   6.412   7.481
22778SOL    HW169775   6.922   6.325   7.481
22778SOL    HW269776   6.910   6.450   7.397
22779SOL     OW69777   6.650   6.930   8.304
22779SOL    HW169778   6.656   6.857   8.243
22779SOL    HW269779   6.706   6.998   8.266
22780SOL     OW69780   5.897   6.396   8.395
22780SOL    HW169781   5.992   6.406   8.383
22780SOL    HW269782   5.886   6.306   8.426
22781SOL     OW69783   5.917   6.124   8.464
22781SOL    HW169784   5.877   6.038   8.452
22781SOL    HW269785   5.992   6.124   8.405
22782SOL     OW69786   6.726   5.953   9.139
22782SOL    HW169787   6.672   6.010   9.193
22782SOL    HW269788   6.801   6.007   9.114
22783SOL     OW69789   6.753   5.784   8.923
22783SOL    HW169790   6.737   5.847   8.994
22783SOL    HW269791   6.789   5.837   8.852
22784SOL     OW69792   5.593   6.902   7.647
22784SOL    HW169793   5.505   6.915   7.612
22784SOL    HW269794   5.592   6.813   7.681
22785SOL     OW69795   5.674   7.365   8.389
22785SOL    HW169796   5.644   7.286   8.343
22785SOL    HW269797   5.763   7.379   8.358
22786SOL     OW69798   6.080   7.163   8.354
22786SOL    HW169799   6.151   7.223   8.378
22786SOL    HW269800   6.122   7.100   8.295
22787SOL     OW69801   6.547   6.378   8.681
22787SOL    HW169802   6.619   6.357   8.739
22787SOL    HW269803   6.475   6.322   8.711
22788SOL     OW69804   5.622   6.154   8.560
22788SOL    HW169805   5.681   6.108   8.500
22788SOL    HW269806   5.659   6.139   8.647
22789SOL     OW69807   5.781   6.097   9.180
22789SOL    HW169808   5.809   6.035   9.113
22789SOL    HW269809   5.746   6.172   9.131
22790SOL     OW69810   6.958   6.525   9.121
22790SOL    HW169811   6.986   6.615   9.108
22790SOL    HW269812   6.947   6.490   9.032
22791SOL     OW69813   6.408   6.164   7.806
22791SOL    HW169814   6.413   6.083   7.754
22791SOL    HW269815   6.327   6.206   7.777
22792SOL     OW69816   7.208   6.199   8.626
22792SOL    HW169817   7.172   6.167   8.709
22792SOL    HW269818   7.293   6.156   8.618
22793SOL     OW69819   5.834   7.137   9.168
22793SOL    HW169820   5.810   7.200   9.235
22793SOL    HW269821   5.836   7.053   9.214
22794SOL     OW69822   6.302   6.028   8.700
22794SOL    HW169823   6.246   5.954   8.676
22794SOL    HW269824   6.295   6.089   8.627
22795SOL     OW69825   6.425   7.293   8.883
22795SOL    HW169826   6.455   7.239   8.810
22795SOL    HW269827   6.505   7.335   8.916
22796SOL     OW69828   6.039   6.076   7.610
22796SOL    HW169829   6.100   6.144   7.640
22796SOL    HW269830   5.954   6.119   7.610
22797SOL     OW69831   5.721   6.728   8.914
22797SOL    HW169832   5.729   6.686   9.000
22797SOL    HW269833   5.742   6.659   8.851
22798SOL     OW69834   6.915   6.642   8.648
22798SOL    HW169835   6.922   6.569   8.586
22798SOL    HW269836   6.847   6.698   8.611
22799SOL     OW69837   6.907   6.432   7.757
22799SOL    HW169838   6.828   6.406   7.804
22799SOL    HW269839   6.884   6.423   7.664
22800SOL     OW69840   7.371   7.319   8.609
22800SOL    HW169841   7.428   7.344   8.537
22800SOL    HW269842   7.339   7.232   8.586
22801SOL     OW69843   6.826   7.318   8.558
22801SOL    HW169844   6.909   7.343   8.517
22801SOL    HW269845   6.836   7.225   8.576
22802SOL     OW69846   5.659   6.869   8.457
22802SOL    HW169847   5.633   6.868   8.549
22802SOL    HW269848   5.604   6.802   8.416
22803SOL     OW69849   6.293   7.259   9.160
22803SOL    HW169850   6.270   7.276   9.251
22803SOL    HW269851   6.384   7.230   9.164
22804SOL     OW69852   7.331   5.748   7.960
22804SOL    HW169853   7.392   5.729   7.888
22804SOL    HW269854   7.304   5.661   7.991
22805SOL     OW69855   6.983   7.153   7.946
22805SOL    HW169856   7.036   7.185   7.873
22805SOL    HW269857   6.926   7.227   7.968
22806SOL     OW69858   5.734   7.380   9.288
22806SOL    HW169859   5.682   7.314   9.334
22806SOL    HW269860   5.777   7.429   9.359
22807SOL     OW69861   6.858   6.518   8.116
22807SOL    HW169862   6.931   6.457   8.126
22807SOL    HW269863   6.893   6.589   8.062
22808SOL     OW69864   6.392   6.862   8.854
22808SOL    HW169865   6.356   6.904   8.932
22808SOL    HW269866   6.316   6.850   8.796
22809SOL     OW69867   6.254   7.213   7.604
22809SOL    HW169868   6.270   7.228   7.511
22809SOL    HW269869   6.198   7.135   7.606
22810SOL     OW69870   7.202   7.313   8.837
22810SOL    HW169871   7.259   7.320   8.761
22810SOL    HW269872   7.188   7.404   8.864
22811SOL     OW69873   7.427   5.746   8.409
22811SOL    HW169874   7.440   5.661   8.368
22811SOL    HW269875   7.339   5.772   8.382
22812SOL     OW69876   5.848   5.904   8.169
22812SOL    HW169877   5.761   5.932   8.140
22812SOL    HW269878   5.841   5.896   8.264
22813SOL     OW69879   6.805   7.200   7.492
22813SOL    HW169880   6.782   7.108   7.482
22813SOL    HW269881   6.786   7.239   7.407
22814SOL     OW69882   6.405   6.583   8.821
22814SOL    HW169883   6.462   6.546   8.753
22814SOL    HW269884   6.428   6.676   8.823
22815SOL     OW69885   6.510   6.508   7.746
22815SOL    HW169886   6.569   6.535   7.676
22815SOL    HW269887   6.553   6.431   7.784
22816SOL     OW69888   7.089   7.209   7.504
22816SOL    HW169889   6.994   7.220   7.492
22816SOL    HW269890   7.125   7.222   7.416
22817SOL     OW69891   5.942   6.899   8.946
22817SOL    HW169892   5.935   6.970   8.883
22817SOL    HW269893   5.870   6.840   8.924
22818SOL     OW69894   7.205   6.875   8.731
22818SOL    HW169895   7.249   6.846   8.811
22818SOL    HW269896   7.139   6.937   8.761
22819SOL     OW69897   6.649   6.699   8.166
22819SOL    HW169898   6.575   6.649   8.200
22819SOL    HW269899   6.711   6.633   8.136
22820SOL     OW69900   6.618   5.826   8.395
22820SOL    HW169901   6.608   5.775   8.315
22820SOL    HW269902   6.605   5.762   8.465
22821SOL     OW69903   6.190   7.075   7.929
22821SOL    HW169904   6.248   7.022   7.875
22821SOL    HW269905   6.118   7.099   7.871
22822SOL     OW69906   7.335   5.964   8.825
22822SOL    HW169907   7.395   6.039   8.821
22822SOL    HW269908   7.372   5.901   8.764
22823SOL     OW69909   5.849   6.937   7.740
22823SOL    HW169910   5.759   6.917   7.715
22823SOL    HW269911   5.842   6.974   7.828
22824SOL     OW69912   5.696   6.640   9.181
22824SOL    HW169913   5.621   6.602   9.227
22824SOL    HW269914   5.771   6.589   9.211
22825SOL     OW69915   6.259   5.783   8.951
22825SOL    HW169916   6.341   5.766   8.905
22825SOL    HW269917   6.286   5.818   9.036
22826SOL     OW69918   5.671   5.912   7.486
22826SOL    HW169919   5.576   5.894   7.486
22826SOL    HW269920   5.680   5.995   7.440
22827SOL     OW69921   7.042   6.503   8.860
22827SOL    HW169922   6.974   6.528   8.798
22827SOL    HW269923   7.113   6.469   8.805
22828SOL     OW69924   5.644   5.735   7.757
22828SOL    HW169925   5.628   5.819   7.713
22828SOL    HW269926   5.727   5.705   7.720
22829SOL     OW69927   6.774   6.901   7.567
22829SOL    HW169928   6.687   6.861   7.569
22829SOL    HW269929   6.798   6.913   7.659
22830SOL     OW69930   6.189   6.438   8.894
22830SOL    HW169931   6.254   6.505   8.872
22830SOL    HW269932   6.240   6.356   8.894
22831SOL     OW69933   7.068   7.377   8.439
22831SOL    HW169934   7.090   7.433   8.365
22831SOL    HW269935   7.151   7.338   8.466
22832SOL     OW69936   6.303   6.143   9.151
22832SOL    HW169937   6.355   6.198   9.209
22832SOL    HW269938   6.322   6.053   9.180
22833SOL     OW69939   7.054   6.788   9.076
22833SOL    HW169940   7.046   6.798   9.171
22833SOL    HW269941   7.147   6.803   9.058
22834SOL     OW69942   5.984   7.324   9.005
22834SOL    HW169943   5.904   7.372   8.984
22834SOL    HW269944   5.953   7.242   9.043
22835SOL     OW69945   7.267   6.465   8.692
22835SOL    HW169946   7.245   6.380   8.654
22835SOL    HW269947   7.246   6.528   8.623
22836SOL     OW69948   6.814   5.911   7.904
22836SOL    HW169949   6.868   5.833   7.897
22836SOL    HW269950   6.843   5.954   7.985
22837SOL     OW69951   6.172   6.324   8.122
22837SOL    HW169952   6.211   6.408   8.098
22837SOL    HW269953   6.107   6.307   8.053
22838SOL     OW69954   7.338   5.945   9.095
22838SOL    HW169955   7.324   5.960   9.002
22838SOL    HW269956   7.265   5.890   9.122
22839SOL     OW69957   7.348   6.508   8.950
22839SOL    HW169958   7.317   6.597   8.972
22839SOL    HW269959   7.322   6.495   8.859
22840SOL     OW69960   6.434   6.953   7.488
22840SOL    HW169961   6.413   6.997   7.571
22840SOL    HW269962   6.465   7.023   7.431
22841SOL     OW69963   6.252   7.375   8.396
22841SOL    HW169964   6.236   7.465   8.366
22841SOL    HW269965   6.345   7.361   8.382
22842SOL     OW69966   6.458   6.556   8.304
22842SOL    HW169967   6.506   6.482   8.341
22842SOL    HW269968   6.416   6.598   8.379
22843SOL     OW69969   6.672   6.580   7.541
22843SOL    HW169970   6.644   6.623   7.460
22843SOL    HW269971   6.743   6.522   7.513
22844SOL     OW69972   7.428   7.139   8.289
22844SOL    HW169973   7.350   7.128   8.234
22844SOL    HW269974   7.414   7.080   8.362
22845SOL     OW69975   5.790   6.878   9.293
22845SOL    HW169976   5.756   6.800   9.250
22845SOL    HW269977   5.729   6.895   9.365
22846SOL     OW69978   5.687   6.814   8.112
22846SOL    HW169979   5.670   6.760   8.189
22846SOL    HW269980   5.744   6.761   8.056
22847SOL     OW69981   6.249   7.008   9.039
22847SOL    HW169982   6.186   6.959   9.091
22847SOL    HW269983   6.270   7.085   9.092
22848SOL     OW69984   7.442   5.752   8.681
22848SOL    HW169985   7.382   5.684   8.711
22848SOL    HW269986   7.426   5.757   8.586
22849SOL     OW69987   6.023   6.020   7.976
22849SOL    HW169988   6.060   5.951   7.920
22849SOL    HW269989   5.974   5.972   8.043
22850SOL     OW69990   7.280   7.071   8.537
22850SOL    HW169991   7.202   7.051   8.486
22850SOL    HW269992   7.281   7.005   8.607
22851SOL     OW69993   5.931   6.151   8.741
22851SOL    HW169994   5.981   6.088   8.793
22851SOL    HW269995   5.942   6.121   8.651
22852SOL     OW69996   6.416   7.172   8.120
22852SOL    HW169997   6.401   7.241   8.056
22852SOL    HW269998   6.341   7.113   8.110
22853SOL     OW69999   7.011   5.805   8.570
22853SOL    HW170000   6.990   5.715   8.597
22853SOL    HW270001   6.967   5.860   8.634
22854SOL     OW70002   6.592   5.605   8.578
22854SOL    HW170003   6.533   5.544   8.535
22854SOL    HW270004   6.676   5.559   8.583
22855SOL     OW70005   6.357   6.920   7.785
22855SOL    HW170006   6.331   6.828   7.783
22855SOL    HW270007   6.446   6.919   7.820
22856SOL     OW70008   6.207   7.133   8.753
22856SOL    HW170009   6.244   7.105   8.836
22856SOL    HW270010   6.283   7.146   8.696
22857SOL     OW70011   6.937   5.638   7.618
22857SOL    HW170012   6.965   5.579   7.549
22857SOL    HW270013   6.850   5.607   7.644
22858SOL     OW70014   6.912   6.054   8.132
22858SOL    HW170015   6.851   6.128   8.125
22858SOL    HW270016   6.889   6.011   8.214
22859SOL     OW70017   7.173   5.798   8.346
22859SOL    HW170018   7.115   5.803   8.422
22859SOL    HW270019   7.131   5.854   8.280
22860SOL     OW70020   5.637   6.654   7.757
22860SOL    HW170021   5.727   6.639   7.730
22860SOL    HW270022   5.606   6.568   7.785
22861SOL     OW70023   6.473   7.243   7.785
22861SOL    HW170024   6.398   7.229   7.727
22861SOL    HW270025   6.445   7.314   7.843
22862SOL     OW70026   5.809   6.226   9.435
22862SOL    HW170027   5.725   6.204   9.475
22862SOL    HW270028   5.804   6.190   9.346
22863SOL     OW70029   5.807   5.873  10.302
22863SOL    HW170030   5.834   5.838  10.387
22863SOL    HW270031   5.720   5.837  10.288
22864SOL     OW70032   5.581   5.976   9.948
22864SOL    HW170033   5.503   6.004   9.997
22864SOL    HW270034   5.552   5.898   9.900
22865SOL     OW70035   6.154   6.887  10.496
22865SOL    HW170036   6.067   6.897  10.456
22865SOL    HW270037   6.174   6.974  10.530
22866SOL     OW70038   7.158   7.097  10.021
22866SOL    HW170039   7.113   7.090  10.106
22866SOL    HW270040   7.087   7.102   9.957
22867SOL     OW70041   6.722   6.287  10.002
22867SOL    HW170042   6.770   6.368   9.988
22867SOL    HW270043   6.674   6.300  10.084
22868SOL     OW70044   7.377   6.179   9.530
22868SOL    HW170045   7.346   6.177   9.440
22868SOL    HW270046   7.329   6.107   9.573
22869SOL     OW70047   6.320   6.719  10.356
22869SOL    HW170048   6.257   6.760  10.415
22869SOL    HW270049   6.368   6.792  10.317
22870SOL     OW70050   6.464   6.345  11.132
22870SOL    HW170051   6.441   6.419  11.187
22870SOL    HW270052   6.483   6.384  11.046
22871SOL     OW70053   6.269   6.584   9.955
22871SOL    HW170054   6.339   6.574  10.020
22871SOL    HW270055   6.204   6.639   9.998
22872SOL     OW70056   6.296   6.742  11.139
22872SOL    HW170057   6.347   6.818  11.168
22872SOL    HW270058   6.221   6.779  11.093
22873SOL     OW70059   5.923   6.999  10.378
22873SOL    HW170060   5.845   6.963  10.337
22873SOL    HW270061   5.962   7.055  10.312
22874SOL     OW70062   7.085   7.080  10.663
22874SOL    HW170063   7.132   7.163  10.673
22874SOL    HW270064   7.006   7.092  10.717
22875SOL     OW70065   6.036   5.976  10.786
22875SOL    HW170066   6.110   5.917  10.797
22875SOL    HW270067   5.959   5.923  10.807
22876SOL     OW70068   7.191   6.027  10.053
22876SOL    HW170069   7.120   6.046   9.992
22876SOL    HW270070   7.200   6.107  10.105
22877SOL     OW70071   5.813   7.304   9.778
22877SOL    HW170072   5.830   7.378   9.836
22877SOL    HW270073   5.889   7.301   9.720
22878SOL     OW70074   6.695   6.909  11.045
22878SOL    HW170075   6.780   6.899  11.002
22878SOL    HW270076   6.652   6.825  11.033
22879SOL     OW70077   5.772   7.041   9.850
22879SOL    HW170078   5.787   7.133   9.826
22879SOL    HW270079   5.754   7.044   9.944
22880SOL     OW70080   5.857   6.672  10.195
22880SOL    HW170081   5.854   6.587  10.239
22880SOL    HW270082   5.800   6.728  10.247
22881SOL     OW70083   6.169   7.388  10.723
22881SOL    HW170084   6.093   7.367  10.777
22881SOL    HW270085   6.200   7.471  10.758
22882SOL     OW70086   6.159   6.574   9.455
22882SOL    HW170087   6.211   6.613   9.385
22882SOL    HW270088   6.204   6.600   9.536
22883SOL     OW70089   7.183   5.709  10.779
22883SOL    HW170090   7.218   5.779  10.725
22883SOL    HW270091   7.158   5.751  10.861
22884SOL     OW70092   5.706   6.244   9.868
22884SOL    HW170093   5.672   6.157   9.888
22884SOL    HW270094   5.698   6.292   9.951
22885SOL     OW70095   7.429   7.336   9.630
22885SOL    HW170096   7.497   7.312   9.693
22885SOL    HW270097   7.441   7.430   9.616
22886SOL     OW70098   5.627   7.174   9.426
22886SOL    HW170099   5.607   7.083   9.450
22886SOL    HW270100   5.602   7.225   9.504
22887SOL     OW70101   7.271   6.499   9.949
22887SOL    HW170102   7.358   6.463   9.931
22887SOL    HW270103   7.252   6.555   9.873
22888SOL     OW70104   7.235   6.693   9.745
22888SOL    HW170105   7.322   6.691   9.704
22888SOL    HW270106   7.245   6.754   9.819
22889SOL     OW70107   5.706   6.328  10.898
22889SOL    HW170108   5.793   6.368  10.893
22889SOL    HW270109   5.646   6.401  10.884
22890SOL     OW70110   6.206   6.980  10.041
22890SOL    HW170111   6.163   6.896  10.057
22890SOL    HW270112   6.187   6.999   9.949
22891SOL     OW70113   6.854   6.760  10.769
22891SOL    HW170114   6.888   6.732  10.684
22891SOL    HW270115   6.927   6.808  10.810
22892SOL     OW70116   6.411   5.597   9.834
22892SOL    HW170117   6.450   5.679   9.802
22892SOL    HW270118   6.317   5.614   9.833
22893SOL     OW70119   5.770   6.540  10.606
22893SOL    HW170120   5.855   6.504  10.582
22893SOL    HW270121   5.709   6.506  10.540
22894SOL     OW70122   7.118   6.589   9.514
22894SOL    HW170123   7.049   6.532   9.548
22894SOL    HW270124   7.162   6.623   9.592
22895SOL     OW70125   6.770   7.409  10.956
22895SOL    HW170126   6.768   7.473  10.884
22895SOL    HW270127   6.787   7.325  10.914
22896SOL     OW70128   5.923   5.834  11.160
22896SOL    HW170129   5.956   5.924  11.157
22896SOL    HW270130   5.828   5.843  11.170
22897SOL     OW70131   7.047   6.996  10.267
22897SOL    HW170132   6.979   7.016  10.332
22897SOL    HW270133   7.029   6.907  10.239
22898SOL     OW70134   7.238   7.340   9.885
22898SOL    HW170135   7.218   7.297   9.802
22898SOL    HW270136   7.216   7.275   9.952
22899SOL     OW70137   6.180   6.299   9.585
22899SOL    HW170138   6.180   6.382   9.537
22899SOL    HW270139   6.113   6.310   9.653
22900SOL     OW70140   6.871   5.965  10.248
22900SOL    HW170141   6.783   5.926  10.244
22900SOL    HW270142   6.920   5.907  10.305
22901SOL     OW70143   7.166   7.251   9.625
22901SOL    HW170144   7.257   7.278   9.616
22901SOL    HW270145   7.135   7.240   9.535
22902SOL     OW70146   6.385   6.197  10.756
22902SOL    HW170147   6.357   6.172  10.844
22902SOL    HW270148   6.346   6.132  10.699
22903SOL     OW70149   6.982   6.067  10.986
22903SOL    HW170150   6.985   6.109  11.072
22903SOL    HW270151   7.036   5.989  10.994
22904SOL     OW70152   6.525   6.466  10.890
22904SOL    HW170153   6.584   6.401  10.850
22904SOL    HW270154   6.485   6.510  10.815
22905SOL     OW70155   6.566   5.966  10.537
22905SOL    HW170156   6.479   5.993  10.567
22905SOL    HW270157   6.572   5.999  10.448
22906SOL     OW70158   6.639   6.287   9.732
22906SOL    HW170159   6.658   6.280   9.825
22906SOL    HW270160   6.557   6.241   9.720
22907SOL     OW70161   5.682   6.415  10.080
22907SOL    HW170162   5.757   6.406  10.140
22907SOL    HW270163   5.628   6.484  10.120
22908SOL     OW70164   6.480   5.940   9.511
22908SOL    HW170165   6.525   5.998   9.450
22908SOL    HW270166   6.454   5.865   9.458
22909SOL     OW70167   7.295   6.167  11.144
22909SOL    HW170168   7.260   6.242  11.095
22909SOL    HW270169   7.316   6.103  11.077
22910SOL     OW70170   6.968   6.725   9.844
22910SOL    HW170171   7.050   6.716   9.795
22910SOL    HW270172   6.918   6.791   9.795
22911SOL     OW70173   6.135   5.748  10.215
22911SOL    HW170174   6.132   5.792  10.300
22911SOL    HW270175   6.127   5.819  10.152
22912SOL     OW70176   6.582   7.017   9.781
22912SOL    HW170177   6.537   7.093   9.746
22912SOL    HW270178   6.577   7.027   9.876
22913SOL     OW70179   5.937   7.395  10.170
22913SOL    HW170180   5.979   7.310  10.184
22913SOL    HW270181   5.996   7.458  10.211
22914SOL     OW70182   7.384   6.626  10.186
22914SOL    HW170183   7.332   6.627  10.106
22914SOL    HW270184   7.321   6.642  10.256
22915SOL     OW70185   5.898   6.533   9.553
22915SOL    HW170186   5.982   6.549   9.510
22915SOL    HW270187   5.873   6.445   9.526
22916SOL     OW70188   7.068   6.336  10.030
22916SOL    HW170189   7.072   6.300  10.118
22916SOL    HW270190   7.145   6.392  10.023
22917SOL     OW70191   6.047   6.857  11.056
22917SOL    HW170192   6.025   6.860  10.963
22917SOL    HW270193   5.962   6.856  11.100
22918SOL     OW70194   6.632   7.376   9.494
22918SOL    HW170195   6.663   7.332   9.574
22918SOL    HW270196   6.707   7.425   9.463
22919SOL     OW70197   5.783   5.860  10.822
22919SOL    HW170198   5.698   5.895  10.796
22919SOL    HW270199   5.764   5.771  10.852
22920SOL     OW70200   7.217   6.963   9.397
22920SOL    HW170201   7.176   7.049   9.387
22920SOL    HW270202   7.147   6.901   9.375
22921SOL     OW70203   6.053   7.325   9.628
22921SOL    HW170204   6.096   7.379   9.693
22921SOL    HW270205   6.123   7.297   9.569
22922SOL     OW70206   6.988   5.692   9.753
22922SOL    HW170207   6.977   5.668   9.661
22922SOL    HW270208   7.082   5.700   9.765
22923SOL     OW70209   5.891   7.378  10.487
22923SOL    HW170210   5.890   7.341  10.575
22923SOL    HW270211   5.825   7.327  10.439
22924SOL     OW70212   6.523   7.290  10.208
22924SOL    HW170213   6.602   7.247  10.239
22924SOL    HW270214   6.491   7.234  10.138
22925SOL     OW70215   5.980   6.281   9.783
22925SOL    HW170216   6.001   6.189   9.796
22925SOL    HW270217   5.887   6.288   9.801
22926SOL     OW70218   7.107   5.816  11.029
22926SOL    HW170219   7.120   5.835  11.122
22926SOL    HW270220   7.033   5.756  11.026
22927SOL     OW70221   6.241   5.701   9.412
22927SOL    HW170222   6.289   5.621   9.433
22927SOL    HW270223   6.179   5.674   9.344
22928SOL     OW70224   6.353   5.862  11.080
22928SOL    HW170225   6.433   5.810  11.069
22928SOL    HW270226   6.303   5.815  11.146
22929SOL     OW70227   6.456   7.104  10.496
22929SOL    HW170228   6.439   7.062  10.412
22929SOL    HW270229   6.528   7.054  10.535
22930SOL     OW70230   6.920   6.168  10.738
22930SOL    HW170231   6.951   6.143  10.825
22930SOL    HW270232   6.954   6.257  10.725
22931SOL     OW70233   6.409   6.964  10.257
22931SOL    HW170234   6.496   6.959  10.219
22931SOL    HW270235   6.351   6.979  10.182
22932SOL     OW70236   6.517   6.097  10.205
22932SOL    HW170237   6.485   6.095  10.115
22932SOL    HW270238   6.556   6.011  10.218
22933SOL     OW70239   6.146   5.653   9.808
22933SOL    HW170240   6.063   5.649   9.854
22933SOL    HW270241   6.137   5.727   9.748
22934SOL     OW70242   7.015   6.784   9.347
22934SOL    HW170243   7.046   6.710   9.398
22934SOL    HW270244   6.932   6.808   9.389
22935SOL     OW70245   5.871   5.639   9.497
22935SOL    HW170246   5.924   5.696   9.442
22935SOL    HW270247   5.933   5.577   9.536
22936SOL     OW70248   6.532   5.838   9.764
22936SOL    HW170249   6.506   5.872   9.679
22936SOL    HW270250   6.626   5.853   9.769
22937SOL     OW70251   6.664   6.270  10.767
22937SOL    HW170252   6.592   6.207  10.771
22937SOL    HW270253   6.743   6.216  10.761
22938SOL     OW70254   6.817   7.163  10.108
22938SOL    HW170255   6.830   7.224  10.036
22938SOL    HW270256   6.875   7.195  10.178
22939SOL     OW70257   6.058   6.745  10.034
22939SOL    HW170258   6.001   6.721  10.106
22939SOL    HW270259   6.005   6.732   9.955
22940SOL     OW70260   6.850   7.377   9.908
22940SOL    HW170261   6.891   7.438   9.846
22940SOL    HW270262   6.804   7.433   9.970
22941SOL     OW70263   6.606   6.115   9.339
22941SOL    HW170264   6.563   6.197   9.313
22941SOL    HW270265   6.677   6.142   9.397
22942SOL     OW70266   5.680   6.140  10.701
22942SOL    HW170267   5.772   6.144  10.674
22942SOL    HW270268   5.671   6.208  10.768
22943SOL     OW70269   6.145   5.812  10.486
22943SOL    HW170270   6.175   5.727  10.518
22943SOL    HW270271   6.053   5.817  10.512
22944SOL     OW70272   6.451   6.046   9.944
22944SOL    HW170273   6.408   6.101   9.879
22944SOL    HW270274   6.476   5.966   9.897
22945SOL     OW70275   6.596   5.641  10.051
22945SOL    HW170276   6.537   5.638   9.976
22945SOL    HW270277   6.584   5.557  10.095
22946SOL     OW70278   7.033   6.737  10.165
22946SOL    HW170279   6.957   6.683  10.146
22946SOL    HW270280   7.071   6.756  10.079
22947SOL     OW70281   7.055   6.198  10.277
22947SOL    HW170282   6.999   6.120  10.277
22947SOL    HW270283   7.106   6.190  10.358
22948SOL     OW70284   7.429   6.394   9.694
22948SOL    HW170285   7.489   6.347   9.752
22948SOL    HW270286   7.409   6.331   9.625
22949SOL     OW70287   6.071   7.005   9.445
22949SOL    HW170288   6.065   6.931   9.505
22949SOL    HW270289   6.072   6.967   9.358
22950SOL     OW70290   7.269   6.842   9.969
22950SOL    HW170291   7.364   6.845   9.975
22950SOL    HW270292   7.241   6.933   9.986
22951SOL     OW70293   6.975   6.155   9.377
22951SOL    HW170294   6.915   6.134   9.448
22951SOL    HW270295   7.061   6.131   9.410
22952SOL     OW70296   6.120   5.849   9.620
22952SOL    HW170297   6.165   5.803   9.550
22952SOL    HW270298   6.086   5.928   9.579
22953SOL     OW70299   7.352   6.824  10.895
22953SOL    HW170300   7.436   6.792  10.926
22953SOL    HW270301   7.360   6.920  10.900
22954SOL     OW70302   6.637   6.933  10.624
22954SOL    HW170303   6.561   6.901  10.672
22954SOL    HW270304   6.698   6.962  10.691
22955SOL     OW70305   7.208   7.217  10.985
22955SOL    HW170306   7.180   7.245  10.898
22955SOL    HW270307   7.289   7.168  10.969
22956SOL     OW70308   6.705   6.766  10.412
22956SOL    HW170309   6.674   6.820  10.485
22956SOL    HW270310   6.691   6.820  10.334
22957SOL     OW70311   7.197   6.678  10.383
22957SOL    HW170312   7.177   6.743  10.450
22957SOL    HW270313   7.131   6.692  10.315
22958SOL     OW70314   6.511   5.700  10.680
22958SOL    HW170315   6.507   5.779  10.625
22958SOL    HW270316   6.592   5.710  10.729
22959SOL     OW70317   6.557   6.674  11.056
22959SOL    HW170318   6.466   6.699  11.069
22959SOL    HW270319   6.554   6.606  10.989
22960SOL     OW70320   6.293   6.648   9.688
22960SOL    HW170321   6.284   6.626   9.780
22960SOL    HW270322   6.369   6.597   9.658
22961SOL     OW70323   6.011   6.409  10.562
22961SOL    HW170324   6.078   6.418  10.630
22961SOL    HW270325   5.977   6.320  10.573
22962SOL     OW70326   6.844   5.949  10.595
22962SOL    HW170327   6.875   6.030  10.635
22962SOL    HW270328   6.753   5.967  10.570
22963SOL     OW70329   5.667   7.171  10.674
22963SOL    HW170330   5.659   7.264  10.693
22963SOL    HW270331   5.761   7.155  10.666
22964SOL     OW70332   5.934   6.718   9.768
22964SOL    HW170333   6.027   6.737   9.755
22964SOL    HW270334   5.920   6.634   9.724
22965SOL     OW70335   6.134   6.114  10.172
22965SOL    HW170336   6.146   6.171  10.096
22965SOL    HW270337   6.201   6.142  10.234
22966SOL     OW70338   6.835   6.936   9.702
22966SOL    HW170339   6.891   7.007   9.735
22966SOL    HW270340   6.748   6.956   9.736
22967SOL     OW70341   6.865   7.042  10.473
22967SOL    HW170342   6.923   7.065  10.546
22967SOL    HW270343   6.786   7.007  10.515
22968SOL     OW70344   7.168   6.207   9.794
22968SOL    HW170345   7.114   6.251   9.860
22968SOL    HW270346   7.215   6.278   9.751
22969SOL     OW70347   5.931   7.106  10.628
22969SOL    HW170348   5.918   7.065  10.542
22969SOL    HW270349   6.024   7.128  10.630
22970SOL     OW70350   6.002   6.337  10.913
22970SOL    HW170351   6.069   6.377  10.857
22970SOL    HW270352   6.024   6.244  10.915
22971SOL     OW70353   7.191   6.372  10.985
22971SOL    HW170354   7.110   6.422  10.990
22971SOL    HW270355   7.195   6.342  10.894
22972SOL     OW70356   6.585   5.722  11.055
22972SOL    HW170357   6.644   5.795  11.041
22972SOL    HW270358   6.639   5.644  11.040
22973SOL     OW70359   6.085   5.629  11.079
22973SOL    HW170360   6.042   5.580  11.008
22973SOL    HW270361   6.027   5.703  11.095
22974SOL     OW70362   6.174   6.462  10.344
22974SOL    HW170363   6.210   6.551  10.347
22974SOL    HW270364   6.115   6.457  10.419
22975SOL     OW70365   6.932   6.439  10.333
22975SOL    HW170366   6.848   6.432  10.288
22975SOL    HW270367   6.976   6.356  10.315
22976SOL     OW70368   6.790   6.113   9.574
22976SOL    HW170369   6.794   6.034   9.629
22976SOL    HW270370   6.744   6.177   9.629
22977SOL     OW70371   5.885   5.794  10.557
22977SOL    HW170372   5.841   5.818  10.639
22977SOL    HW270373   5.870   5.700  10.548
22978SOL     OW70374   5.671   6.907  10.576
22978SOL    HW170375   5.680   6.852  10.654
22978SOL    HW270376   5.652   6.994  10.611
22979SOL     OW70377   6.305   6.217  10.363
22979SOL    HW170378   6.381   6.211  10.305
22979SOL    HW270379   6.271   6.306  10.349
22980SOL     OW70380   7.321   6.543  11.168
22980SOL    HW170381   7.275   6.481  11.111
22980SOL    HW270382   7.257   6.562  11.237
22981SOL     OW70383   5.900   5.652   9.927
22981SOL    HW170384   5.870   5.740   9.948
22981SOL    HW270385   5.902   5.607  10.011
22982SOL     OW70386   7.211   5.969   9.666
22982SOL    HW170387   7.239   5.905   9.731
22982SOL    HW270388   7.186   6.046   9.718
22983SOL     OW70389   6.614   6.345  10.260
22983SOL    HW170390   6.606   6.360  10.355
22983SOL    HW270391   6.586   6.255  10.248
22984SOL     OW70392   6.562   7.146  11.039
22984SOL    HW170393   6.549   7.195  10.958
22984SOL    HW270394   6.618   7.072  11.013
22985SOL     OW70395   7.442   7.085  10.905
22985SOL    HW170396   7.457   7.116  10.816
22985SOL    HW270397   7.525   7.104  10.951
22986SOL     OW70398   5.934   6.491  11.130
22986SOL    HW170399   6.018   6.521  11.165
22986SOL    HW270400   5.957   6.434  11.057
22987SOL     OW70401   7.119   5.849   9.434
22987SOL    HW170402   7.051   5.789   9.464
22987SOL    HW270403   7.150   5.892   9.514
22988SOL     OW70404   6.864   6.407   9.344
22988SOL    HW170405   6.904   6.320   9.342
22988SOL    HW270406   6.895   6.449   9.264
22989SOL     OW70407   6.662   6.930  10.170
22989SOL    HW170408   6.671   6.860  10.106
22989SOL    HW270409   6.724   6.997  10.141
22990SOL     OW70410   5.894   6.394  10.257
22990SOL    HW170411   5.989   6.410  10.253
22990SOL    HW270412   5.887   6.304  10.289
22991SOL     OW70413   5.915   6.116  10.327
22991SOL    HW170414   5.875   6.030  10.312
22991SOL    HW270415   5.991   6.117  10.268
22992SOL     OW70416   6.726   5.956  10.996
22992SOL    HW170417   6.674   6.009  11.056
22992SOL    HW270418   6.810   6.002  10.990
22993SOL     OW70419   6.754   5.775  10.788
22993SOL    HW170420   6.739   5.839  10.857
22993SOL    HW270421   6.795   5.825  10.717
22994SOL     OW70422   5.595   6.889   9.498
22994SOL    HW170423   5.509   6.913   9.465
22994SOL    HW270424   5.590   6.795   9.513
22995SOL     OW70425   5.673   7.359  10.246
22995SOL    HW170426   5.645   7.280  10.200
22995SOL    HW270427   5.763   7.373  10.217
22996SOL     OW70428   6.075   7.160  10.210
22996SOL    HW170429   6.141   7.224  10.237
22996SOL    HW270430   6.124   7.097  10.156
22997SOL     OW70431   6.561   6.358  10.526
22997SOL    HW170432   6.618   6.347  10.602
22997SOL    HW270433   6.472   6.341  10.560
22998SOL     OW70434   5.618   6.142  10.429
22998SOL    HW170435   5.694   6.119  10.375
22998SOL    HW270436   5.651   6.140  10.519
22999SOL     OW70437   5.778   6.100  11.039
22999SOL    HW170438   5.797   6.038  10.968
22999SOL    HW270439   5.746   6.178  10.994
23000SOL     OW70440   6.965   6.521  10.971
23000SOL    HW170441   6.987   6.614  10.966
23000SOL    HW270442   6.936   6.498  10.882
23001SOL     OW70443   6.404   6.157   9.680
23001SOL    HW170444   6.414   6.082   9.621
23001SOL    HW270445   6.328   6.204   9.647
23002SOL     OW70446   7.216   6.201  10.509
23002SOL    HW170447   7.204   6.132  10.575
23002SOL    HW270448   7.300   6.181  10.469
23003SOL     OW70449   5.823   7.142  11.035
23003SOL    HW170450   5.802   7.215  11.093
23003SOL    HW270451   5.823   7.065  11.092
23004SOL     OW70452   6.301   6.029  10.560
23004SOL    HW170453   6.240   5.958  10.540
23004SOL    HW270454   6.288   6.094  10.491
23005SOL     OW70455   6.470   7.280  10.813
23005SOL    HW170456   6.511   7.226  10.745
23005SOL    HW270457   6.475   7.369  10.779
23006SOL     OW70458   6.039   6.077   9.493
23006SOL    HW170459   6.102   6.146   9.516
23006SOL    HW270460   5.957   6.124   9.482
23007SOL     OW70461   5.719   6.731  10.792
23007SOL    HW170462   5.725   6.687  10.877
23007SOL    HW270463   5.737   6.662  10.728
23008SOL     OW70464   6.913   6.627  10.527
23008SOL    HW170465   6.933   6.563  10.458
23008SOL    HW270466   6.841   6.679  10.492
23009SOL     OW70467   6.903   6.444   9.614
23009SOL    HW170468   6.829   6.407   9.663
23009SOL    HW270469   6.880   6.427   9.522
23010SOL     OW70470   7.369   7.336  10.473
23010SOL    HW170471   7.436   7.347  10.406
23010SOL    HW270472   7.286   7.339  10.424
23011SOL     OW70473   6.804   7.314  10.410
23011SOL    HW170474   6.891   7.345  10.384
23011SOL    HW270475   6.821   7.227  10.446
23012SOL     OW70476   5.687   6.846  10.316
23012SOL    HW170477   5.677   6.868  10.408
23012SOL    HW270478   5.602   6.810  10.290
23013SOL     OW70479   6.275   7.256  11.046
23013SOL    HW170480   6.213   7.324  11.019
23013SOL    HW270481   6.348   7.264  10.984
23014SOL     OW70482   7.312   5.748   9.814
23014SOL    HW170483   7.380   5.731   9.749
23014SOL    HW270484   7.294   5.662   9.852
23015SOL     OW70485   6.977   7.152   9.801
23015SOL    HW170486   7.038   7.184   9.734
23015SOL    HW270487   6.931   7.230   9.831
23016SOL     OW70488   5.749   7.375  11.175
23016SOL    HW170489   5.692   7.310  11.216
23016SOL    HW270490   5.788   7.422  11.249
23017SOL     OW70491   6.866   6.518   9.982
23017SOL    HW170492   6.940   6.457   9.992
23017SOL    HW270493   6.900   6.587   9.925
23018SOL     OW70494   6.386   6.862  10.733
23018SOL    HW170495   6.363   6.902  10.817
23018SOL    HW270496   6.316   6.890  10.674
23019SOL     OW70497   6.244   7.213   9.449
23019SOL    HW170498   6.316   7.159   9.415
23019SOL    HW270499   6.169   7.153   9.453
23020SOL     OW70500   7.230   7.310  10.711
23020SOL    HW170501   7.274   7.320  10.626
23020SOL    HW270502   7.202   7.398  10.734
23021SOL     OW70503   7.422   5.750  10.280
23021SOL    HW170504   7.448   5.663  10.251
23021SOL    HW270505   7.339   5.766  10.236
23022SOL     OW70506   5.839   5.902  10.022
23022SOL    HW170507   5.752   5.933   9.996
23022SOL    HW270508   5.835   5.895  10.117
23023SOL     OW70509   6.807   7.168   9.329
23023SOL    HW170510   6.789   7.085   9.373
23023SOL    HW270511   6.720   7.204   9.310
23024SOL     OW70512   6.412   6.596  10.677
23024SOL    HW170513   6.453   6.599  10.590
23024SOL    HW270514   6.403   6.687  10.702
23025SOL     OW70515   6.504   6.506   9.600
23025SOL    HW170516   6.565   6.538   9.534
23025SOL    HW270517   6.550   6.435   9.644
23026SOL     OW70518   7.087   7.207   9.360
23026SOL    HW170519   6.993   7.222   9.352
23026SOL    HW270520   7.121   7.220   9.271
23027SOL     OW70521   5.953   6.887  10.806
23027SOL    HW170522   5.946   6.964  10.749
23027SOL    HW270523   5.874   6.836  10.788
23028SOL     OW70524   7.199   6.840  10.612
23028SOL    HW170525   7.283   6.883  10.595
23028SOL    HW270526   7.140   6.912  10.633
23029SOL     OW70527   6.651   6.701  10.021
23029SOL    HW170528   6.579   6.652  10.059
23029SOL    HW270529   6.716   6.635   9.997
23030SOL     OW70530   6.618   5.841  10.244
23030SOL    HW170531   6.618   5.786  10.166
23030SOL    HW270532   6.556   5.798  10.303
23031SOL     OW70533   6.174   7.041   9.778
23031SOL    HW170534   6.244   7.015   9.718
23031SOL    HW270535   6.130   7.113   9.734
23032SOL     OW70536   7.314   5.978  10.689
23032SOL    HW170537   7.387   6.041  10.686
23032SOL    HW270538   7.341   5.908  10.630
23033SOL     OW70539   5.707   6.632  11.052
23033SOL    HW170540   5.628   6.598  11.095
23033SOL    HW270541   5.778   6.577  11.087
23034SOL     OW70542   6.260   5.801  10.822
23034SOL    HW170543   6.342   5.769  10.784
23034SOL    HW270544   6.283   5.829  10.910
23035SOL     OW70545   5.664   5.914   9.351
23035SOL    HW170546   5.586   5.880   9.307
23035SOL    HW270547   5.691   5.988   9.297
23036SOL     OW70548   7.013   6.432  10.702
23036SOL    HW170549   6.956   6.494  10.657
23036SOL    HW270550   7.096   6.438  10.656
23037SOL     OW70551   5.644   5.740   9.608
23037SOL    HW170552   5.631   5.815   9.550
23037SOL    HW270553   5.729   5.704   9.582
23038SOL     OW70554   6.763   6.903   9.439
23038SOL    HW170555   6.709   6.825   9.449
23038SOL    HW270556   6.797   6.921   9.527
23039SOL     OW70557   6.212   6.415  10.746
23039SOL    HW170558   6.267   6.491  10.728
23039SOL    HW270559   6.273   6.342  10.754
23040SOL     OW70560   6.313   6.136  11.008
23040SOL    HW170561   6.352   6.196  11.071
23040SOL    HW270562   6.325   6.049  11.047
23041SOL     OW70563   7.079   6.773  10.946
23041SOL    HW170564   7.056   6.792  11.037
23041SOL    HW270565   7.166   6.811  10.935
23042SOL     OW70566   5.953   7.335  10.884
23042SOL    HW170567   5.875   7.378  10.848
23042SOL    HW270568   5.919   7.255  10.925
23043SOL     OW70569   7.257   6.486  10.574
23043SOL    HW170570   7.263   6.395  10.545
23043SOL    HW270571   7.234   6.536  10.495
23044SOL     OW70572   6.803   5.904   9.769
23044SOL    HW170573   6.865   5.832   9.763
23044SOL    HW270574   6.833   5.955   9.844
23045SOL     OW70575   6.171   6.318   9.987
23045SOL    HW170576   6.211   6.404   9.971
23045SOL    HW270577   6.107   6.308   9.917
23046SOL     OW70578   7.330   5.968  10.960
23046SOL    HW170579   7.320   5.977  10.865
23046SOL    HW270580   7.264   5.904  10.985
23047SOL     OW70581   6.389   6.995   9.354
23047SOL    HW170582   6.404   6.964   9.443
23047SOL    HW270583   6.476   7.017   9.321
23048SOL     OW70584   6.247   7.371  10.237
23048SOL    HW170585   6.233   7.465  10.222
23048SOL    HW270586   6.342   7.361  10.236
23049SOL     OW70587   6.456   6.560  10.160
23049SOL    HW170588   6.508   6.488  10.197
23049SOL    HW270589   6.416   6.602  10.236
23050SOL     OW70590   6.666   6.590   9.397
23050SOL    HW170591   6.640   6.626   9.312
23050SOL    HW270592   6.735   6.526   9.376
23051SOL     OW70593   7.429   7.143  10.165
23051SOL    HW170594   7.357   7.145  10.103
23051SOL    HW270595   7.392   7.103  10.244
23052SOL     OW70596   5.794   6.881  11.159
23052SOL    HW170597   5.758   6.807  11.111
23052SOL    HW270598   5.733   6.895  11.231
23053SOL     OW70599   5.695   6.757   9.977
23053SOL    HW170600   5.626   6.739  10.042
23053SOL    HW270601   5.775   6.724  10.017
23054SOL     OW70602   6.273   6.987  10.951
23054SOL    HW170603   6.186   6.958  10.977
23054SOL    HW270604   6.279   7.078  10.980
23055SOL     OW70605   7.386   5.761  10.549
23055SOL    HW170606   7.410   5.669  10.560
23055SOL    HW270607   7.401   5.779  10.456
23056SOL     OW70608   6.019   6.021   9.837
23056SOL    HW170609   6.048   5.951   9.778
23056SOL    HW270610   5.964   5.977   9.901
23057SOL     OW70611   7.290   7.037  10.382
23057SOL    HW170612   7.208   7.031  10.335
23057SOL    HW270613   7.268   7.077  10.466
23058SOL     OW70614   5.931   6.151  10.603
23058SOL    HW170615   5.979   6.087  10.656
23058SOL    HW270616   5.939   6.120  10.513
23059SOL     OW70617   6.421   7.156   9.991
23059SOL    HW170618   6.405   7.206   9.910
23059SOL    HW270619   6.343   7.102  10.002
23060SOL     OW70620   7.014   5.816  10.425
23060SOL    HW170621   7.047   5.736  10.466
23060SOL    HW270622   6.962   5.859  10.493
23061SOL     OW70623   6.378   6.907   9.620
23061SOL    HW170624   6.351   6.818   9.643
23061SOL    HW270625   6.452   6.925   9.678
23062SOL     OW70626   6.207   7.141  10.601
23062SOL    HW170627   6.203   7.227  10.643
23062SOL    HW270628   6.296   7.137  10.565
23063SOL     OW70629   6.943   5.636   9.486
23063SOL    HW170630   6.977   5.568   9.428
23063SOL    HW270631   6.854   5.607   9.507
23064SOL     OW70632   6.884   6.052   9.986
23064SOL    HW170633   6.833   6.133   9.986
23064SOL    HW270634   6.882   6.022  10.076
23065SOL     OW70635   7.165   5.781  10.189
23065SOL    HW170636   7.110   5.809  10.262
23065SOL    HW270637   7.169   5.857  10.131
23066SOL     OW70638   5.656   6.644   9.626
23066SOL    HW170639   5.739   6.619   9.585
23066SOL    HW270640   5.615   6.562   9.651
23067SOL     OW70641   6.427   7.222   9.693
23067SOL    HW170642   6.394   7.237   9.605
23067SOL    HW270643   6.433   7.310   9.731
23068SOL     OW70644   5.809   6.203  11.297
23068SOL    HW170645   5.718   6.226  11.318
23068SOL    HW270646   5.808   6.183  11.203
23069SOL     OW70647   5.786   5.873  12.188
23069SOL    HW170648   5.825   5.822  12.259
23069SOL    HW270649   5.711   5.822  12.159
23070SOL     OW70650   5.584   5.970  11.824
23070SOL    HW170651   5.498   5.988  11.863
23070SOL    HW270652   5.569   5.892  11.771
23071SOL     OW70653   6.131   6.837  12.336
23071SOL    HW170654   6.054   6.873  12.290
23071SOL    HW270655   6.142   6.895  12.411
23072SOL     OW70656   7.160   7.099  11.879
23072SOL    HW170657   7.115   7.085  11.963
23072SOL    HW270658   7.090   7.108  11.815
23073SOL     OW70659   7.340   6.188  11.411
23073SOL    HW170660   7.324   6.188  11.317
23073SOL    HW270661   7.328   6.096  11.437
23074SOL     OW70662   6.344   6.728  12.221
23074SOL    HW170663   6.264   6.756  12.265
23074SOL    HW270664   6.375   6.806  12.176
23075SOL     OW70665   6.282   6.586  11.827
23075SOL    HW170666   6.324   6.569  11.911
23075SOL    HW270667   6.205   6.639  11.850
23076SOL     OW70668   5.926   6.992  12.228
23076SOL    HW170669   5.843   6.961  12.191
23076SOL    HW270670   5.960   7.052  12.162
23077SOL     OW70671   7.199   6.015  11.910
23077SOL    HW170672   7.128   6.032  11.849
23077SOL    HW270673   7.242   6.100  11.921
23078SOL     OW70674   5.806   7.305  11.637
23078SOL    HW170675   5.829   7.379  11.692
23078SOL    HW270676   5.880   7.294  11.578
23079SOL     OW70677   5.816   7.037  11.716
23079SOL    HW170678   5.799   7.131  11.712
23079SOL    HW270679   5.756   7.004  11.783
23080SOL     OW70680   5.856   6.681  12.065
23080SOL    HW170681   5.848   6.596  12.108
23080SOL    HW270682   5.801   6.740  12.117
23081SOL     OW70683   6.165   6.573  11.313
23081SOL    HW170684   6.209   6.622  11.244
23081SOL    HW270685   6.204   6.603  11.394
23082SOL     OW70686   5.706   6.239  11.740
23082SOL    HW170687   5.677   6.150  11.761
23082SOL    HW270688   5.695   6.287  11.823
23083SOL     OW70689   7.431   7.338  11.502
23083SOL    HW170690   7.501   7.315  11.563
23083SOL    HW270691   7.449   7.429  11.479
23084SOL     OW70692   5.627   7.172  11.301
23084SOL    HW170693   5.608   7.080  11.318
23084SOL    HW270694   5.595   7.218  11.379
23085SOL     OW70695   7.275   6.502  11.820
23085SOL    HW170696   7.350   6.451  11.789
23085SOL    HW270697   7.248   6.554  11.745
23086SOL     OW70698   7.230   6.685  11.608
23086SOL    HW170699   7.316   6.687  11.565
23086SOL    HW270700   7.237   6.750  11.678
23087SOL     OW70701   5.775   6.336   0.243
23087SOL    HW170702   5.801   6.306   0.330
23087SOL    HW270703   5.684   6.365   0.254
23088SOL     OW70704   6.194   6.975  11.908
23088SOL    HW170705   6.147   6.891  11.911
23088SOL    HW270706   6.178   7.008  11.819
23089SOL     OW70707   6.393   5.656  11.780
23089SOL    HW170708   6.442   5.690  11.705
23089SOL    HW270709   6.307   5.635  11.745
23090SOL     OW70710   5.784   6.574  12.402
23090SOL    HW170711   5.863   6.520  12.406
23090SOL    HW270712   5.712   6.513  12.416
23091SOL     OW70713   7.118   6.586  11.373
23091SOL    HW170714   7.049   6.527  11.405
23091SOL    HW270715   7.159   6.620  11.452
23092SOL     OW70716   7.070   7.002  12.131
23092SOL    HW170717   6.997   7.019  12.191
23092SOL    HW270718   7.052   6.914  12.096
23093SOL     OW70719   7.243   7.339  11.748
23093SOL    HW170720   7.221   7.310  11.659
23093SOL    HW270721   7.220   7.266  11.804
23094SOL     OW70722   6.172   6.313  11.438
23094SOL    HW170723   6.169   6.395  11.390
23094SOL    HW270724   6.108   6.323  11.509
23095SOL     OW70725   6.888   5.953  12.110
23095SOL    HW170726   6.796   5.927  12.103
23095SOL    HW270727   6.925   5.895  12.177
23096SOL     OW70728   7.164   7.260  11.485
23096SOL    HW170729   7.256   7.283  11.473
23096SOL    HW270730   7.132   7.245  11.396
23097SOL     OW70731   6.540   5.885  12.365
23097SOL    HW170732   6.592   5.941  12.423
23097SOL    HW270733   6.451   5.920  12.371
23098SOL     OW70734   6.622   6.256  11.606
23098SOL    HW170735   6.623   6.204  11.686
23098SOL    HW270736   6.541   6.232  11.562
23099SOL     OW70737   5.669   6.385  11.971
23099SOL    HW170738   5.754   6.397  12.014
23099SOL    HW270739   5.621   6.465  11.991
23100SOL     OW70740   6.473   5.938  11.367
23100SOL    HW170741   6.521   5.987  11.300
23100SOL    HW270742   6.440   5.861  11.321
23101SOL     OW70743   6.956   6.712  11.714
23101SOL    HW170744   7.036   6.700  11.663
23101SOL    HW270745   6.910   6.783  11.671
23102SOL     OW70746   6.129   5.760  12.067
23102SOL    HW170747   6.139   5.828  12.134
23102SOL    HW270748   6.133   5.808  11.984
23103SOL     OW70749   6.590   7.041  11.654
23103SOL    HW170750   6.560   7.103  11.588
23103SOL    HW270751   6.546   7.069  11.735
23104SOL     OW70752   5.939   7.402  12.037
23104SOL    HW170753   5.984   7.318  12.048
23104SOL    HW270754   6.005   7.467  12.062
23105SOL     OW70755   7.382   6.643  12.050
23105SOL    HW170756   7.336   6.618  11.970
23105SOL    HW270757   7.315   6.644  12.118
23106SOL     OW70758   5.902   6.543  11.427
23106SOL    HW170759   5.983   6.570  11.384
23106SOL    HW270760   5.869   6.470  11.373
23107SOL     OW70761   7.064   6.335  11.904
23107SOL    HW170762   7.068   6.289  11.988
23107SOL    HW270763   7.145   6.385  11.900
23108SOL     OW70764   6.716   7.355  11.400
23108SOL    HW170765   6.636   7.319  11.437
23108SOL    HW270766   6.740   7.294  11.330
23109SOL     OW70767   7.216   6.970  11.269
23109SOL    HW170768   7.178   7.056  11.250
23109SOL    HW270769   7.148   6.907  11.245
23110SOL     OW70770   6.050   7.320  11.490
23110SOL    HW170771   6.100   7.370  11.554
23110SOL    HW270772   6.116   7.283  11.431
23111SOL     OW70773   6.985   5.682  11.615
23111SOL    HW170774   6.987   5.662  11.521
23111SOL    HW270775   7.076   5.701  11.637
23112SOL     OW70776   5.859   7.349  12.410
23112SOL    HW170777   5.804   7.333  12.486
23112SOL    HW270778   5.803   7.331  12.335
23113SOL     OW70779   6.521   7.288  12.068
23113SOL    HW170780   6.602   7.241  12.087
23113SOL    HW270781   6.480   7.238  11.998
23114SOL     OW70782   5.989   6.276  11.654
23114SOL    HW170783   6.004   6.182  11.664
23114SOL    HW270784   5.895   6.287  11.665
23115SOL     OW70785   6.247   5.696  11.285
23115SOL    HW170786   6.286   5.616  11.319
23115SOL    HW270787   6.189   5.667  11.215
23116SOL     OW70788   6.403   6.953  12.092
23116SOL    HW170789   6.488   6.971  12.051
23116SOL    HW270790   6.339   6.975  12.024
23117SOL     OW70791   6.526   6.121  12.052
23117SOL    HW170792   6.498   6.110  11.961
23117SOL    HW270793   6.560   6.036  12.077
23118SOL     OW70794   6.137   5.652  11.674
23118SOL    HW170795   6.049   5.648  11.711
23118SOL    HW270796   6.134   5.724  11.611
23119SOL     OW70797   7.016   6.793  11.210
23119SOL    HW170798   7.035   6.716  11.265
23119SOL    HW270799   6.934   6.827  11.245
23120SOL     OW70800   5.873   5.637  11.365
23120SOL    HW170801   5.925   5.694  11.309
23120SOL    HW270802   5.936   5.575  11.402
23121SOL     OW70803   6.542   5.864  11.628
23121SOL    HW170804   6.512   5.881  11.539
23121SOL    HW270805   6.638   5.863  11.621
23122SOL     OW70806   6.809   7.163  11.971
23122SOL    HW170807   6.817   7.222  11.895
23122SOL    HW270808   6.867   7.202  12.036
23123SOL     OW70809   6.059   6.732  11.892
23123SOL    HW170810   5.992   6.716  11.958
23123SOL    HW270811   6.013   6.724  11.808
23124SOL     OW70812   6.845   7.377  11.788
23124SOL    HW170813   6.893   7.436  11.730
23124SOL    HW270814   6.777   7.432  11.827
23125SOL     OW70815   6.611   6.116  11.194
23125SOL    HW170816   6.567   6.199  11.174
23125SOL    HW270817   6.675   6.139  11.262
23126SOL     OW70818   6.147   5.784  12.359
23126SOL    HW170819   6.162   5.704  12.309
23126SOL    HW270820   6.053   5.782  12.378
23127SOL     OW70821   6.478   6.080  11.787
23127SOL    HW170822   6.409   6.115  11.731
23127SOL    HW270823   6.498   5.995  11.749
23128SOL     OW70824   6.600   5.638  11.951
23128SOL    HW170825   6.533   5.651  11.883
23128SOL    HW270826   6.590   5.546  11.976
23129SOL     OW70827   7.032   6.750  12.019
23129SOL    HW170828   6.958   6.694  11.998
23129SOL    HW270829   7.078   6.763  11.936
23130SOL     OW70830   7.037   6.198  12.145
23130SOL    HW170831   6.994   6.113  12.138
23130SOL    HW270832   7.105   6.186  12.211
23131SOL     OW70833   7.426   6.396  11.565
23131SOL    HW170834   7.487   6.345  11.618
23131SOL    HW270835   7.396   6.335  11.497
23132SOL     OW70836   6.072   7.008  11.320
23132SOL    HW170837   6.000   6.974  11.374
23132SOL    HW270838   6.064   6.961  11.238
23133SOL     OW70839   7.255   6.844  11.827
23133SOL    HW170840   7.350   6.844  11.838
23133SOL    HW270841   7.230   6.935  11.837
23134SOL     OW70842   6.984   6.157  11.243
23134SOL    HW170843   6.920   6.137  11.311
23134SOL    HW270844   7.066   6.118  11.275
23135SOL     OW70845   6.117   5.849  11.485
23135SOL    HW170846   6.167   5.802  11.419
23135SOL    HW270847   6.088   5.929  11.442
23136SOL     OW70848   6.691   6.820  12.285
23136SOL    HW170849   6.612   6.843  12.336
23136SOL    HW270850   6.672   6.851  12.197
23137SOL     OW70851   7.185   6.682  12.241
23137SOL    HW170852   7.137   6.704  12.321
23137SOL    HW270853   7.124   6.704  12.170
23138SOL     OW70854   6.295   6.642  11.545
23138SOL    HW170855   6.277   6.625  11.637
23138SOL    HW270856   6.378   6.597  11.528
23139SOL     OW70857   6.011   6.404  12.442
23139SOL    HW170858   6.059   6.439  12.516
23139SOL    HW270859   5.980   6.318  12.472
23140SOL     OW70860   6.852   5.974  12.436
23140SOL    HW170861   6.913   6.033  12.481
23140SOL    HW270862   6.771   6.024  12.430
23141SOL     OW70863   5.925   6.706  11.655
23141SOL    HW170864   5.918   6.781  11.597
23141SOL    HW270865   5.922   6.630  11.596
23142SOL     OW70866   6.121   6.125  12.036
23142SOL    HW170867   6.140   6.179  11.959
23142SOL    HW270868   6.190   6.148  12.099
23143SOL     OW70869   6.829   6.929  11.598
23143SOL    HW170870   6.889   7.003  11.609
23143SOL    HW270871   6.743   6.966  11.618
23144SOL     OW70872   6.870   7.031  12.316
23144SOL    HW170873   6.891   7.036  12.409
23144SOL    HW270874   6.808   6.959  12.309
23145SOL     OW70875   7.179   6.196  11.664
23145SOL    HW170876   7.123   6.267  11.698
23145SOL    HW270877   7.224   6.235  11.589
23146SOL     OW70878   6.003   7.106  12.465
23146SOL    HW170879   5.968   7.060  12.389
23146SOL    HW270880   5.969   7.195  12.456
23147SOL     OW70881   6.169   6.460  12.219
23147SOL    HW170882   6.187   6.554  12.219
23147SOL    HW270883   6.114   6.446  12.296
23148SOL     OW70884   6.912   6.440  12.197
23148SOL    HW170885   6.825   6.402  12.186
23148SOL    HW270886   6.972   6.366  12.183
23149SOL     OW70887   6.788   6.113  11.430
23149SOL    HW170888   6.801   6.032  11.480
23149SOL    HW270889   6.742   6.171  11.490
23150SOL     OW70890   5.884   5.754  12.413
23150SOL    HW170891   5.851   5.776  12.500
23150SOL    HW270892   5.873   5.660  12.406
23151SOL     OW70893   5.654   6.917  12.437
23151SOL    HW170894   5.691   6.848  12.491
23151SOL    HW270895   5.647   6.993  12.496
23152SOL     OW70896   6.301   6.215  12.220
23152SOL    HW170897   6.379   6.212  12.164
23152SOL    HW270898   6.269   6.305  12.213
23153SOL     OW70899   5.889   5.648  11.790
23153SOL    HW170900   5.865   5.738  11.815
23153SOL    HW270901   5.898   5.602  11.874
23154SOL     OW70902   7.193   5.957  11.533
23154SOL    HW170903   7.217   5.885  11.591
23154SOL    HW270904   7.180   6.032  11.590
23155SOL     OW70905   6.642   6.344  12.148
23155SOL    HW170906   6.623   6.350  12.242
23155SOL    HW270907   6.611   6.258  12.122
23156SOL     OW70908   7.110   5.866  11.292
23156SOL    HW170909   7.051   5.795  11.318
23156SOL    HW270910   7.146   5.900  11.374
23157SOL     OW70911   6.878   6.409  11.206
23157SOL    HW170912   6.921   6.323  11.205
23157SOL    HW270913   6.906   6.450  11.124
23158SOL     OW70914   6.674   6.929  12.028
23158SOL    HW170915   6.693   6.863  11.961
23158SOL    HW270916   6.726   7.005  12.001
23159SOL     OW70917   5.900   6.399  12.119
23159SOL    HW170918   5.993   6.423  12.117
23159SOL    HW270919   5.899   6.309  12.151
23160SOL     OW70920   5.891   6.117  12.169
23160SOL    HW170921   5.881   6.022  12.168
23160SOL    HW270922   5.970   6.135  12.119
23161SOL     OW70923   6.739   5.810   0.133
23161SOL    HW170924   6.753   5.849   0.220
23161SOL    HW270925   6.788   5.867   0.074
23162SOL     OW70926   5.602   6.898  11.361
23162SOL    HW170927   5.513   6.917  11.331
23162SOL    HW270928   5.596   6.811  11.401
23163SOL     OW70929   5.677   7.367  12.112
23163SOL    HW170930   5.648   7.289  12.065
23163SOL    HW270931   5.767   7.381  12.082
23164SOL     OW70932   6.080   7.169  12.073
23164SOL    HW170933   6.151   7.226  12.103
23164SOL    HW270934   6.123   7.104  12.018
23165SOL     OW70935   6.562   6.371  12.414
23165SOL    HW170936   6.615   6.433  12.464
23165SOL    HW270937   6.471   6.398  12.430
23166SOL     OW70938   6.390   6.163  11.516
23166SOL    HW170939   6.395   6.084  11.462
23166SOL    HW270940   6.313   6.209  11.484
23167SOL     OW70941   7.238   6.191  12.329
23167SOL    HW170942   7.239   6.133  12.406
23167SOL    HW270943   7.329   6.195  12.301
23168SOL     OW70944   6.309   6.014  12.408
23168SOL    HW170945   6.230   5.961  12.399
23168SOL    HW270946   6.294   6.090  12.353
23169SOL     OW70947   6.529   7.229   0.031
23169SOL    HW170948   6.470   7.270  -0.033
23169SOL    HW270949   6.495   7.258   0.116
23170SOL     OW70950   6.045   6.080  11.363
23170SOL    HW170951   6.100   6.155  11.381
23170SOL    HW270952   5.958   6.117  11.346
23171SOL     OW70953   6.907   6.654  12.367
23171SOL    HW170954   6.912   6.583  12.303
23171SOL    HW270955   6.834   6.708  12.338
23172SOL     OW70956   6.908   6.439  11.478
23172SOL    HW170957   6.825   6.425  11.524
23172SOL    HW270958   6.886   6.427  11.385
23173SOL     OW70959   7.336   7.333  12.306
23173SOL    HW170960   7.410   7.347  12.246
23173SOL    HW270961   7.322   7.239  12.305
23174SOL     OW70962   6.828   7.308  12.261
23174SOL    HW170963   6.913   7.337  12.228
23174SOL    HW270964   6.842   7.217  12.287
23175SOL     OW70965   5.677   6.858  12.175
23175SOL    HW170966   5.665   6.880  12.267
23175SOL    HW270967   5.604   6.799  12.155
23176SOL     OW70968   7.249   5.723  11.682
23176SOL    HW170969   7.339   5.737  11.652
23176SOL    HW270970   7.252   5.640  11.729
23177SOL     OW70971   6.983   7.155  11.667
23177SOL    HW170972   7.037   7.187  11.595
23177SOL    HW270973   6.927   7.230  11.690
23178SOL     OW70974   6.852   6.484  11.832
23178SOL    HW170975   6.929   6.429  11.847
23178SOL    HW270976   6.885   6.558  11.780
23179SOL     OW70977   6.257   7.207  11.322
23179SOL    HW170978   6.268   7.225  11.229
23179SOL    HW270979   6.196   7.133  11.324
23180SOL     OW70980   7.216   7.381   0.049
23180SOL    HW170981   7.263   7.377  -0.034
23180SOL    HW270982   7.215   7.475   0.070
23181SOL     OW70983   7.427   5.756  12.145
23181SOL    HW170984   7.457   5.670  12.116
23181SOL    HW270985   7.340   5.766  12.105
23182SOL     OW70986   5.841   5.896  11.893
23182SOL    HW170987   5.757   5.931  11.866
23182SOL    HW270988   5.835   5.888  11.989
23183SOL     OW70989   6.802   7.182  11.203
23183SOL    HW170990   6.792   7.088  11.213
23183SOL    HW270991   6.751   7.204  11.124
23184SOL     OW70992   6.380   6.594  12.480
23184SOL    HW170993   6.383   6.657  12.407
23184SOL    HW270994   6.448   6.624  12.540
23185SOL     OW70995   6.529   6.516  11.507
23185SOL    HW170996   6.575   6.539  11.426
23185SOL    HW270997   6.559   6.426  11.526
23186SOL     OW70998   7.076   7.221  11.223
23186SOL    HW170999   6.984   7.204  11.205
23186SOL    HW271000   7.117   7.224  11.137
23187SOL     OW71001   6.626   6.691  11.864
23187SOL    HW171002   6.534   6.714  11.877
23187SOL    HW271003   6.644   6.716  11.773
23188SOL     OW71004   6.629   5.869  12.097
23188SOL    HW171005   6.616   5.791  12.043
23188SOL    HW271006   6.587   5.848  12.180
23189SOL     OW71007   6.188   7.087  11.661
23189SOL    HW171008   6.240   7.030  11.605
23189SOL    HW271009   6.114   7.113  11.608
23190SOL     OW71010   7.345   6.013   0.017
23190SOL    HW171011   7.406   6.021   0.090
23190SOL    HW271012   7.346   5.920  -0.006
23191SOL     OW71013   5.861   6.918  11.482
23191SOL    HW171014   5.774   6.918  11.441
23191SOL    HW271015   5.849   6.965  11.564
23192SOL     OW71016   5.648   5.920  11.211
23192SOL    HW171017   5.579   5.892  11.151
23192SOL    HW271018   5.689   5.995  11.167
23193SOL     OW71019   5.645   5.756  11.461
23193SOL    HW171020   5.632   5.815  11.387
23193SOL    HW271021   5.731   5.718  11.446
23194SOL     OW71022   6.792   6.909  11.315
23194SOL    HW171023   6.703   6.897  11.282
23194SOL    HW271024   6.783   6.908  11.410
23195SOL     OW71025   7.076   7.366  12.150
23195SOL    HW171026   7.086   7.439  12.089
23195SOL    HW271027   7.158   7.364  12.199
23196SOL     OW71028   7.263   6.459  12.400
23196SOL    HW171029   7.242   6.373  12.366
23196SOL    HW271030   7.237   6.520  12.331
23197SOL     OW71031   6.817   5.904  11.617
23197SOL    HW171032   6.869   5.824  11.609
23197SOL    HW271033   6.849   5.946  11.697
23198SOL     OW71034   6.182   6.320  11.846
23198SOL    HW171035   6.216   6.407  11.827
23198SOL    HW271036   6.116   6.304  11.779
23199SOL     OW71037   7.387   6.500   0.132
23199SOL    HW171038   7.323   6.551   0.181
23199SOL    HW271039   7.344   6.479   0.049
23200SOL     OW71040   6.449   6.960  11.227
23200SOL    HW171041   6.399   7.027  11.274
23200SOL    HW271042   6.491   7.007  11.155
23201SOL     OW71043   6.252   7.384  12.127
23201SOL    HW171044   6.233   7.471  12.091
23201SOL    HW271045   6.345   7.369  12.106
23202SOL     OW71046   6.451   6.539  12.055
23202SOL    HW171047   6.465   6.470  12.119
23202SOL    HW271048   6.412   6.611  12.106
23203SOL     OW71049   6.664   6.563  11.280
23203SOL    HW171050   6.633   6.614  11.205
23203SOL    HW271051   6.739   6.514  11.246
23204SOL     OW71052   7.436   7.130  12.024
23204SOL    HW171053   7.358   7.130  11.969
23204SOL    HW271054   7.452   7.038  12.044
23205SOL     OW71055   5.673   6.813  11.839
23205SOL    HW171056   5.694   6.771  11.922
23205SOL    HW271057   5.739   6.779  11.778
23206SOL     OW71058   7.399   5.758  12.418
23206SOL    HW171059   7.426   5.667  12.427
23206SOL    HW271060   7.402   5.774  12.324
23207SOL     OW71061   6.023   6.014  11.704
23207SOL    HW171062   6.052   5.950  11.639
23207SOL    HW271063   5.968   5.964  11.765
23208SOL     OW71064   7.277   7.059  12.305
23208SOL    HW171065   7.204   7.049  12.243
23208SOL    HW271066   7.347   7.007  12.266
23209SOL     OW71067   6.416   7.175  11.840
23209SOL    HW171068   6.411   7.254  11.786
23209SOL    HW271069   6.337   7.125  11.817
23210SOL     OW71070   7.018   5.806  12.304
23210SOL    HW171071   7.090   5.783  12.362
23210SOL    HW271072   6.958   5.857  12.359
23211SOL     OW71073   6.341   6.917  11.522
23211SOL    HW171074   6.314   6.826  11.511
23211SOL    HW271075   6.435   6.917  11.502
23212SOL     OW71076   6.957   5.644  11.338
23212SOL    HW171077   6.981   5.583  11.268
23212SOL    HW271078   6.870   5.615  11.367
23213SOL     OW71079   6.901   6.026  11.847
23213SOL    HW171080   6.865   6.114  11.861
23213SOL    HW271081   6.905   5.988  11.934
23214SOL     OW71082   7.170   5.778  12.058
23214SOL    HW171083   7.105   5.803  12.125
23214SOL    HW271084   7.173   5.852  11.998
23215SOL     OW71085   5.628   6.652  11.487
23215SOL    HW171086   5.720   6.644  11.464
23215SOL    HW271087   5.601   6.563  11.510
23216SOL     OW71088   6.476   7.241  11.501
23216SOL    HW171089   6.402   7.227  11.443
23216SOL    HW271090   6.445   7.308  11.563
23217SOL     OW71091   5.811   7.732   0.995
23217SOL    HW171092   5.842   7.698   1.079
23217SOL    HW271093   5.724   7.693   0.984
23218SOL     OW71094   5.567   7.820   0.650
23218SOL    HW171095   5.484   7.859   0.680
23218SOL    HW271096   5.541   7.741   0.604
23219SOL     OW71097   7.209   0.043   0.195
23219SOL    HW171098   7.246  -0.032   0.149
23219SOL    HW271099   7.247   0.037   0.283
23220SOL     OW71100   6.009   7.885   1.526
23220SOL    HW171101   6.087   7.882   1.470
23220SOL    HW271102   5.964   7.802   1.508
23221SOL     OW71103   7.170   7.925   0.707
23221SOL    HW171104   7.078   7.920   0.681
23221SOL    HW271105   7.167   7.953   0.799
23222SOL     OW71106   7.181   7.576   1.463
23222SOL    HW171107   7.210   7.658   1.423
23222SOL    HW271108   7.153   7.601   1.551
23223SOL     OW71109   5.651   0.082   0.566
23223SOL    HW171110   5.646  -0.010   0.591
23223SOL    HW271111   5.693   0.125   0.641
23224SOL     OW71112   6.405   7.442   0.523
23224SOL    HW171113   6.442   7.526   0.496
23224SOL    HW271114   6.311   7.457   0.527
23225SOL     OW71115   5.926   7.692   1.825
23225SOL    HW171116   5.948   7.782   1.802
23225SOL    HW271117   5.834   7.696   1.853
23226SOL     OW71118   6.854   7.786   0.931
23226SOL    HW171119   6.764   7.759   0.947
23226SOL    HW271120   6.907   7.733   0.991
23227SOL     OW71121   6.992   7.933   1.706
23227SOL    HW171122   6.970   7.963   1.795
23227SOL    HW271123   7.043   7.853   1.720
23228SOL     OW71124   6.575   7.833   1.246
23228SOL    HW171125   6.491   7.856   1.284
23228SOL    HW271126   6.553   7.777   1.172
23229SOL     OW71127   6.481   7.781   0.212
23229SOL    HW171128   6.505   7.837   0.138
23229SOL    HW271129   6.463   7.696   0.172
23230SOL     OW71130   7.337   0.025   1.819
23230SOL    HW171131   7.265   0.083   1.794
23230SOL    HW271132   7.332  -0.048   1.757
23231SOL     OW71133   6.185   7.636   0.895
23231SOL    HW171134   6.162   7.637   0.988
23231SOL    HW271135   6.158   7.722   0.862
23232SOL     OW71136   5.770   7.719   1.507
23232SOL    HW171137   5.694   7.763   1.545
23232SOL    HW271138   5.768   7.631   1.544
23233SOL     OW71139   6.980   7.503   0.451
23233SOL    HW171140   6.988   7.472   0.361
23233SOL    HW271141   7.069   7.531   0.474
23234SOL     OW71142   7.105   7.668   1.721
23234SOL    HW171143   7.117   7.684   1.815
23234SOL    HW271144   7.031   7.608   1.716
23235SOL     OW71145   6.226   7.571   0.114
23235SOL    HW171146   6.316   7.541   0.111
23235SOL    HW271147   6.207   7.600   0.025
23236SOL     OW71148   6.356   7.726   1.747
23236SOL    HW171149   6.435   7.672   1.745
23236SOL    HW271150   6.309   7.698   1.825
23237SOL     OW71151   6.967   0.011   1.438
23237SOL    HW171152   6.977  -0.021   1.528
23237SOL    HW271153   6.906   0.084   1.445
23238SOL     OW71154   6.147   7.496   0.503
23238SOL    HW171155   6.079   7.503   0.571
23238SOL    HW271156   6.133   7.573   0.447
23239SOL     OW71157   5.878   7.518   0.197
23239SOL    HW171158   5.961   7.565   0.197
23239SOL    HW271159   5.899   7.432   0.235
23240SOL     OW71160   6.558   7.666   0.451
23240SOL    HW171161   6.506   7.708   0.382
23240SOL    HW271162   6.617   7.735   0.482
23241SOL     OW71163   5.678  -0.010   1.380
23241SOL    HW171164   5.757  -0.048   1.419
23241SOL    HW271165   5.669   0.075   1.423
23242SOL     OW71166   6.136   7.638   1.161
23242SOL    HW171167   6.190   7.666   1.235
23242SOL    HW271168   6.046   7.649   1.193
23243SOL     OW71169   6.626   7.461   0.688
23243SOL    HW171170   6.539   7.455   0.649
23243SOL    HW271171   6.617   7.417   0.773
23244SOL     OW71172   7.084   7.952   0.966
23244SOL    HW171173   6.992   7.927   0.974
23244SOL    HW271174   7.104   7.995   1.049
23245SOL     OW71175   6.127   7.706   0.327
23245SOL    HW171176   6.164   7.660   0.252
23245SOL    HW271177   6.152   7.797   0.314
23246SOL     OW71178   6.521   7.521   1.391
23246SOL    HW171179   6.540   7.509   1.299
23246SOL    HW271180   6.597   7.568   1.426
23247SOL     OW71181   6.852   7.812   1.281
23247SOL    HW171182   6.886   7.889   1.326
23247SOL    HW271183   6.760   7.832   1.266
23248SOL     OW71184   6.139   7.929   0.877
23248SOL    HW171185   6.120   8.004   0.820
23248SOL    HW271186   6.213   7.957   0.930
23249SOL     OW71187   6.590   7.584   1.757
23249SOL    HW171188   6.649   7.656   1.737
23249SOL    HW271189   6.638   7.506   1.730
23250SOL     OW71190   6.078   7.476   1.756
23250SOL    HW171191   6.032   7.429   1.686
23250SOL    HW271192   6.023   7.553   1.773
23251SOL     OW71193   5.875   7.657   1.256
23251SOL    HW171194   5.833   7.685   1.337
23251SOL    HW271195   5.853   7.564   1.248
23252SOL     OW71196   6.363   0.095   0.983
23252SOL    HW171197   6.343   0.140   0.902
23252SOL    HW271198   6.300   0.129   1.046
23253SOL     OW71199   5.935   7.533   0.671
23253SOL    HW171200   5.878   7.609   0.678
23253SOL    HW271201   5.882   7.467   0.626
23254SOL     OW71202   7.146   7.804   0.390
23254SOL    HW171203   7.190   7.723   0.417
23254SOL    HW271204   7.181   7.870   0.450
23255SOL     OW71205   7.112   7.652   0.101
23255SOL    HW171206   7.049   7.637   0.172
23255SOL    HW271207   7.156   7.733   0.126
23256SOL     OW71208   5.890   7.987   1.034
23256SOL    HW171209   5.879   7.893   1.019
23256SOL    HW271210   5.970   8.009   0.986
23257SOL     OW71211   6.743   7.810   1.679
23257SOL    HW171212   6.687   7.886   1.696
23257SOL    HW271213   6.832   7.844   1.686
23258SOL     OW71214   6.760   7.633   1.473
23258SOL    HW171215   6.747   7.695   1.543
23258SOL    HW271216   6.798   7.684   1.401
23259SOL     OW71217   5.614   7.952   1.117
23259SOL    HW171218   5.697   7.939   1.070
23259SOL    HW271219   5.639   7.958   1.209
23260SOL     OW71220   5.790   7.946   1.717
23260SOL    HW171221   5.850   7.944   1.642
23260SOL    HW271222   5.756   8.036   1.718
23261SOL     OW71223   6.378   0.029   0.275
23261SOL    HW171224   6.417  -0.058   0.284
23261SOL    HW271225   6.317   0.036   0.348
23262SOL     OW71226   7.216   8.024   1.205
23262SOL    HW171227   7.200   7.961   1.275
23262SOL    HW271228   7.289   7.986   1.156
23263SOL     OW71229   6.499   7.526   0.102
23263SOL    HW171230   6.533   7.528   0.013
23263SOL    HW271231   6.578   7.522   0.157
23264SOL     OW71232   7.253   7.566   0.487
23264SOL    HW171233   7.329   7.619   0.511
23264SOL    HW271234   7.267   7.482   0.532
23265SOL     OW71235   7.429   7.614   0.970
23265SOL    HW171236   7.459   7.530   0.936
23265SOL    HW271237   7.344   7.629   0.929
23266SOL     OW71238   5.830   7.799   0.724
23266SOL    HW171239   5.735   7.804   0.710
23266SOL    HW271240   5.839   7.778   0.817
23267SOL     OW71241   6.606   7.683   0.982
23267SOL    HW171242   6.546   7.663   0.910
23267SOL    HW271243   6.605   7.604   1.036
23268SOL     OW71244   7.319   7.821   1.388
23268SOL    HW171245   7.383   7.893   1.383
23268SOL    HW271246   7.353   7.756   1.326
23269SOL     OW71247   6.253   7.614   1.497
23269SOL    HW171248   6.336   7.631   1.451
23269SOL    HW271249   6.263   7.658   1.582
23270SOL     OW71250   5.637   7.600   0.303
23270SOL    HW171251   5.638   7.694   0.283
23270SOL    HW271252   5.724   7.569   0.279
23271SOL     OW71253   6.369   8.008   1.733
23271SOL    HW171254   6.274   8.024   1.733
23271SOL    HW271255   6.376   7.913   1.721
23272SOL     OW71256   6.823   7.756   0.479
23272SOL    HW171257   6.904   7.760   0.427
23272SOL    HW271258   6.837   7.817   0.551
23273SOL     OW71259   6.230   0.238   0.643
23273SOL    HW171260   6.198   0.326   0.624
23273SOL    HW271261   6.150   0.188   0.662
23274SOL     OW71262   7.338   7.806   1.659
23274SOL    HW171263   7.323   7.822   1.566
23274SOL    HW271264   7.266   7.748   1.685
23275SOL     OW71265   7.414   7.619   1.241
23275SOL    HW171266   7.405   7.524   1.246
23275SOL    HW271267   7.420   7.638   1.147
23276SOL     OW71268   5.937   7.851   0.475
23276SOL    HW171269   5.992   7.779   0.444
23276SOL    HW271270   5.905   7.821   0.560
23277SOL     OW71271   7.015   7.666   1.121
23277SOL    HW171272   7.034   7.587   1.172
23277SOL    HW271273   6.963   7.721   1.180
23278SOL     OW71274   6.599   7.454   1.132
23278SOL    HW171275   6.545   7.393   1.083
23278SOL    HW271276   6.686   7.415   1.132
23279SOL     OW71277   6.950   7.439   0.188
23279SOL    HW171278   6.983   7.449   0.099
23279SOL    HW271279   6.867   7.487   0.188
23280SOL     OW71280   6.885   7.914   0.693
23280SOL    HW171281   6.820   7.984   0.699
23280SOL    HW271282   6.877   7.867   0.776
23281SOL     OW71283   7.168   7.647   0.886
23281SOL    HW171284   7.119   7.673   0.964
23281SOL    HW271285   7.159   7.721   0.826
23282SOL     OW71286   5.823   7.729   2.862
23282SOL    HW171287   5.851   7.684   2.941
23282SOL    HW271288   5.734   7.697   2.846
23283SOL     OW71289   5.562   7.812   2.512
23283SOL    HW171290   5.484   7.859   2.540
23283SOL    HW271291   5.527   7.732   2.471
23284SOL     OW71292   7.337   0.036   2.104
23284SOL    HW171293   7.335   0.036   2.008
23284SOL    HW271294   7.290  -0.044   2.129
23285SOL     OW71295   7.187   7.931   2.563
23285SOL    HW171296   7.099   7.924   2.526
23285SOL    HW271297   7.172   7.958   2.653
23286SOL     OW71298   7.183   7.570   3.327
23286SOL    HW171299   7.202   7.653   3.285
23286SOL    HW271300   7.156   7.593   3.416
23287SOL     OW71301   5.707   0.044   2.486
23287SOL    HW171302   5.663  -0.042   2.489
23287SOL    HW271303   5.641   0.103   2.449
23288SOL     OW71304   6.401   7.428   2.375
23288SOL    HW171305   6.449   7.508   2.353
23288SOL    HW271306   6.310   7.456   2.379
23289SOL     OW71307   5.938   7.714   3.682
23289SOL    HW171308   5.969   7.804   3.669
23289SOL    HW271309   5.843   7.723   3.693
23290SOL     OW71310   6.854   7.800   2.800
23290SOL    HW171311   6.764   7.767   2.808
23290SOL    HW271312   6.906   7.742   2.855
23291SOL     OW71313   6.989   7.935   3.566
23291SOL    HW171314   6.973   7.961   3.657
23291SOL    HW271315   7.036   7.851   3.573
23292SOL     OW71316   6.495   0.343   3.407
23292SOL    HW171317   6.580   0.379   3.428
23292SOL    HW271318   6.487   0.353   3.312
23293SOL     OW71319   6.595   7.828   3.112
23293SOL    HW171320   6.532   7.858   3.177
23293SOL    HW271321   6.548   7.762   3.062
23294SOL     OW71322   6.481   7.789   2.061
23294SOL    HW171323   6.524   7.835   1.988
23294SOL    HW271324   6.509   7.698   2.051
23295SOL     OW71325   7.377   0.035   3.644
23295SOL    HW171326   7.299   0.090   3.638
23295SOL    HW271327   7.355  -0.045   3.596
23296SOL     OW71328   6.158   7.639   2.755
23296SOL    HW171329   6.155   7.658   2.848
23296SOL    HW271330   6.149   7.725   2.712
23297SOL     OW71331   5.818   7.747   3.371
23297SOL    HW171332   5.737   7.788   3.341
23297SOL    HW271333   5.789   7.663   3.407
23298SOL     OW71334   6.995   7.550   2.304
23298SOL    HW171335   6.984   7.528   2.211
23298SOL    HW271336   7.089   7.555   2.316
23299SOL     OW71337   7.106   7.671   3.593
23299SOL    HW171338   7.112   7.693   3.686
23299SOL    HW271339   7.046   7.596   3.590
23300SOL     OW71340   6.235   7.574   1.955
23300SOL    HW171341   6.292   7.501   1.978
23300SOL    HW271342   6.178   7.539   1.887
23301SOL     OW71343   6.352   7.712   3.617
23301SOL    HW171344   6.435   7.664   3.615
23301SOL    HW271345   6.309   7.681   3.697
23302SOL     OW71346   6.961   0.028   3.304
23302SOL    HW171347   6.970  -0.009   3.392
23302SOL    HW271348   6.888   0.089   3.310
23303SOL     OW71349   6.142   7.505   2.359
23303SOL    HW171350   6.063   7.509   2.413
23303SOL    HW271351   6.138   7.583   2.304
23304SOL     OW71352   5.874   7.501   2.044
23304SOL    HW171353   5.929   7.568   2.004
23304SOL    HW271354   5.935   7.441   2.086
23305SOL     OW71355   6.535   7.658   2.323
23305SOL    HW171356   6.494   7.731   2.277
23305SOL    HW271357   6.626   7.684   2.334
23306SOL     OW71358   5.673   0.004   3.273
23306SOL    HW171359   5.746   0.058   3.304
23306SOL    HW271360   5.596   0.061   3.281
23307SOL     OW71361   6.156   7.634   3.035
23307SOL    HW171362   6.192   7.546   3.047
23307SOL    HW271363   6.061   7.623   3.047
23308SOL     OW71364   6.622   7.494   2.604
23308SOL    HW171365   6.558   7.509   2.534
23308SOL    HW271366   6.586   7.421   2.655
23309SOL     OW71367   7.087   7.953   2.816
23309SOL    HW171368   6.996   7.923   2.823
23309SOL    HW271369   7.104   7.995   2.901
23310SOL     OW71370   6.127   7.706   2.175
23310SOL    HW171371   6.167   7.670   2.096
23310SOL    HW271372   6.148   7.799   2.173
23311SOL     OW71373   6.495   7.550   3.252
23311SOL    HW171374   6.522   7.521   3.165
23311SOL    HW271375   6.576   7.581   3.293
23312SOL     OW71376   6.865   7.814   3.149
23312SOL    HW171377   6.894   7.896   3.190
23312SOL    HW271378   6.773   7.829   3.129
23313SOL     OW71379   6.135   7.935   2.714
23313SOL    HW171380   6.093   7.959   2.632
23313SOL    HW271381   6.153   8.018   2.757
23314SOL     OW71382   6.590   7.582   3.614
23314SOL    HW171383   6.652   7.651   3.593
23314SOL    HW271384   6.636   7.501   3.592
23315SOL     OW71385   6.084   7.494   3.607
23315SOL    HW171386   6.032   7.435   3.553
23315SOL    HW271387   6.028   7.570   3.621
23316SOL     OW71388   5.901   7.636   3.125
23316SOL    HW171389   5.820   7.665   3.166
23316SOL    HW271390   5.888   7.543   3.109
23317SOL     OW71391   6.355   0.054   2.915
23317SOL    HW171392   6.372   0.028   2.824
23317SOL    HW271393   6.286   0.119   2.909
23318SOL     OW71394   5.899   7.515   2.482
23318SOL    HW171395   5.864   7.600   2.506
23318SOL    HW271396   5.905   7.467   2.564
23319SOL     OW71397   7.193   7.822   2.217
23319SOL    HW171398   7.220   7.769   2.291
23319SOL    HW271399   7.135   7.889   2.254
23320SOL     OW71400   7.109   7.715   1.982
23320SOL    HW171401   7.045   7.650   2.011
23320SOL    HW271402   7.144   7.752   2.063
23321SOL     OW71403   6.845   0.277   1.850
23321SOL    HW171404   6.819   0.241   1.934
23321SOL    HW271405   6.896   0.355   1.871
23322SOL     OW71406   5.890   7.987   2.912
23322SOL    HW171407   5.881   7.895   2.885
23322SOL    HW271408   5.950   8.025   2.847
23323SOL     OW71409   6.733   7.821   3.541
23323SOL    HW171410   6.674   7.892   3.566
23323SOL    HW271411   6.820   7.859   3.547
23324SOL     OW71412   6.743   7.640   3.333
23324SOL    HW171413   6.736   7.703   3.405
23324SOL    HW271414   6.793   7.687   3.266
23325SOL     OW71415   5.618   7.926   3.005
23325SOL    HW171416   5.692   7.927   2.945
23325SOL    HW271417   5.652   7.961   3.087
23326SOL     OW71418   5.758   7.967   3.589
23326SOL    HW171419   5.755   7.916   3.508
23326SOL    HW271420   5.678   8.020   3.587
23327SOL     OW71421   6.373   0.038   2.113
23327SOL    HW171422   6.415  -0.048   2.113
23327SOL    HW271423   6.315   0.037   2.189
23328SOL     OW71424   7.214   8.019   3.059
23328SOL    HW171425   7.205   7.959   3.133
23328SOL    HW271426   7.287   7.984   3.008
23329SOL     OW71427   6.201   7.891   3.124
23329SOL    HW171428   6.207   7.817   3.063
23329SOL    HW271429   6.254   7.959   3.082
23330SOL     OW71430   7.309   7.602   2.371
23330SOL    HW171431   7.377   7.590   2.305
23330SOL    HW271432   7.295   7.514   2.407
23331SOL     OW71433   7.425   7.607   2.834
23331SOL    HW171434   7.449   7.520   2.803
23331SOL    HW271435   7.340   7.624   2.794
23332SOL     OW71436   5.823   7.756   2.580
23332SOL    HW171437   5.732   7.779   2.564
23332SOL    HW271438   5.831   7.754   2.675
23333SOL     OW71439   6.618   7.666   2.827
23333SOL    HW171440   6.617   7.620   2.743
23333SOL    HW271441   6.605   7.598   2.892
23334SOL     OW71442   7.311   7.829   3.248
23334SOL    HW171443   7.378   7.897   3.246
23334SOL    HW271444   7.345   7.761   3.190
23335SOL     OW71445   6.258   7.651   3.362
23335SOL    HW171446   6.339   7.623   3.320
23335SOL    HW271447   6.283   7.673   3.452
23336SOL     OW71448   5.674   7.774   1.902
23336SOL    HW171449   5.579   7.783   1.897
23336SOL    HW271450   5.708   7.847   1.851
23337SOL     OW71451   5.645   7.597   2.167
23337SOL    HW171452   5.632   7.683   2.126
23337SOL    HW271453   5.728   7.566   2.131
23338SOL     OW71454   6.364   7.976   3.528
23338SOL    HW171455   6.311   8.025   3.590
23338SOL    HW271456   6.358   7.885   3.558
23339SOL     OW71457   6.796   7.740   2.342
23339SOL    HW171458   6.866   7.677   2.326
23339SOL    HW271459   6.834   7.805   2.401
23340SOL     OW71460   6.213   0.255   2.536
23340SOL    HW171461   6.184   0.335   2.493
23340SOL    HW271462   6.142   0.192   2.519
23341SOL     OW71463   7.338   7.802   3.516
23341SOL    HW171464   7.318   7.817   3.423
23341SOL    HW271465   7.269   7.743   3.547
23342SOL     OW71466   7.418   7.633   3.104
23342SOL    HW171467   7.468   7.554   3.124
23342SOL    HW271468   7.415   7.636   3.009
23343SOL     OW71469   5.978   7.852   2.372
23343SOL    HW171470   5.996   7.773   2.321
23343SOL    HW271471   5.921   7.822   2.443
23344SOL     OW71472   7.014   7.663   2.982
23344SOL    HW171473   7.019   7.579   3.027
23344SOL    HW271474   6.969   7.720   3.043
23345SOL     OW71475   6.587   7.457   3.009
23345SOL    HW171476   6.527   7.387   2.983
23345SOL    HW271477   6.674   7.417   3.004
23346SOL     OW71478   6.946   7.498   2.035
23346SOL    HW171479   6.978   7.425   1.982
23346SOL    HW271480   6.856   7.474   2.057
23347SOL     OW71481   6.903   7.901   2.546
23347SOL    HW171482   6.851   7.981   2.541
23347SOL    HW271483   6.884   7.864   2.632
23348SOL     OW71484   7.169   7.649   2.751
23348SOL    HW171485   7.118   7.667   2.830
23348SOL    HW271486   7.152   7.724   2.695
23349SOL     OW71487   5.819   7.722   4.722
23349SOL    HW171488   5.845   7.688   4.807
23349SOL    HW271489   5.729   7.691   4.710
23350SOL     OW71490   5.564   7.812   4.379
23350SOL    HW171491   5.481   7.851   4.406
23350SOL    HW271492   5.538   7.733   4.331
23351SOL     OW71493   7.244   0.030   3.907
23351SOL    HW171494   7.324   0.036   3.854
23351SOL    HW271495   7.274  -0.002   3.992
23352SOL     OW71496   6.028   7.857   5.261
23352SOL    HW171497   6.105   7.811   5.226
23352SOL    HW271498   5.954   7.801   5.239
23353SOL     OW71499   7.186   7.918   4.427
23353SOL    HW171500   7.095   7.908   4.399
23353SOL    HW271501   7.181   7.955   4.515
23354SOL     OW71502   7.177   7.578   5.186
23354SOL    HW171503   7.214   7.657   5.146
23354SOL    HW271504   7.154   7.605   5.275
23355SOL     OW71505   5.664   0.063   4.322
23355SOL    HW171506   5.636  -0.027   4.342
23355SOL    HW271507   5.658   0.108   4.406
23356SOL     OW71508   6.403   7.432   4.242
23356SOL    HW171509   6.448   7.512   4.216
23356SOL    HW271510   6.310   7.457   4.245
23357SOL     OW71511   5.908   7.696   5.533
23357SOL    HW171512   5.933   7.785   5.509
23357SOL    HW271513   5.823   7.705   5.575
23358SOL     OW71514   6.845   7.802   4.659
23358SOL    HW171515   6.757   7.765   4.670
23358SOL    HW271516   6.902   7.745   4.710
23359SOL     OW71517   6.993   7.918   5.419
23359SOL    HW171518   7.051   7.966   5.478
23359SOL    HW271519   7.032   7.831   5.412
23360SOL     OW71520   6.488   0.355   5.252
23360SOL    HW171521   6.570   0.371   5.299
23360SOL    HW271522   6.470   0.438   5.208
23361SOL     OW71523   6.561   7.820   4.964
23361SOL    HW171524   6.489   7.838   5.023
23361SOL    HW271525   6.529   7.749   4.908
23362SOL     OW71526   6.484   7.785   3.915
23362SOL    HW171527   6.533   7.806   3.835
23362SOL    HW271528   6.502   7.693   3.930
23363SOL     OW71529   7.259   0.028   5.499
23363SOL    HW171530   7.321   0.090   5.537
23363SOL    HW271531   7.313  -0.043   5.465
23364SOL     OW71532   6.145   7.635   4.628
23364SOL    HW171533   6.145   7.655   4.721
23364SOL    HW271534   6.137   7.721   4.585
23365SOL     OW71535   5.785   7.725   5.228
23365SOL    HW171536   5.700   7.763   5.203
23365SOL    HW271537   5.776   7.706   5.321
23366SOL     OW71538   6.984   7.547   4.164
23366SOL    HW171539   6.977   7.522   4.072
23366SOL    HW271540   7.078   7.551   4.181
23367SOL     OW71541   7.111   7.667   5.457
23367SOL    HW171542   7.112   7.695   5.548
23367SOL    HW271543   7.055   7.589   5.457
23368SOL     OW71544   6.232   7.561   3.825
23368SOL    HW171545   6.275   7.481   3.855
23368SOL    HW271546   6.179   7.534   3.750
23369SOL     OW71547   6.355   7.708   5.478
23369SOL    HW171548   6.437   7.657   5.477
23369SOL    HW271549   6.309   7.675   5.555
23370SOL     OW71550   6.928  -0.007   5.151
23370SOL    HW171551   6.969  -0.027   5.235
23370SOL    HW271552   6.897   0.083   5.160
23371SOL     OW71553   6.142   7.512   4.220
23371SOL    HW171554   6.063   7.516   4.273
23371SOL    HW271555   6.139   7.591   4.166
23372SOL     OW71556   5.875   7.547   3.918
23372SOL    HW171557   5.935   7.567   3.847
23372SOL    HW271558   5.916   7.475   3.965
23373SOL     OW71559   6.534   7.665   4.186
23373SOL    HW171560   6.491   7.745   4.154
23373SOL    HW271561   6.627   7.688   4.192
23374SOL     OW71562   5.675  -0.007   5.110
23374SOL    HW171563   5.765   0.017   5.133
23374SOL    HW271564   5.623   0.071   5.130
23375SOL     OW71565   6.149   7.677   4.902
23375SOL    HW171566   6.188   7.602   4.947
23375SOL    HW271567   6.057   7.675   4.927
23376SOL     OW71568   6.612   7.498   4.465
23376SOL    HW171569   6.552   7.504   4.391
23376SOL    HW271570   6.579   7.425   4.517
23377SOL     OW71571   7.087   7.949   4.680
23377SOL    HW171572   6.996   7.923   4.697
23377SOL    HW271573   7.117   7.988   4.761
23378SOL     OW71574   6.142   7.722   4.042
23378SOL    HW171575   6.176   7.678   3.964
23378SOL    HW271576   6.172   7.812   4.034
23379SOL     OW71577   6.505   7.540   5.115
23379SOL    HW171578   6.530   7.513   5.027
23379SOL    HW271579   6.585   7.575   5.154
23380SOL     OW71580   6.837   7.798   4.993
23380SOL    HW171581   6.870   7.872   5.044
23380SOL    HW271582   6.744   7.816   4.983
23381SOL     OW71583   6.127   7.926   4.588
23381SOL    HW171584   6.099   7.986   4.519
23381SOL    HW271585   6.201   7.970   4.630
23382SOL     OW71586   6.591   7.579   5.477
23382SOL    HW171587   6.652   7.649   5.455
23382SOL    HW271588   6.638   7.499   5.454
23383SOL     OW71589   6.079   7.487   5.474
23383SOL    HW171590   6.033   7.431   5.412
23383SOL    HW271591   6.021   7.563   5.485
23384SOL     OW71592   5.889   7.643   4.979
23384SOL    HW171593   5.847   7.671   5.060
23384SOL    HW271594   5.875   7.548   4.976
23385SOL     OW71595   6.333   0.056   4.725
23385SOL    HW171596   6.410   0.061   4.668
23385SOL    HW271597   6.285   0.136   4.706
23386SOL     OW71598   5.899   7.518   4.352
23386SOL    HW171599   5.871   7.607   4.377
23386SOL    HW271600   5.907   7.472   4.436
23387SOL     OW71601   7.192   7.805   4.106
23387SOL    HW171602   7.239   7.735   4.152
23387SOL    HW271603   7.172   7.869   4.175
23388SOL     OW71604   7.089   7.736   3.857
23388SOL    HW171605   7.038   7.658   3.879
23388SOL    HW271606   7.133   7.760   3.939
23389SOL     OW71607   6.842   0.249   3.736
23389SOL    HW171608   6.885   0.181   3.789
23389SOL    HW271609   6.875   0.332   3.772
23390SOL     OW71610   5.896   7.976   4.760
23390SOL    HW171611   5.882   7.883   4.745
23390SOL    HW271612   5.973   7.998   4.707
23391SOL     OW71613   6.730   7.821   5.410
23391SOL    HW171614   6.670   7.889   5.442
23391SOL    HW271615   6.817   7.862   5.414
23392SOL     OW71616   6.747   7.638   5.200
23392SOL    HW171617   6.741   7.705   5.268
23392SOL    HW271618   6.791   7.682   5.127
23393SOL     OW71619   5.625   7.949   4.835
23393SOL    HW171620   5.712   7.944   4.796
23393SOL    HW271621   5.641   7.954   4.929
23394SOL     OW71622   5.788   7.954   5.442
23394SOL    HW171623   5.814   7.965   5.350
23394SOL    HW271624   5.728   8.026   5.459
23395SOL     OW71625   6.373   8.023   3.980
23395SOL    HW171626   6.416   7.939   3.962
23395SOL    HW271627   6.372   8.029   4.076
23396SOL     OW71628   7.215   8.023   4.914
23396SOL    HW171629   7.202   7.992   5.004
23396SOL    HW271630   7.291   7.973   4.883
23397SOL     OW71631   6.262   7.931   4.963
23397SOL    HW171632   6.220   7.847   4.945
23397SOL    HW271633   6.291   7.962   4.877
23398SOL     OW71634   7.323   7.600   4.234
23398SOL    HW171635   7.392   7.582   4.170
23398SOL    HW271636   7.301   7.514   4.270
23399SOL     OW71637   7.424   7.613   4.688
23399SOL    HW171638   7.451   7.525   4.660
23399SOL    HW271639   7.338   7.625   4.648
23400SOL     OW71640   5.830   7.775   4.447
23400SOL    HW171641   5.736   7.788   4.436
23400SOL    HW271642   5.842   7.762   4.541
23401SOL     OW71643   6.610   7.668   4.689
23401SOL    HW171644   6.607   7.623   4.604
23401SOL    HW271645   6.604   7.597   4.754
23402SOL     OW71646   7.321   7.821   5.118
23402SOL    HW171647   7.386   7.891   5.114
23402SOL    HW271648   7.352   7.756   5.054
23403SOL     OW71649   6.266   7.640   5.220
23403SOL    HW171650   6.351   7.615   5.183
23403SOL    HW271651   6.286   7.666   5.310
23404SOL     OW71652   5.679   7.783   3.775
23404SOL    HW171653   5.595   7.755   3.738
23404SOL    HW271654   5.699   7.865   3.731
23405SOL     OW71655   6.346   7.966   5.391
23405SOL    HW171656   6.266   7.990   5.437
23405SOL    HW271657   6.361   7.875   5.414
23406SOL     OW71658   6.797   7.751   4.195
23406SOL    HW171659   6.861   7.682   4.181
23406SOL    HW271660   6.836   7.807   4.261
23407SOL     OW71661   6.228   0.214   4.352
23407SOL    HW171662   6.246   0.308   4.359
23407SOL    HW271663   6.148   0.201   4.403
23408SOL     OW71664   7.351   7.789   5.387
23408SOL    HW171665   7.335   7.811   5.295
23408SOL    HW271666   7.273   7.740   5.413
23409SOL     OW71667   7.401   7.621   4.959
23409SOL    HW171668   7.410   7.526   4.967
23409SOL    HW271669   7.409   7.638   4.866
23410SOL     OW71670   5.899   7.785   4.181
23410SOL    HW171671   5.993   7.790   4.169
23410SOL    HW271672   5.887   7.791   4.276
23411SOL     OW71673   7.013   7.667   4.835
23411SOL    HW171674   7.040   7.589   4.884
23411SOL    HW271675   6.957   7.715   4.897
23412SOL     OW71676   6.592   7.454   4.866
23412SOL    HW171677   6.536   7.389   4.825
23412SOL    HW271678   6.680   7.416   4.863
23413SOL     OW71679   6.952   7.494   3.892
23413SOL    HW171680   6.991   7.417   3.850
23413SOL    HW271681   6.862   7.469   3.909
23414SOL     OW71682   6.907   7.898   4.405
23414SOL    HW171683   6.872   7.986   4.408
23414SOL    HW271684   6.887   7.861   4.491
23415SOL     OW71685   7.167   7.652   4.606
23415SOL    HW171686   7.116   7.670   4.685
23415SOL    HW271687   7.160   7.731   4.554
23416SOL     OW71688   5.822   7.728   6.574
23416SOL    HW171689   5.871   7.646   6.582
23416SOL    HW271690   5.730   7.701   6.571
23417SOL     OW71691   5.573   7.803   6.239
23417SOL    HW171692   5.495   7.850   6.268
23417SOL    HW271693   5.540   7.727   6.190
23418SOL     OW71694   7.250   0.036   5.805
23418SOL    HW171695   7.326   0.065   5.756
23418SOL    HW271696   7.272  -0.052   5.835
23419SOL     OW71697   6.025   7.863   7.129
23419SOL    HW171698   6.106   7.832   7.087
23419SOL    HW271699   5.959   7.798   7.104
23420SOL     OW71700   7.182   7.921   6.294
23420SOL    HW171701   7.090   7.915   6.266
23420SOL    HW271702   7.178   7.957   6.382
23421SOL     OW71703   7.195   7.568   7.059
23421SOL    HW171704   7.178   7.651   7.015
23421SOL    HW271705   7.154   7.578   7.144
23422SOL     OW71706   5.621   0.084   6.242
23422SOL    HW171707   5.643  -0.003   6.210
23422SOL    HW271708   5.701   0.136   6.228
23423SOL     OW71709   6.404   7.438   6.104
23423SOL    HW171710   6.450   7.518   6.080
23423SOL    HW271711   6.312   7.462   6.106
23424SOL     OW71712   5.916   7.695   7.407
23424SOL    HW171713   5.956   7.781   7.392
23424SOL    HW271714   5.827   7.715   7.435
23425SOL     OW71715   6.851   7.801   6.517
23425SOL    HW171716   6.763   7.764   6.528
23425SOL    HW271717   6.908   7.743   6.568
23426SOL     OW71718   7.002   7.938   7.272
23426SOL    HW171719   6.952   7.936   7.354
23426SOL    HW271720   7.040   7.850   7.266
23427SOL     OW71721   6.500   0.392   7.106
23427SOL    HW171722   6.577   0.337   7.095
23427SOL    HW271723   6.433   0.352   7.051
23428SOL     OW71724   6.585   7.823   6.823
23428SOL    HW171725   6.520   7.814   6.893
23428SOL    HW271726   6.561   7.757   6.759
23429SOL     OW71727   6.485   7.774   5.787
23429SOL    HW171728   6.507   7.820   5.706
23429SOL    HW271729   6.509   7.683   5.771
23430SOL     OW71730   7.343   0.027   7.401
23430SOL    HW171731   7.275   0.088   7.372
23430SOL    HW271732   7.332  -0.050   7.344
23431SOL     OW71733   6.120   7.632   6.496
23431SOL    HW171734   6.128   7.650   6.589
23431SOL    HW271735   6.128   7.719   6.454
23432SOL     OW71736   5.775   7.719   7.099
23432SOL    HW171737   5.737   7.807   7.098
23432SOL    HW271738   5.761   7.687   7.188
23433SOL     OW71739   6.987   7.553   6.023
23433SOL    HW171740   6.977   7.526   5.932
23433SOL    HW271741   7.078   7.530   6.045
23434SOL     OW71742   7.105   7.681   7.312
23434SOL    HW171743   7.106   7.698   7.406
23434SOL    HW271744   7.033   7.619   7.300
23435SOL     OW71745   6.231   7.561   5.687
23435SOL    HW171746   6.279   7.483   5.714
23435SOL    HW271747   6.176   7.531   5.614
23436SOL     OW71748   6.332   7.720   7.332
23436SOL    HW171749   6.419   7.681   7.334
23436SOL    HW271750   6.291   7.690   7.413
23437SOL     OW71751   6.952   0.029   7.017
23437SOL    HW171752   6.972  -0.007   7.103
23437SOL    HW271753   6.881   0.091   7.032
23438SOL     OW71754   6.141   7.508   6.082
23438SOL    HW171755   6.061   7.510   6.134
23438SOL    HW271756   6.136   7.586   6.028
23439SOL     OW71757   5.867   7.493   5.756
23439SOL    HW171758   5.928   7.554   5.715
23439SOL    HW271759   5.924   7.430   5.801
23440SOL     OW71760   6.535   7.667   6.045
23440SOL    HW171761   6.505   7.727   5.976
23440SOL    HW271762   6.626   7.694   6.061
23441SOL     OW71763   5.685  -0.007   6.985
23441SOL    HW171764   5.771   0.007   7.024
23441SOL    HW271765   5.636   0.074   7.005
23442SOL     OW71766   6.144   7.640   6.777
23442SOL    HW171767   6.167   7.548   6.782
23442SOL    HW271768   6.161   7.674   6.865
23443SOL     OW71769   6.606   7.499   6.329
23443SOL    HW171770   6.549   7.497   6.253
23443SOL    HW271771   6.581   7.422   6.380
23444SOL     OW71772   7.084   7.957   6.547
23444SOL    HW171773   6.996   7.920   6.554
23444SOL    HW271774   7.100   7.997   6.632
23445SOL     OW71775   6.129   7.714   5.901
23445SOL    HW171776   6.163   7.665   5.826
23445SOL    HW271777   6.169   7.801   5.893
23446SOL     OW71778   6.483   7.578   6.958
23446SOL    HW171779   6.514   7.530   6.882
23446SOL    HW271780   6.563   7.605   7.004
23447SOL     OW71781   6.861   7.810   6.865
23447SOL    HW171782   6.890   7.890   6.907
23447SOL    HW271783   6.767   7.821   6.853
23448SOL     OW71784   6.131   7.915   6.448
23448SOL    HW171785   6.095   7.972   6.380
23448SOL    HW271786   6.193   7.970   6.496
23449SOL     OW71787   6.574   7.611   7.368
23449SOL    HW171788   6.627   7.690   7.355
23449SOL    HW271789   6.635   7.539   7.354
23450SOL     OW71790   6.082   7.487   7.340
23450SOL    HW171791   6.038   7.431   7.276
23450SOL    HW271792   6.022   7.561   7.351
23451SOL     OW71793   6.337   0.063   6.605
23451SOL    HW171794   6.394   0.086   6.531
23451SOL    HW271795   6.276   0.135   6.611
23452SOL     OW71796   5.899   7.510   6.213
23452SOL    HW171797   5.870   7.599   6.234
23452SOL    HW271798   5.908   7.467   6.298
23453SOL     OW71799   7.207   7.813   5.976
23453SOL    HW171800   7.244   7.730   6.007
23453SOL    HW271801   7.202   7.868   6.054
23454SOL     OW71802   7.078   7.741   5.723
23454SOL    HW171803   7.030   7.661   5.742
23454SOL    HW271804   7.124   7.761   5.804
23455SOL     OW71805   6.849   0.224   5.603
23455SOL    HW171806   6.932   0.234   5.649
23455SOL    HW271807   6.832   0.311   5.566
23456SOL     OW71808   5.887   7.993   6.634
23456SOL    HW171809   5.885   7.900   6.610
23456SOL    HW271810   5.957   8.030   6.581
23457SOL     OW71811   6.713   7.851   7.347
23457SOL    HW171812   6.675   7.938   7.345
23457SOL    HW271813   6.757   7.842   7.262
23458SOL     OW71814   6.719   7.661   7.071
23458SOL    HW171815   6.760   7.608   7.140
23458SOL    HW271816   6.790   7.681   7.010
23459SOL     OW71817   5.619   7.919   6.730
23459SOL    HW171818   5.690   7.937   6.668
23459SOL    HW271819   5.652   7.952   6.813
23460SOL     OW71820   5.776   7.957   7.274
23460SOL    HW171821   5.871   7.959   7.261
23460SOL    HW271822   5.755   8.042   7.312
23461SOL     OW71823   6.375   0.026   5.824
23461SOL    HW171824   6.421  -0.057   5.837
23461SOL    HW271825   6.329   0.041   5.906
23462SOL     OW71826   7.217   8.025   6.792
23462SOL    HW171827   7.208   7.956   6.858
23462SOL    HW271828   7.287   7.994   6.734
23463SOL     OW71829   6.253   7.906   6.814
23463SOL    HW171830   6.217   7.831   6.766
23463SOL    HW271831   6.289   7.962   6.745
23464SOL     OW71832   7.327   7.599   6.094
23464SOL    HW171833   7.394   7.579   6.028
23464SOL    HW271834   7.302   7.513   6.128
23465SOL     OW71835   7.436   7.630   6.543
23465SOL    HW171836   7.459   7.539   6.524
23465SOL    HW271837   7.347   7.640   6.510
23466SOL     OW71838   5.832   7.760   6.297
23466SOL    HW171839   5.740   7.778   6.281
23466SOL    HW271840   5.842   7.767   6.392
23467SOL     OW71841   6.615   7.666   6.554
23467SOL    HW171842   6.610   7.623   6.468
23467SOL    HW271843   6.608   7.594   6.617
23468SOL     OW71844   7.320   7.833   6.977
23468SOL    HW171845   7.389   7.898   6.969
23468SOL    HW271846   7.347   7.761   6.920
23469SOL     OW71847   6.246   7.652   7.073
23469SOL    HW171848   6.331   7.634   7.032
23469SOL    HW271849   6.268   7.676   7.163
23470SOL     OW71850   5.660   7.772   5.633
23470SOL    HW171851   5.586   7.775   5.572
23470SOL    HW271852   5.699   7.859   5.629
23471SOL     OW71853   5.648   7.601   5.881
23471SOL    HW171854   5.633   7.678   5.826
23471SOL    HW271855   5.731   7.565   5.848
23472SOL     OW71856   6.358   7.989   7.264
23472SOL    HW171857   6.300   8.019   7.334
23472SOL    HW271858   6.357   7.894   7.270
23473SOL     OW71859   6.798   7.752   6.064
23473SOL    HW171860   6.865   7.686   6.046
23473SOL    HW271861   6.838   7.811   6.128
23474SOL     OW71862   6.223   0.253   6.280
23474SOL    HW171863   6.212   0.338   6.237
23474SOL    HW271864   6.156   0.198   6.240
23475SOL     OW71865   7.338   7.805   7.249
23475SOL    HW171866   7.329   7.819   7.155
23475SOL    HW271867   7.266   7.746   7.272
23476SOL     OW71868   7.425   7.642   6.824
23476SOL    HW171869   7.399   7.550   6.830
23476SOL    HW271870   7.426   7.660   6.730
23477SOL     OW71871   5.962   7.865   6.078
23477SOL    HW171872   5.999   7.796   6.023
23477SOL    HW271873   5.920   7.817   6.151
23478SOL     OW71874   7.014   7.661   6.686
23478SOL    HW171875   7.022   7.569   6.709
23478SOL    HW271876   6.968   7.701   6.760
23479SOL     OW71877   6.587   7.451   6.728
23479SOL    HW171878   6.538   7.385   6.679
23479SOL    HW271879   6.676   7.417   6.731
23480SOL     OW71880   6.951   7.495   5.753
23480SOL    HW171881   6.990   7.417   5.713
23480SOL    HW271882   6.860   7.469   5.770
23481SOL     OW71883   6.901   7.915   6.270
23481SOL    HW171884   6.837   7.987   6.272
23481SOL    HW271885   6.886   7.869   6.353
23482SOL     OW71886   7.182   7.665   6.466
23482SOL    HW171887   7.124   7.667   6.542
23482SOL    HW271888   7.158   7.744   6.417
23483SOL     OW71889   5.821   7.724   8.444
23483SOL    HW171890   5.846   7.692   8.530
23483SOL    HW271891   5.730   7.698   8.434
23484SOL     OW71892   5.564   7.822   8.099
23484SOL    HW171893   5.482   7.860   8.131
23484SOL    HW271894   5.537   7.741   8.056
23485SOL     OW71895   7.291   0.033   7.681
23485SOL    HW171896   7.322   0.025   7.590
23485SOL    HW271897   7.271  -0.057   7.707
23486SOL     OW71898   6.033   7.849   8.987
23486SOL    HW171899   6.103   7.810   8.934
23486SOL    HW271900   5.956   7.795   8.968
23487SOL     OW71901   7.190   7.930   8.154
23487SOL    HW171902   7.101   7.918   8.122
23487SOL    HW271903   7.179   7.965   8.243
23488SOL     OW71904   7.177   7.573   8.917
23488SOL    HW171905   7.196   7.660   8.880
23488SOL    HW271906   7.147   7.591   9.006
23489SOL     OW71907   5.716   0.051   8.091
23489SOL    HW171908   5.659  -0.025   8.081
23489SOL    HW271909   5.656   0.126   8.096
23490SOL     OW71910   6.405   7.440   7.970
23490SOL    HW171911   6.449   7.519   7.941
23490SOL    HW271912   6.312   7.463   7.973
23491SOL     OW71913   5.930   7.704   9.276
23491SOL    HW171914   5.968   7.791   9.269
23491SOL    HW271915   5.838   7.719   9.300
23492SOL     OW71916   6.849   7.804   8.384
23492SOL    HW171917   6.761   7.767   8.394
23492SOL    HW271918   6.904   7.748   8.438
23493SOL     OW71919   6.993   7.928   9.146
23493SOL    HW171920   6.975   7.950   9.238
23493SOL    HW271921   7.036   7.842   9.151
23494SOL     OW71922   6.514   0.400   8.952
23494SOL    HW171923   6.566   0.324   8.929
23494SOL    HW271924   6.424   0.373   8.937
23495SOL     OW71925   6.587   7.830   8.685
23495SOL    HW171926   6.502   7.843   8.729
23495SOL    HW271927   6.569   7.766   8.617
23496SOL     OW71928   6.495   7.776   7.637
23496SOL    HW171929   6.539   7.826   7.569
23496SOL    HW271930   6.512   7.684   7.615
23497SOL     OW71931   7.390   0.032   9.229
23497SOL    HW171932   7.309   0.079   9.246
23497SOL    HW271933   7.363  -0.047   9.183
23498SOL     OW71934   6.136   7.630   8.340
23498SOL    HW171935   6.137   7.656   8.432
23498SOL    HW271936   6.136   7.712   8.291
23499SOL     OW71937   5.786   7.721   8.954
23499SOL    HW171938   5.699   7.752   8.929
23499SOL    HW271939   5.770   7.634   8.990
23500SOL     OW71940   6.986   7.547   7.880
23500SOL    HW171941   6.968   7.529   7.788
23500SOL    HW271942   7.079   7.527   7.891
23501SOL     OW71943   7.108   7.667   9.184
23501SOL    HW171944   7.129   7.703   9.270
23501SOL    HW271945   7.045   7.597   9.202
23502SOL     OW71946   6.230   7.560   7.553
23502SOL    HW171947   6.298   7.493   7.565
23502SOL    HW271948   6.178   7.529   7.478
23503SOL     OW71949   6.349   7.734   9.193
23503SOL    HW171950   6.431   7.684   9.188
23503SOL    HW271951   6.306   7.702   9.272
23504SOL     OW71952   6.952   0.023   8.886
23504SOL    HW171953   6.969  -0.013   8.973
23504SOL    HW271954   6.880   0.084   8.899
23505SOL     OW71955   6.141   7.505   7.948
23505SOL    HW171956   6.062   7.511   8.002
23505SOL    HW271957   6.137   7.582   7.891
23506SOL     OW71958   5.873   7.491   7.630
23506SOL    HW171959   5.924   7.557   7.584
23506SOL    HW271960   5.939   7.434   7.671
23507SOL     OW71961   6.531   7.670   7.901
23507SOL    HW171962   6.508   7.723   7.824
23507SOL    HW271963   6.622   7.693   7.920
23508SOL     OW71964   5.672  -0.014   8.829
23508SOL    HW171965   5.751  -0.003   8.881
23508SOL    HW271966   5.632   0.072   8.828
23509SOL     OW71967   6.143   7.676   8.612
23509SOL    HW171968   6.183   7.593   8.639
23509SOL    HW271969   6.053   7.672   8.644
23510SOL     OW71970   6.605   7.502   8.193
23510SOL    HW171971   6.548   7.503   8.116
23510SOL    HW271972   6.577   7.425   8.243
23511SOL     OW71973   7.079   7.963   8.404
23511SOL    HW171974   6.991   7.927   8.413
23511SOL    HW271975   7.103   7.989   8.493
23512SOL     OW71976   6.127   7.705   7.762
23512SOL    HW171977   6.162   7.656   7.688
23512SOL    HW271978   6.168   7.791   7.756
23513SOL     OW71979   6.498   7.575   8.821
23513SOL    HW171980   6.525   7.529   8.742
23513SOL    HW271981   6.580   7.596   8.866
23514SOL     OW71982   6.856   7.807   8.737
23514SOL    HW171983   6.887   7.888   8.777
23514SOL    HW271984   6.763   7.824   8.719
23515SOL     OW71985   6.126   7.915   8.291
23515SOL    HW171986   6.085   7.966   8.221
23515SOL    HW271987   6.169   7.981   8.346
23516SOL     OW71988   6.574   7.587   9.199
23516SOL    HW171989   6.650   7.646   9.198
23516SOL    HW271990   6.612   7.500   9.191
23517SOL     OW71991   6.085   7.494   9.199
23517SOL    HW171992   6.031   7.431   9.151
23517SOL    HW271993   6.028   7.569   9.214
23518SOL     OW71994   5.889   7.639   8.702
23518SOL    HW171995   5.847   7.671   8.781
23518SOL    HW271996   5.868   7.545   8.699
23519SOL     OW71997   6.357   0.057   8.475
23519SOL    HW171998   6.398   0.052   8.388
23519SOL    HW271999   6.282   0.115   8.462
23520SOL     OW72000   5.896   7.510   8.078
23520SOL    HW172001   5.870   7.599   8.101
23520SOL    HW272002   5.907   7.465   8.162
23521SOL     OW72003   7.203   7.800   7.816
23521SOL    HW172004   7.245   7.733   7.870
23521SOL    HW272005   7.144   7.846   7.876
23522SOL     OW72006   7.075   7.743   7.578
23522SOL    HW172007   7.021   7.665   7.593
23522SOL    HW272008   7.125   7.752   7.659
23523SOL     OW72009   6.861   0.227   7.498
23523SOL    HW172010   6.943   0.231   7.548
23523SOL    HW272011   6.842   0.319   7.477
23524SOL     OW72012   5.894   7.985   8.490
23524SOL    HW172013   5.893   7.893   8.464
23524SOL    HW272014   5.959   8.026   8.432
23525SOL     OW72015   6.730   7.831   9.126
23525SOL    HW172016   6.684   7.910   9.153
23525SOL    HW272017   6.823   7.854   9.134
23526SOL     OW72018   6.745   7.635   8.931
23526SOL    HW172019   6.733   7.701   8.999
23526SOL    HW272020   6.795   7.680   8.863
23527SOL     OW72021   5.627   7.941   8.557
23527SOL    HW172022   5.715   7.947   8.519
23527SOL    HW272023   5.642   7.949   8.651
23528SOL     OW72024   5.782   7.995   9.119
23528SOL    HW172025   5.807   7.907   9.092
23528SOL    HW272026   5.689   7.989   9.140
23529SOL     OW72027   6.370   8.017   7.695
23529SOL    HW172028   6.421   7.936   7.697
23529SOL    HW272029   6.325   8.019   7.780
23530SOL     OW72030   7.214   8.019   8.645
23530SOL    HW172031   7.204   7.957   8.718
23530SOL    HW272032   7.288   7.985   8.595
23531SOL     OW72033   6.303   7.889   8.692
23531SOL    HW172034   6.243   7.820   8.663
23531SOL    HW272035   6.311   7.947   8.617
23532SOL     OW72036   7.327   7.601   7.962
23532SOL    HW172037   7.391   7.584   7.893
23532SOL    HW272038   7.301   7.514   7.993
23533SOL     OW72039   7.431   7.618   8.412
23533SOL    HW172040   7.452   7.528   8.387
23533SOL    HW272041   7.344   7.633   8.374
23534SOL     OW72042   5.831   7.755   8.166
23534SOL    HW172043   5.744   7.793   8.153
23534SOL    HW272044   5.843   7.753   8.261
23535SOL     OW72045   6.614   7.669   8.420
23535SOL    HW172046   6.607   7.629   8.334
23535SOL    HW272047   6.606   7.596   8.481
23536SOL     OW72048   7.312   7.824   8.830
23536SOL    HW172049   7.380   7.890   8.828
23536SOL    HW272050   7.344   7.754   8.773
23537SOL     OW72051   6.263   7.613   8.952
23537SOL    HW172052   6.344   7.617   8.901
23537SOL    HW272053   6.281   7.667   9.029
23538SOL     OW72054   5.658   7.769   7.475
23538SOL    HW172055   5.591   7.762   7.407
23538SOL    HW272056   5.681   7.861   7.477
23539SOL     OW72057   5.634   7.550   7.752
23539SOL    HW172058   5.609   7.628   7.703
23539SOL    HW272059   5.724   7.533   7.727
23540SOL     OW72060   6.360   8.014   9.167
23540SOL    HW172061   6.265   8.026   9.167
23540SOL    HW272062   6.372   7.919   9.165
23541SOL     OW72063   6.794   7.743   7.931
23541SOL    HW172064   6.859   7.677   7.905
23541SOL    HW272065   6.840   7.800   7.992
23542SOL     OW72066   6.209   0.266   8.134
23542SOL    HW172067   6.192   0.330   8.065
23542SOL    HW272068   6.150   0.193   8.114
23543SOL     OW72069   7.334   7.803   9.100
23543SOL    HW172070   7.317   7.817   9.007
23543SOL    HW272071   7.267   7.741   9.128
23544SOL     OW72072   7.408   7.623   8.684
23544SOL    HW172073   7.400   7.528   8.693
23544SOL    HW272074   7.418   7.636   8.589
23545SOL     OW72075   5.974   7.858   7.948
23545SOL    HW172076   6.005   7.782   7.898
23545SOL    HW272077   5.928   7.820   8.023
23546SOL     OW72078   7.012   7.670   8.559
23546SOL    HW172079   7.021   7.579   8.590
23546SOL    HW272080   6.965   7.714   8.629
23547SOL     OW72081   6.591   7.450   8.587
23547SOL    HW172082   6.539   7.386   8.538
23547SOL    HW272083   6.679   7.413   8.590
23548SOL     OW72084   6.925   7.514   7.612
23548SOL    HW172085   6.919   7.504   7.517
23548SOL    HW272086   6.849   7.466   7.646
23549SOL     OW72087   6.915   7.897   8.129
23549SOL    HW172088   6.869   7.980   8.120
23549SOL    HW272089   6.889   7.864   8.215
23550SOL     OW72090   7.174   7.657   8.333
23550SOL    HW172091   7.119   7.672   8.410
23550SOL    HW272092   7.154   7.731   8.275
23551SOL     OW72093   5.813   7.719  10.304
23551SOL    HW172094   5.844   7.690  10.389
23551SOL    HW272095   5.724   7.683  10.298
23552SOL     OW72096   5.567   7.827   9.956
23552SOL    HW172097   5.486   7.865   9.988
23552SOL    HW272098   5.540   7.745   9.915
23553SOL     OW72099   7.248   0.036   9.504
23553SOL    HW172100   7.341   0.061   9.499
23553SOL    HW272101   7.243  -0.022   9.580
23554SOL     OW72102   6.046   7.815  10.890
23554SOL    HW172103   6.114   7.769  10.842
23554SOL    HW272104   5.965   7.793  10.844
23555SOL     OW72105   7.177   7.945   9.994
23555SOL    HW172106   7.083   7.926   9.988
23555SOL    HW272107   7.188   7.983  10.081
23556SOL     OW72108   7.183   7.569  10.779
23556SOL    HW172109   7.190   7.639  10.714
23556SOL    HW272110   7.151   7.613  10.858
23557SOL     OW72111   5.659   0.087   9.881
23557SOL    HW172112   5.644  -0.007   9.898
23557SOL    HW272113   5.695   0.120   9.964
23558SOL     OW72114   6.413   7.457   9.827
23558SOL    HW172115   6.452   7.541   9.805
23558SOL    HW272116   6.319   7.475   9.836
23559SOL     OW72117   5.938   7.720  11.141
23559SOL    HW172118   5.960   7.753  11.055
23559SOL    HW272119   5.842   7.718  11.143
23560SOL     OW72120   6.862   7.787  10.239
23560SOL    HW172121   6.775   7.751  10.258
23560SOL    HW272122   6.921   7.740  10.299
23561SOL     OW72123   6.992   7.938  11.011
23561SOL    HW172124   6.974   7.953  11.104
23561SOL    HW272125   7.038   7.854  11.010
23562SOL     OW72126   6.499   0.369  10.835
23562SOL    HW172127   6.522   0.290  10.786
23562SOL    HW272128   6.404   0.365  10.844
23563SOL     OW72129   6.584   7.818  10.545
23563SOL    HW172130   6.494   7.831  10.576
23563SOL    HW272131   6.576   7.758  10.471
23564SOL     OW72132   6.488   7.776   9.504
23564SOL    HW172133   6.557   7.810   9.447
23564SOL    HW272134   6.488   7.682   9.487
23565SOL     OW72135   7.343   0.045  11.109
23565SOL    HW172136   7.271   0.096  11.071
23565SOL    HW272137   7.339  -0.039  11.063
23566SOL     OW72138   6.142   7.638  10.212
23566SOL    HW172139   6.144   7.652  10.306
23566SOL    HW272140   6.139   7.726  10.174
23567SOL     OW72141   5.778   7.756  10.849
23567SOL    HW172142   5.720   7.798  10.786
23567SOL    HW272143   5.758   7.663  10.842
23568SOL     OW72144   6.969   7.552   9.725
23568SOL    HW172145   6.951   7.543   9.632
23568SOL    HW272146   7.065   7.544   9.732
23569SOL     OW72147   7.100   7.677  11.037
23569SOL    HW172148   7.101   7.695  11.131
23569SOL    HW272149   7.046   7.598  11.028
23570SOL     OW72150   6.238   7.572   9.409
23570SOL    HW172151   6.295   7.499   9.430
23570SOL    HW272152   6.185   7.541   9.335
23571SOL     OW72153   6.352   7.730  11.062
23571SOL    HW172154   6.434   7.681  11.062
23571SOL    HW272155   6.302   7.693  11.134
23572SOL     OW72156   6.971   0.024  10.742
23572SOL    HW172157   6.981  -0.012  10.830
23572SOL    HW272158   6.900   0.088  10.751
23573SOL     OW72159   6.142   7.505   9.808
23573SOL    HW172160   6.066   7.511   9.866
23573SOL    HW272161   6.136   7.584   9.754
23574SOL     OW72162   5.877   7.500   9.496
23574SOL    HW172163   5.935   7.565   9.456
23574SOL    HW272164   5.936   7.438   9.539
23575SOL     OW72165   6.528   7.694   9.767
23575SOL    HW172166   6.513   7.733   9.681
23575SOL    HW272167   6.620   7.711   9.786
23576SOL     OW72168   5.665   0.000  10.711
23576SOL    HW172169   5.745   0.033  10.670
23576SOL    HW272170   5.623   0.079  10.746
23577SOL     OW72171   6.148   7.665  10.488
23577SOL    HW172172   6.181   7.583  10.526
23577SOL    HW272173   6.057   7.669  10.514
23578SOL     OW72174   6.592   7.510  10.062
23578SOL    HW172175   6.542   7.497   9.981
23578SOL    HW272176   6.572   7.433  10.115
23579SOL     OW72177   7.050   7.995  10.271
23579SOL    HW172178   6.989   7.922  10.273
23579SOL    HW272179   7.103   7.985  10.351
23580SOL     OW72180   6.123   7.706   9.623
23580SOL    HW172181   6.167   7.666   9.548
23580SOL    HW272182   6.133   7.800   9.610
23581SOL     OW72183   6.501   7.541  10.707
23581SOL    HW172184   6.523   7.517  10.617
23581SOL    HW272185   6.582   7.576  10.743
23582SOL     OW72186   6.849   7.801  10.617
23582SOL    HW172187   6.888   7.886  10.634
23582SOL    HW272188   6.760   7.821  10.587
23583SOL     OW72189   6.141   7.941  10.187
23583SOL    HW172190   6.122   8.017  10.131
23583SOL    HW272191   6.214   7.969  10.242
23584SOL     OW72192   6.587   7.595  11.078
23584SOL    HW172193   6.648   7.663  11.050
23584SOL    HW272194   6.627   7.513  11.051
23585SOL     OW72195   6.076   7.486  11.072
23585SOL    HW172196   6.030   7.432  11.008
23585SOL    HW272197   6.019   7.562  11.084
23586SOL     OW72198   5.886   7.636  10.555
23586SOL    HW172199   5.833   7.631  10.634
23586SOL    HW272200   5.893   7.546  10.525
23587SOL     OW72201   6.339   0.079  10.338
23587SOL    HW172202   6.350   0.140  10.266
23587SOL    HW272203   6.279   0.123  10.398
23588SOL     OW72204   5.896   7.516   9.934
23588SOL    HW172205   5.866   7.604   9.961
23588SOL    HW272206   5.907   7.469  10.016
23589SOL     OW72207   7.203   7.829   9.700
23589SOL    HW172208   7.237   7.745   9.730
23589SOL    HW272209   7.190   7.880   9.780
23590SOL     OW72210   7.119   7.772   9.435
23590SOL    HW172211   7.051   7.705   9.443
23590SOL    HW272212   7.153   7.783   9.524
23591SOL     OW72213   6.842   0.272   9.404
23591SOL    HW172214   6.886   0.187   9.403
23591SOL    HW272215   6.812   0.284   9.314
23592SOL     OW72216   5.875   7.977  10.287
23592SOL    HW172217   5.859   7.883  10.294
23592SOL    HW272218   5.968   7.985  10.266
23593SOL     OW72219   6.730   7.835  10.997
23593SOL    HW172220   6.681   7.915  11.018
23593SOL    HW272221   6.821   7.864  10.990
23594SOL     OW72222   6.740   7.640  10.802
23594SOL    HW172223   6.729   7.711  10.865
23594SOL    HW272224   6.786   7.680  10.729
23595SOL     OW72225   5.625   7.970  10.425
23595SOL    HW172226   5.706   7.970  10.374
23595SOL    HW272227   5.653   7.951  10.514
23596SOL     OW72228   5.755   7.971  11.018
23596SOL    HW172229   5.776   7.900  10.956
23596SOL    HW272230   5.685   8.020  10.975
23597SOL     OW72231   6.380   8.019   9.573
23597SOL    HW172232   6.409   7.930   9.554
23597SOL    HW272233   6.303   8.009   9.628
23598SOL     OW72234   7.215   8.012  10.503
23598SOL    HW172235   7.194   7.941  10.565
23598SOL    HW272236   7.295   7.982  10.460
23599SOL     OW72237   6.316   7.873  10.567
23599SOL    HW172238   6.255   7.802  10.545
23599SOL    HW272239   6.277   7.951  10.527
23600SOL     OW72240   7.299   7.597   9.807
23600SOL    HW172241   7.378   7.583   9.755
23600SOL    HW272242   7.283   7.513   9.849
23601SOL     OW72243   7.442   7.623  10.280
23601SOL    HW172244   7.456   7.534  10.249
23601SOL    HW272245   7.358   7.649  10.242
23602SOL     OW72246   5.828   7.765  10.029
23602SOL    HW172247   5.736   7.789  10.017
23602SOL    HW272248   5.837   7.752  10.123
23603SOL     OW72249   6.615   7.673  10.288
23603SOL    HW172250   6.604   7.634  10.201
23603SOL    HW272251   6.605   7.599  10.348
23604SOL     OW72252   7.332   7.823  10.706
23604SOL    HW172253   7.392   7.895  10.687
23604SOL    HW272254   7.356   7.755  10.644
23605SOL     OW72255   6.263   7.638  10.812
23605SOL    HW172256   6.344   7.615  10.767
23605SOL    HW272257   6.291   7.670  10.898
23606SOL     OW72258   5.676   7.788   9.344
23606SOL    HW172259   5.601   7.782   9.284
23606SOL    HW272260   5.680   7.880   9.368
23607SOL     OW72261   5.648   7.600   9.610
23607SOL    HW172262   5.636   7.681   9.560
23607SOL    HW272263   5.733   7.566   9.581
23608SOL     OW72264   6.367   8.022  11.013
23608SOL    HW172265   6.324   8.013  11.098
23608SOL    HW272266   6.369   7.933  10.978
23609SOL     OW72267   6.793   7.764   9.781
23609SOL    HW172268   6.854   7.694   9.756
23609SOL    HW272269   6.838   7.811   9.851
23610SOL     OW72270   6.235   0.276   9.933
23610SOL    HW172271   6.171   0.341   9.902
23610SOL    HW272272   6.188   0.227  10.000
23611SOL     OW72273   7.337   7.808  10.978
23611SOL    HW172274   7.334   7.818  10.883
23611SOL    HW272275   7.264   7.749  10.998
23612SOL     OW72276   7.414   7.619  10.553
23612SOL    HW172277   7.394   7.526  10.557
23612SOL    HW272278   7.421   7.638  10.459
23613SOL     OW72279   5.953   7.851   9.800
23613SOL    HW172280   5.994   7.775   9.759
23613SOL    HW272281   5.912   7.816   9.879
23614SOL     OW72282   7.017   7.676  10.428
23614SOL    HW172283   7.037   7.583  10.413
23614SOL    HW272284   6.963   7.676  10.507
23615SOL     OW72285   6.580   7.458  10.455
23615SOL    HW172286   6.522   7.394  10.416
23615SOL    HW272287   6.667   7.417  10.453
23616SOL     OW72288   6.902   7.903   9.997
23616SOL    HW172289   6.860   7.988  10.012
23616SOL    HW272290   6.889   7.855  10.079
23617SOL     OW72291   7.200   7.673  10.177
23617SOL    HW172292   7.155   7.599  10.219
23617SOL    HW272293   7.141   7.700  10.107
23618SOL     OW72294   5.820   7.712  12.162
23618SOL    HW172295   5.844   7.681  12.249
23618SOL    HW272296   5.728   7.689  12.154
23619SOL     OW72297   5.570   7.820  11.822
23619SOL    HW172298   5.488   7.861  11.851
23619SOL    HW272299   5.542   7.740  11.776
23620SOL     OW72300   7.245   0.029  11.376
23620SOL    HW172301   7.295   0.042  11.296
23620SOL    HW272302   7.282  -0.051  11.415
23621SOL     OW72303   7.184   7.907  11.882
23621SOL    HW172304   7.095   7.908  11.846
23621SOL    HW272305   7.176   7.947  11.968
23622SOL     OW72306   5.648   0.082  11.747
23622SOL    HW172307   5.640  -0.011  11.769
23622SOL    HW272308   5.690   0.121  11.823
23623SOL     OW72309   6.405   7.429  11.697
23623SOL    HW172310   6.451   7.508  11.669
23623SOL    HW272311   6.313   7.454  11.698
23624SOL     OW72312   6.852   7.797  12.111
23624SOL    HW172313   6.762   7.766  12.122
23624SOL    HW272314   6.904   7.740  12.168
23625SOL     OW72315   6.558   7.799  12.422
23625SOL    HW172316   6.491   7.866  12.433
23625SOL    HW272317   6.551   7.773  12.330
23626SOL     OW72318   6.486   7.777  11.366
23626SOL    HW172319   6.526   7.813  11.287
23626SOL    HW272320   6.492   7.682  11.354
23627SOL     OW72321   6.143   7.634  12.065
23627SOL    HW172322   6.141   7.679  12.150
23627SOL    HW272323   6.138   7.705  12.001
23628SOL     OW72324   6.984   7.544  11.612
23628SOL    HW172325   6.973   7.521  11.520
23628SOL    HW272326   7.079   7.556  11.622
23629SOL     OW72327   6.238   7.564  11.272
23629SOL    HW172328   6.298   7.490  11.284
23629SOL    HW272329   6.179   7.536  11.202
23630SOL     OW72330   6.144   7.505  11.671
23630SOL    HW172331   6.062   7.507  11.720
23630SOL    HW272332   6.141   7.582  11.615
23631SOL     OW72333   5.884   7.512  11.375
23631SOL    HW172334   5.940   7.568  11.321
23631SOL    HW272335   5.944   7.444  11.408
23632SOL     OW72336   6.536   7.660  11.632
23632SOL    HW172337   6.499   7.725  11.573
23632SOL    HW272338   6.627   7.686  11.643
23633SOL     OW72339   5.690   7.983   0.054
23633SOL    HW172340   5.773   7.986   0.103
23633SOL    HW272341   5.627   8.026   0.112
23634SOL     OW72342   6.153   7.647  12.353
23634SOL    HW172343   6.160   7.561  12.311
23634SOL    HW272344   6.060   7.655  12.375
23635SOL     OW72345   6.611   7.506  11.922
23635SOL    HW172346   6.556   7.516  11.844
23635SOL    HW272347   6.576   7.429  11.966
23636SOL     OW72348   7.082   7.952  12.129
23636SOL    HW172349   6.992   7.921  12.138
23636SOL    HW272350   7.103   7.990  12.214
23637SOL     OW72351   6.135   7.712  11.493
23637SOL    HW172352   6.171   7.671  11.414
23637SOL    HW272353   6.171   7.800  11.493
23638SOL     OW72354   6.830   7.806  12.456
23638SOL    HW172355   6.857   7.877  12.514
23638SOL    HW272356   6.735   7.819  12.446
23639SOL     OW72357   6.133   7.925  12.035
23639SOL    HW172358   6.098   7.985  11.969
23639SOL    HW272359   6.201   7.976  12.079
23640SOL     OW72360   5.889   7.626  12.413
23640SOL    HW172361   5.839   7.660  12.487
23640SOL    HW272362   5.884   7.531  12.422
23641SOL     OW72363   6.322   0.054  12.193
23641SOL    HW172364   6.413   0.072  12.169
23641SOL    HW272365   6.277   0.138  12.183
23642SOL     OW72366   5.897   7.510  11.793
23642SOL    HW172367   5.867   7.598  11.818
23642SOL    HW272368   5.905   7.464  11.877
23643SOL     OW72369   7.194   7.795  11.548
23643SOL    HW172370   7.240   7.731  11.602
23643SOL    HW272371   7.174   7.866  11.608
23644SOL     OW72372   7.078   7.738  11.304
23644SOL    HW172373   7.026   7.660  11.323
23644SOL    HW272374   7.126   7.756  11.385
23645SOL     OW72375   6.901   0.263  11.225
23645SOL    HW172376   6.877   0.173  11.247
23645SOL    HW272377   6.833   0.291  11.164
23646SOL     OW72378   5.892   7.971  12.186
23646SOL    HW172379   5.880   7.877  12.173
23646SOL    HW272380   5.972   7.992  12.139
23647SOL     OW72381   6.764   7.645   0.173
23647SOL    HW172382   6.729   7.717   0.227
23647SOL    HW272383   6.790   7.687   0.091
23648SOL     OW72384   5.638   7.959  12.285
23648SOL    HW172385   5.724   7.963  12.244
23648SOL    HW272386   5.656   7.961  12.379
23649SOL     OW72387   6.376   8.025  11.415
23649SOL    HW172388   6.424   7.942  11.418
23649SOL    HW272389   6.325   8.026  11.496
23650SOL     OW72390   7.213   8.023  12.363
23650SOL    HW172391   7.224   7.960  12.434
23650SOL    HW272392   7.292   8.012  12.310
23651SOL     OW72393   6.274   7.899  12.415
23651SOL    HW172394   6.231   7.818  12.387
23651SOL    HW272395   6.285   7.949  12.335
23652SOL     OW72396   7.326   7.598  11.685
23652SOL    HW172397   7.392   7.583  11.618
23652SOL    HW272398   7.305   7.510  11.718
23653SOL     OW72399   7.421   7.615  12.140
23653SOL    HW172400   7.446   7.528  12.109
23653SOL    HW272401   7.335   7.631  12.102
23654SOL     OW72402   5.828   7.754  11.889
23654SOL    HW172403   5.738   7.783  11.877
23654SOL    HW272404   5.839   7.747  11.984
23655SOL     OW72405   6.609   7.677  12.149
23655SOL    HW172406   6.606   7.635  12.063
23655SOL    HW272407   6.605   7.605  12.212
23656SOL     OW72408   7.323   7.840   0.050
23656SOL    HW172409   7.404   7.891   0.048
23656SOL    HW272410   7.346   7.758   0.007
23657SOL     OW72411   5.670   7.790  11.212
23657SOL    HW172412   5.607   7.720  11.197
23657SOL    HW272413   5.656   7.852  11.141
23658SOL     OW72414   5.648   7.603  11.473
23658SOL    HW172415   5.643   7.689  11.432
23658SOL    HW272416   5.735   7.570  11.449
23659SOL     OW72417   6.797   7.747  11.646
23659SOL    HW172418   6.864   7.680  11.632
23659SOL    HW272419   6.836   7.806  11.711
23660SOL     OW72420   6.225   0.232  11.789
23660SOL    HW172421   6.218   0.326  11.803
23660SOL    HW272422   6.161   0.193  11.848
23661SOL     OW72423   7.408   7.617  12.415
23661SOL    HW172424   7.423   7.522  12.415
23661SOL    HW272425   7.412   7.641  12.322
23662SOL     OW72426   5.953   7.856  11.667
23662SOL    HW172427   5.992   7.786  11.615
23662SOL    HW272428   5.914   7.811  11.743
23663SOL     OW72429   7.019   7.682  12.307
23663SOL    HW172430   7.084   7.653  12.372
23663SOL    HW272431   6.951   7.726  12.358
23664SOL     OW72432   6.597   7.452  12.310
23664SOL    HW172433   6.547   7.398  12.248
23664SOL    HW272434   6.685   7.414  12.310
23665SOL     OW72435   6.944   7.497  11.341
23665SOL    HW172436   6.980   7.428  11.285
23665SOL    HW272437   6.855   7.468  11.361
23666SOL     OW72438   6.902   7.900  11.855
23666SOL    HW172439   6.848   7.979  11.854
23666SOL    HW272440   6.886   7.861  11.941
23667SOL     OW72441   7.164   7.652  12.060
23667SOL    HW172442   7.113   7.678  12.137
23667SOL    HW272443   7.157   7.727  12.001
23668SOL     OW72444   7.690   0.571   0.037
23668SOL    HW172445   7.660   0.637   0.099
23668SOL    HW272446   7.622   0.569  -0.030
23669SOL     OW72447   7.662   0.306   0.985
23669SOL    HW172448   7.707   0.265   1.059
23669SOL    HW272449   7.581   0.256   0.974
23670SOL     OW72450   7.457   0.388   0.640
23670SOL    HW172451   7.369   0.408   0.673
23670SOL    HW272452   7.453   0.294   0.619
23671SOL     OW72453   7.757   1.432   1.054
23671SOL    HW172454   7.681   1.374   1.048
23671SOL    HW272455   7.787   1.442   0.964
23672SOL     OW72456   7.851   0.408   1.520
23672SOL    HW172457   7.933   0.358   1.516
23672SOL    HW272458   7.782   0.343   1.507
23673SOL     OW72459   7.652   1.717   0.491
23673SOL    HW172460   7.679   1.797   0.537
23673SOL    HW272461   7.708   1.715   0.413
23674SOL     OW72462   7.665   1.441   0.533
23674SOL    HW172463   7.652   1.536   0.537
23674SOL    HW272464   7.606   1.406   0.600
23675SOL     OW72465   7.721   1.092   0.914
23675SOL    HW172466   7.704   1.001   0.937
23675SOL    HW272467   7.651   1.141   0.958
23676SOL     OW72468   7.560   0.638   0.569
23676SOL    HW172469   7.523   0.553   0.592
23676SOL    HW272470   7.552   0.690   0.649
23677SOL     OW72471   7.483   1.529   0.137
23677SOL    HW172472   7.396   1.490   0.126
23677SOL    HW272473   7.467   1.608   0.190
23678SOL     OW72474   7.565   0.747   1.579
23678SOL    HW172475   7.658   0.764   1.590
23678SOL    HW272476   7.522   0.818   1.627
23679SOL     OW72477   7.639   0.961   1.303
23679SOL    HW172478   7.725   0.919   1.296
23679SOL    HW272479   7.588   0.925   1.231
23680SOL     OW72480   7.762   0.252   1.784
23680SOL    HW172481   7.823   0.310   1.829
23680SOL    HW272482   7.681   0.258   1.834
23681SOL     OW72483   7.538   0.811   0.778
23681SOL    HW172484   7.612   0.809   0.839
23681SOL    HW272485   7.485   0.885   0.806
23682SOL     OW72486   7.580   1.850   1.579
23682SOL    HW172487   7.580   1.829   1.673
23682SOL    HW272488   7.487   1.855   1.556
23683SOL     OW72489   7.960   0.229   0.897
23683SOL    HW172490   8.035   0.228   0.957
23683SOL    HW272491   7.957   0.319   0.865
23684SOL     OW72492   7.807   1.832   0.860
23684SOL    HW172493   7.866   1.759   0.843
23684SOL    HW272494   7.865   1.905   0.880
23685SOL     OW72495   7.742   1.003   0.254
23685SOL    HW172496   7.829   1.018   0.216
23685SOL    HW272497   7.718   0.914   0.226
23686SOL     OW72498   7.919   1.254   1.712
23686SOL    HW172499   7.865   1.233   1.635
23686SOL    HW272500   7.855   1.268   1.782
23687SOL     OW72501   7.625   0.247   1.509
23687SOL    HW172502   7.548   0.303   1.505
23687SOL    HW272503   7.639   0.231   1.602
23688SOL     OW72504   7.714   1.791   1.220
23688SOL    HW172505   7.751   1.710   1.255
23688SOL    HW272506   7.680   1.766   1.133
23689SOL     OW72507   7.809   0.665   0.452
23689SOL    HW172508   7.868   0.618   0.510
23689SOL    HW272509   7.723   0.657   0.493
23690SOL     OW72510   7.789   0.023   0.105
23690SOL    HW172511   7.799   0.084   0.178
23690SOL    HW272512   7.820  -0.061   0.139
23691SOL     OW72513   7.923   1.116   0.740
23691SOL    HW172514   7.851   1.106   0.802
23691SOL    HW272515   7.882   1.112   0.654
23692SOL     OW72516   7.545   0.552   1.393
23692SOL    HW172517   7.635   0.554   1.362
23692SOL    HW272518   7.539   0.625   1.454
23693SOL     OW72519   7.879   0.822   1.278
23693SOL    HW172520   7.973   0.809   1.289
23693SOL    HW272521   7.843   0.733   1.276
23694SOL     OW72522   7.515   1.579   1.348
23694SOL    HW172523   7.479   1.651   1.296
23694SOL    HW272524   7.610   1.587   1.339
23695SOL     OW72525   7.810   1.124   0.492
23695SOL    HW172526   7.796   1.210   0.453
23695SOL    HW272527   7.781   1.062   0.425
23696SOL     OW72528  -0.007   0.564   0.864
23696SOL    HW172529   0.032   0.642   0.826
23696SOL    HW272530   0.032   0.557   0.951
23697SOL     OW72531   7.792   1.539   1.305
23697SOL    HW172532   7.787   1.492   1.221
23697SOL    HW272533   7.886   1.543   1.325
23698SOL     OW72534   7.842   0.737   1.600
23698SOL    HW172535   7.908   0.764   1.536
23698SOL    HW272536   7.853   0.642   1.608
23699SOL     OW72537   7.948   0.067   1.690
23699SOL    HW172538   7.906  -0.007   1.645
23699SOL    HW272539   7.876   0.122   1.719
23700SOL     OW72540   7.993   0.925   1.039
23700SOL    HW172541   8.005   1.020   1.037
23700SOL    HW272542   7.940   0.910   1.118
23701SOL     OW72543   7.757   0.221   1.233
23701SOL    HW172544   7.696   0.213   1.306
23701SOL    HW272545   7.768   0.132   1.201
23702SOL     OW72546   7.506   1.304   1.311
23702SOL    HW172547   7.552   1.309   1.394
23702SOL    HW272548   7.487   1.395   1.288
23703SOL     OW72549   7.853   0.099   0.629
23703SOL    HW172550   7.801   0.166   0.672
23703SOL    HW272551   7.800   0.019   0.636
23704SOL     OW72552   7.812   0.920   1.803
23704SOL    HW172553   7.822   0.870   1.883
23704SOL    HW272554   7.827   0.856   1.733
23705SOL     OW72555   7.742   0.817   0.961
23705SOL    HW172556   7.836   0.838   0.961
23705SOL    HW272557   7.738   0.724   0.983
23706SOL     OW72558   7.762   0.549   1.003
23706SOL    HW172559   7.729   0.460   0.993
23706SOL    HW272560   7.843   0.551   0.952
23707SOL     OW72561   7.548   1.777   0.952
23707SOL    HW172562   7.514   1.703   0.902
23707SOL    HW272563   7.632   1.797   0.911
23708SOL     OW72564   7.480   0.556   1.115
23708SOL    HW172565   7.552   0.530   1.058
23708SOL    HW272566   7.513   0.540   1.204
23709SOL     OW72567   7.637   0.525   1.733
23709SOL    HW172568   7.698   0.477   1.676
23709SOL    HW272569   7.591   0.584   1.674
23710SOL     OW72570   7.698   1.547   1.714
23710SOL    HW172571   7.675   1.619   1.773
23710SOL    HW272572   7.703   1.470   1.771
23711SOL     OW72573   7.895   0.460   0.175
23711SOL    HW172574   7.926   0.536   0.224
23711SOL    HW272575   7.822   0.493   0.123
23712SOL     OW72576   7.537   1.260   1.036
23712SOL    HW172577   7.512   1.260   1.129
23712SOL    HW272578   7.463   1.221   0.991
23713SOL     OW72579   7.606   1.781   1.843
23713SOL    HW172580   7.552   1.719   1.891
23713SOL    HW272581   7.648   1.834   1.910
23714SOL     OW72582   7.720   0.325   0.719
23714SOL    HW172583   7.636   0.363   0.690
23714SOL    HW272584   7.711   0.317   0.814
23715SOL     OW72585   7.754   1.266   1.468
23715SOL    HW172586   7.757   1.362   1.475
23715SOL    HW272587   7.814   1.245   1.397
23716SOL     OW72588  -0.014   1.545   0.432
23716SOL    HW172589   0.009   1.457   0.464
23716SOL    HW272590   0.057   1.601   0.464
23717SOL     OW72591   7.742   1.346   0.296
23717SOL    HW172592   7.664   1.358   0.242
23717SOL    HW272593   7.718   1.386   0.380
23718SOL     OW72594   7.561   1.012   1.712
23718SOL    HW172595   7.488   1.001   1.773
23718SOL    HW272596   7.639   0.992   1.765
23719SOL     OW72597   7.533   0.192   0.270
23719SOL    HW172598   7.493   0.263   0.321
23719SOL    HW272599   7.625   0.193   0.295
23720SOL     OW72600   7.836   1.746   1.570
23720SOL    HW172601   7.754   1.788   1.545
23720SOL    HW272602   7.809   1.665   1.614
23721SOL     OW72603   7.695   1.313   1.865
23721SOL    HW172604   7.610   1.270   1.864
23721SOL    HW272605   7.713   1.327   1.958
23722SOL     OW72606   7.526   1.239   0.677
23722SOL    HW172607   7.525   1.174   0.748
23722SOL    HW272608   7.570   1.194   0.605
23723SOL     OW72609   0.112   1.430   1.636
23723SOL    HW172610   0.048   1.364   1.662
23723SOL    HW272611   0.060   1.500   1.596
23724SOL     OW72612   7.792   0.564   1.285
23724SOL    HW172613   7.835   0.494   1.334
23724SOL    HW272614   7.802   0.539   1.193
23725SOL     OW72615   7.495   1.081   0.371
23725SOL    HW172616   7.574   1.076   0.316
23725SOL    HW272617   7.473   0.990   0.389
23726SOL     OW72618   7.656   0.649   1.984
23726SOL    HW172619   7.574   0.631   2.029
23726SOL    HW272620   7.646   0.607   1.899
23727SOL     OW72621   7.681   0.296   2.842
23727SOL    HW172622   7.707   0.263   2.928
23727SOL    HW272623   7.601   0.248   2.821
23728SOL     OW72624   7.466   0.396   2.488
23728SOL    HW172625   7.379   0.411   2.526
23728SOL    HW272626   7.451   0.336   2.416
23729SOL     OW72627   7.805   1.384   2.847
23729SOL    HW172628   7.718   1.346   2.860
23729SOL    HW272629   7.800   1.471   2.887
23730SOL     OW72630   7.859   0.402   3.371
23730SOL    HW172631   7.943   0.356   3.381
23730SOL    HW272632   7.794   0.339   3.402
23731SOL     OW72633   7.653   1.707   2.339
23731SOL    HW172634   7.669   1.782   2.396
23731SOL    HW272635   7.716   1.717   2.268
23732SOL     OW72636   7.686   1.430   2.399
23732SOL    HW172637   7.666   1.523   2.398
23732SOL    HW272638   7.622   1.392   2.460
23733SOL     OW72639   7.730   1.090   2.740
23733SOL    HW172640   7.722   1.002   2.776
23733SOL    HW272641   7.672   1.143   2.794
23734SOL     OW72642   7.573   0.652   2.424
23734SOL    HW172643   7.538   0.565   2.443
23734SOL    HW272644   7.559   0.702   2.505
23735SOL     OW72645   7.487   1.588   1.985
23735SOL    HW172646   7.473   1.496   2.008
23735SOL    HW272647   7.444   1.637   2.054
23736SOL     OW72648   7.560   0.771   3.428
23736SOL    HW172649   7.630   0.825   3.466
23736SOL    HW272650   7.484   0.828   3.426
23737SOL     OW72651   7.636   0.947   3.149
23737SOL    HW172652   7.718   0.907   3.120
23737SOL    HW272653   7.576   0.936   3.076
23738SOL     OW72654   7.767   0.258   3.634
23738SOL    HW172655   7.844   0.289   3.682
23738SOL    HW272656   7.695   0.269   3.695
23739SOL     OW72657   7.979   0.754   2.110
23739SOL    HW172658   8.051   0.808   2.142
23739SOL    HW272659   7.928   0.733   2.188
23740SOL     OW72660   7.536   0.821   2.635
23740SOL    HW172661   7.610   0.818   2.695
23740SOL    HW272662   7.484   0.896   2.665
23741SOL     OW72663   7.554   1.821   3.434
23741SOL    HW172664   7.567   1.810   3.528
23741SOL    HW272665   7.477   1.877   3.427
23742SOL     OW72666   8.006   0.258   2.760
23742SOL    HW172667   7.934   0.234   2.819
23742SOL    HW272668   7.985   0.347   2.732
23743SOL     OW72669   7.816   1.827   2.737
23743SOL    HW172670   7.891   1.773   2.759
23743SOL    HW272671   7.848   1.917   2.745
23744SOL     OW72672   7.752   0.962   2.128
23744SOL    HW172673   7.844   0.970   2.101
23744SOL    HW272674   7.732   0.869   2.120
23745SOL     OW72675   7.949   1.234   3.597
23745SOL    HW172676   7.910   1.241   3.510
23745SOL    HW272677   7.879   1.258   3.658
23746SOL     OW72678   7.608   0.250   3.401
23746SOL    HW172679   7.524   0.282   3.433
23746SOL    HW272680   7.657   0.228   3.480
23747SOL     OW72681   7.700   1.799   3.104
23747SOL    HW172682   7.755   1.751   3.165
23747SOL    HW272683   7.692   1.741   3.028
23748SOL     OW72684   7.827   0.696   2.325
23748SOL    HW172685   7.871   0.626   2.372
23748SOL    HW272686   7.735   0.687   2.350
23749SOL     OW72687   0.035   0.077   1.986
23749SOL    HW172688   0.125   0.045   1.995
23749SOL    HW272689   0.031   0.113   1.898
23750SOL     OW72690   7.745   0.041   2.056
23750SOL    HW172691   7.811   0.086   2.003
23750SOL    HW272692   7.795  -0.021   2.109
23751SOL     OW72693   7.876   0.806   3.111
23751SOL    HW172694   7.919   0.833   3.192
23751SOL    HW272695   7.846   0.717   3.128
23752SOL     OW72696   7.528   1.573   3.218
23752SOL    HW172697   7.507   1.667   3.223
23752SOL    HW272698   7.622   1.570   3.202
23753SOL     OW72699   7.805   1.124   2.362
23753SOL    HW172700   7.777   1.196   2.306
23753SOL    HW272701   7.784   1.044   2.313
23754SOL     OW72702  -0.015   0.544   2.728
23754SOL    HW172703   0.028   0.618   2.684
23754SOL    HW272704   0.026   0.541   2.815
23755SOL     OW72705   7.799   1.522   3.145
23755SOL    HW172706   7.819   1.430   3.128
23755SOL    HW272707   7.882   1.560   3.173
23756SOL     OW72708   7.868   0.711   3.465
23756SOL    HW172709   7.946   0.765   3.449
23756SOL    HW272710   7.897   0.622   3.444
23757SOL     OW72711   7.947   0.060   3.521
23757SOL    HW172712   7.908  -0.018   3.482
23757SOL    HW272713   7.874   0.106   3.562
23758SOL     OW72714   7.991   0.901   2.881
23758SOL    HW172715   8.052   0.967   2.914
23758SOL    HW272716   7.954   0.861   2.960
23759SOL     OW72717   7.745   0.217   3.093
23759SOL    HW172718   7.704   0.218   3.180
23759SOL    HW272719   7.778   0.127   3.083
23760SOL     OW72720   7.527   1.312   3.133
23760SOL    HW172721   7.537   1.257   3.210
23760SOL    HW272722   7.512   1.400   3.168
23761SOL     OW72723   7.843   0.074   2.553
23761SOL    HW172724   7.807   0.163   2.547
23761SOL    HW272725   7.768   0.017   2.537
23762SOL     OW72726   7.788   0.905   3.656
23762SOL    HW172727   7.866   0.951   3.687
23762SOL    HW272728   7.822   0.827   3.613
23763SOL     OW72729   7.739   0.820   2.814
23763SOL    HW172730   7.830   0.847   2.828
23763SOL    HW272731   7.738   0.727   2.838
23764SOL     OW72732   7.755   0.551   2.876
23764SOL    HW172733   7.721   0.463   2.860
23764SOL    HW272734   7.837   0.555   2.827
23765SOL     OW72735   7.457   1.313   2.052
23765SOL    HW172736   7.369   1.329   2.019
23765SOL    HW272737   7.452   1.227   2.094
23766SOL     OW72738   7.539   1.778   2.797
23766SOL    HW172739   7.514   1.698   2.751
23766SOL    HW272740   7.631   1.791   2.774
23767SOL     OW72741   7.484   0.541   3.019
23767SOL    HW172742   7.492   0.457   2.974
23767SOL    HW272743   7.563   0.589   2.994
23768SOL     OW72744   7.627   0.531   3.554
23768SOL    HW172745   7.716   0.519   3.587
23768SOL    HW272746   7.608   0.623   3.570
23769SOL     OW72747   0.210   0.520   2.151
23769SOL    HW172748   0.181   0.429   2.160
23769SOL    HW272749   0.185   0.561   2.234
23770SOL     OW72750   7.694   1.544   3.578
23770SOL    HW172751   7.674   1.614   3.640
23770SOL    HW272752   7.705   1.466   3.633
23771SOL     OW72753   7.907   0.506   2.004
23771SOL    HW172754   7.953   0.581   2.041
23771SOL    HW272755   7.814   0.527   2.014
23772SOL     OW72756   7.592   1.136   3.341
23772SOL    HW172757   7.586   1.093   3.426
23772SOL    HW272758   7.608   1.065   3.279
23773SOL     OW72759   7.560   1.252   2.876
23773SOL    HW172760   7.546   1.274   2.969
23773SOL    HW272761   7.474   1.222   2.846
23774SOL     OW72762   7.604   1.788   3.700
23774SOL    HW172763   7.551   1.726   3.749
23774SOL    HW272764   7.646   1.842   3.767
23775SOL     OW72765   7.742   0.340   2.571
23775SOL    HW172766   7.656   0.358   2.532
23775SOL    HW272767   7.722   0.325   2.664
23776SOL     OW72768   7.818   1.289   3.364
23776SOL    HW172769   7.793   1.381   3.352
23776SOL    HW272770   7.737   1.240   3.354
23777SOL     OW72771  -0.010   1.548   2.266
23777SOL    HW172772   0.054   1.495   2.313
23777SOL    HW272773  -0.010   1.632   2.313
23778SOL     OW72774   7.720   1.341   2.144
23778SOL    HW172775   7.627   1.337   2.126
23778SOL    HW272776   7.726   1.387   2.228
23779SOL     OW72777   7.552   1.026   3.583
23779SOL    HW172778   7.475   1.005   3.637
23779SOL    HW272779   7.626   0.991   3.633
23780SOL     OW72780   7.519   0.323   1.889
23780SOL    HW172781   7.423   0.320   1.895
23780SOL    HW272782   7.537   0.403   1.840
23781SOL     OW72783   7.565   0.225   2.186
23781SOL    HW172784   7.510   0.239   2.110
23781SOL    HW272785   7.625   0.155   2.160
23782SOL     OW72786   7.806   1.725   3.396
23782SOL    HW172787   7.721   1.768   3.397
23782SOL    HW272788   7.796   1.652   3.457
23783SOL     OW72789   7.704   1.305   3.721
23783SOL    HW172790   7.616   1.268   3.712
23783SOL    HW272791   7.713   1.322   3.815
23784SOL     OW72792   7.539   1.224   2.537
23784SOL    HW172793   7.513   1.182   2.619
23784SOL    HW272794   7.548   1.151   2.475
23785SOL     OW72795   0.101   1.431   3.419
23785SOL    HW172796   0.050   1.374   3.476
23785SOL    HW272797   0.165   1.472   3.478
23786SOL     OW72798   7.760   0.554   3.165
23786SOL    HW172799   7.820   0.502   3.218
23786SOL    HW272800   7.780   0.529   3.074
23787SOL     OW72801   7.492   1.064   2.173
23787SOL    HW172802   7.583   1.051   2.147
23787SOL    HW272803   7.461   0.977   2.198
23788SOL     OW72804   7.654   0.612   3.849
23788SOL    HW172805   7.589   0.630   3.917
23788SOL    HW272806   7.607   0.557   3.786
23789SOL     OW72807   7.689   0.289   4.704
23789SOL    HW172808   7.713   0.267   4.794
23789SOL    HW272809   7.601   0.254   4.693
23790SOL     OW72810   7.467   0.388   4.359
23790SOL    HW172811   7.379   0.410   4.391
23790SOL    HW272812   7.466   0.293   4.350
23791SOL     OW72813   7.751   1.449   4.780
23791SOL    HW172814   7.681   1.391   4.753
23791SOL    HW272815   7.817   1.442   4.711
23792SOL     OW72816   7.849   0.421   5.257
23792SOL    HW172817   7.940   0.421   5.228
23792SOL    HW272818   7.813   0.339   5.223
23793SOL     OW72819   7.655   1.709   4.211
23793SOL    HW172820   7.635   1.782   4.271
23793SOL    HW272821   7.750   1.712   4.201
23794SOL     OW72822   7.674   1.433   4.245
23794SOL    HW172823   7.662   1.528   4.246
23794SOL    HW272824   7.622   1.401   4.320
23795SOL     OW72825   7.699   1.091   4.617
23795SOL    HW172826   7.694   1.002   4.651
23795SOL    HW272827   7.643   1.142   4.676
23796SOL     OW72828   7.578   0.643   4.281
23796SOL    HW172829   7.539   0.559   4.306
23796SOL    HW272830   7.565   0.699   4.357
23797SOL     OW72831   7.489   1.588   3.839
23797SOL    HW172832   7.469   1.497   3.859
23797SOL    HW272833   7.462   1.637   3.916
23798SOL     OW72834   7.562   0.743   5.310
23798SOL    HW172835   7.650   0.780   5.310
23798SOL    HW272836   7.504   0.819   5.303
23799SOL     OW72837   7.631   0.959   5.003
23799SOL    HW172838   7.719   0.922   4.993
23799SOL    HW272839   7.577   0.911   4.941
23800SOL     OW72840   7.716   0.234   5.511
23800SOL    HW172841   7.761   0.318   5.519
23800SOL    HW272842   7.631   0.248   5.554
23801SOL     OW72843   8.014   0.749   3.981
23801SOL    HW172844   8.028   0.843   3.992
23801SOL    HW272845   7.955   0.725   4.053
23802SOL     OW72846   7.538   0.813   4.485
23802SOL    HW172847   7.607   0.817   4.551
23802SOL    HW272848   7.478   0.884   4.509
23803SOL     OW72849   7.561   1.866   5.305
23803SOL    HW172850   7.571   1.851   5.399
23803SOL    HW272851   7.481   1.819   5.281
23804SOL     OW72852   7.983   0.253   4.612
23804SOL    HW172853   7.931   0.259   4.692
23804SOL    HW272854   7.995   0.344   4.584
23805SOL     OW72855   7.830   1.814   4.605
23805SOL    HW172856   7.843   1.785   4.515
23805SOL    HW272857   7.882   1.894   4.612
23806SOL     OW72858   7.745   0.960   3.974
23806SOL    HW172859   7.838   0.965   3.954
23806SOL    HW272860   7.720   0.870   3.952
23807SOL     OW72861   7.937   1.276   5.460
23807SOL    HW172862   7.901   1.277   5.371
23807SOL    HW272863   7.861   1.280   5.517
23808SOL     OW72864   7.629   0.237   5.225
23808SOL    HW172865   7.553   0.293   5.214
23808SOL    HW272866   7.647   0.239   5.320
23809SOL     OW72867   7.719   1.798   4.942
23809SOL    HW172868   7.756   1.723   4.989
23809SOL    HW272869   7.713   1.769   4.851
23810SOL     OW72870   7.831   0.677   4.169
23810SOL    HW172871   7.877   0.619   4.230
23810SOL    HW272872   7.740   0.676   4.199
23811SOL     OW72873   0.037   0.073   3.830
23811SOL    HW172874   0.128   0.058   3.858
23811SOL    HW272875   0.043   0.147   3.770
23812SOL     OW72876   7.763   0.044   3.920
23812SOL    HW172877   7.848   0.062   3.880
23812SOL    HW272878   7.783  -0.012   3.995
23813SOL     OW72879   7.911   1.135   4.460
23813SOL    HW172880   7.838   1.117   4.519
23813SOL    HW272881   7.879   1.111   4.374
23814SOL     OW72882   7.522   0.559   5.112
23814SOL    HW172883   7.613   0.558   5.083
23814SOL    HW272884   7.520   0.624   5.183
23815SOL     OW72885   7.866   0.819   4.977
23815SOL    HW172886   7.943   0.833   5.032
23815SOL    HW272887   7.839   0.729   4.995
23816SOL     OW72888   7.524   1.576   5.081
23816SOL    HW172889   7.499   1.642   5.016
23816SOL    HW272890   7.619   1.568   5.072
23817SOL     OW72891   7.827   1.112   4.195
23817SOL    HW172892   7.792   1.199   4.174
23817SOL    HW272893   7.774   1.052   4.142
23818SOL     OW72894   0.043   0.526   4.570
23818SOL    HW172895   0.049   0.619   4.548
23818SOL    HW272896   0.045   0.524   4.665
23819SOL     OW72897   7.789   1.536   5.033
23819SOL    HW172898   7.787   1.497   4.946
23819SOL    HW272899   7.882   1.551   5.050
23820SOL     OW72900   7.846   0.767   5.332
23820SOL    HW172901   7.930   0.801   5.301
23820SOL    HW272902   7.863   0.674   5.348
23821SOL     OW72903   7.955   0.084   5.411
23821SOL    HW172904   7.909   0.013   5.366
23821SOL    HW272905   7.885   0.137   5.449
23822SOL     OW72906   7.985   0.898   4.745
23822SOL    HW172907   8.070   0.927   4.778
23822SOL    HW272908   7.936   0.873   4.823
23823SOL     OW72909   7.741   0.209   4.958
23823SOL    HW172910   7.694   0.213   5.041
23823SOL    HW272911   7.749   0.115   4.940
23824SOL     OW72912   7.483   1.315   4.999
23824SOL    HW172913   7.518   1.254   5.064
23824SOL    HW272914   7.498   1.402   5.036
23825SOL     OW72915   7.780   0.065   4.357
23825SOL    HW172916   7.786   0.154   4.393
23825SOL    HW272917   7.795   0.008   4.432
23826SOL     OW72918   7.809   0.942   5.548
23826SOL    HW172919   7.898   0.976   5.554
23826SOL    HW272920   7.813   0.875   5.480
23827SOL     OW72921   7.733   0.820   4.672
23827SOL    HW172922   7.824   0.847   4.684
23827SOL    HW272923   7.734   0.726   4.688
23828SOL     OW72924   7.751   0.552   4.717
23828SOL    HW172925   7.724   0.462   4.701
23828SOL    HW272926   7.840   0.545   4.750
23829SOL     OW72927   7.453   1.315   3.905
23829SOL    HW172928   7.363   1.326   3.872
23829SOL    HW272929   7.452   1.228   3.945
23830SOL     OW72930   7.555   1.784   4.671
23830SOL    HW172931   7.520   1.706   4.628
23830SOL    HW272932   7.643   1.794   4.635
23831SOL     OW72933   7.488   0.550   4.833
23831SOL    HW172934   7.571   0.560   4.787
23831SOL    HW272935   7.511   0.547   4.926
23832SOL     OW72936   7.682   0.530   5.447
23832SOL    HW172937   7.734   0.491   5.377
23832SOL    HW272938   7.626   0.593   5.402
23833SOL     OW72939   0.224   0.512   4.025
23833SOL    HW172940   0.195   0.421   4.034
23833SOL    HW272941   0.188   0.556   4.102
23834SOL     OW72942   7.683   1.550   5.441
23834SOL    HW172943   7.669   1.607   5.516
23834SOL    HW272944   7.698   1.464   5.479
23835SOL     OW72945   7.913   0.513   3.865
23835SOL    HW172946   7.963   0.580   3.912
23835SOL    HW272947   7.822   0.541   3.872
23836SOL     OW72948   7.582   1.143   5.196
23836SOL    HW172949   7.588   1.098   5.280
23836SOL    HW272950   7.602   1.075   5.131
23837SOL     OW72951   7.523   1.278   4.733
23837SOL    HW172952   7.505   1.285   4.827
23837SOL    HW272953   7.460   1.213   4.702
23838SOL     OW72954   7.584   1.806   5.566
23838SOL    HW172955   7.540   1.733   5.610
23838SOL    HW272956   7.634   1.849   5.635
23839SOL     OW72957   7.736   0.325   4.436
23839SOL    HW172958   7.652   0.362   4.407
23839SOL    HW272959   7.726   0.316   4.531
23840SOL     OW72960   7.803   1.317   5.226
23840SOL    HW172961   7.795   1.384   5.158
23840SOL    HW272962   7.733   1.255   5.208
23841SOL     OW72963  -0.005   1.525   4.134
23841SOL    HW172964   0.034   1.477   4.207
23841SOL    HW272965  -0.019   1.613   4.169
23842SOL     OW72966   7.715   1.342   3.996
23842SOL    HW172967   7.622   1.337   3.976
23842SOL    HW272968   7.719   1.387   4.081
23843SOL     OW72969   7.562   1.038   5.451
23843SOL    HW172970   7.486   1.008   5.501
23843SOL    HW272971   7.637   1.000   5.497
23844SOL     OW72972   7.526   0.343   3.751
23844SOL    HW172973   7.437   0.341   3.788
23844SOL    HW272974   7.517   0.391   3.669
23845SOL     OW72975   7.512   0.157   4.000
23845SOL    HW172976   7.524   0.248   3.974
23845SOL    HW272977   7.598   0.116   3.984
23846SOL     OW72978   7.815   1.756   5.281
23846SOL    HW172979   7.725   1.790   5.277
23846SOL    HW272980   7.805   1.666   5.312
23847SOL     OW72981   7.683   1.303   5.570
23847SOL    HW172982   7.623   1.236   5.538
23847SOL    HW272983   7.663   1.311   5.663
23848SOL     OW72984   7.541   1.240   4.408
23848SOL    HW172985   7.534   1.189   4.489
23848SOL    HW272986   7.601   1.189   4.353
23849SOL     OW72987   0.126   1.432   5.308
23849SOL    HW172988   0.092   1.346   5.333
23849SOL    HW272989   0.063   1.494   5.342
23850SOL     OW72990   7.779   0.560   5.032
23850SOL    HW172991   7.807   0.516   5.112
23850SOL    HW272992   7.838   0.527   4.965
23851SOL     OW72993   7.498   1.072   4.032
23851SOL    HW172994   7.586   1.050   4.001
23851SOL    HW272995   7.461   0.989   4.060
23852SOL     OW72996   7.668   0.605   5.712
23852SOL    HW172997   7.576   0.612   5.735
23852SOL    HW272998   7.669   0.583   5.619
23853SOL     OW72999   7.684   0.281   6.552
23853SOL    HW173000   7.706   0.250   6.640
23853SOL    HW273001   7.594   0.252   6.538
23854SOL     OW73002   7.460   0.393   6.227
23854SOL    HW173003   7.374   0.421   6.258
23854SOL    HW273004   7.454   0.298   6.222
23855SOL     OW73005   7.772   1.440   6.637
23855SOL    HW173006   7.700   1.388   6.602
23855SOL    HW273007   7.851   1.394   6.608
23856SOL     OW73008   7.860   0.389   7.058
23856SOL    HW173009   7.927   0.345   7.110
23856SOL    HW273010   7.781   0.338   7.073
23857SOL     OW73011   7.660   1.711   6.064
23857SOL    HW173012   7.679   1.793   6.109
23857SOL    HW273013   7.740   1.691   6.016
23858SOL     OW73014   7.676   1.439   6.116
23858SOL    HW173015   7.654   1.533   6.117
23858SOL    HW273016   7.617   1.401   6.181
23859SOL     OW73017   7.706   1.093   6.478
23859SOL    HW173018   7.696   1.006   6.517
23859SOL    HW273019   7.647   1.149   6.529
23860SOL     OW73020   7.573   0.647   6.152
23860SOL    HW173021   7.533   0.563   6.172
23860SOL    HW273022   7.560   0.700   6.231
23861SOL     OW73023   7.497   1.592   5.704
23861SOL    HW173024   7.478   1.499   5.722
23861SOL    HW273025   7.465   1.638   5.781
23862SOL     OW73026   7.550   0.753   7.171
23862SOL    HW173027   7.632   0.803   7.162
23862SOL    HW273028   7.481   0.818   7.156
23863SOL     OW73029   7.630   0.947   6.878
23863SOL    HW173030   7.703   0.888   6.857
23863SOL    HW273031   7.569   0.936   6.805
23864SOL     OW73032   7.762   0.261   7.364
23864SOL    HW173033   7.826   0.310   7.415
23864SOL    HW273034   7.683   0.262   7.419
23865SOL     OW73035   0.017   0.729   5.849
23865SOL    HW173036   0.025   0.816   5.809
23865SOL    HW273037  -0.041   0.743   5.924
23866SOL     OW73038   7.540   0.809   6.368
23866SOL    HW173039   7.617   0.818   6.424
23866SOL    HW273040   7.485   0.884   6.390
23867SOL     OW73041   7.544   1.911   7.161
23867SOL    HW173042   7.566   1.886   7.251
23867SOL    HW273043   7.486   1.841   7.130
23868SOL     OW73044   7.976   0.247   6.489
23868SOL    HW173045   7.883   0.235   6.511
23868SOL    HW273046   7.976   0.304   6.412
23869SOL     OW73047   7.808   1.833   6.451
23869SOL    HW173048   7.857   1.753   6.433
23869SOL    HW273049   7.876   1.900   6.462
23870SOL     OW73050   7.745   0.962   5.838
23870SOL    HW173051   7.806   0.995   5.772
23870SOL    HW273052   7.726   0.872   5.810
23871SOL     OW73053   7.883   1.326   7.354
23871SOL    HW173054   7.867   1.318   7.259
23871SOL    HW273055   7.803   1.291   7.394
23872SOL     OW73056   7.626   0.255   7.100
23872SOL    HW173057   7.539   0.294   7.104
23872SOL    HW273058   7.645   0.229   7.191
23873SOL     OW73059   7.718   1.791   6.798
23873SOL    HW173060   7.752   1.708   6.830
23873SOL    HW273061   7.680   1.770   6.712
23874SOL     OW73062   7.831   0.694   6.053
23874SOL    HW173063   7.846   0.602   6.032
23874SOL    HW273064   7.742   0.697   6.086
23875SOL     OW73065   0.026   0.072   5.714
23875SOL    HW173066   0.117   0.047   5.731
23875SOL    HW273067   0.031   0.128   5.638
23876SOL     OW73068   7.757   0.059   5.801
23876SOL    HW173069   7.734   0.113   5.725
23876SOL    HW273070   7.851   0.042   5.791
23877SOL     OW73071   7.922   1.093   6.310
23877SOL    HW173072   7.852   1.103   6.375
23877SOL    HW273073   7.877   1.096   6.226
23878SOL     OW73074   7.564   0.576   6.965
23878SOL    HW173075   7.648   0.616   6.945
23878SOL    HW273076   7.530   0.626   7.039
23879SOL     OW73077   7.845   0.755   6.876
23879SOL    HW173078   7.915   0.800   6.829
23879SOL    HW273079   7.862   0.775   6.968
23880SOL     OW73080   7.527   1.575   6.948
23880SOL    HW173081   7.488   1.632   6.882
23880SOL    HW273082   7.620   1.572   6.926
23881SOL     OW73083   7.786   1.113   6.071
23881SOL    HW173084   7.785   1.193   6.018
23881SOL    HW273085   7.774   1.042   6.008
23882SOL     OW73086  -0.031   0.587   6.459
23882SOL    HW173087  -0.002   0.657   6.401
23882SOL    HW273088   0.040   0.579   6.524
23883SOL     OW73089   7.794   1.544   6.882
23883SOL    HW173090   7.791   1.500   6.797
23883SOL    HW273091   7.885   1.536   6.911
23884SOL     OW73092   7.855   0.772   7.165
23884SOL    HW173093   7.923   0.836   7.182
23884SOL    HW273094   7.897   0.687   7.181
23885SOL     OW73095   7.945   0.065   7.276
23885SOL    HW173096   7.906  -0.010   7.230
23885SOL    HW273097   7.870   0.119   7.301
23886SOL     OW73098   0.024   0.922   6.656
23886SOL    HW173099   0.104   0.950   6.611
23886SOL    HW273100  -0.041   0.988   6.633
23887SOL     OW73101   7.765   0.236   6.814
23887SOL    HW173102   7.696   0.230   6.880
23887SOL    HW273103   7.782   0.146   6.788
23888SOL     OW73104   7.487   1.311   6.868
23888SOL    HW173105   7.526   1.256   6.936
23888SOL    HW273106   7.497   1.400   6.900
23889SOL     OW73107   7.834   0.053   6.283
23889SOL    HW173108   7.789   0.136   6.270
23889SOL    HW273109   7.764  -0.013   6.279
23890SOL     OW73110   7.792   0.922   7.421
23890SOL    HW173111   7.872   0.968   7.395
23890SOL    HW273112   7.791   0.843   7.367
23891SOL     OW73113   7.754   0.819   6.547
23891SOL    HW173114   7.842   0.827   6.510
23891SOL    HW273115   7.754   0.733   6.590
23892SOL     OW73116   7.775   0.523   6.632
23892SOL    HW173117   7.734   0.444   6.596
23892SOL    HW273118   7.842   0.547   6.568
23893SOL     OW73119   7.461   1.318   5.781
23893SOL    HW173120   7.374   1.336   5.746
23893SOL    HW273121   7.454   1.229   5.817
23894SOL     OW73122   7.551   1.780   6.542
23894SOL    HW173123   7.514   1.707   6.493
23894SOL    HW273124   7.635   1.797   6.500
23895SOL     OW73125   7.477   0.541   6.704
23895SOL    HW173126   7.552   0.547   6.645
23895SOL    HW273127   7.516   0.545   6.792
23896SOL     OW73128   7.630   0.542   7.328
23896SOL    HW173129   7.677   0.492   7.262
23896SOL    HW273130   7.588   0.613   7.279
23897SOL     OW73131   0.224   0.503   5.888
23897SOL    HW173132   0.179   0.420   5.902
23897SOL    HW273133   0.190   0.560   5.957
23898SOL     OW73134   7.702   1.559   7.322
23898SOL    HW173135   7.665   1.616   7.389
23898SOL    HW273136   7.701   1.471   7.361
23899SOL     OW73137   7.915   0.493   5.753
23899SOL    HW173138   7.964   0.569   5.785
23899SOL    HW273139   7.825   0.525   5.742
23900SOL     OW73140   7.588   1.142   7.064
23900SOL    HW173141   7.590   1.099   7.150
23900SOL    HW273142   7.604   1.072   7.001
23901SOL     OW73143   7.530   1.266   6.600
23901SOL    HW173144   7.507   1.281   6.692
23901SOL    HW273145   7.459   1.212   6.567
23902SOL     OW73146   7.587   1.807   7.421
23902SOL    HW173147   7.536   1.739   7.465
23902SOL    HW273148   7.636   1.850   7.491
23903SOL     OW73149   7.732   0.319   6.284
23903SOL    HW173150   7.653   0.356   6.246
23903SOL    HW273151   7.711   0.306   6.376
23904SOL     OW73152   7.804   1.316   7.094
23904SOL    HW173153   7.821   1.351   7.006
23904SOL    HW273154   7.733   1.253   7.082
23905SOL     OW73155  -0.024   1.570   6.004
23905SOL    HW173156  -0.017   1.485   6.047
23905SOL    HW273157   0.054   1.618   6.031
23906SOL     OW73158   7.723   1.333   5.873
23906SOL    HW173159   7.631   1.334   5.846
23906SOL    HW273160   7.723   1.382   5.956
23907SOL     OW73161   7.569   1.049   7.321
23907SOL    HW173162   7.488   1.015   7.360
23907SOL    HW273163   7.639   0.999   7.364
23908SOL     OW73164   7.527   0.147   5.941
23908SOL    HW173165   7.493   0.195   5.865
23908SOL    HW273166   7.608   0.108   5.910
23909SOL     OW73167   7.819   1.747   7.152
23909SOL    HW173168   7.740   1.780   7.110
23909SOL    HW273169   7.790   1.668   7.199
23910SOL     OW73170   7.627   1.295   7.429
23910SOL    HW173171   7.602   1.216   7.383
23910SOL    HW273172   7.562   1.305   7.499
23911SOL     OW73173   7.537   1.231   6.254
23911SOL    HW173174   7.554   1.180   6.333
23911SOL    HW273175   7.597   1.194   6.189
23912SOL     OW73176   0.103   1.452   7.208
23912SOL    HW173177   0.082   1.361   7.186
23912SOL    HW273178   0.081   1.501   7.130
23913SOL     OW73179   7.487   1.065   5.902
23913SOL    HW173180   7.579   1.053   5.875
23913SOL    HW273181   7.458   0.977   5.926
23914SOL     OW73182   7.656   0.628   7.587
23914SOL    HW173183   7.568   0.618   7.624
23914SOL    HW273184   7.646   0.606   7.495
23915SOL     OW73185   7.695   0.278   8.426
23915SOL    HW173186   7.713   0.253   8.516
23915SOL    HW273187   7.610   0.238   8.406
23916SOL     OW73188   7.474   0.391   8.067
23916SOL    HW173189   7.385   0.392   8.102
23916SOL    HW273190   7.472   0.326   7.996
23917SOL     OW73191   7.744   1.435   8.508
23917SOL    HW173192   7.673   1.379   8.476
23917SOL    HW273193   7.796   1.454   8.429
23918SOL     OW73194   7.864   0.389   8.957
23918SOL    HW173195   7.925   0.322   8.986
23918SOL    HW273196   7.779   0.345   8.953
23919SOL     OW73197   7.655   1.715   7.928
23919SOL    HW173198   7.672   1.796   7.976
23919SOL    HW273199   7.731   1.704   7.871
23920SOL     OW73200   7.657   1.443   7.980
23920SOL    HW173201   7.654   1.539   7.979
23920SOL    HW273202   7.602   1.419   8.054
23921SOL     OW73203   7.727   1.091   8.371
23921SOL    HW173204   7.720   0.998   8.395
23921SOL    HW273205   7.654   1.133   8.416
23922SOL     OW73206   7.575   0.650   8.011
23922SOL    HW173207   7.541   0.562   8.026
23922SOL    HW273208   7.562   0.696   8.094
23923SOL     OW73209   7.500   1.594   7.569
23923SOL    HW173210   7.476   1.502   7.586
23923SOL    HW273211   7.465   1.642   7.644
23924SOL     OW73212   7.558   0.746   9.025
23924SOL    HW173213   7.645   0.784   9.035
23924SOL    HW273214   7.499   0.822   9.023
23925SOL     OW73215   7.632   0.962   8.717
23925SOL    HW173216   7.717   0.918   8.715
23925SOL    HW273217   7.572   0.899   8.677
23926SOL     OW73218   7.767   0.257   9.231
23926SOL    HW173219   7.829   0.310   9.281
23926SOL    HW273220   7.688   0.255   9.284
23927SOL     OW73221   0.027   0.717   7.700
23927SOL    HW173222   0.008   0.799   7.653
23927SOL    HW273223  -0.028   0.722   7.778
23928SOL     OW73224   7.542   0.814   8.230
23928SOL    HW173225   7.620   0.809   8.285
23928SOL    HW273226   7.492   0.888   8.264
23929SOL     OW73227   7.536   1.789   9.011
23929SOL    HW173228   7.556   1.796   9.104
23929SOL    HW273229   7.489   1.870   8.990
23930SOL     OW73230   7.976   0.250   8.341
23930SOL    HW173231   7.891   0.228   8.379
23930SOL    HW273232   7.957   0.322   8.280
23931SOL     OW73233   7.813   1.828   8.312
23931SOL    HW173234   7.867   1.770   8.258
23931SOL    HW273235   7.869   1.903   8.331
23932SOL     OW73236   7.780   0.946   7.697
23932SOL    HW173237   7.785   0.958   7.603
23932SOL    HW273238   7.747   0.857   7.709
23933SOL     OW73239   7.944   1.264   9.184
23933SOL    HW173240   7.903   1.260   9.098
23933SOL    HW273241   7.871   1.270   9.246
23934SOL     OW73242   7.624   0.257   8.958
23934SOL    HW173243   7.539   0.297   8.973
23934SOL    HW273244   7.639   0.201   9.034
23935SOL     OW73245   7.676   1.766   8.681
23935SOL    HW173246   7.761   1.725   8.698
23935SOL    HW273247   7.670   1.772   8.586
23936SOL     OW73248   7.833   0.690   7.904
23936SOL    HW173249   7.863   0.602   7.925
23936SOL    HW273250   7.741   0.692   7.932
23937SOL     OW73251   0.021   0.079   7.567
23937SOL    HW173252   0.112   0.057   7.585
23937SOL    HW273253   0.020   0.103   7.474
23938SOL     OW73254   7.748   0.058   7.648
23938SOL    HW173255   7.826   0.094   7.606
23938SOL    HW273256   7.776  -0.028   7.681
23939SOL     OW73257   7.921   1.086   8.182
23939SOL    HW173258   7.850   1.092   8.245
23939SOL    HW273259   7.878   1.093   8.097
23940SOL     OW73260   7.537   0.559   8.834
23940SOL    HW173261   7.629   0.551   8.810
23940SOL    HW273262   7.536   0.626   8.902
23941SOL     OW73263   7.862   0.807   8.720
23941SOL    HW173264   7.953   0.795   8.749
23941SOL    HW273265   7.824   0.719   8.724
23942SOL     OW73266   7.794   1.110   7.935
23942SOL    HW173267   7.788   1.190   7.883
23942SOL    HW273268   7.787   1.039   7.872
23943SOL     OW73269  -0.020   0.572   8.317
23943SOL    HW173270   0.018   0.652   8.281
23943SOL    HW273271   0.021   0.561   8.402
23944SOL     OW73272   7.782   1.516   8.766
23944SOL    HW173273   7.786   1.482   8.676
23944SOL    HW273274   7.872   1.543   8.785
23945SOL     OW73275   7.844   0.748   9.052
23945SOL    HW173276   7.924   0.766   9.002
23945SOL    HW273277   7.844   0.653   9.063
23946SOL     OW73278   7.940   0.073   9.104
23946SOL    HW173279   7.901  -0.010   9.078
23946SOL    HW273280   7.869   0.119   9.149
23947SOL     OW73281   8.037   0.928   8.537
23947SOL    HW173282   8.003   0.996   8.479
23947SOL    HW273283   7.959   0.884   8.570
23948SOL     OW73284   7.745   0.218   8.686
23948SOL    HW173285   7.694   0.224   8.767
23948SOL    HW273286   7.765   0.125   8.677
23949SOL     OW73287   7.533   1.364   8.751
23949SOL    HW173288   7.520   1.291   8.811
23949SOL    HW273289   7.616   1.343   8.706
23950SOL     OW73290   7.839   0.054   8.138
23950SOL    HW173291   7.797   0.137   8.114
23950SOL    HW273292   7.769  -0.010   8.133
23951SOL     OW73293   7.815   0.907   9.275
23951SOL    HW173294   7.834   0.838   9.338
23951SOL    HW273295   7.826   0.865   9.190
23952SOL     OW73296   7.766   0.811   8.394
23952SOL    HW173297   7.847   0.800   8.343
23952SOL    HW273298   7.749   0.725   8.431
23953SOL     OW73299   7.749   0.538   8.452
23953SOL    HW173300   7.723   0.447   8.442
23953SOL    HW273301   7.829   0.546   8.400
23954SOL     OW73302   7.457   1.317   7.640
23954SOL    HW173303   7.367   1.333   7.612
23954SOL    HW273304   7.453   1.232   7.685
23955SOL     OW73305   7.554   1.776   8.404
23955SOL    HW173306   7.520   1.703   8.352
23955SOL    HW273307   7.638   1.797   8.362
23956SOL     OW73308   7.485   0.572   8.560
23956SOL    HW173309   7.565   0.555   8.510
23956SOL    HW273310   7.508   0.551   8.650
23957SOL     OW73311   7.633   0.535   9.189
23957SOL    HW173312   7.673   0.470   9.131
23957SOL    HW273313   7.590   0.597   9.130
23958SOL     OW73314   0.245   0.479   7.807
23958SOL    HW173315   0.188   0.403   7.790
23958SOL    HW273316   0.187   0.555   7.794
23959SOL     OW73317   7.694   1.540   9.169
23959SOL    HW173318   7.678   1.600   9.242
23959SOL    HW273319   7.706   1.454   9.211
23960SOL     OW73320   7.902   0.497   7.590
23960SOL    HW173321   7.952   0.564   7.636
23960SOL    HW273322   7.811   0.527   7.596
23961SOL     OW73323   7.582   1.141   8.917
23961SOL    HW173324   7.586   1.093   8.999
23961SOL    HW273325   7.598   1.074   8.850
23962SOL     OW73326   7.519   1.269   8.463
23962SOL    HW173327   7.471   1.283   8.544
23962SOL    HW273328   7.465   1.207   8.414
23963SOL     OW73329   7.593   1.799   9.279
23963SOL    HW173330   7.545   1.732   9.328
23963SOL    HW273331   7.642   1.848   9.346
23964SOL     OW73332   7.745   0.340   8.155
23964SOL    HW173333   7.660   0.357   8.114
23964SOL    HW273334   7.723   0.318   8.246
23965SOL     OW73335   7.808   1.293   8.955
23965SOL    HW173336   7.804   1.366   8.893
23965SOL    HW273337   7.730   1.241   8.936
23966SOL     OW73338  -0.014   1.540   7.932
23966SOL    HW173339   0.001   1.481   7.858
23966SOL    HW273340   0.054   1.607   7.923
23967SOL     OW73341   7.733   1.331   7.751
23967SOL    HW173342   7.651   1.334   7.700
23967SOL    HW273343   7.712   1.378   7.832
23968SOL     OW73344   7.566   1.044   9.181
23968SOL    HW173345   7.485   1.017   9.224
23968SOL    HW273346   7.635   0.995   9.225
23969SOL     OW73347   7.521   0.333   7.488
23969SOL    HW173348   7.430   0.312   7.464
23969SOL    HW273349   7.541   0.412   7.439
23970SOL     OW73350   7.546   0.228   7.759
23970SOL    HW173351   7.527   0.269   7.675
23970SOL    HW273352   7.612   0.161   7.739
23971SOL     OW73353   7.818   1.745   9.012
23971SOL    HW173354   7.726   1.767   8.995
23971SOL    HW273355   7.815   1.659   9.054
23972SOL     OW73356   7.687   1.294   9.294
23972SOL    HW173357   7.634   1.221   9.262
23972SOL    HW273358   7.662   1.304   9.386
23973SOL     OW73359   7.526   1.236   8.127
23973SOL    HW173360   7.530   1.165   8.191
23973SOL    HW273361   7.589   1.210   8.059
23974SOL     OW73362   0.094   1.437   9.004
23974SOL    HW173363   0.041   1.382   9.062
23974SOL    HW273364   0.166   1.467   9.060
23975SOL     OW73365   7.790   0.549   8.741
23975SOL    HW173366   7.835   0.487   8.798
23975SOL    HW273367   7.802   0.513   8.653
23976SOL     OW73368   7.485   1.069   7.768
23976SOL    HW173369   7.574   1.062   7.735
23976SOL    HW273370   7.459   0.980   7.789
23977SOL     OW73371   7.660   0.651   9.439
23977SOL    HW173372   7.578   0.633   9.484
23977SOL    HW273373   7.649   0.614   9.352
23978SOL     OW73374   7.640   0.334  10.360
23978SOL    HW173375   7.689   0.271  10.413
23978SOL    HW273376   7.582   0.281  10.306
23979SOL     OW73377   7.428   0.417   9.910
23979SOL    HW173378   7.354   0.380   9.958
23979SOL    HW273379   7.497   0.352   9.918
23980SOL     OW73380   7.765   1.456  10.364
23980SOL    HW173381   7.712   1.394  10.313
23980SOL    HW273382   7.852   1.452  10.323
23981SOL     OW73383   7.848   0.417  10.832
23981SOL    HW173384   7.932   0.370  10.827
23981SOL    HW273385   7.782   0.349  10.816
23982SOL     OW73386   7.659   1.714   9.792
23982SOL    HW173387   7.675   1.792   9.846
23982SOL    HW273388   7.741   1.702   9.744
23983SOL     OW73389   7.679   1.440   9.837
23983SOL    HW173390   7.658   1.533   9.841
23983SOL    HW273391   7.624   1.399   9.904
23984SOL     OW73392   7.690   1.077  10.229
23984SOL    HW173393   7.708   0.983  10.224
23984SOL    HW273394   7.665   1.091  10.320
23985SOL     OW73395   7.561   0.655   9.863
23985SOL    HW173396   7.527   0.566   9.875
23985SOL    HW273397   7.558   0.694   9.951
23986SOL     OW73398   7.492   1.592   9.422
23986SOL    HW173399   7.477   1.500   9.444
23986SOL    HW273400   7.465   1.640   9.500
23987SOL     OW73401   7.574   0.749  10.890
23987SOL    HW173402   7.669   0.762  10.892
23987SOL    HW273403   7.538   0.834  10.913
23988SOL     OW73404   7.637   0.960  10.568
23988SOL    HW173405   7.725   0.923  10.569
23988SOL    HW273406   7.582   0.890  10.531
23989SOL     OW73407   7.755   0.256  11.089
23989SOL    HW173408   7.829   0.298  11.131
23989SOL    HW273409   7.691   0.242  11.159
23990SOL     OW73410   7.983   0.788   9.583
23990SOL    HW173411   8.068   0.750   9.604
23990SOL    HW273412   7.923   0.751   9.648
23991SOL     OW73413   7.534   0.829  10.081
23991SOL    HW173414   7.609   0.805  10.134
23991SOL    HW273415   7.493   0.901  10.129
23992SOL     OW73416   7.558   1.852  10.891
23992SOL    HW173417   7.571   1.832  10.984
23992SOL    HW273418   7.464   1.841  10.877
23993SOL     OW73419   7.975   0.245  10.234
23993SOL    HW173420   7.904   0.225  10.294
23993SOL    HW273421   7.934   0.291  10.162
23994SOL     OW73422   7.819   1.824  10.182
23994SOL    HW173423   7.896   1.767  10.187
23994SOL    HW273424   7.854   1.912  10.194
23995SOL     OW73425   7.737   0.957   9.567
23995SOL    HW173426   7.799   0.963   9.495
23995SOL    HW273427   7.719   0.864   9.577
23996SOL     OW73428   7.951   1.241  11.053
23996SOL    HW173429   7.912   1.245  10.966
23996SOL    HW273430   7.879   1.262  11.112
23997SOL     OW73431   7.627   0.247  10.823
23997SOL    HW173432   7.551   0.306  10.817
23997SOL    HW273433   7.645   0.241  10.917
23998SOL     OW73434   7.690   1.788  10.549
23998SOL    HW173435   7.748   1.750  10.615
23998SOL    HW273436   7.723   1.753  10.466
23999SOL     OW73437   7.817   0.681   9.765
23999SOL    HW173438   7.864   0.619   9.822
23999SOL    HW273439   7.725   0.672   9.792
24000SOL     OW73440   0.045   0.063   9.411
24000SOL    HW173441   0.137   0.055   9.436
24000SOL    HW273442   0.043   0.139   9.353
24001SOL     OW73443   7.769   0.043   9.498
24001SOL    HW173444   7.859   0.056   9.468
24001SOL    HW273445   7.776  -0.024   9.566
24002SOL     OW73446   7.885   1.157  10.054
24002SOL    HW173447   7.817   1.128  10.115
24002SOL    HW273448   7.851   1.132   9.967
24003SOL     OW73449   7.547   0.553  10.704
24003SOL    HW173450   7.636   0.553  10.670
24003SOL    HW273451   7.545   0.626  10.767
24004SOL     OW73452   7.874   0.818  10.569
24004SOL    HW173453   7.951   0.817  10.626
24004SOL    HW273454   7.842   0.728  10.570
24005SOL     OW73455   7.524   1.567  10.658
24005SOL    HW173456   7.516   1.657  10.625
24005SOL    HW273457   7.619   1.552  10.661
24006SOL     OW73458   7.791   1.115   9.797
24006SOL    HW173459   7.776   1.187   9.735
24006SOL    HW273460   7.778   1.036   9.745
24007SOL     OW73461   0.021   0.562  10.166
24007SOL    HW173462   0.049   0.646  10.130
24007SOL    HW273463   0.040   0.568  10.260
24008SOL     OW73464   7.785   1.509  10.632
24008SOL    HW173465   7.781   1.483  10.540
24008SOL    HW273466   7.876   1.539  10.645
24009SOL     OW73467   7.851   0.725  10.907
24009SOL    HW173468   7.937   0.762  10.888
24009SOL    HW273469   7.861   0.631  10.893
24010SOL     OW73470   7.945   0.063  11.007
24010SOL    HW173471   7.910  -0.011  10.958
24010SOL    HW273472   7.868   0.116  11.029
24011SOL     OW73473   7.984   0.926  10.341
24011SOL    HW173474   8.056   0.976  10.379
24011SOL    HW273475   7.941   0.885  10.416
24012SOL     OW73476   7.779   0.193  10.559
24012SOL    HW173477   7.706   0.189  10.621
24012SOL    HW273478   7.775   0.109  10.513
24013SOL     OW73479   7.484   1.311  10.570
24013SOL    HW173480   7.515   1.250  10.637
24013SOL    HW273481   7.501   1.398  10.608
24014SOL     OW73482   7.863   0.062   9.988
24014SOL    HW173483   7.824   0.149   9.994
24014SOL    HW273484   7.792   0.002  10.009
24015SOL     OW73485   7.794   0.917  11.106
24015SOL    HW173486   7.880   0.943  11.141
24015SOL    HW273487   7.812   0.839  11.053
24016SOL     OW73488   7.747   0.812  10.253
24016SOL    HW173489   7.837   0.839  10.269
24016SOL    HW273490   7.745   0.719  10.274
24017SOL     OW73491   7.783   0.550  10.302
24017SOL    HW173492   7.728   0.472  10.300
24017SOL    HW273493   7.847   0.536  10.232
24018SOL     OW73494   7.466   1.316   9.501
24018SOL    HW173495   7.379   1.333   9.465
24018SOL    HW273496   7.459   1.229   9.541
24019SOL     OW73497   7.546   1.789  10.238
24019SOL    HW173498   7.522   1.700  10.213
24019SOL    HW273499   7.639   1.796  10.217
24020SOL     OW73500   7.482   0.556  10.427
24020SOL    HW173501   7.527   0.488  10.377
24020SOL    HW273502   7.515   0.546  10.516
24021SOL     OW73503   7.621   0.524  11.046
24021SOL    HW173504   7.693   0.477  11.005
24021SOL    HW273505   7.599   0.594  10.984
24022SOL     OW73506   0.201   0.515   9.596
24022SOL    HW173507   0.183   0.422   9.610
24022SOL    HW273508   0.206   0.552   9.684
24023SOL     OW73509   7.680   1.546  11.025
24023SOL    HW173510   7.672   1.612  11.094
24023SOL    HW273511   7.705   1.466  11.071
24024SOL     OW73512   7.906   0.502   9.453
24024SOL    HW173513   7.960   0.563   9.504
24024SOL    HW273514   7.817   0.533   9.465
24025SOL     OW73515   7.575   1.133  10.772
24025SOL    HW173516   7.582   1.085  10.855
24025SOL    HW273517   7.600   1.069  10.705
24026SOL     OW73518   7.480   1.290  10.302
24026SOL    HW173519   7.510   1.273  10.391
24026SOL    HW273520   7.467   1.203  10.264
24027SOL     OW73521   7.589   1.797  11.152
24027SOL    HW173522   7.543   1.727  11.200
24027SOL    HW273523   7.639   1.843  11.220
24028SOL     OW73524   7.809   1.287  10.825
24028SOL    HW173525   7.815   1.363  10.768
24028SOL    HW273526   7.728   1.243  10.798
24029SOL     OW73527  -0.019   1.570   9.731
24029SOL    HW173528  -0.016   1.510   9.805
24029SOL    HW273529   0.037   1.643   9.757
24030SOL     OW73530   7.728   1.334   9.595
24030SOL    HW173531   7.636   1.332   9.570
24030SOL    HW273532   7.729   1.382   9.678
24031SOL     OW73533   7.553   1.005  11.020
24031SOL    HW173534   7.487   0.984  11.086
24031SOL    HW273535   7.636   0.984  11.061
24032SOL     OW73536   7.524   0.338   9.353
24032SOL    HW173537   7.430   0.327   9.343
24032SOL    HW273538   7.545   0.415   9.299
24033SOL     OW73539   7.513   0.159   9.563
24033SOL    HW173540   7.522   0.240   9.512
24033SOL    HW273541   7.602   0.124   9.567
24034SOL     OW73542   7.815   1.751  10.856
24034SOL    HW173543   7.724   1.782  10.858
24034SOL    HW273544   7.811   1.663  10.893
24035SOL     OW73545   7.705   1.307  11.171
24035SOL    HW173546   7.624   1.260  11.152
24035SOL    HW273547   7.703   1.321  11.265
24036SOL     OW73548   7.541   1.241   9.990
24036SOL    HW173549   7.538   1.186  10.068
24036SOL    HW273550   7.598   1.194   9.929
24037SOL     OW73551   0.087   1.444  10.865
24037SOL    HW173552   0.049   1.378  10.923
24037SOL    HW273553   0.165   1.475  10.912
24038SOL     OW73554   7.789   0.561  10.583
24038SOL    HW173555   7.836   0.491  10.627
24038SOL    HW273556   7.793   0.539  10.490
24039SOL     OW73557   7.487   1.063   9.621
24039SOL    HW173558   7.578   1.048   9.595
24039SOL    HW273559   7.454   0.977   9.645
24040SOL     OW73560   7.648   0.630  11.302
24040SOL    HW173561   7.566   0.603  11.343
24040SOL    HW273562   7.644   0.595  11.213
24041SOL     OW73563   7.687   0.284  12.154
24041SOL    HW173564   7.714   0.250  12.239
24041SOL    HW273565   7.600   0.245  12.140
24042SOL     OW73566   7.463   0.399  11.807
24042SOL    HW173567   7.375   0.417  11.839
24042SOL    HW273568   7.459   0.309  11.774
24043SOL     OW73569   7.769   1.427  12.218
24043SOL    HW173570   7.684   1.382  12.217
24043SOL    HW273571   7.796   1.430  12.126
24044SOL     OW73572   7.658   1.710  11.646
24044SOL    HW173573   7.677   1.793  11.689
24044SOL    HW273574   7.736   1.692  11.593
24045SOL     OW73575   7.673   1.436  11.702
24045SOL    HW173576   7.651   1.529  11.705
24045SOL    HW273577   7.614   1.396  11.766
24046SOL     OW73578   7.708   1.091  12.081
24046SOL    HW173579   7.703   1.001  12.114
24046SOL    HW273580   7.650   1.141  12.138
24047SOL     OW73581   7.566   0.654  11.734
24047SOL    HW173582   7.534   0.566  11.755
24047SOL    HW273583   7.556   0.703  11.815
24048SOL     OW73584   7.494   1.589  11.293
24048SOL    HW173585   7.476   1.497  11.313
24048SOL    HW273586   7.462   1.637  11.369
24049SOL     OW73587   7.600   0.759   0.209
24049SOL    HW173588   7.584   0.734   0.300
24049SOL    HW273589   7.523   0.810   0.184
24050SOL     OW73590   7.645   0.988  12.393
24050SOL    HW173591   7.717   0.926  12.411
24050SOL    HW273592   7.569   0.949  12.436
24051SOL     OW73593   7.993   0.741  11.429
24051SOL    HW173594   8.045   0.820  11.442
24051SOL    HW273595   7.939   0.734  11.508
24052SOL     OW73596   7.534   0.830  11.945
24052SOL    HW173597   7.615   0.820  11.997
24052SOL    HW273598   7.488   0.902  11.987
24053SOL     OW73599   7.979   0.241  12.057
24053SOL    HW173600   7.907   0.229  12.120
24053SOL    HW273601   7.975   0.334  12.034
24054SOL     OW73602   7.785   1.810  12.024
24054SOL    HW173603   7.838   1.737  11.993
24054SOL    HW273604   7.848   1.881  12.039
24055SOL     OW73605   7.748   0.961  11.430
24055SOL    HW173606   7.838   0.976  11.401
24055SOL    HW273607   7.731   0.870  11.406
24056SOL     OW73608   7.695   1.798  12.401
24056SOL    HW173609   7.729   1.714  12.431
24056SOL    HW273610   7.639   1.776  12.326
24057SOL     OW73611   7.826   0.699  11.639
24057SOL    HW173612   7.867   0.620  11.674
24057SOL    HW273613   7.734   0.691  11.664
24058SOL     OW73614   0.028   0.082  11.297
24058SOL    HW173615   0.117   0.052  11.310
24058SOL    HW273616   0.025   0.110  11.206
24059SOL     OW73617   7.761   0.062  11.372
24059SOL    HW173618   7.849   0.083  11.342
24059SOL    HW273619   7.769  -0.024  11.412
24060SOL     OW73620   7.916   1.119  11.911
24060SOL    HW173621   7.844   1.107  11.973
24060SOL    HW273622   7.876   1.110  11.825
24061SOL     OW73623   7.857   0.799  12.446
24061SOL    HW173624   7.882   0.802  12.538
24061SOL    HW273625   7.816   0.714  12.435
24062SOL     OW73626   7.797   1.113  11.662
24062SOL    HW173627   7.782   1.191  11.610
24062SOL    HW273628   7.777   1.040  11.603
24063SOL     OW73629  -0.009   0.536  12.052
24063SOL    HW173630   0.026   0.612  12.005
24063SOL    HW273631   0.031   0.542  12.139
24064SOL     OW73632   7.793   1.558  12.468
24064SOL    HW173633   7.787   1.499  12.393
24064SOL    HW273634   7.881   1.543  12.504
24065SOL     OW73635   7.903   0.760   0.212
24065SOL    HW173636   7.995   0.759   0.238
24065SOL    HW273637   7.855   0.736   0.292
24066SOL     OW73638   7.997   0.904  12.233
24066SOL    HW173639   7.996   1.000  12.234
24066SOL    HW273640   7.947   0.879  12.310
24067SOL     OW73641   7.764   0.217  12.403
24067SOL    HW173642   7.725   0.268  12.475
24067SOL    HW273643   7.793   0.136  12.445
24068SOL     OW73644   7.512   1.333  12.439
24068SOL    HW173645   7.533   1.258  12.495
24068SOL    HW273646   7.518   1.409  12.497
24069SOL     OW73647   7.810   0.061  11.822
24069SOL    HW173648   7.787   0.148  11.855
24069SOL    HW273649   7.772   0.000  11.886
24070SOL     OW73650   7.752   0.814  12.114
24070SOL    HW173651   7.843   0.834  12.137
24070SOL    HW273652   7.741   0.722  12.139
24071SOL     OW73653   7.745   0.545  12.165
24071SOL    HW173654   7.721   0.452  12.164
24071SOL    HW273655   7.830   0.548  12.121
24072SOL     OW73656   7.460   1.314  11.364
24072SOL    HW173657   7.373   1.333  11.329
24072SOL    HW273658   7.452   1.226  11.401
24073SOL     OW73659   7.537   1.776  12.126
24073SOL    HW173660   7.504   1.698  12.081
24073SOL    HW273661   7.625   1.789  12.092
24074SOL     OW73662   7.513   0.545  12.322
24074SOL    HW173663   7.583   0.554  12.258
24074SOL    HW273664   7.497   0.451  12.329
24075SOL     OW73665   0.214   0.515  11.464
24075SOL    HW173666   0.183   0.425  11.475
24075SOL    HW273667   0.185   0.560  11.543
24076SOL     OW73668   7.904   0.508  11.314
24076SOL    HW173669   7.955   0.579  11.354
24076SOL    HW273670   7.813   0.537  11.322
24077SOL     OW73671   7.521   1.289  12.175
24077SOL    HW173672   7.511   1.301  12.270
24077SOL    HW273673   7.460   1.219  12.153
24078SOL     OW73674   7.729   0.321  11.884
24078SOL    HW173675   7.646   0.355  11.851
24078SOL    HW273676   7.715   0.312  11.979
24079SOL     OW73677  -0.011   1.570  11.593
24079SOL    HW173678   0.002   1.485  11.634
24079SOL    HW273679   0.069   1.619  11.614
24080SOL     OW73680   7.717   1.336  11.457
24080SOL    HW173681   7.625   1.333  11.432
24080SOL    HW273682   7.717   1.382  11.541
24081SOL     OW73683   7.511   0.335  11.223
24081SOL    HW173684   7.427   0.303  11.190
24081SOL    HW273685   7.541   0.397  11.157
24082SOL     OW73686   7.534   0.193  11.474
24082SOL    HW173687   7.518   0.255  11.402
24082SOL    HW273688   7.614   0.147  11.449
24083SOL     OW73689   7.779   1.723   0.245
24083SOL    HW173690   7.727   1.720   0.166
24083SOL    HW273691   7.821   1.637   0.250
24084SOL     OW73692   7.537   1.232  11.848
24084SOL    HW173693   7.527   1.186  11.931
24084SOL    HW273694   7.606   1.184  11.802
24085SOL     OW73695   7.486   1.057  11.473
24085SOL    HW173696   7.579   1.046  11.453
24085SOL    HW273697   7.457   0.970  11.500
24086SOL     OW73698   7.677   2.410   0.051
24086SOL    HW173699   7.659   2.482   0.112
24086SOL    HW273700   7.623   2.429  -0.025
24087SOL     OW73701   7.676   2.141   0.993
24087SOL    HW173702   7.700   2.111   1.080
24087SOL    HW273703   7.586   2.110   0.980
24088SOL     OW73704   7.447   2.242   0.643
24088SOL    HW173705   7.367   2.266   0.690
24088SOL    HW273706   7.424   2.162   0.595
24089SOL     OW73707   7.794   3.265   1.037
24089SOL    HW173708   7.712   3.216   1.036
24089SOL    HW273709   7.774   3.346   0.991
24090SOL     OW73710   7.888   2.166   1.508
24090SOL    HW173711   7.885   2.075   1.536
24090SOL    HW273712   7.796   2.190   1.496
24091SOL     OW73713   7.660   3.571   0.494
24091SOL    HW173714   7.687   3.649   0.542
24091SOL    HW273715   7.702   3.579   0.409
24092SOL     OW73716   7.661   3.300   0.542
24092SOL    HW173717   7.661   3.396   0.536
24092SOL    HW273718   7.602   3.281   0.615
24093SOL     OW73719   7.685   2.949   0.886
24093SOL    HW173720   7.684   2.864   0.930
24093SOL    HW273721   7.641   3.008   0.947
24094SOL     OW73722   7.558   2.499   0.573
24094SOL    HW173723   7.519   2.415   0.598
24094SOL    HW273724   7.549   2.554   0.651
24095SOL     OW73725   7.481   3.390   0.138
24095SOL    HW173726   7.393   3.360   0.119
24095SOL    HW273727   7.469   3.469   0.190
24096SOL     OW73728   7.556   2.617   1.589
24096SOL    HW173729   7.616   2.652   1.654
24096SOL    HW273730   7.488   2.684   1.580
24097SOL     OW73731   7.635   2.815   1.275
24097SOL    HW173732   7.720   2.774   1.261
24097SOL    HW273733   7.574   2.760   1.227
24098SOL     OW73734   7.759   2.121   1.841
24098SOL    HW173735   7.788   2.212   1.841
24098SOL    HW273736   7.664   2.126   1.855
24099SOL     OW73737   7.533   2.677   0.777
24099SOL    HW173738   7.612   2.676   0.831
24099SOL    HW273739   7.481   2.749   0.811
24100SOL     OW73740   7.573   3.718   1.580
24100SOL    HW173741   7.582   3.707   1.675
24100SOL    HW273742   7.509   3.652   1.554
24101SOL     OW73743   7.972   2.064   0.898
24101SOL    HW173744   7.966   2.077   0.993
24101SOL    HW273745   7.957   2.151   0.861
24102SOL     OW73746   7.818   3.693   0.868
24102SOL    HW173747   7.871   3.639   0.928
24102SOL    HW273748   7.861   3.778   0.870
24103SOL     OW73749   7.741   2.861   0.248
24103SOL    HW173750   7.804   2.882   0.179
24103SOL    HW273751   7.716   2.770   0.230
24104SOL     OW73752   7.934   3.113   1.729
24104SOL    HW173753   7.895   3.120   1.642
24104SOL    HW273754   7.859   3.122   1.789
24105SOL     OW73755   7.615   2.147   1.484
24105SOL    HW173756   7.567   2.228   1.505
24105SOL    HW273757   7.593   2.088   1.556
24106SOL     OW73758   7.727   3.656   1.236
24106SOL    HW173759   7.773   3.609   1.306
24106SOL    HW273760   7.645   3.607   1.225
24107SOL     OW73761   7.805   2.527   0.450
24107SOL    HW173762   7.870   2.505   0.517
24107SOL    HW273763   7.721   2.518   0.495
24108SOL     OW73764   0.071   1.948   0.034
24108SOL    HW173765   0.145   1.949   0.095
24108SOL    HW273766   0.018   1.873   0.062
24109SOL     OW73767   7.998   1.895   0.529
24109SOL    HW173768   7.907   1.914   0.550
24109SOL    HW273769   8.024   1.963   0.467
24110SOL     OW73770   7.904   2.944   0.734
24110SOL    HW173771   7.829   2.950   0.793
24110SOL    HW273772   7.867   2.952   0.646
24111SOL     OW73773   7.533   2.427   1.390
24111SOL    HW173774   7.626   2.422   1.368
24111SOL    HW273775   7.529   2.492   1.460
24112SOL     OW73776   7.998   2.054   1.171
24112SOL    HW173777   8.016   1.961   1.185
24112SOL    HW273778   7.912   2.068   1.210
24113SOL     OW73779   7.872   2.676   1.266
24113SOL    HW173780   7.936   2.691   1.335
24113SOL    HW273781   7.840   2.587   1.282
24114SOL     OW73782   7.537   3.467   1.289
24114SOL    HW173783   7.493   3.453   1.373
24114SOL    HW273784   7.623   3.424   1.300
24115SOL     OW73785   7.852   2.996   0.464
24115SOL    HW173786   7.803   3.075   0.441
24115SOL    HW273787   7.818   2.928   0.405
24116SOL     OW73788  -0.016   2.417   0.876
24116SOL    HW173789   0.020   2.496   0.836
24116SOL    HW273790   0.023   2.416   0.964
24117SOL     OW73791   7.798   3.365   1.302
24117SOL    HW173792   7.808   3.322   1.217
24117SOL    HW273793   7.886   3.397   1.323
24118SOL     OW73794   7.869   2.558   1.560
24118SOL    HW173795   7.836   2.642   1.528
24118SOL    HW273796   7.866   2.565   1.655
24119SOL     OW73797   7.934   1.963   1.712
24119SOL    HW173798   7.889   1.884   1.682
24119SOL    HW273799   7.866   2.014   1.757
24120SOL     OW73800   7.994   2.781   1.042
24120SOL    HW173801   7.995   2.877   1.044
24120SOL    HW273802   7.949   2.756   1.122
24121SOL     OW73803   7.735   2.060   1.250
24121SOL    HW173804   7.683   2.092   1.323
24121SOL    HW273805   7.720   1.965   1.250
24122SOL     OW73806   7.481   3.172   1.292
24122SOL    HW173807   7.518   3.110   1.355
24122SOL    HW273808   7.478   3.255   1.338
24123SOL     OW73809   7.742   1.945   0.618
24123SOL    HW173810   7.730   2.037   0.641
24123SOL    HW273811   7.754   1.901   0.702
24124SOL     OW73812   7.748   2.673   0.949
24124SOL    HW173813   7.838   2.702   0.964
24124SOL    HW273814   7.747   2.582   0.979
24125SOL     OW73815   7.752   2.397   1.010
24125SOL    HW173816   7.722   2.306   0.999
24125SOL    HW273817   7.830   2.403   0.955
24126SOL     OW73818   7.537   3.650   0.930
24126SOL    HW173819   7.515   3.566   0.888
24126SOL    HW273820   7.631   3.661   0.913
24127SOL     OW73821   7.484   2.418   1.118
24127SOL    HW173822   7.568   2.418   1.072
24127SOL    HW273823   7.507   2.418   1.211
24128SOL     OW73824   7.651   2.362   1.679
24128SOL    HW173825   7.717   2.406   1.625
24128SOL    HW273826   7.592   2.432   1.706
24129SOL     OW73827   7.744   3.428   1.732
24129SOL    HW173828   7.703   3.494   1.788
24129SOL    HW273829   7.671   3.373   1.703
24130SOL     OW73830   7.911   2.308   0.175
24130SOL    HW173831   7.929   2.389   0.223
24130SOL    HW273832   7.829   2.326   0.129
24131SOL     OW73833   7.591   2.993   1.475
24131SOL    HW173834   7.593   2.945   1.558
24131SOL    HW273835   7.609   2.926   1.408
24132SOL     OW73836   7.550   3.129   1.035
24132SOL    HW173837   7.530   3.144   1.127
24132SOL    HW273838   7.466   3.135   0.990
24133SOL     OW73839   7.607   3.652   1.841
24133SOL    HW173840   7.547   3.589   1.881
24133SOL    HW273841   7.664   3.680   1.913
24134SOL     OW73842   7.719   2.197   0.720
24134SOL    HW173843   7.632   2.226   0.693
24134SOL    HW273844   7.710   2.179   0.814
24135SOL     OW73845   7.815   3.157   1.491
24135SOL    HW173846   7.797   3.236   1.440
24135SOL    HW273847   7.732   3.109   1.489
24136SOL     OW73848   0.007   3.344   0.408
24136SOL    HW173849   0.089   3.352   0.458
24136SOL    HW273850  -0.035   3.430   0.417
24137SOL     OW73851   7.729   3.206   0.298
24137SOL    HW173852   7.660   3.238   0.240
24137SOL    HW273853   7.709   3.245   0.383
24138SOL     OW73854   7.560   2.874   1.719
24138SOL    HW173855   7.483   2.864   1.774
24138SOL    HW273856   7.632   2.842   1.773
24139SOL     OW73857   7.514   2.008   0.328
24139SOL    HW173858   7.491   2.081   0.270
24139SOL    HW273859   7.609   2.008   0.332
24140SOL     OW73860   7.822   3.601   1.538
24140SOL    HW173861   7.737   3.646   1.536
24140SOL    HW273862   7.809   3.528   1.598
24141SOL     OW73863   7.689   3.132   1.855
24141SOL    HW173864   7.609   3.122   1.804
24141SOL    HW273865   7.661   3.183   1.932
24142SOL     OW73866   7.513   3.088   0.686
24142SOL    HW173867   7.553   3.039   0.758
24142SOL    HW273868   7.567   3.066   0.609
24143SOL     OW73869   0.106   3.304   1.633
24143SOL    HW173870   0.042   3.240   1.665
24143SOL    HW273871   0.053   3.370   1.589
24144SOL     OW73872   7.788   2.411   1.289
24144SOL    HW173873   7.860   2.360   1.327
24144SOL    HW273874   7.794   2.393   1.195
24145SOL     OW73875   7.491   2.942   0.364
24145SOL    HW173876   7.573   2.939   0.313
24145SOL    HW273877   7.473   2.851   0.385
24146SOL     OW73878   7.656   2.434   1.985
24146SOL    HW173879   7.578   2.466   2.031
24146SOL    HW273880   7.691   2.510   1.940
24147SOL     OW73881   7.676   2.142   2.853
24147SOL    HW173882   7.700   2.116   2.942
24147SOL    HW273883   7.585   2.112   2.842
24148SOL     OW73884   7.443   2.256   2.502
24148SOL    HW173885   7.366   2.287   2.549
24148SOL    HW273886   7.415   2.174   2.462
24149SOL     OW73887   7.792   3.263   2.889
24149SOL    HW173888   7.710   3.213   2.889
24149SOL    HW273889   7.769   3.346   2.848
24150SOL     OW73890   7.873   2.267   3.363
24150SOL    HW173891   7.945   2.221   3.406
24150SOL    HW273892   7.798   2.208   3.372
24151SOL     OW73893   7.674   3.569   2.333
24151SOL    HW173894   7.686   3.643   2.392
24151SOL    HW273895   7.715   3.597   2.251
24152SOL     OW73896   7.689   3.302   2.417
24152SOL    HW173897   7.675   3.395   2.398
24152SOL    HW273898   7.612   3.275   2.466
24153SOL     OW73899   7.740   2.967   2.731
24153SOL    HW173900   7.738   2.878   2.765
24153SOL    HW273901   7.679   3.016   2.787
24154SOL     OW73902   7.577   2.509   2.425
24154SOL    HW173903   7.533   2.428   2.449
24154SOL    HW273904   7.564   2.567   2.501
24155SOL     OW73905   7.477   3.459   1.978
24155SOL    HW173906   7.466   3.367   2.003
24155SOL    HW273907   7.458   3.508   2.059
24156SOL     OW73908   7.570   2.613   3.437
24156SOL    HW173909   7.659   2.646   3.451
24156SOL    HW273910   7.514   2.689   3.454
24157SOL     OW73911   7.635   2.822   3.136
24157SOL    HW173912   7.718   2.777   3.124
24157SOL    HW273913   7.569   2.759   3.107
24158SOL     OW73914   7.764   2.129   3.658
24158SOL    HW173915   7.820   2.181   3.714
24158SOL    HW273916   7.679   2.129   3.701
24159SOL     OW73917   8.016   2.593   2.099
24159SOL    HW173918   7.964   2.643   2.037
24159SOL    HW273919   7.963   2.588   2.178
24160SOL     OW73920   7.538   2.691   2.624
24160SOL    HW173921   7.613   2.684   2.683
24160SOL    HW273922   7.484   2.760   2.663
24161SOL     OW73923   7.547   3.686   3.434
24161SOL    HW173924   7.559   3.670   3.527
24161SOL    HW273925   7.514   3.776   3.430
24162SOL     OW73926   7.962   2.066   2.742
24162SOL    HW173927   7.963   2.056   2.837
24162SOL    HW273928   7.941   2.158   2.728
24163SOL     OW73929   7.810   3.684   2.742
24163SOL    HW173930   7.886   3.630   2.762
24163SOL    HW273931   7.843   3.774   2.744
24164SOL     OW73932   7.762   2.829   2.120
24164SOL    HW173933   7.793   2.855   2.033
24164SOL    HW273934   7.740   2.737   2.111
24165SOL     OW73935   7.964   3.111   3.596
24165SOL    HW173936   7.904   3.119   3.521
24165SOL    HW273937   7.910   3.130   3.672
24166SOL     OW73938   7.631   2.138   3.379
24166SOL    HW173939   7.546   2.183   3.390
24166SOL    HW273940   7.645   2.095   3.463
24167SOL     OW73941   7.681   3.659   3.097
24167SOL    HW173942   7.733   3.597   3.148
24167SOL    HW273943   7.695   3.631   3.006
24168SOL     OW73944   7.830   2.546   2.301
24168SOL    HW173945   7.880   2.494   2.364
24168SOL    HW273946   7.740   2.543   2.334
24169SOL     OW73947   0.023   1.958   1.984
24169SOL    HW173948   0.116   1.940   1.996
24169SOL    HW273949   0.010   1.955   1.889
24170SOL     OW73950   7.963   1.873   2.330
24170SOL    HW173951   7.887   1.888   2.386
24170SOL    HW273952   8.018   1.950   2.343
24171SOL     OW73953   7.745   1.924   2.042
24171SOL    HW173954   7.760   2.000   1.986
24171SOL    HW273955   7.833   1.900   2.073
24172SOL     OW73956   7.526   2.422   3.249
24172SOL    HW173957   7.619   2.415   3.227
24172SOL    HW273958   7.522   2.490   3.315
24173SOL     OW73959   7.991   2.051   3.006
24173SOL    HW173960   8.056   2.055   3.076
24173SOL    HW273961   7.907   2.061   3.052
24174SOL     OW73962   7.863   2.670   3.124
24174SOL    HW173963   7.911   2.688   3.205
24174SOL    HW273964   7.833   2.579   3.133
24175SOL     OW73965   7.518   3.438   3.219
24175SOL    HW173966   7.505   3.523   3.176
24175SOL    HW273967   7.612   3.422   3.212
24176SOL     OW73968   7.790   2.991   2.343
24176SOL    HW173969   7.776   3.065   2.284
24176SOL    HW273970   7.784   2.914   2.287
24177SOL     OW73971  -0.019   2.403   2.714
24177SOL    HW173972   0.015   2.488   2.685
24177SOL    HW273973   0.015   2.393   2.803
24178SOL     OW73974   7.779   3.384   3.158
24178SOL    HW173975   7.790   3.324   3.085
24178SOL    HW273976   7.868   3.414   3.179
24179SOL     OW73977   7.862   2.596   3.461
24179SOL    HW173978   7.953   2.623   3.449
24179SOL    HW273979   7.868   2.502   3.477
24180SOL     OW73980   7.929   1.961   3.517
24180SOL    HW173981   7.879   1.880   3.509
24180SOL    HW273982   7.876   2.016   3.575
24181SOL     OW73983   7.988   2.757   2.897
24181SOL    HW173984   8.057   2.816   2.930
24181SOL    HW273985   7.946   2.723   2.976
24182SOL     OW73986   7.736   2.067   3.113
24182SOL    HW173987   7.697   2.101   3.194
24182SOL    HW273988   7.718   1.973   3.115
24183SOL     OW73989   7.524   3.176   3.131
24183SOL    HW173990   7.546   3.119   3.205
24183SOL    HW273991   7.508   3.262   3.171
24184SOL     OW73992   7.744   1.921   2.488
24184SOL    HW173993   7.727   2.013   2.508
24184SOL    HW273994   7.763   1.882   2.574
24185SOL     OW73995   7.776   2.784   3.653
24185SOL    HW173996   7.832   2.800   3.729
24185SOL    HW273997   7.823   2.718   3.603
24186SOL     OW73998   7.748   2.679   2.796
24186SOL    HW173999   7.833   2.707   2.829
24186SOL    HW274000   7.738   2.590   2.831
24187SOL     OW74001   7.746   2.402   2.857
24187SOL    HW174002   7.719   2.311   2.855
24187SOL    HW274003   7.826   2.405   2.804
24188SOL     OW74004   7.468   3.184   2.057
24188SOL    HW174005   7.380   3.200   2.022
24188SOL    HW274006   7.462   3.096   2.095
24189SOL     OW74007   7.537   3.639   2.811
24189SOL    HW174008   7.507   3.562   2.764
24189SOL    HW274009   7.625   3.655   2.778
24190SOL     OW74010   7.487   2.413   2.977
24190SOL    HW174011   7.572   2.419   2.934
24190SOL    HW274012   7.506   2.413   3.070
24191SOL     OW74013   7.615   2.394   3.597
24191SOL    HW174014   7.676   2.348   3.539
24191SOL    HW274015   7.588   2.470   3.546
24192SOL     OW74016   0.221   2.357   2.158
24192SOL    HW174017   0.186   2.274   2.191
24192SOL    HW274018   0.196   2.422   2.224
24193SOL     OW74019   7.691   3.405   3.585
24193SOL    HW174020   7.676   3.471   3.653
24193SOL    HW274021   7.707   3.324   3.633
24194SOL     OW74022   7.915   2.335   2.021
24194SOL    HW174023   7.963   2.408   2.061
24194SOL    HW274024   7.824   2.363   2.020
24195SOL     OW74025   7.601   3.004   3.333
24195SOL    HW174026   7.590   2.956   3.415
24195SOL    HW274027   7.613   2.937   3.266
24196SOL     OW74028   7.557   3.116   2.874
24196SOL    HW174029   7.542   3.134   2.967
24196SOL    HW274030   7.475   3.079   2.843
24197SOL     OW74031   7.593   3.659   3.701
24197SOL    HW174032   7.542   3.593   3.748
24197SOL    HW274033   7.641   3.706   3.769
24198SOL     OW74034   7.707   2.179   2.577
24198SOL    HW174035   7.624   2.219   2.551
24198SOL    HW274036   7.701   2.169   2.672
24199SOL     OW74037   7.824   3.168   3.361
24199SOL    HW174038   7.793   3.248   3.319
24199SOL    HW274039   7.750   3.107   3.355
24200SOL     OW74040   7.986   3.351   2.340
24200SOL    HW174041   8.031   3.376   2.259
24200SOL    HW274042   7.934   3.428   2.362
24201SOL     OW74043   7.730   3.197   2.166
24201SOL    HW174044   7.641   3.202   2.132
24201SOL    HW274045   7.728   3.249   2.246
24202SOL     OW74046   7.541   2.886   3.568
24202SOL    HW174047   7.469   2.869   3.629
24202SOL    HW274048   7.619   2.854   3.613
24203SOL     OW74049   7.506   2.187   1.910
24203SOL    HW174050   7.433   2.199   1.850
24203SOL    HW274051   7.544   2.274   1.920
24204SOL     OW74052   7.504   2.001   2.161
24204SOL    HW174053   7.488   2.079   2.108
24204SOL    HW274054   7.594   1.976   2.140
24205SOL     OW74055   7.809   3.598   3.416
24205SOL    HW174056   7.721   3.633   3.407
24205SOL    HW274057   7.799   3.519   3.469
24206SOL     OW74058   7.711   3.173   3.730
24206SOL    HW174059   7.637   3.113   3.729
24206SOL    HW274060   7.730   3.187   3.823
24207SOL     OW74061   7.538   3.086   2.537
24207SOL    HW174062   7.508   3.032   2.610
24207SOL    HW274063   7.555   3.023   2.467
24208SOL     OW74064   0.104   3.320   3.424
24208SOL    HW174065   0.044   3.246   3.423
24208SOL    HW274066   0.127   3.331   3.517
24209SOL     OW74067   7.781   2.412   3.153
24209SOL    HW174068   7.830   2.366   3.221
24209SOL    HW274069   7.812   2.374   3.071
24210SOL     OW74070   7.493   2.932   2.178
24210SOL    HW174071   7.584   2.925   2.150
24210SOL    HW274072   7.468   2.842   2.199
24211SOL     OW74073   7.658   2.468   3.863
24211SOL    HW174074   7.572   2.474   3.906
24211SOL    HW274075   7.637   2.459   3.770
24212SOL     OW74076   7.674   2.137   4.703
24212SOL    HW174077   7.715   2.052   4.685
24212SOL    HW274078   7.580   2.120   4.695
24213SOL     OW74079   7.459   2.233   4.370
24213SOL    HW174080   7.381   2.276   4.404
24213SOL    HW274081   7.426   2.156   4.325
24214SOL     OW74082   7.772   3.301   4.769
24214SOL    HW174083   7.696   3.243   4.763
24214SOL    HW274084   7.790   3.328   4.679
24215SOL     OW74085   7.867   2.272   5.299
24215SOL    HW174086   7.953   2.240   5.272
24215SOL    HW274087   7.806   2.208   5.264
24216SOL     OW74088   7.678   3.579   4.195
24216SOL    HW174089   7.692   3.658   4.247
24216SOL    HW274090   7.765   3.540   4.186
24217SOL     OW74091   7.644   3.302   4.252
24217SOL    HW174092   7.642   3.397   4.259
24217SOL    HW274093   7.594   3.271   4.328
24218SOL     OW74094   7.715   2.953   4.621
24218SOL    HW174095   7.703   2.865   4.657
24218SOL    HW274096   7.658   3.009   4.674
24219SOL     OW74097   7.577   2.511   4.291
24219SOL    HW174098   7.514   2.440   4.293
24219SOL    HW274099   7.560   2.561   4.371
24220SOL     OW74100   7.476   3.457   3.835
24220SOL    HW174101   7.464   3.364   3.856
24220SOL    HW274102   7.459   3.502   3.917
24221SOL     OW74103   7.559   2.599   5.309
24221SOL    HW174104   7.650   2.628   5.313
24221SOL    HW274105   7.507   2.679   5.313
24222SOL     OW74106   7.629   2.819   5.014
24222SOL    HW174107   7.716   2.779   5.011
24222SOL    HW274108   7.589   2.796   4.930
24223SOL     OW74109   7.756   2.109   5.557
24223SOL    HW174110   7.796   2.194   5.538
24223SOL    HW274111   7.665   2.131   5.581
24224SOL     OW74112   0.022   2.574   3.991
24224SOL    HW174113   0.045   2.666   3.982
24224SOL    HW274114  -0.045   2.573   4.060
24225SOL     OW74115   7.537   2.660   4.513
24225SOL    HW174116   7.613   2.677   4.569
24225SOL    HW274117   7.484   2.740   4.521
24226SOL     OW74118   7.530   3.749   5.305
24226SOL    HW174119   7.555   3.710   5.388
24226SOL    HW274120   7.435   3.739   5.301
24227SOL     OW74121   7.960   2.060   4.626
24227SOL    HW174122   7.948   2.122   4.697
24227SOL    HW274123   7.973   2.114   4.548
24228SOL     OW74124   7.808   3.685   4.595
24228SOL    HW174125   7.876   3.621   4.616
24228SOL    HW274126   7.852   3.770   4.600
24229SOL     OW74127   7.749   2.832   3.978
24229SOL    HW174128   7.844   2.839   3.976
24229SOL    HW274129   7.732   2.738   3.976
24230SOL     OW74130   7.948   3.092   5.463
24230SOL    HW174131   7.909   3.097   5.376
24230SOL    HW274132   7.876   3.106   5.523
24231SOL     OW74133   7.644   2.122   5.213
24231SOL    HW174134   7.586   2.197   5.229
24231SOL    HW274135   7.609   2.053   5.270
24232SOL     OW74136   7.679   3.661   4.966
24232SOL    HW174137   7.741   3.646   5.036
24232SOL    HW274138   7.717   3.617   4.890
24233SOL     OW74139   7.827   2.559   4.180
24233SOL    HW174140   7.875   2.503   4.241
24233SOL    HW274141   7.735   2.551   4.207
24234SOL     OW74142  -0.015   1.952   3.819
24234SOL    HW174143   0.042   1.989   3.886
24234SOL    HW274144   0.029   1.973   3.736
24235SOL     OW74145   7.739   1.907   3.917
24235SOL    HW174146   7.817   1.938   3.871
24235SOL    HW274147   7.773   1.860   3.994
24236SOL     OW74148   7.927   2.948   4.452
24236SOL    HW174149   7.854   2.954   4.514
24236SOL    HW274150   7.886   2.959   4.366
24237SOL     OW74151   7.541   2.401   5.125
24237SOL    HW174152   7.632   2.404   5.097
24237SOL    HW274153   7.532   2.474   5.186
24238SOL     OW74154   7.921   2.079   4.933
24238SOL    HW174155   7.985   2.009   4.924
24238SOL    HW274156   7.973   2.159   4.935
24239SOL     OW74157   7.865   2.681   5.011
24239SOL    HW174158   7.960   2.671   5.018
24239SOL    HW274159   7.831   2.592   5.013
24240SOL     OW74160   7.522   3.441   5.071
24240SOL    HW174161   7.521   3.532   5.039
24240SOL    HW274162   7.615   3.417   5.072
24241SOL     OW74163   7.806   2.986   4.208
24241SOL    HW174164   7.823   3.067   4.159
24241SOL    HW274165   7.771   2.926   4.143
24242SOL     OW74166  -0.018   2.430   4.597
24242SOL    HW174167   0.016   2.511   4.559
24242SOL    HW274168   0.043   2.410   4.669
24243SOL     OW74169   7.774   3.338   5.050
24243SOL    HW174170   7.795   3.332   4.956
24243SOL    HW274171   7.821   3.415   5.080
24244SOL     OW74172   7.836   2.610   5.324
24244SOL    HW174173   7.880   2.664   5.258
24244SOL    HW274174   7.887   2.529   5.327
24245SOL     OW74175   7.931   1.931   5.457
24245SOL    HW174176   7.887   1.870   5.398
24245SOL    HW274177   7.863   1.994   5.481
24246SOL     OW74178   8.003   2.786   4.780
24246SOL    HW174179   8.016   2.879   4.761
24246SOL    HW274180   7.934   2.785   4.847
24247SOL     OW74181   7.454   3.183   5.015
24247SOL    HW174182   7.506   3.131   5.076
24247SOL    HW274183   7.479   3.274   5.033
24248SOL     OW74184   7.689   1.933   4.365
24248SOL    HW174185   7.696   2.028   4.376
24248SOL    HW274186   7.776   1.906   4.336
24249SOL     OW74187   7.804   2.782   5.543
24249SOL    HW174188   7.879   2.838   5.526
24249SOL    HW274189   7.813   2.710   5.482
24250SOL     OW74190   7.751   2.678   4.688
24250SOL    HW174191   7.844   2.698   4.676
24250SOL    HW274192   7.749   2.584   4.706
24251SOL     OW74193   7.756   2.395   4.738
24251SOL    HW174194   7.727   2.306   4.722
24251SOL    HW274195   7.833   2.406   4.682
24252SOL     OW74196   7.426   3.192   3.915
24252SOL    HW174197   7.343   3.200   3.867
24252SOL    HW274198   7.426   3.103   3.948
24253SOL     OW74199   7.536   3.646   4.657
24253SOL    HW174200   7.510   3.565   4.611
24253SOL    HW274201   7.628   3.658   4.634
24254SOL     OW74202   7.485   2.392   4.848
24254SOL    HW174203   7.559   2.410   4.789
24254SOL    HW274204   7.521   2.405   4.936
24255SOL     OW74205   7.645   2.380   5.455
24255SOL    HW174206   7.721   2.360   5.401
24255SOL    HW274207   7.601   2.452   5.409
24256SOL     OW74208   0.202   2.336   4.039
24256SOL    HW174209   0.230   2.366   3.952
24256SOL    HW274210   0.173   2.415   4.084
24257SOL     OW74211   7.664   3.390   5.459
24257SOL    HW174212   7.672   3.483   5.480
24257SOL    HW274213   7.734   3.348   5.509
24258SOL     OW74214   7.903   2.349   3.877
24258SOL    HW174215   7.958   2.416   3.917
24258SOL    HW274216   7.814   2.384   3.883
24259SOL     OW74217   7.567   3.000   5.205
24259SOL    HW174218   7.574   2.951   5.287
24259SOL    HW274219   7.590   2.937   5.137
24260SOL     OW74220   7.546   3.119   4.758
24260SOL    HW174221   7.508   3.141   4.843
24260SOL    HW274222   7.472   3.083   4.708
24261SOL     OW74223   7.593   3.647   5.556
24261SOL    HW174224   7.542   3.583   5.606
24261SOL    HW274225   7.639   3.697   5.623
24262SOL     OW74226   7.724   2.203   4.431
24262SOL    HW174227   7.640   2.232   4.393
24262SOL    HW274228   7.707   2.196   4.524
24263SOL     OW74229   7.817   3.136   5.231
24263SOL    HW174230   7.813   3.211   5.171
24263SOL    HW274231   7.733   3.093   5.222
24264SOL     OW74232   7.963   3.414   4.168
24264SOL    HW174233   7.982   3.333   4.120
24264SOL    HW274234   8.048   3.458   4.174
24265SOL     OW74235   7.681   3.203   4.002
24265SOL    HW174236   7.588   3.208   3.982
24265SOL    HW274237   7.689   3.242   4.089
24266SOL     OW74238   7.554   2.871   5.442
24266SOL    HW174239   7.478   2.858   5.500
24266SOL    HW274240   7.629   2.847   5.496
24267SOL     OW74241   7.515   2.187   3.759
24267SOL    HW174242   7.420   2.193   3.767
24267SOL    HW274243   7.541   2.268   3.714
24268SOL     OW74244   7.508   2.012   4.025
24268SOL    HW174245   7.493   2.098   3.986
24268SOL    HW274246   7.593   1.984   3.991
24269SOL     OW74247   7.716   3.130   5.598
24269SOL    HW174248   7.631   3.135   5.554
24269SOL    HW274249   7.698   3.155   5.688
24270SOL     OW74250   7.524   3.088   4.396
24270SOL    HW174251   7.538   3.028   4.469
24270SOL    HW274252   7.591   3.064   4.332
24271SOL     OW74253   0.114   3.301   5.349
24271SOL    HW174254   0.048   3.237   5.374
24271SOL    HW274255   0.064   3.378   5.321
24272SOL     OW74256   7.787   2.408   5.016
24272SOL    HW174257   7.875   2.398   5.053
24272SOL    HW274258   7.799   2.396   4.922
24273SOL     OW74259   7.481   2.941   4.026
24273SOL    HW174260   7.573   2.945   4.001
24273SOL    HW274261   7.467   2.851   4.054
24274SOL     OW74262   7.657   2.474   5.722
24274SOL    HW174263   7.567   2.474   5.754
24274SOL    HW274264   7.650   2.460   5.628
24275SOL     OW74265   7.672   2.144   6.565
24275SOL    HW174266   7.716   2.082   6.623
24275SOL    HW274267   7.582   2.112   6.559
24276SOL     OW74268   7.448   2.246   6.231
24276SOL    HW174269   7.367   2.278   6.270
24276SOL    HW274270   7.422   2.169   6.181
24277SOL     OW74271   7.764   3.297   6.639
24277SOL    HW174272   7.688   3.239   6.630
24277SOL    HW274273   7.780   3.330   6.551
24278SOL     OW74274   7.858   2.240   7.120
24278SOL    HW174275   7.928   2.291   7.079
24278SOL    HW274276   7.852   2.161   7.066
24279SOL     OW74277   7.664   3.576   6.062
24279SOL    HW174278   7.678   3.654   6.115
24279SOL    HW274279   7.737   3.574   6.001
24280SOL     OW74280   7.671   3.305   6.123
24280SOL    HW174281   7.665   3.400   6.114
24280SOL    HW274282   7.605   3.282   6.188
24281SOL     OW74283   7.718   2.953   6.490
24281SOL    HW174284   7.697   2.869   6.532
24281SOL    HW274285   7.657   3.015   6.529
24282SOL     OW74286   7.574   2.511   6.155
24282SOL    HW174287   7.528   2.429   6.171
24282SOL    HW274288   7.559   2.563   6.233
24283SOL     OW74289   7.471   3.459   5.711
24283SOL    HW174290   7.475   3.368   5.740
24283SOL    HW274291   7.454   3.509   5.791
24284SOL     OW74292   7.554   2.590   7.164
24284SOL    HW174293   7.629   2.650   7.169
24284SOL    HW274294   7.478   2.648   7.157
24285SOL     OW74295   7.641   2.837   6.864
24285SOL    HW174296   7.715   2.777   6.864
24285SOL    HW274297   7.576   2.794   6.808
24286SOL     OW74298   7.760   2.107   7.416
24286SOL    HW174299   7.794   2.190   7.382
24286SOL    HW274300   7.670   2.126   7.439
24287SOL     OW74301   0.020   2.590   5.849
24287SOL    HW174302   0.031   2.682   5.824
24287SOL    HW274303  -0.039   2.593   5.924
24288SOL     OW74304   7.538   2.671   6.373
24288SOL    HW174305   7.615   2.685   6.428
24288SOL    HW274306   7.481   2.746   6.392
24289SOL     OW74307   7.568   3.697   7.161
24289SOL    HW174308   7.567   3.691   7.257
24289SOL    HW274309   7.478   3.716   7.137
24290SOL     OW74310   7.975   2.060   6.479
24290SOL    HW174311   7.969   2.101   6.565
24290SOL    HW274312   7.971   2.133   6.417
24291SOL     OW74313   7.805   3.686   6.454
24291SOL    HW174314   7.870   3.619   6.434
24291SOL    HW274315   7.855   3.766   6.467
24292SOL     OW74316   7.746   2.827   5.841
24292SOL    HW174317   7.816   2.857   5.784
24292SOL    HW274318   7.723   2.741   5.807
24293SOL     OW74319   7.912   3.054   7.329
24293SOL    HW174320   7.880   3.087   7.245
24293SOL    HW274321   7.859   3.100   7.394
24294SOL     OW74322   7.703   3.649   6.817
24294SOL    HW174323   7.750   3.572   6.850
24294SOL    HW274324   7.684   3.628   6.725
24295SOL     OW74325   7.834   2.554   6.049
24295SOL    HW174326   7.856   2.461   6.059
24295SOL    HW274327   7.742   2.560   6.076
24296SOL     OW74328   0.005   1.946   5.721
24296SOL    HW174329   0.101   1.940   5.730
24296SOL    HW274330  -0.010   1.944   5.626
24297SOL     OW74331   8.008   1.903   6.137
24297SOL    HW174332   7.913   1.911   6.145
24297SOL    HW274333   8.031   1.965   6.067
24298SOL     OW74334   7.735   1.920   5.769
24298SOL    HW174335   7.759   1.993   5.711
24298SOL    HW274336   7.818   1.874   5.785
24299SOL     OW74337   7.928   2.935   6.318
24299SOL    HW174338   7.855   2.947   6.379
24299SOL    HW274339   7.888   2.945   6.231
24300SOL     OW74340   7.566   2.360   7.019
24300SOL    HW174341   7.644   2.382   6.968
24300SOL    HW274342   7.546   2.440   7.068
24301SOL     OW74343   7.987   2.074   6.758
24301SOL    HW174344   8.021   1.984   6.761
24301SOL    HW274345   7.901   2.069   6.799
24302SOL     OW74346   7.864   2.670   6.903
24302SOL    HW174347   7.945   2.693   6.857
24302SOL    HW274348   7.845   2.581   6.875
24303SOL     OW74349   7.516   3.430   6.955
24303SOL    HW174350   7.473   3.505   6.914
24303SOL    HW274351   7.609   3.444   6.937
24304SOL     OW74352   7.812   2.973   6.070
24304SOL    HW174353   7.793   3.056   6.028
24304SOL    HW274354   7.786   2.907   6.006
24305SOL     OW74355  -0.018   2.432   6.459
24305SOL    HW174356   0.019   2.508   6.416
24305SOL    HW274357   0.024   2.431   6.546
24306SOL     OW74358   7.798   3.391   6.896
24306SOL    HW174359   7.791   3.348   6.811
24306SOL    HW274360   7.892   3.404   6.909
24307SOL     OW74361   7.843   2.630   7.176
24307SOL    HW174362   7.845   2.661   7.085
24307SOL    HW274363   7.928   2.589   7.188
24308SOL     OW74364   7.939   1.934   7.306
24308SOL    HW174365   7.888   1.869   7.257
24308SOL    HW274366   7.875   1.995   7.340
24309SOL     OW74367   8.005   2.795   6.667
24309SOL    HW174368   8.023   2.885   6.637
24309SOL    HW274369   7.911   2.784   6.651
24310SOL     OW74370   7.737   2.050   6.859
24310SOL    HW174371   7.645   2.074   6.848
24310SOL    HW274372   7.738   1.955   6.848
24311SOL     OW74373   7.525   3.175   6.861
24311SOL    HW174374   7.553   3.124   6.937
24311SOL    HW274375   7.511   3.263   6.895
24312SOL     OW74376   7.739   1.933   6.203
24312SOL    HW174377   7.725   2.027   6.216
24312SOL    HW274378   7.751   1.898   6.292
24313SOL     OW74379   7.796   2.784   7.403
24313SOL    HW174380   7.866   2.846   7.381
24313SOL    HW274381   7.802   2.717   7.334
24314SOL     OW74382   7.763   2.675   6.548
24314SOL    HW174383   7.839   2.677   6.490
24314SOL    HW274384   7.749   2.582   6.565
24315SOL     OW74385   7.750   2.399   6.587
24315SOL    HW174386   7.720   2.309   6.574
24315SOL    HW274387   7.829   2.406   6.533
24316SOL     OW74388   7.464   3.181   5.778
24316SOL    HW174389   7.380   3.196   5.735
24316SOL    HW274390   7.457   3.092   5.813
24317SOL     OW74391   7.549   3.637   6.538
24317SOL    HW174392   7.517   3.563   6.488
24317SOL    HW274393   7.636   3.655   6.502
24318SOL     OW74394   7.468   2.385   6.728
24318SOL    HW174395   7.509   2.375   6.642
24318SOL    HW274396   7.527   2.444   6.775
24319SOL     OW74397   7.651   2.374   7.309
24319SOL    HW174398   7.714   2.352   7.241
24319SOL    HW274399   7.600   2.447   7.273
24320SOL     OW74400   0.236   2.358   5.897
24320SOL    HW174401   0.168   2.293   5.879
24320SOL    HW274402   0.194   2.420   5.958
24321SOL     OW74403   7.708   3.427   7.332
24321SOL    HW174404   7.671   3.510   7.361
24321SOL    HW274405   7.763   3.398   7.405
24322SOL     OW74406   7.906   2.357   5.761
24322SOL    HW174407   7.953   2.436   5.788
24322SOL    HW274408   7.815   2.386   5.753
24323SOL     OW74409   7.608   3.008   7.066
24323SOL    HW174410   7.557   2.955   7.127
24323SOL    HW274411   7.623   2.951   6.991
24324SOL     OW74412   7.542   3.125   6.601
24324SOL    HW174413   7.528   3.140   6.694
24324SOL    HW274414   7.455   3.101   6.568
24325SOL     OW74415   7.595   3.652   7.431
24325SOL    HW174416   7.540   3.592   7.480
24325SOL    HW274417   7.633   3.710   7.497
24326SOL     OW74418   7.721   2.194   6.293
24326SOL    HW174419   7.637   2.226   6.262
24326SOL    HW274420   7.709   2.181   6.387
24327SOL     OW74421   7.819   3.180   7.105
24327SOL    HW174422   7.808   3.250   7.041
24327SOL    HW274423   7.747   3.120   7.088
24328SOL     OW74424  -0.018   3.415   6.007
24328SOL    HW174425   0.034   3.347   6.049
24328SOL    HW274426   0.016   3.497   6.044
24329SOL     OW74427   7.721   3.193   5.882
24329SOL    HW174428   7.630   3.196   5.855
24329SOL    HW274429   7.725   3.245   5.963
24330SOL     OW74430   7.542   2.948   7.376
24330SOL    HW174431   7.468   2.889   7.388
24330SOL    HW274432   7.619   2.893   7.388
24331SOL     OW74433   7.508   2.196   5.624
24331SOL    HW174434   7.422   2.178   5.585
24331SOL    HW274435   7.540   2.272   5.577
24332SOL     OW74436   7.507   2.016   5.885
24332SOL    HW174437   7.491   2.090   5.826
24332SOL    HW274438   7.593   1.984   5.859
24333SOL     OW74439   7.830   3.612   7.143
24333SOL    HW174440   7.745   3.651   7.124
24333SOL    HW274441   7.810   3.527   7.183
24334SOL     OW74442   7.528   3.096   6.266
24334SOL    HW174443   7.527   3.035   6.340
24334SOL    HW274444   7.600   3.066   6.211
24335SOL     OW74445   0.103   3.282   7.240
24335SOL    HW174446   0.031   3.222   7.218
24335SOL    HW274447   0.089   3.357   7.182
24336SOL     OW74448   7.784   2.410   6.854
24336SOL    HW174449   7.855   2.348   6.871
24336SOL    HW274450   7.774   2.410   6.758
24337SOL     OW74451   7.486   2.926   5.896
24337SOL    HW174452   7.578   2.917   5.871
24337SOL    HW274453   7.459   2.838   5.921
24338SOL     OW74454   7.664   2.458   7.579
24338SOL    HW174455   7.576   2.471   7.615
24338SOL    HW274456   7.651   2.452   7.485
24339SOL     OW74457   7.671   2.141   8.441
24339SOL    HW174458   7.694   2.107   8.527
24339SOL    HW274459   7.579   2.116   8.429
24340SOL     OW74460   7.452   2.243   8.096
24340SOL    HW174461   7.370   2.279   8.132
24340SOL    HW274462   7.425   2.165   8.047
24341SOL     OW74463   7.777   3.293   8.500
24341SOL    HW174464   7.700   3.239   8.481
24341SOL    HW274465   7.778   3.359   8.431
24342SOL     OW74466   7.885   2.215   8.959
24342SOL    HW174467   7.915   2.140   9.009
24342SOL    HW274468   7.790   2.202   8.951
24343SOL     OW74469   7.717   3.559   7.932
24343SOL    HW174470   7.714   3.627   7.999
24343SOL    HW274471   7.694   3.603   7.851
24344SOL     OW74472   7.663   3.295   7.980
24344SOL    HW174473   7.690   3.385   7.962
24344SOL    HW274474   7.591   3.305   8.043
24345SOL     OW74475   7.704   2.954   8.336
24345SOL    HW174476   7.695   2.869   8.379
24345SOL    HW274477   7.651   3.014   8.389
24346SOL     OW74478   7.583   2.508   8.019
24346SOL    HW174479   7.533   2.428   8.033
24346SOL    HW274480   7.565   2.562   8.096
24347SOL     OW74481   7.481   3.448   7.572
24347SOL    HW174482   7.425   3.373   7.590
24347SOL    HW274483   7.470   3.505   7.649
24348SOL     OW74484   7.547   2.608   9.028
24348SOL    HW174485   7.632   2.651   9.037
24348SOL    HW274486   7.485   2.680   9.017
24349SOL     OW74487   7.628   2.816   8.747
24349SOL    HW174488   7.713   2.773   8.740
24349SOL    HW274489   7.590   2.808   8.659
24350SOL     OW74490   7.758   2.125   9.275
24350SOL    HW174491   7.799   2.208   9.296
24350SOL    HW274492   7.667   2.135   9.304
24351SOL     OW74493   0.029   2.604   7.704
24351SOL    HW174494   0.033   2.699   7.696
24351SOL    HW274495  -0.029   2.588   7.778
24352SOL     OW74496   7.537   2.666   8.234
24352SOL    HW174497   7.612   2.686   8.291
24352SOL    HW274498   7.473   2.735   8.254
24353SOL     OW74499   7.579   3.738   9.029
24353SOL    HW174500   7.579   3.710   9.120
24353SOL    HW274501   7.489   3.723   9.000
24354SOL     OW74502   7.971   2.054   8.339
24354SOL    HW174503   7.959   2.098   8.424
24354SOL    HW274504   7.970   2.125   8.275
24355SOL     OW74505   7.883   3.598   8.341
24355SOL    HW174506   7.863   3.536   8.271
24355SOL    HW274507   7.849   3.682   8.309
24356SOL     OW74508   7.746   2.824   7.702
24356SOL    HW174509   7.829   2.848   7.660
24356SOL    HW274510   7.714   2.749   7.652
24357SOL     OW74511   7.906   3.049   9.181
24357SOL    HW174512   7.883   3.077   9.093
24357SOL    HW274513   7.844   3.094   9.238
24358SOL     OW74514   7.618   2.152   8.951
24358SOL    HW174515   7.571   2.228   8.918
24358SOL    HW274516   7.582   2.138   9.038
24359SOL     OW74517   7.715   3.657   8.658
24359SOL    HW174518   7.750   3.571   8.679
24359SOL    HW274519   7.683   3.648   8.568
24360SOL     OW74520   7.844   2.541   7.902
24360SOL    HW174521   7.849   2.447   7.914
24360SOL    HW274522   7.755   2.564   7.928
24361SOL     OW74523   0.017   1.916   7.578
24361SOL    HW174524   0.108   1.924   7.605
24361SOL    HW274525   0.010   1.968   7.498
24362SOL     OW74526   7.992   1.877   7.997
24362SOL    HW174527   7.899   1.898   8.007
24362SOL    HW274528   8.024   1.943   7.934
24363SOL     OW74529   7.745   1.930   7.627
24363SOL    HW174530   7.750   2.001   7.563
24363SOL    HW274531   7.837   1.903   7.640
24364SOL     OW74532   7.928   2.924   8.180
24364SOL    HW174533   7.852   2.943   8.235
24364SOL    HW274534   7.896   2.937   8.091
24365SOL     OW74535   7.544   2.404   8.848
24365SOL    HW174536   7.634   2.415   8.816
24365SOL    HW274537   7.530   2.479   8.905
24366SOL     OW74538   7.989   2.068   8.622
24366SOL    HW174539   8.022   1.979   8.633
24366SOL    HW274540   7.900   2.065   8.658
24367SOL     OW74541   7.868   2.674   8.764
24367SOL    HW174542   7.952   2.692   8.722
24367SOL    HW274543   7.848   2.583   8.741
24368SOL     OW74544   7.520   3.430   8.800
24368SOL    HW174545   7.482   3.499   8.745
24368SOL    HW274546   7.615   3.439   8.788
24369SOL     OW74547   7.840   2.972   7.920
24369SOL    HW174548   7.813   3.059   7.892
24369SOL    HW274549   7.792   2.911   7.864
24370SOL     OW74550  -0.022   2.434   8.324
24370SOL    HW174551   0.014   2.512   8.282
24370SOL    HW274552   0.021   2.431   8.409
24371SOL     OW74553   7.796   3.389   8.754
24371SOL    HW174554   7.797   3.346   8.669
24371SOL    HW274555   7.888   3.407   8.772
24372SOL     OW74556   7.837   2.627   9.040
24372SOL    HW174557   7.846   2.668   8.954
24372SOL    HW274558   7.904   2.558   9.041
24373SOL     OW74559   7.921   1.941   9.173
24373SOL    HW174560   7.879   1.872   9.123
24373SOL    HW274561   7.850   1.997   9.202
24374SOL     OW74562   8.011   2.798   8.528
24374SOL    HW174563   8.024   2.889   8.498
24374SOL    HW274564   7.918   2.782   8.514
24375SOL     OW74565   7.727   2.043   8.705
24375SOL    HW174566   7.687   2.086   8.780
24375SOL    HW274567   7.696   1.953   8.709
24376SOL     OW74568   7.465   3.168   8.741
24376SOL    HW174569   7.516   3.123   8.808
24376SOL    HW274570   7.479   3.261   8.759
24377SOL     OW74571   7.730   1.934   8.071
24377SOL    HW174572   7.720   2.029   8.079
24377SOL    HW274573   7.744   1.903   8.160
24378SOL     OW74574   7.810   2.787   9.273
24378SOL    HW174575   7.858   2.863   9.240
24378SOL    HW274576   7.821   2.720   9.206
24379SOL     OW74577   7.766   2.681   8.410
24379SOL    HW174578   7.840   2.679   8.350
24379SOL    HW274579   7.750   2.589   8.432
24380SOL     OW74580   7.751   2.398   8.460
24380SOL    HW174581   7.721   2.308   8.446
24380SOL    HW274582   7.828   2.407   8.404
24381SOL     OW74583   7.462   3.151   7.621
24381SOL    HW174584   7.369   3.175   7.626
24381SOL    HW274585   7.469   3.071   7.673
24382SOL     OW74586   7.566   3.646   8.385
24382SOL    HW174587   7.537   3.564   8.346
24382SOL    HW274588   7.615   3.690   8.315
24383SOL     OW74589   7.481   2.386   8.573
24383SOL    HW174590   7.551   2.407   8.512
24383SOL    HW274591   7.518   2.403   8.660
24384SOL     OW74592   7.628   2.393   9.179
24384SOL    HW174593   7.703   2.375   9.122
24384SOL    HW274594   7.582   2.466   9.137
24385SOL     OW74595   0.220   2.336   7.798
24385SOL    HW174596   0.224   2.376   7.711
24385SOL    HW274597   0.193   2.406   7.856
24386SOL     OW74598   7.697   3.415   9.161
24386SOL    HW174599   7.674   3.487   9.221
24386SOL    HW274600   7.707   3.339   9.218
24387SOL     OW74601   7.918   2.359   7.617
24387SOL    HW174602   7.960   2.440   7.647
24387SOL    HW274603   7.826   2.383   7.607
24388SOL     OW74604   7.591   3.007   8.934
24388SOL    HW174605   7.588   2.959   9.017
24388SOL    HW274606   7.601   2.939   8.868
24389SOL     OW74607   7.548   3.125   8.481
24389SOL    HW174608   7.513   3.138   8.569
24389SOL    HW274609   7.471   3.133   8.423
24390SOL     OW74610   7.603   3.647   9.288
24390SOL    HW174611   7.550   3.584   9.337
24390SOL    HW274612   7.645   3.701   9.356
24391SOL     OW74613   7.721   2.192   8.162
24391SOL    HW174614   7.637   2.226   8.132
24391SOL    HW274615   7.710   2.181   8.257
24392SOL     OW74616   7.820   3.167   8.951
24392SOL    HW174617   7.808   3.244   8.896
24392SOL    HW274618   7.741   3.115   8.938
24393SOL     OW74619  -0.009   3.378   7.870
24393SOL    HW174620   0.081   3.391   7.899
24393SOL    HW274621  -0.058   3.450   7.908
24394SOL     OW74622   7.731   3.186   7.737
24394SOL    HW174623   7.649   3.191   7.688
24394SOL    HW274624   7.715   3.237   7.817
24395SOL     OW74625   7.564   2.882   9.175
24395SOL    HW174626   7.482   2.864   9.222
24395SOL    HW274627   7.633   2.846   9.230
24396SOL     OW74628   7.512   2.174   7.502
24396SOL    HW174629   7.419   2.160   7.482
24396SOL    HW274630   7.530   2.262   7.471
24397SOL     OW74631   7.509   2.012   7.750
24397SOL    HW174632   7.490   2.085   7.691
24397SOL    HW274633   7.597   1.984   7.725
24398SOL     OW74634   7.833   3.613   9.013
24398SOL    HW174635   7.753   3.658   8.986
24398SOL    HW274636   7.803   3.532   9.053
24399SOL     OW74637   7.690   3.167   9.303
24399SOL    HW174638   7.609   3.129   9.268
24399SOL    HW274639   7.669   3.188   9.394
24400SOL     OW74640   7.529   3.079   8.129
24400SOL    HW174641   7.576   3.024   8.191
24400SOL    HW274642   7.594   3.104   8.063
24401SOL     OW74643   0.097   3.277   9.110
24401SOL    HW174644   0.028   3.212   9.099
24401SOL    HW274645   0.072   3.350   9.054
24402SOL     OW74646   7.793   2.408   8.737
24402SOL    HW174647   7.860   2.351   8.773
24402SOL    HW274648   7.798   2.396   8.643
24403SOL     OW74649   7.492   2.926   7.770
24403SOL    HW174650   7.582   2.912   7.743
24403SOL    HW274651   7.461   2.839   7.796
24404SOL     OW74652   7.661   2.469   9.445
24404SOL    HW174653   7.573   2.468   9.484
24404SOL    HW274654   7.645   2.461   9.351
24405SOL     OW74655   7.673   2.140  10.300
24405SOL    HW174656   7.702   2.110  10.386
24405SOL    HW274657   7.582   2.111  10.293
24406SOL     OW74658   7.447   2.251   9.948
24406SOL    HW174659   7.368   2.279   9.994
24406SOL    HW274660   7.421   2.172   9.901
24407SOL     OW74661   7.768   3.312  10.365
24407SOL    HW174662   7.684   3.268  10.353
24407SOL    HW274663   7.806   3.316  10.277
24408SOL     OW74664   7.873   2.292  10.861
24408SOL    HW174665   7.960   2.253  10.856
24408SOL    HW274666   7.813   2.220  10.841
24409SOL     OW74667   7.663   3.574   9.786
24409SOL    HW174668   7.681   3.650   9.841
24409SOL    HW274669   7.725   3.581   9.713
24410SOL     OW74670   7.667   3.304   9.849
24410SOL    HW174671   7.669   3.399   9.836
24410SOL    HW274672   7.599   3.291   9.916
24411SOL     OW74673   7.711   2.948  10.204
24411SOL    HW174674   7.686   2.864  10.243
24411SOL    HW274675   7.647   3.010  10.237
24412SOL     OW74676   7.573   2.513   9.865
24412SOL    HW174677   7.536   2.428   9.889
24412SOL    HW274678   7.561   2.567   9.943
24413SOL     OW74679   7.498   3.448   9.436
24413SOL    HW174680   7.472   3.359   9.457
24413SOL    HW274681   7.465   3.501   9.508
24414SOL     OW74682   7.558   2.605  10.893
24414SOL    HW174683   7.647   2.642  10.892
24414SOL    HW274684   7.501   2.681  10.887
24415SOL     OW74685   7.637   2.809  10.606
24415SOL    HW174686   7.723   2.771  10.589
24415SOL    HW274687   7.587   2.792  10.526
24416SOL     OW74688   7.754   2.112  11.140
24416SOL    HW174689   7.803   2.194  11.150
24416SOL    HW274690   7.664   2.135  11.163
24417SOL     OW74691   0.029   2.617   9.565
24417SOL    HW174692   0.031   2.712   9.567
24417SOL    HW274693  -0.032   2.592   9.634
24418SOL     OW74694   7.531   2.676  10.080
24418SOL    HW174695   7.609   2.669  10.134
24418SOL    HW274696   7.476   2.740  10.124
24419SOL     OW74697   7.574   3.734  10.892
24419SOL    HW174698   7.577   3.715  10.986
24419SOL    HW274699   7.506   3.676  10.858
24420SOL     OW74700   7.960   2.067  10.182
24420SOL    HW174701   7.962   2.057  10.277
24420SOL    HW274702   7.948   2.161  10.168
24421SOL     OW74703   7.816   3.696  10.179
24421SOL    HW174704   7.874   3.626  10.207
24421SOL    HW274705   7.868   3.775  10.185
24422SOL     OW74706   7.737   2.822   9.559
24422SOL    HW174707   7.796   2.843   9.486
24422SOL    HW274708   7.715   2.730   9.546
24423SOL     OW74709   7.947   3.100  11.054
24423SOL    HW174710   7.910   3.107  10.965
24423SOL    HW274711   7.873   3.121  11.111
24424SOL     OW74712   7.644   2.132  10.810
24424SOL    HW174713   7.574   2.196  10.826
24424SOL    HW274714   7.621   2.058  10.867
24425SOL     OW74715   7.713   3.654  10.534
24425SOL    HW174716   7.755   3.577  10.573
24425SOL    HW274717   7.686   3.625  10.447
24426SOL     OW74718   7.838   2.539   9.752
24426SOL    HW174719   7.877   2.479   9.815
24426SOL    HW274720   7.745   2.542   9.775
24427SOL     OW74721   0.043   2.004   9.409
24427SOL    HW174722   0.121   1.954   9.434
24427SOL    HW274723   0.009   1.959   9.332
24428SOL     OW74724   7.935   1.885   9.743
24428SOL    HW174725   7.877   1.900   9.817
24428SOL    HW274726   8.007   1.947   9.756
24429SOL     OW74727   7.751   1.921   9.494
24429SOL    HW174728   7.796   1.987   9.441
24429SOL    HW274729   7.817   1.888   9.554
24430SOL     OW74730   7.921   2.968  10.039
24430SOL    HW174731   7.848   2.959  10.100
24430SOL    HW274732   7.882   2.959   9.953
24431SOL     OW74733   7.532   2.411  10.703
24431SOL    HW174734   7.624   2.410  10.677
24431SOL    HW274735   7.526   2.483  10.767
24432SOL     OW74736   7.982   2.048  10.442
24432SOL    HW174737   8.064   2.054  10.492
24432SOL    HW274738   7.913   2.058  10.508
24433SOL     OW74739   7.879   2.674  10.571
24433SOL    HW174740   7.963   2.669  10.614
24433SOL    HW274741   7.839   2.588  10.584
24434SOL     OW74742   7.526   3.442  10.672
24434SOL    HW174743   7.499   3.507  10.607
24434SOL    HW274744   7.620   3.433  10.659
24435SOL     OW74745   7.830   2.970   9.775
24435SOL    HW174746   7.796   3.055   9.747
24435SOL    HW274747   7.787   2.907   9.717
24436SOL     OW74748  -0.020   2.412  10.167
24436SOL    HW174749   0.016   2.494  10.132
24436SOL    HW274750   0.017   2.406  10.255
24437SOL     OW74751   7.791   3.395  10.622
24437SOL    HW174752   7.790   3.354  10.535
24437SOL    HW274753   7.883   3.416  10.638
24438SOL     OW74754   7.849   2.596  10.917
24438SOL    HW174755   7.928   2.640  10.885
24438SOL    HW274756   7.868   2.503  10.904
24439SOL     OW74757   7.925   1.930  11.039
24439SOL    HW174758   7.882   1.871  10.977
24439SOL    HW274759   7.858   1.993  11.063
24440SOL     OW74760   7.993   2.779  10.343
24440SOL    HW174761   8.003   2.874  10.347
24440SOL    HW274762   7.950   2.756  10.425
24441SOL     OW74763   7.728   2.060  10.559
24441SOL    HW174764   7.701   2.091  10.645
24441SOL    HW274765   7.715   1.965  10.563
24442SOL     OW74766   7.434   3.183  10.636
24442SOL    HW174767   7.502   3.125  10.669
24442SOL    HW274768   7.472   3.270  10.639
24443SOL     OW74769   7.747   1.930   9.938
24443SOL    HW174770   7.733   2.022   9.959
24443SOL    HW274771   7.768   1.889  10.023
24444SOL     OW74772   7.810   2.780  11.130
24444SOL    HW174773   7.887   2.831  11.106
24444SOL    HW274774   7.814   2.702  11.075
24445SOL     OW74775   7.741   2.667  10.260
24445SOL    HW174776   7.830   2.699  10.272
24445SOL    HW274777   7.743   2.576  10.291
24446SOL     OW74778   7.752   2.395  10.317
24446SOL    HW174779   7.724   2.304  10.310
24446SOL    HW274780   7.831   2.401  10.263
24447SOL     OW74781   7.463   3.174   9.501
24447SOL    HW174782   7.375   3.195   9.469
24447SOL    HW274783   7.455   3.085   9.535
24448SOL     OW74784   7.547   3.646  10.260
24448SOL    HW174785   7.511   3.575  10.207
24448SOL    HW274786   7.633   3.663  10.221
24449SOL     OW74787   7.486   2.406  10.428
24449SOL    HW174788   7.569   2.413  10.380
24449SOL    HW274789   7.512   2.409  10.520
24450SOL     OW74790   7.638   2.385  11.040
24450SOL    HW174791   7.711   2.357  10.985
24450SOL    HW274792   7.599   2.459  10.993
24451SOL     OW74793   0.221   2.370   9.599
24451SOL    HW174794   0.189   2.286   9.633
24451SOL    HW274795   0.192   2.435   9.664
24452SOL     OW74796   7.685   3.412  11.026
24452SOL    HW174797   7.668   3.471  11.100
24452SOL    HW274798   7.703   3.327  11.067
24453SOL     OW74799   7.923   2.384   9.441
24453SOL    HW174800   7.971   2.451   9.489
24453SOL    HW274801   7.831   2.407   9.454
24454SOL     OW74802   7.584   3.001  10.790
24454SOL    HW174803   7.582   2.955  10.874
24454SOL    HW274804   7.601   2.932  10.726
24455SOL     OW74805   7.585   3.667  11.154
24455SOL    HW174806   7.540   3.595  11.197
24455SOL    HW274807   7.637   3.708  11.223
24456SOL     OW74808   7.711   2.187  10.027
24456SOL    HW174809   7.626   2.222  10.000
24456SOL    HW274810   7.704   2.174  10.121
24457SOL     OW74811   7.813   3.155  10.824
24457SOL    HW174812   7.810   3.231  10.764
24457SOL    HW274813   7.733   3.107  10.804
24458SOL     OW74814  -0.005   3.411   9.723
24458SOL    HW174815   0.011   3.338   9.783
24458SOL    HW274816   0.050   3.482   9.757
24459SOL     OW74817   7.719   3.192   9.609
24459SOL    HW174818   7.628   3.194   9.578
24459SOL    HW274819   7.718   3.243   9.690
24460SOL     OW74820   7.565   2.889  11.041
24460SOL    HW174821   7.485   2.866  11.088
24460SOL    HW274822   7.635   2.846  11.089
24461SOL     OW74823   7.507   2.194   9.348
24461SOL    HW174824   7.418   2.179   9.315
24461SOL    HW274825   7.535   2.276   9.305
24462SOL     OW74826   7.509   2.012   9.607
24462SOL    HW174827   7.493   2.091   9.554
24462SOL    HW274828   7.597   1.984   9.582
24463SOL     OW74829   7.834   3.619  10.878
24463SOL    HW174830   7.748   3.656  10.857
24463SOL    HW274831   7.815   3.530  10.908
24464SOL     OW74832   7.691   3.162  11.157
24464SOL    HW174833   7.630   3.102  11.114
24464SOL    HW274834   7.653   3.176  11.244
24465SOL     OW74835   7.485   3.076   9.983
24465SOL    HW174836   7.500   3.110  10.071
24465SOL    HW274837   7.572   3.048   9.953
24466SOL     OW74838   0.096   3.300  10.862
24466SOL    HW174839   0.048   3.238  10.917
24466SOL    HW274840   0.169   3.330  10.916
24467SOL     OW74841   7.785   2.416  10.606
24467SOL    HW174842   7.852   2.377  10.662
24467SOL    HW274843   7.807   2.386  10.517
24468SOL     OW74844   7.479   2.923   9.618
24468SOL    HW174845   7.572   2.916   9.593
24468SOL    HW274846   7.453   2.833   9.638
24469SOL     OW74847   7.653   2.483  11.304
24469SOL    HW174848   7.563   2.483  11.336
24469SOL    HW274849   7.646   2.466  11.210
24470SOL     OW74850   7.669   2.154  12.161
24470SOL    HW174851   7.700   2.120  12.244
24470SOL    HW274852   7.582   2.115  12.149
24471SOL     OW74853   7.448   2.245  11.810
24471SOL    HW174854   7.368   2.274  11.854
24471SOL    HW274855   7.422   2.167  11.762
24472SOL     OW74856   7.803   3.257  12.208
24472SOL    HW174857   7.718   3.215  12.197
24472SOL    HW274858   7.795   3.340  12.161
24473SOL     OW74859   7.660   3.574  11.653
24473SOL    HW174860   7.674   3.657  11.697
24473SOL    HW274861   7.738   3.562  11.599
24474SOL     OW74862   7.673   3.304  11.708
24474SOL    HW174863   7.658   3.399  11.704
24474SOL    HW274864   7.619   3.274  11.780
24475SOL     OW74865   7.581   2.492  11.726
24475SOL    HW174866   7.537   2.409  11.742
24475SOL    HW274867   7.566   2.543  11.805
24476SOL     OW74868   7.500   3.451  11.291
24476SOL    HW174869   7.477   3.360  11.309
24476SOL    HW274870   7.469   3.500  11.367
24477SOL     OW74871   7.605   2.619   0.209
24477SOL    HW174872   7.588   2.596   0.300
24477SOL    HW274873   7.528   2.668   0.182
24478SOL     OW74874   7.630   2.822  12.389
24478SOL    HW174875   7.706   2.772  12.418
24478SOL    HW274876   7.565   2.808  12.457
24479SOL     OW74877   0.029   2.590  11.421
24479SOL    HW174878   0.039   2.684  11.408
24479SOL    HW274879  -0.040   2.583  11.487
24480SOL     OW74880   7.537   2.648  11.940
24480SOL    HW174881   7.615   2.659  11.994
24480SOL    HW274882   7.477   2.715  11.971
24481SOL     OW74883   7.966   2.019  12.039
24481SOL    HW174884   7.961   2.051  12.129
24481SOL    HW274885   7.948   2.096  11.986
24482SOL     OW74886   7.799   3.687  12.027
24482SOL    HW174887   7.870   3.624  12.016
24482SOL    HW274888   7.843   3.769  12.048
24483SOL     OW74889   7.744   2.828  11.428
24483SOL    HW174890   7.805   2.850  11.359
24483SOL    HW274891   7.729   2.734  11.418
24484SOL     OW74892   7.688   3.656  12.404
24484SOL    HW174893   7.730   3.573  12.428
24484SOL    HW274894   7.640   3.637  12.324
24485SOL     OW74895   7.830   2.567  11.607
24485SOL    HW174896   7.897   2.541  11.671
24485SOL    HW274897   7.748   2.537  11.645
24486SOL     OW74898   0.007   1.931  11.302
24486SOL    HW174899   0.101   1.948  11.312
24486SOL    HW274900  -0.006   1.932  11.207
24487SOL     OW74901   8.004   1.898  11.763
24487SOL    HW174902   7.909   1.904  11.756
24487SOL    HW274903   8.037   1.943  11.685
24488SOL     OW74904   7.739   1.922  11.352
24488SOL    HW174905   7.756   1.996  11.295
24488SOL    HW274906   7.825   1.882  11.367
24489SOL     OW74907   7.843   2.977  11.954
24489SOL    HW174908   7.772   3.021  11.908
24489SOL    HW274909   7.915   2.975  11.891
24490SOL     OW74910   7.994   2.077  12.305
24490SOL    HW174911   8.038   2.033  12.378
24490SOL    HW274912   7.903   2.087  12.334
24491SOL     OW74913   7.859   2.671  12.448
24491SOL    HW174914   7.888   2.667  12.539
24491SOL    HW274915   7.830   2.582  12.428
24492SOL     OW74916   7.768   2.982  11.662
24492SOL    HW174917   7.775   3.060  11.607
24492SOL    HW274918   7.765   2.909  11.600
24493SOL     OW74919  -0.020   2.429  12.052
24493SOL    HW174920   0.023   2.504  12.010
24493SOL    HW274921   0.022   2.423  12.138
24494SOL     OW74922   7.805   3.416  12.455
24494SOL    HW174923   7.803   3.340  12.397
24494SOL    HW274924   7.881   3.402  12.512
24495SOL     OW74925   7.907   2.610   0.209
24495SOL    HW174926   7.998   2.615   0.238
24495SOL    HW274927   7.857   2.590   0.288
24496SOL     OW74928   7.988   2.782  12.223
24496SOL    HW174929   7.999   2.877  12.227
24496SOL    HW274930   7.948   2.759  12.307
24497SOL     OW74931   7.743   2.062  12.405
24497SOL    HW174932   7.699   2.097  12.483
24497SOL    HW274933   7.728   1.968  12.409
24498SOL     OW74934   7.541   3.191  12.459
24498SOL    HW174935   7.490   3.136  12.518
24498SOL    HW274936   7.543   3.277  12.502
24499SOL     OW74937   7.730   1.935  11.784
24499SOL    HW174938   7.720   2.029  11.799
24499SOL    HW274939   7.718   1.895  11.871
24500SOL     OW74940   7.739   2.693  12.122
24500SOL    HW174941   7.831   2.715  12.128
24500SOL    HW274942   7.734   2.600  12.143
24501SOL     OW74943   7.738   2.416  12.161
24501SOL    HW174944   7.716   2.322  12.161
24501SOL    HW274945   7.822   2.420  12.116
24502SOL     OW74946   7.466   3.175  11.363
24502SOL    HW174947   7.379   3.196  11.329
24502SOL    HW274948   7.457   3.087  11.400
24503SOL     OW74949   7.548   3.637  12.126
24503SOL    HW174950   7.514   3.562  12.076
24503SOL    HW274951   7.634   3.654  12.087
24504SOL     OW74952   7.515   2.430  12.321
24504SOL    HW174953   7.584   2.433  12.254
24504SOL    HW274954   7.490   2.338  12.326
24505SOL     OW74955   0.180   2.337  11.518
24505SOL    HW174956   0.253   2.329  11.456
24505SOL    HW274957   0.151   2.428  11.508
24506SOL     OW74958   7.894   2.348  11.335
24506SOL    HW174959   7.950   2.415  11.374
24506SOL    HW274960   7.807   2.387  11.335
24507SOL     OW74961   7.552   3.115  12.204
24507SOL    HW174962   7.548   3.142  12.296
24507SOL    HW274963   7.475   3.155  12.164
24508SOL     OW74964   7.715   2.190  11.888
24508SOL    HW174965   7.631   2.223  11.856
24508SOL    HW274966   7.703   2.183  11.983
24509SOL     OW74967  -0.010   3.436  11.591
24509SOL    HW174968   0.012   3.347  11.620
24509SOL    HW274969   0.066   3.489  11.616
24510SOL     OW74970   7.722   3.194  11.469
24510SOL    HW174971   7.633   3.194  11.436
24510SOL    HW274972   7.718   3.245  11.550
24511SOL     OW74973   7.508   2.201  11.211
24511SOL    HW174974   7.424   2.182  11.167
24511SOL    HW274975   7.542   2.277  11.164
24512SOL     OW74976   7.508   2.014  11.470
24512SOL    HW174977   7.493   2.090  11.414
24512SOL    HW274978   7.595   1.983  11.446
24513SOL     OW74979   7.754   3.584   0.241
24513SOL    HW174980   7.705   3.603   0.161
24513SOL    HW274981   7.834   3.540   0.211
24514SOL     OW74982   7.554   3.077  11.848
24514SOL    HW174983   7.503   3.000  11.873
24514SOL    HW274984   7.603   3.049  11.771
24515SOL     OW74985   7.485   2.925  11.492
24515SOL    HW174986   7.575   2.915  11.463
24515SOL    HW274987   7.457   2.836  11.514
24516SOL     OW74988   7.703   4.311   0.021
24516SOL    HW174989   7.671   4.366   0.092
24516SOL    HW274990   7.629   4.306  -0.040
24517SOL     OW74991   7.676   4.009   0.991
24517SOL    HW174992   7.703   3.982   1.078
24517SOL    HW274993   7.586   3.978   0.983
24518SOL     OW74994   7.439   4.109   0.637
24518SOL    HW174995   7.365   4.140   0.689
24518SOL    HW274996   7.411   4.023   0.604
24519SOL     OW74997   7.754   5.175   1.054
24519SOL    HW174998   7.677   5.122   1.035
24519SOL    HW274999   7.823   5.137   1.000
24520SOL     OW75000   7.857   4.121   1.532
24520SOL    HW175001   7.915   4.057   1.573
24520SOL    HW275002   7.776   4.073   1.516
24521SOL     OW75003   7.651   5.448   0.490
24521SOL    HW175004   7.678   5.522   0.545
24521SOL    HW275005   7.714   5.447   0.418
24522SOL     OW75006   7.654   5.169   0.522
24522SOL    HW175007   7.646   5.263   0.538
24522SOL    HW275008   7.605   5.128   0.594
24523SOL     OW75009   7.705   4.812   0.905
24523SOL    HW175010   7.705   4.722   0.937
24523SOL    HW275011   7.647   4.859   0.965
24524SOL     OW75012   7.548   4.365   0.559
24524SOL    HW175013   7.510   4.282   0.588
24524SOL    HW275014   7.547   4.420   0.637
24525SOL     OW75015   7.471   5.263   0.118
24525SOL    HW175016   7.385   5.222   0.126
24525SOL    HW275017   7.469   5.337   0.179
24526SOL     OW75018   7.563   4.461   1.580
24526SOL    HW175019   7.656   4.481   1.581
24526SOL    HW275020   7.520   4.543   1.606
24527SOL     OW75021   7.638   4.690   1.270
24527SOL    HW175022   7.727   4.657   1.281
24527SOL    HW275023   7.593   4.624   1.218
24528SOL     OW75024   7.764   3.987   1.804
24528SOL    HW175025   7.817   4.049   1.855
24528SOL    HW275026   7.681   3.981   1.851
24529SOL     OW75027   7.552   4.532   0.765
24529SOL    HW175028   7.617   4.536   0.836
24529SOL    HW275029   7.495   4.607   0.781
24530SOL     OW75030   7.574   5.589   1.587
24530SOL    HW175031   7.581   5.568   1.680
24530SOL    HW275032   7.482   5.574   1.566
24531SOL     OW75033   7.958   3.932   0.874
24531SOL    HW175034   7.962   3.922   0.969
24531SOL    HW275035   7.956   4.027   0.860
24532SOL     OW75036   7.810   5.550   0.866
24532SOL    HW175037   7.860   5.470   0.882
24532SOL    HW275038   7.873   5.621   0.880
24533SOL     OW75039   7.752   4.727   0.245
24533SOL    HW175040   7.845   4.747   0.234
24533SOL    HW275041   7.745   4.634   0.222
24534SOL     OW75042   7.953   4.974   1.736
24534SOL    HW175043   7.895   4.980   1.660
24534SOL    HW275044   7.895   4.990   1.811
24535SOL     OW75045   7.627   3.980   1.495
24535SOL    HW175046   7.548   4.030   1.517
24535SOL    HW275047   7.612   3.893   1.532
24536SOL     OW75048   7.705   5.513   1.230
24536SOL    HW175049   7.753   5.448   1.282
24536SOL    HW275050   7.699   5.475   1.142
24537SOL     OW75051   7.796   4.392   0.443
24537SOL    HW175052   7.868   4.374   0.503
24537SOL    HW275053   7.717   4.381   0.495
24538SOL     OW75054   0.043   3.777   0.064
24538SOL    HW175055   0.110   3.835   0.101
24538SOL    HW275056   0.088   3.726  -0.003
24539SOL     OW75057   7.988   3.734   0.501
24539SOL    HW175058   7.908   3.761   0.546
24539SOL    HW275059   8.021   3.815   0.462
24540SOL     OW75060   7.912   4.856   0.743
24540SOL    HW175061   7.842   4.838   0.806
24540SOL    HW275062   7.870   4.846   0.657
24541SOL     OW75063   7.519   4.272   1.392
24541SOL    HW175064   7.610   4.257   1.365
24541SOL    HW275065   7.524   4.344   1.455
24542SOL     OW75066   7.996   3.909   1.138
24542SOL    HW175067   8.042   3.857   1.204
24542SOL    HW275068   7.912   3.930   1.178
24543SOL     OW75069   7.526   5.294   1.354
24543SOL    HW175070   7.503   5.374   1.306
24543SOL    HW275071   7.621   5.289   1.347
24544SOL     OW75072   7.787   4.847   0.498
24544SOL    HW175073   7.784   4.930   0.451
24544SOL    HW275074   7.773   4.780   0.431
24545SOL     OW75075  -0.011   4.265   0.864
24545SOL    HW175076   0.024   4.347   0.829
24545SOL    HW275077   0.020   4.263   0.955
24546SOL     OW75078   7.794   5.255   1.313
24546SOL    HW175079   7.787   5.217   1.225
24546SOL    HW275080   7.887   5.273   1.325
24547SOL     OW75081   7.835   4.470   1.590
24547SOL    HW175082   7.862   4.503   1.504
24547SOL    HW275083   7.882   4.388   1.601
24548SOL     OW75084   7.928   3.807   1.699
24548SOL    HW175085   7.878   3.730   1.672
24548SOL    HW275086   7.863   3.866   1.737
24549SOL     OW75087  -0.005   4.633   1.026
24549SOL    HW175088   0.074   4.681   1.053
24549SOL    HW275089  -0.041   4.598   1.108
24550SOL     OW75090   7.745   3.924   1.242
24550SOL    HW175091   7.702   3.955   1.322
24550SOL    HW275092   7.733   3.829   1.244
24551SOL     OW75093   7.454   5.037   1.294
24551SOL    HW175094   7.502   4.980   1.353
24551SOL    HW275095   7.485   5.125   1.315
24552SOL     OW75096   7.748   3.800   0.623
24552SOL    HW175097   7.733   3.891   0.647
24552SOL    HW275098   7.763   3.755   0.706
24553SOL     OW75099   7.788   4.650   1.788
24553SOL    HW175100   7.873   4.662   1.831
24553SOL    HW275101   7.805   4.583   1.722
24554SOL     OW75102   7.742   4.543   0.959
24554SOL    HW175103   7.833   4.569   0.977
24554SOL    HW275104   7.740   4.450   0.979
24555SOL     OW75105   7.745   4.270   0.983
24555SOL    HW175106   7.723   4.178   0.997
24555SOL    HW275107   7.830   4.268   0.938
24556SOL     OW75108   7.539   5.508   0.937
24556SOL    HW175109   7.510   5.429   0.891
24556SOL    HW275110   7.629   5.522   0.907
24557SOL     OW75111   7.495   4.280   1.111
24557SOL    HW175112   7.577   4.282   1.061
24557SOL    HW275113   7.522   4.269   1.202
24558SOL     OW75114   7.628   4.247   1.744
24558SOL    HW175115   7.689   4.195   1.693
24558SOL    HW275116   7.594   4.313   1.683
24559SOL     OW75117   7.687   5.280   1.724
24559SOL    HW175118   7.669   5.354   1.782
24559SOL    HW275119   7.714   5.210   1.783
24560SOL     OW75120   7.908   4.181   0.172
24560SOL    HW175121   7.938   4.250   0.231
24560SOL    HW275122   7.837   4.222   0.122
24561SOL     OW75123   7.556   4.843   1.474
24561SOL    HW175124   7.602   4.799   1.545
24561SOL    HW275125   7.583   4.796   1.395
24562SOL     OW75126   7.532   5.006   1.027
24562SOL    HW175127   7.498   5.006   1.116
24562SOL    HW275128   7.472   4.948   0.979
24563SOL     OW75129   7.600   5.519   1.846
24563SOL    HW175130   7.546   5.457   1.894
24563SOL    HW275131   7.646   5.568   1.915
24564SOL     OW75132   7.711   4.055   0.716
24564SOL    HW175133   7.624   4.088   0.694
24564SOL    HW275134   7.709   4.042   0.811
24565SOL     OW75135   7.780   5.028   1.518
24565SOL    HW175136   7.802   5.112   1.478
24565SOL    HW275137   7.791   4.964   1.448
24566SOL     OW75138  -0.012   5.258   0.411
24566SOL    HW175139   0.009   5.182   0.465
24566SOL    HW275140   0.031   5.331   0.455
24567SOL     OW75141   7.739   5.052   0.299
24567SOL    HW175142   7.652   5.035   0.262
24567SOL    HW275143   7.722   5.107   0.376
24568SOL     OW75144   7.550   4.775   1.754
24568SOL    HW175145   7.474   4.738   1.799
24568SOL    HW275146   7.623   4.719   1.780
24569SOL     OW75147   7.524   3.869   0.332
24569SOL    HW175148   7.509   3.962   0.313
24569SOL    HW275149   7.617   3.864   0.354
24570SOL     OW75150   7.829   5.477   1.559
24570SOL    HW175151   7.741   5.513   1.549
24570SOL    HW275152   7.816   5.391   1.597
24571SOL     OW75153   7.684   5.015   1.859
24571SOL    HW175154   7.671   4.922   1.878
24571SOL    HW275155   7.687   5.057   1.945
24572SOL     OW75156   7.534   4.958   0.674
24572SOL    HW175157   7.516   4.912   0.755
24572SOL    HW275158   7.608   4.911   0.635
24573SOL     OW75159   0.088   5.156   1.563
24573SOL    HW175160   0.053   5.089   1.621
24573SOL    HW275161   0.162   5.194   1.612
24574SOL     OW75162   7.765   4.243   1.293
24574SOL    HW175163   7.826   4.214   1.361
24574SOL    HW275164   7.815   4.303   1.239
24575SOL     OW75165   7.490   4.790   0.313
24575SOL    HW175166   7.584   4.784   0.296
24575SOL    HW275167   7.470   4.713   0.367
24576SOL     OW75168   7.658   4.362   1.993
24576SOL    HW175169   7.574   4.343   2.035
24576SOL    HW275170   7.648   4.328   1.904
24577SOL     OW75171   7.669   4.006   2.854
24577SOL    HW175172   7.696   3.978   2.941
24577SOL    HW275173   7.579   3.975   2.846
24578SOL     OW75174   7.447   4.118   2.500
24578SOL    HW175175   7.366   4.140   2.545
24578SOL    HW275176   7.426   4.039   2.450
24579SOL     OW75177   7.772   5.148   2.920
24579SOL    HW175178   7.695   5.096   2.899
24579SOL    HW275179   7.783   5.205   2.844
24580SOL     OW75180   7.869   4.136   3.383
24580SOL    HW175181   7.950   4.086   3.395
24580SOL    HW275182   7.800   4.070   3.380
24581SOL     OW75183   7.676   5.440   2.332
24581SOL    HW175184   7.673   5.513   2.394
24581SOL    HW275185   7.770   5.422   2.321
24582SOL     OW75186   7.661   5.158   2.387
24582SOL    HW175187   7.652   5.253   2.393
24582SOL    HW275188   7.604   5.124   2.456
24583SOL     OW75189   7.691   4.809   2.746
24583SOL    HW175190   7.696   4.724   2.789
24583SOL    HW275191   7.645   4.865   2.809
24584SOL     OW75192   7.558   4.381   2.425
24584SOL    HW175193   7.525   4.295   2.449
24584SOL    HW275194   7.545   4.435   2.503
24585SOL     OW75195   7.488   5.308   1.975
24585SOL    HW175196   7.470   5.218   2.004
24585SOL    HW275197   7.464   5.362   2.050
24586SOL     OW75198   7.578   4.473   3.440
24586SOL    HW175199   7.673   4.487   3.438
24586SOL    HW275200   7.542   4.555   3.474
24587SOL     OW75201   7.637   4.682   3.141
24587SOL    HW175202   7.726   4.648   3.137
24587SOL    HW275203   7.588   4.630   3.077
24588SOL     OW75204   7.760   3.981   3.649
24588SOL    HW175205   7.823   4.034   3.698
24588SOL    HW275206   7.680   3.984   3.703
24589SOL     OW75207   7.520   4.560   2.629
24589SOL    HW175208   7.598   4.546   2.683
24589SOL    HW275209   7.476   4.634   2.670
24590SOL     OW75210   7.566   5.541   3.390
24590SOL    HW175211   7.570   5.570   3.482
24590SOL    HW275212   7.474   5.552   3.366
24591SOL     OW75213   7.940   3.920   2.741
24591SOL    HW175214   7.955   3.917   2.835
24591SOL    HW275215   7.972   4.007   2.715
24592SOL     OW75216   7.856   5.516   2.691
24592SOL    HW175217   7.771   5.495   2.731
24592SOL    HW275218   7.896   5.578   2.752
24593SOL     OW75219   7.747   4.694   2.106
24593SOL    HW175220   7.842   4.700   2.100
24593SOL    HW275221   7.726   4.605   2.077
24594SOL     OW75222   7.933   4.956   3.604
24594SOL    HW175223   7.896   4.962   3.516
24594SOL    HW275224   7.863   4.987   3.662
24595SOL     OW75225   7.631   3.989   3.379
24595SOL    HW175226   7.563   4.057   3.384
24595SOL    HW275227   7.652   3.970   3.470
24596SOL     OW75228   7.714   5.520   3.086
24596SOL    HW175229   7.753   5.437   3.113
24596SOL    HW275230   7.677   5.501   2.999
24597SOL     OW75231   7.826   4.405   2.338
24597SOL    HW175232   7.847   4.332   2.397
24597SOL    HW275233   7.733   4.420   2.352
24598SOL     OW75234   0.087   3.888   1.926
24598SOL    HW175235   0.140   3.822   1.971
24598SOL    HW275236   0.019   3.838   1.881
24599SOL     OW75237   7.990   3.798   2.389
24599SOL    HW175238   7.904   3.778   2.427
24599SOL    HW275239   7.971   3.813   2.296
24600SOL     OW75240   7.912   4.857   2.598
24600SOL    HW175241   7.840   4.840   2.659
24600SOL    HW275242   7.877   4.833   2.512
24601SOL     OW75243   7.535   4.276   3.255
24601SOL    HW175244   7.626   4.276   3.228
24601SOL    HW275245   7.528   4.349   3.317
24602SOL     OW75246   7.993   3.912   3.005
24602SOL    HW175247   8.059   3.913   3.074
24602SOL    HW275248   7.910   3.927   3.050
24603SOL     OW75249   7.875   4.545   3.127
24603SOL    HW175250   7.956   4.555   3.178
24603SOL    HW275251   7.847   4.455   3.144
24604SOL     OW75252   7.531   5.291   3.206
24604SOL    HW175253   7.514   5.378   3.169
24604SOL    HW275254   7.626   5.283   3.206
24605SOL     OW75255   7.813   4.837   2.341
24605SOL    HW175256   7.777   4.923   2.319
24605SOL    HW275257   7.773   4.777   2.279
24606SOL     OW75258  -0.016   4.282   2.724
24606SOL    HW175259   0.013   4.367   2.692
24606SOL    HW275260   0.028   4.272   2.809
24607SOL     OW75261   7.797   5.252   3.171
24607SOL    HW175262   7.799   5.205   3.088
24607SOL    HW275263   7.889   5.274   3.189
24608SOL     OW75264   7.856   4.459   3.461
24608SOL    HW175265   7.935   4.511   3.445
24608SOL    HW275266   7.886   4.368   3.456
24609SOL     OW75267   7.944   3.804   3.550
24609SOL    HW175268   7.896   3.729   3.516
24609SOL    HW275269   7.877   3.862   3.586
24610SOL     OW75270   7.969   4.634   2.881
24610SOL    HW175271   8.056   4.674   2.890
24610SOL    HW275272   7.941   4.618   2.971
24611SOL     OW75273   7.733   3.925   3.116
24611SOL    HW175274   7.700   3.956   3.200
24611SOL    HW275275   7.718   3.830   3.118
24612SOL     OW75276   7.453   5.039   3.148
24612SOL    HW175277   7.497   4.983   3.212
24612SOL    HW275278   7.482   5.127   3.169
24613SOL     OW75279   7.733   3.784   2.494
24613SOL    HW175280   7.724   3.878   2.507
24613SOL    HW275281   7.751   3.749   2.581
24614SOL     OW75282   7.788   4.645   3.665
24614SOL    HW175283   7.870   4.693   3.678
24614SOL    HW275284   7.813   4.568   3.614
24615SOL     OW75285   7.731   4.532   2.805
24615SOL    HW175286   7.818   4.566   2.823
24615SOL    HW275287   7.734   4.441   2.832
24616SOL     OW75288   7.752   4.261   2.863
24616SOL    HW175289   7.727   4.169   2.856
24616SOL    HW275290   7.834   4.267   2.814
24617SOL     OW75291   7.451   5.038   2.049
24617SOL    HW175292   7.365   5.051   2.009
24617SOL    HW275293   7.446   4.952   2.091
24618SOL     OW75294   7.489   4.273   2.980
24618SOL    HW175295   7.572   4.276   2.932
24618SOL    HW275296   7.514   4.274   3.072
24619SOL     OW75297   7.623   4.248   3.589
24619SOL    HW175298   7.706   4.223   3.546
24619SOL    HW275299   7.593   4.325   3.540
24620SOL     OW75300   0.208   4.233   2.170
24620SOL    HW175301   0.169   4.146   2.175
24620SOL    HW275302   0.249   4.246   2.255
24621SOL     OW75303   7.681   5.290   3.594
24621SOL    HW175304   7.675   5.357   3.663
24621SOL    HW275305   7.704   5.210   3.640
24622SOL     OW75306   7.919   4.320   2.055
24622SOL    HW175307   7.949   4.252   1.995
24622SOL    HW275308   7.825   4.327   2.039
24623SOL     OW75309   7.555   4.857   3.329
24623SOL    HW175310   7.577   4.815   3.413
24623SOL    HW275311   7.588   4.797   3.263
24624SOL     OW75312   7.541   4.988   2.892
24624SOL    HW175313   7.514   5.001   2.983
24624SOL    HW275314   7.458   4.986   2.843
24625SOL     OW75315   7.715   4.051   2.575
24625SOL    HW175316   7.629   4.086   2.553
24625SOL    HW275317   7.713   4.037   2.669
24626SOL     OW75318   7.799   5.008   3.376
24626SOL    HW175319   7.825   5.083   3.322
24626SOL    HW275320   7.718   4.976   3.335
24627SOL     OW75321   0.005   5.254   2.275
24627SOL    HW175322   0.000   5.192   2.348
24627SOL    HW275323   0.057   5.327   2.309
24628SOL     OW75324   7.710   5.075   2.134
24628SOL    HW175325   7.617   5.064   2.118
24628SOL    HW275326   7.716   5.117   2.220
24629SOL     OW75327   7.544   4.724   3.568
24629SOL    HW175328   7.473   4.721   3.632
24629SOL    HW275329   7.623   4.705   3.619
24630SOL     OW75330   7.515   4.054   1.913
24630SOL    HW175331   7.430   4.033   1.875
24630SOL    HW275332   7.546   4.129   1.862
24631SOL     OW75333   7.523   3.871   2.159
24631SOL    HW175334   7.516   3.943   2.097
24631SOL    HW275335   7.612   3.838   2.148
24632SOL     OW75336   7.837   5.477   3.423
24632SOL    HW175337   7.749   5.500   3.392
24632SOL    HW275338   7.827   5.390   3.462
24633SOL     OW75339   7.702   5.047   3.730
24633SOL    HW175340   7.622   4.996   3.720
24633SOL    HW275341   7.716   5.053   3.824
24634SOL     OW75342   7.536   4.922   2.523
24634SOL    HW175343   7.524   4.887   2.612
24634SOL    HW275344   7.626   4.901   2.501
24635SOL     OW75345   0.076   5.146   3.425
24635SOL    HW175346   0.051   5.076   3.485
24635SOL    HW275347   0.148   5.191   3.469
24636SOL     OW75348   7.786   4.282   3.156
24636SOL    HW175349   7.845   4.239   3.218
24636SOL    HW275350   7.818   4.255   3.070
24637SOL     OW75351   7.487   4.787   2.159
24637SOL    HW175352   7.580   4.774   2.141
24637SOL    HW275353   7.456   4.699   2.184
24638SOL     OW75354   7.665   4.337   3.849
24638SOL    HW175355   7.580   4.350   3.891
24638SOL    HW275356   7.644   4.319   3.758
24639SOL     OW75357   7.669   4.008   4.713
24639SOL    HW175358   7.696   3.978   4.800
24639SOL    HW275359   7.580   3.975   4.703
24640SOL     OW75360   7.451   4.117   4.361
24640SOL    HW175361   7.371   4.138   4.408
24640SOL    HW275362   7.432   4.035   4.316
24641SOL     OW75363   7.774   5.151   4.783
24641SOL    HW175364   7.700   5.094   4.762
24641SOL    HW275365   7.784   5.207   4.706
24642SOL     OW75366   7.856   4.137   5.265
24642SOL    HW175367   7.937   4.092   5.243
24642SOL    HW275368   7.787   4.073   5.247
24643SOL     OW75369   7.666   5.439   4.198
24643SOL    HW175370   7.674   5.514   4.257
24643SOL    HW275371   7.751   5.433   4.155
24644SOL     OW75372   7.658   5.166   4.246
24644SOL    HW175373   7.658   5.262   4.249
24644SOL    HW275374   7.617   5.140   4.329
24645SOL     OW75375   7.685   4.806   4.604
24645SOL    HW175376   7.692   4.718   4.643
24645SOL    HW275377   7.646   4.859   4.673
24646SOL     OW75378   7.570   4.373   4.286
24646SOL    HW175379   7.534   4.288   4.310
24646SOL    HW275380   7.554   4.429   4.362
24647SOL     OW75381   7.398   5.295   3.837
24647SOL    HW175382   7.460   5.234   3.879
24647SOL    HW275383   7.420   5.380   3.875
24648SOL     OW75384   7.561   4.464   5.308
24648SOL    HW175385   7.651   4.496   5.307
24648SOL    HW275386   7.507   4.543   5.304
24649SOL     OW75387   7.639   4.679   5.007
24649SOL    HW175388   7.728   4.644   5.002
24649SOL    HW275389   7.589   4.627   4.944
24650SOL     OW75390   7.758   3.965   5.560
24650SOL    HW175391   7.812   4.044   5.564
24650SOL    HW275392   7.668   3.997   5.570
24651SOL     OW75393   0.018   4.463   3.972
24651SOL    HW175394   0.052   4.550   3.989
24651SOL    HW275395  -0.046   4.448   4.041
24652SOL     OW75396   7.519   4.548   4.493
24652SOL    HW175397   7.597   4.540   4.547
24652SOL    HW275398   7.473   4.624   4.530
24653SOL     OW75399   7.573   5.601   5.308
24653SOL    HW175400   7.579   5.580   5.402
24653SOL    HW275401   7.502   5.545   5.276
24654SOL     OW75402   7.951   3.914   4.601
24654SOL    HW175403   7.962   3.916   4.696
24654SOL    HW275404   7.969   4.004   4.572
24655SOL     OW75405   7.861   5.539   4.575
24655SOL    HW175406   7.778   5.521   4.620
24655SOL    HW275407   7.887   5.625   4.607
24656SOL     OW75408   7.760   4.701   3.985
24656SOL    HW175409   7.852   4.717   3.968
24656SOL    HW275410   7.745   4.611   3.955
24657SOL     OW75411   7.934   4.973   5.470
24657SOL    HW175412   7.896   4.980   5.382
24657SOL    HW275413   7.861   4.990   5.529
24658SOL     OW75414   7.634   3.985   5.220
24658SOL    HW175415   7.553   4.036   5.225
24658SOL    HW275416   7.608   3.897   5.248
24659SOL     OW75417   7.707   5.515   4.966
24659SOL    HW175418   7.757   5.436   4.986
24659SOL    HW275419   7.674   5.501   4.878
24660SOL     OW75420   7.829   4.420   4.168
24660SOL    HW175421   7.887   4.387   4.237
24660SOL    HW275422   7.741   4.406   4.202
24661SOL     OW75423   0.008   3.826   3.847
24661SOL    HW175424   0.099   3.806   3.871
24661SOL    HW275425   0.009   3.831   3.751
24662SOL     OW75426   7.962   3.743   4.199
24662SOL    HW175427   7.890   3.767   4.257
24662SOL    HW275428   8.006   3.826   4.180
24663SOL     OW75429   7.746   3.768   3.913
24663SOL    HW175430   7.829   3.806   3.886
24663SOL    HW275431   7.769   3.698   3.974
24664SOL     OW75432   7.914   4.830   4.460
24664SOL    HW175433   7.842   4.822   4.522
24664SOL    HW275434   7.872   4.831   4.374
24665SOL     OW75435   7.539   4.281   5.108
24665SOL    HW175436   7.632   4.280   5.084
24665SOL    HW275437   7.533   4.346   5.177
24666SOL     OW75438   7.992   3.907   4.868
24666SOL    HW175439   8.035   3.854   4.935
24666SOL    HW275440   7.906   3.927   4.905
24667SOL     OW75441   7.880   4.545   4.994
24667SOL    HW175442   7.962   4.545   5.044
24667SOL    HW275443   7.847   4.456   5.004
24668SOL     OW75444   7.528   5.298   5.076
24668SOL    HW175445   7.513   5.371   5.016
24668SOL    HW275446   7.623   5.284   5.073
24669SOL     OW75447   7.779   4.847   4.220
24669SOL    HW175448   7.787   4.927   4.168
24669SOL    HW275449   7.769   4.777   4.156
24670SOL     OW75450  -0.023   4.290   4.587
24670SOL    HW175451   0.019   4.367   4.550
24670SOL    HW275452   0.017   4.279   4.673
24671SOL     OW75453   7.793   5.245   5.037
24671SOL    HW175454   7.793   5.204   4.951
24671SOL    HW275455   7.883   5.276   5.049
24672SOL     OW75456   7.845   4.459   5.325
24672SOL    HW175457   7.929   4.501   5.306
24672SOL    HW275458   7.862   4.366   5.317
24673SOL     OW75459   7.917   3.764   5.451
24673SOL    HW175460   7.886   3.721   5.371
24673SOL    HW275461   7.853   3.832   5.469
24674SOL     OW75462   7.980   4.645   4.757
24674SOL    HW175463   8.010   4.735   4.766
24674SOL    HW275464   7.947   4.621   4.844
24675SOL     OW75465   7.737   3.928   4.968
24675SOL    HW175466   7.699   3.963   5.049
24675SOL    HW275467   7.709   3.837   4.966
24676SOL     OW75468   7.465   5.040   5.008
24676SOL    HW175469   7.506   4.982   5.071
24676SOL    HW275470   7.487   5.128   5.038
24677SOL     OW75471   7.740   3.798   4.351
24677SOL    HW175472   7.731   3.891   4.372
24677SOL    HW275473   7.754   3.755   4.435
24678SOL     OW75474   7.793   4.638   5.534
24678SOL    HW175475   7.880   4.678   5.531
24678SOL    HW275476   7.801   4.561   5.477
24679SOL     OW75477   7.737   4.538   4.672
24679SOL    HW175478   7.827   4.567   4.687
24679SOL    HW275479   7.736   4.446   4.697
24680SOL     OW75480   7.748   4.263   4.728
24680SOL    HW175481   7.722   4.171   4.719
24680SOL    HW275482   7.827   4.270   4.673
24681SOL     OW75483   7.463   5.023   3.916
24681SOL    HW175484   7.375   5.031   3.878
24681SOL    HW275485   7.462   4.936   3.957
24682SOL     OW75486   7.486   4.286   4.837
24682SOL    HW175487   7.569   4.280   4.789
24682SOL    HW275488   7.510   4.276   4.929
24683SOL     OW75489   7.639   4.243   5.457
24683SOL    HW175490   7.700   4.204   5.394
24683SOL    HW275491   7.598   4.316   5.409
24684SOL     OW75492   0.215   4.228   4.022
24684SOL    HW175493   0.180   4.146   4.058
24684SOL    HW275494   0.187   4.295   4.085
24685SOL     OW75495   7.679   5.271   5.442
24685SOL    HW175496   7.664   5.330   5.516
24685SOL    HW275497   7.695   5.185   5.481
24686SOL     OW75498   7.912   4.217   3.873
24686SOL    HW175499   7.966   4.285   3.913
24686SOL    HW275500   7.823   4.253   3.875
24687SOL     OW75501   7.583   4.867   5.195
24687SOL    HW175502   7.586   4.821   5.279
24687SOL    HW275503   7.603   4.799   5.130
24688SOL     OW75504   7.550   4.982   4.758
24688SOL    HW175505   7.521   4.995   4.848
24688SOL    HW275506   7.469   4.978   4.707
24689SOL     OW75507   7.582   5.533   5.569
24689SOL    HW175508   7.539   5.459   5.611
24689SOL    HW275509   7.634   5.573   5.639
24690SOL     OW75510   7.720   4.057   4.440
24690SOL    HW175511   7.634   4.091   4.416
24690SOL    HW275512   7.713   4.041   4.535
24691SOL     OW75513   7.813   5.026   5.234
24691SOL    HW175514   7.808   5.098   5.171
24691SOL    HW275515   7.737   4.971   5.213
24692SOL     OW75516  -0.008   5.279   4.141
24692SOL    HW175517   0.019   5.202   4.190
24692SOL    HW275518   0.050   5.348   4.171
24693SOL     OW75519   7.718   5.063   4.007
24693SOL    HW175520   7.626   5.051   3.985
24693SOL    HW275521   7.716   5.111   4.090
24694SOL     OW75522   7.561   4.767   5.454
24694SOL    HW175523   7.483   4.738   5.501
24694SOL    HW275524   7.632   4.718   5.493
24695SOL     OW75525   7.515   4.053   3.761
24695SOL    HW175526   7.426   4.041   3.729
24695SOL    HW275527   7.547   4.130   3.713
24696SOL     OW75528   7.511   3.877   4.019
24696SOL    HW175529   7.498   3.955   3.964
24696SOL    HW275530   7.599   3.846   3.997
24697SOL     OW75531   7.835   5.478   5.300
24697SOL    HW175532   7.750   5.512   5.272
24697SOL    HW275533   7.817   5.388   5.329
24698SOL     OW75534   7.683   5.024   5.573
24698SOL    HW175535   7.626   4.955   5.539
24698SOL    HW275536   7.656   5.034   5.664
24699SOL     OW75537   7.545   4.932   4.391
24699SOL    HW175538   7.579   4.886   4.468
24699SOL    HW275539   7.608   4.912   4.322
24700SOL     OW75540   0.093   5.172   5.296
24700SOL    HW175541   0.028   5.105   5.319
24700SOL    HW275542   0.145   5.184   5.375
24701SOL     OW75543   7.792   4.285   5.015
24701SOL    HW175544   7.859   4.241   5.068
24701SOL    HW275545   7.810   4.256   4.925
24702SOL     OW75546   7.491   4.781   4.034
24702SOL    HW175547   7.584   4.774   4.014
24702SOL    HW275548   7.464   4.692   4.055
24703SOL     OW75549   7.659   4.337   5.719
24703SOL    HW175550   7.568   4.342   5.747
24703SOL    HW275551   7.655   4.321   5.625
24704SOL     OW75552   7.668   4.002   6.580
24704SOL    HW175553   7.694   3.972   6.667
24704SOL    HW275554   7.578   3.972   6.570
24705SOL     OW75555   7.457   4.110   6.226
24705SOL    HW175556   7.375   4.137   6.267
24705SOL    HW275557   7.434   4.033   6.174
24706SOL     OW75558   7.753   5.151   6.627
24706SOL    HW175559   7.676   5.095   6.622
24706SOL    HW275560   7.778   5.167   6.536
24707SOL     OW75561   7.886   4.092   7.077
24707SOL    HW175562   7.931   4.007   7.074
24707SOL    HW275563   7.793   4.069   7.087
24708SOL     OW75564   7.656   5.434   6.065
24708SOL    HW175565   7.673   5.517   6.110
24708SOL    HW275566   7.739   5.413   6.023
24709SOL     OW75567   7.676   5.164   6.123
24709SOL    HW175568   7.648   5.255   6.122
24709SOL    HW275569   7.615   5.121   6.183
24710SOL     OW75570   7.719   4.812   6.506
24710SOL    HW175571   7.704   4.721   6.533
24710SOL    HW275572   7.650   4.861   6.550
24711SOL     OW75573   7.581   4.370   6.150
24711SOL    HW175574   7.542   4.285   6.169
24711SOL    HW275575   7.566   4.422   6.229
24712SOL     OW75576   7.500   5.314   5.704
24712SOL    HW175577   7.477   5.222   5.720
24712SOL    HW275578   7.466   5.361   5.780
24713SOL     OW75579   7.544   4.477   7.147
24713SOL    HW175580   7.634   4.503   7.166
24713SOL    HW275581   7.493   4.558   7.153
24714SOL     OW75582   7.634   4.687   6.868
24714SOL    HW175583   7.719   4.642   6.866
24714SOL    HW275584   7.577   4.634   6.814
24715SOL     OW75585   7.761   3.993   7.364
24715SOL    HW175586   7.815   4.071   7.378
24715SOL    HW275587   7.687   4.004   7.424
24716SOL     OW75588   0.035   4.434   5.834
24716SOL    HW175589   0.068   4.515   5.795
24716SOL    HW275590  -0.029   4.463   5.899
24717SOL     OW75591   7.536   4.533   6.366
24717SOL    HW175592   7.613   4.534   6.422
24717SOL    HW275593   7.487   4.611   6.391
24718SOL     OW75594   7.572   5.597   7.164
24718SOL    HW175595   7.575   5.574   7.257
24718SOL    HW275596   7.492   5.556   7.132
24719SOL     OW75597   7.961   3.907   6.463
24719SOL    HW175598   7.959   3.935   6.554
24719SOL    HW275599   7.969   3.988   6.413
24720SOL     OW75600   7.810   5.549   6.441
24720SOL    HW175601   7.865   5.484   6.397
24720SOL    HW275602   7.871   5.618   6.467
24721SOL     OW75603   7.750   4.695   5.845
24721SOL    HW175604   7.832   4.718   5.800
24721SOL    HW275605   7.732   4.605   5.818
24722SOL     OW75606   7.949   4.974   7.325
24722SOL    HW175607   7.911   4.972   7.237
24722SOL    HW275608   7.875   4.990   7.383
24723SOL     OW75609   7.627   4.013   7.099
24723SOL    HW175610   7.543   4.059   7.104
24723SOL    HW275611   7.625   3.952   7.173
24724SOL     OW75612   7.714   5.507   6.809
24724SOL    HW175613   7.767   5.430   6.829
24724SOL    HW275614   7.681   5.492   6.721
24725SOL     OW75615   7.835   4.443   6.033
24725SOL    HW175616   7.895   4.386   6.080
24725SOL    HW275617   7.748   4.417   6.063
24726SOL     OW75618   0.001   3.766   5.713
24726SOL    HW175619   0.057   3.843   5.721
24726SOL    HW275620  -0.022   3.763   5.620
24727SOL     OW75621   7.973   3.717   6.102
24727SOL    HW175622   7.891   3.754   6.135
24727SOL    HW275623   8.015   3.790   6.057
24728SOL     OW75624   7.735   3.789   5.766
24728SOL    HW175625   7.739   3.857   5.699
24728SOL    HW275626   7.826   3.762   5.778
24729SOL     OW75627   7.921   4.841   6.331
24729SOL    HW175628   7.849   4.829   6.393
24729SOL    HW275629   7.881   4.834   6.245
24730SOL     OW75630   7.530   4.276   6.967
24730SOL    HW175631   7.624   4.271   6.949
24730SOL    HW275632   7.521   4.345   7.033
24731SOL     OW75633   7.986   3.923   6.733
24731SOL    HW175634   8.035   3.862   6.789
24731SOL    HW275635   7.902   3.933   6.777
24732SOL     OW75636   7.866   4.539   6.861
24732SOL    HW175637   7.960   4.535   6.881
24732SOL    HW275638   7.835   4.449   6.871
24733SOL     OW75639   7.528   5.299   6.940
24733SOL    HW175640   7.485   5.362   6.883
24733SOL    HW275641   7.622   5.313   6.925
24734SOL     OW75642   7.792   4.837   6.086
24734SOL    HW175643   7.788   4.915   6.030
24734SOL    HW275644   7.779   4.764   6.026
24735SOL     OW75645  -0.028   4.303   6.457
24735SOL    HW175646   0.018   4.377   6.417
24735SOL    HW275647   0.014   4.291   6.542
24736SOL     OW75648   7.812   5.241   6.875
24736SOL    HW175649   7.786   5.209   6.788
24736SOL    HW275650   7.895   5.196   6.893
24737SOL     OW75651   7.822   4.485   7.204
24737SOL    HW175652   7.899   4.476   7.147
24737SOL    HW275653   7.797   4.395   7.225
24738SOL     OW75654   7.934   3.793   7.323
24738SOL    HW175655   7.889   3.732   7.266
24738SOL    HW275656   7.872   3.865   7.336
24739SOL     OW75657   8.007   4.644   6.638
24739SOL    HW175658   7.999   4.738   6.622
24739SOL    HW275659   7.936   4.624   6.699
24740SOL     OW75660   7.735   3.920   6.844
24740SOL    HW175661   7.684   3.955   6.917
24740SOL    HW275662   7.716   3.826   6.844
24741SOL     OW75663   7.464   5.037   6.882
24741SOL    HW175664   7.512   4.981   6.944
24741SOL    HW275665   7.491   5.126   6.905
24742SOL     OW75666   7.729   3.794   6.212
24742SOL    HW175667   7.724   3.889   6.224
24742SOL    HW275668   7.746   3.759   6.299
24743SOL     OW75669   7.808   4.657   7.415
24743SOL    HW175670   7.900   4.685   7.411
24743SOL    HW275671   7.800   4.591   7.347
24744SOL     OW75672   7.749   4.532   6.540
24744SOL    HW175673   7.842   4.542   6.520
24744SOL    HW275674   7.740   4.442   6.570
24745SOL     OW75675   7.746   4.258   6.596
24745SOL    HW175676   7.721   4.167   6.585
24745SOL    HW275677   7.823   4.269   6.540
24746SOL     OW75678   7.460   5.040   5.780
24746SOL    HW175679   7.373   5.058   5.744
24746SOL    HW275680   7.454   4.951   5.815
24747SOL     OW75681   7.554   5.498   6.543
24747SOL    HW175682   7.517   5.426   6.492
24747SOL    HW275683   7.637   5.518   6.501
24748SOL     OW75684   7.483   4.275   6.697
24748SOL    HW175685   7.567   4.276   6.651
24748SOL    HW275686   7.506   4.271   6.790
24749SOL     OW75687   7.686   4.262   7.293
24749SOL    HW175688   7.689   4.175   7.255
24749SOL    HW275689   7.593   4.283   7.300
24750SOL     OW75690   0.179   4.181   5.929
24750SOL    HW175691   0.224   4.210   5.850
24750SOL    HW275692   0.160   4.261   5.978
24751SOL     OW75693   7.693   5.274   7.303
24751SOL    HW175694   7.672   5.333   7.375
24751SOL    HW275695   7.704   5.188   7.345
24752SOL     OW75696   7.904   4.209   5.742
24752SOL    HW175697   7.958   4.277   5.781
24752SOL    HW275698   7.815   4.246   5.743
24753SOL     OW75699   7.588   4.870   7.061
24753SOL    HW175700   7.580   4.824   7.144
24753SOL    HW275701   7.604   4.801   6.997
24754SOL     OW75702   7.530   4.988   6.615
24754SOL    HW175703   7.496   4.998   6.704
24754SOL    HW275704   7.460   4.941   6.568
24755SOL     OW75705   7.586   5.523   7.428
24755SOL    HW175706   7.542   5.452   7.473
24755SOL    HW275707   7.637   5.567   7.496
24756SOL     OW75708   7.722   4.053   6.303
24756SOL    HW175709   7.638   4.088   6.274
24756SOL    HW275710   7.711   4.040   6.397
24757SOL     OW75711   7.813   5.025   7.093
24757SOL    HW175712   7.789   5.106   7.049
24757SOL    HW275713   7.739   4.966   7.079
24758SOL     OW75714  -0.016   5.304   6.009
24758SOL    HW175715  -0.001   5.213   6.034
24758SOL    HW275716   0.066   5.349   6.031
24759SOL     OW75717   7.717   5.060   5.879
24759SOL    HW175718   7.625   5.058   5.850
24759SOL    HW275719   7.714   5.106   5.963
24760SOL     OW75720   7.556   4.772   7.322
24760SOL    HW175721   7.476   4.739   7.364
24760SOL    HW275722   7.627   4.722   7.363
24761SOL     OW75723   7.504   4.058   5.618
24761SOL    HW175724   7.427   4.037   5.565
24761SOL    HW275725   7.540   4.137   5.579
24762SOL     OW75726   7.506   3.883   5.885
24762SOL    HW175727   7.486   3.954   5.824
24762SOL    HW275728   7.594   3.854   5.862
24763SOL     OW75729   7.831   5.474   7.151
24763SOL    HW175730   7.749   5.517   7.125
24763SOL    HW275731   7.803   5.391   7.191
24764SOL     OW75732   7.692   5.024   7.430
24764SOL    HW175733   7.636   4.955   7.395
24764SOL    HW275734   7.667   5.031   7.522
24765SOL     OW75735   7.539   4.958   6.260
24765SOL    HW175736   7.526   4.897   6.333
24765SOL    HW275737   7.602   4.913   6.203
24766SOL     OW75738   0.079   5.190   7.163
24766SOL    HW175739   0.026   5.119   7.198
24766SOL    HW275740   0.158   5.191   7.218
24767SOL     OW75741   7.792   4.277   6.885
24767SOL    HW175742   7.848   4.219   6.937
24767SOL    HW275743   7.808   4.250   6.794
24768SOL     OW75744   7.489   4.788   5.902
24768SOL    HW175745   7.580   4.777   5.875
24768SOL    HW275746   7.460   4.699   5.924
24769SOL     OW75747   7.677   4.354   7.573
24769SOL    HW175748   7.617   4.284   7.597
24769SOL    HW275749   7.689   4.344   7.479
24770SOL     OW75750   7.694   3.990   8.467
24770SOL    HW175751   7.697   3.956   8.556
24770SOL    HW275752   7.608   3.962   8.434
24771SOL     OW75753   7.457   4.128   8.087
24771SOL    HW175754   7.368   4.140   8.120
24771SOL    HW275755   7.455   4.045   8.039
24772SOL     OW75756   7.744   5.190   8.449
24772SOL    HW175757   7.666   5.134   8.452
24772SOL    HW275758   7.805   5.142   8.393
24773SOL     OW75759   7.884   4.088   8.953
24773SOL    HW175760   7.917   4.004   8.921
24773SOL    HW275761   7.792   4.073   8.970
24774SOL     OW75762   7.654   5.433   7.930
24774SOL    HW175763   7.675   5.513   7.978
24774SOL    HW275764   7.735   5.411   7.884
24775SOL     OW75765   7.672   5.159   7.983
24775SOL    HW175766   7.645   5.251   7.982
24775SOL    HW275767   7.612   5.117   8.044
24776SOL     OW75768   7.735   4.820   8.377
24776SOL    HW175769   7.715   4.731   8.405
24776SOL    HW275770   7.659   4.872   8.402
24777SOL     OW75771   7.570   4.375   8.012
24777SOL    HW175772   7.528   4.291   8.027
24777SOL    HW275773   7.558   4.423   8.095
24778SOL     OW75774   7.497   5.313   7.569
24778SOL    HW175775   7.478   5.220   7.586
24778SOL    HW275776   7.462   5.358   7.646
24779SOL     OW75777   7.546   4.466   9.025
24779SOL    HW175778   7.629   4.511   9.039
24779SOL    HW275779   7.482   4.536   9.012
24780SOL     OW75780   7.635   4.684   8.730
24780SOL    HW175781   7.717   4.636   8.738
24780SOL    HW275782   7.577   4.626   8.681
24781SOL     OW75783   7.753   3.986   9.288
24781SOL    HW175784   7.786   4.071   9.258
24781SOL    HW275785   7.661   4.001   9.307
24782SOL     OW75786   8.015   4.447   7.727
24782SOL    HW175787   8.019   4.532   7.684
24782SOL    HW275788   7.950   4.459   7.797
24783SOL     OW75789   7.547   4.535   8.232
24783SOL    HW175790   7.615   4.536   8.300
24783SOL    HW275791   7.490   4.609   8.255
24784SOL     OW75792   7.574   5.600   9.030
24784SOL    HW175793   7.579   5.576   9.122
24784SOL    HW275794   7.489   5.565   9.001
24785SOL     OW75795   7.975   3.960   8.357
24785SOL    HW175796   7.883   3.945   8.377
24785SOL    HW275797   7.976   3.988   8.265
24786SOL     OW75798   7.823   5.541   8.321
24786SOL    HW175799   7.881   5.484   8.270
24786SOL    HW275800   7.874   5.621   8.334
24787SOL     OW75801   7.740   4.672   7.696
24787SOL    HW175802   7.772   4.686   7.607
24787SOL    HW275803   7.713   4.581   7.698
24788SOL     OW75804   7.940   4.953   9.193
24788SOL    HW175805   7.900   4.966   9.108
24788SOL    HW275806   7.871   4.976   9.256
24789SOL     OW75807   7.623   4.011   8.975
24789SOL    HW175808   7.535   4.047   8.964
24789SOL    HW275809   7.609   3.921   9.003
24790SOL     OW75810   7.827   4.418   7.923
24790SOL    HW175811   7.847   4.325   7.913
24790SOL    HW275812   7.735   4.420   7.950
24791SOL     OW75813   0.005   3.793   7.588
24791SOL    HW175814   0.101   3.793   7.596
24791SOL    HW275815  -0.010   3.798   7.494
24792SOL     OW75816   8.015   3.753   7.985
24792SOL    HW175817   7.931   3.763   8.030
24792SOL    HW275818   8.017   3.825   7.922
24793SOL     OW75819   7.737   3.784   7.644
24793SOL    HW175820   7.710   3.872   7.616
24793SOL    HW275821   7.832   3.782   7.631
24794SOL     OW75822   7.930   4.815   8.185
24794SOL    HW175823   7.857   4.818   8.247
24794SOL    HW275824   7.889   4.815   8.099
24795SOL     OW75825   7.539   4.275   8.832
24795SOL    HW175826   7.632   4.277   8.810
24795SOL    HW275827   7.528   4.341   8.900
24796SOL     OW75828   8.027   3.929   8.671
24796SOL    HW175829   8.026   3.873   8.593
24796SOL    HW275830   7.935   3.937   8.697
24797SOL     OW75831   7.864   4.531   8.774
24797SOL    HW175832   7.940   4.553   8.721
24797SOL    HW275833   7.844   4.440   8.750
24798SOL     OW75834   7.521   5.304   8.821
24798SOL    HW175835   7.474   5.356   8.755
24798SOL    HW275836   7.612   5.306   8.792
24799SOL     OW75837   7.809   4.827   7.932
24799SOL    HW175838   7.793   4.908   7.883
24799SOL    HW275839   7.787   4.757   7.871
24800SOL     OW75840  -0.008   4.314   8.324
24800SOL    HW175841   0.030   4.388   8.277
24800SOL    HW275842   0.034   4.316   8.410
24801SOL     OW75843   7.791   5.289   8.721
24801SOL    HW175844   7.797   5.200   8.686
24801SOL    HW275845   7.873   5.302   8.769
24802SOL     OW75846   7.828   4.491   9.054
24802SOL    HW175847   7.854   4.514   8.965
24802SOL    HW275848   7.838   4.396   9.058
24803SOL     OW75849   7.931   3.799   9.194
24803SOL    HW175850   7.888   3.736   9.136
24803SOL    HW275851   7.864   3.864   9.214
24804SOL     OW75852   8.000   4.646   8.528
24804SOL    HW175853   8.014   4.715   8.462
24804SOL    HW275854   7.918   4.604   8.502
24805SOL     OW75855   7.759   3.915   8.732
24805SOL    HW175856   7.688   3.944   8.789
24805SOL    HW275857   7.739   3.824   8.713
24806SOL     OW75858   7.528   5.038   8.723
24806SOL    HW175859   7.543   4.971   8.790
24806SOL    HW275860   7.495   5.113   8.771
24807SOL     OW75861   7.809   4.651   9.281
24807SOL    HW175862   7.880   4.709   9.254
24807SOL    HW275863   7.810   4.580   9.217
24808SOL     OW75864   7.773   4.525   8.405
24808SOL    HW175865   7.831   4.510   8.330
24808SOL    HW275866   7.752   4.437   8.436
24809SOL     OW75867   7.764   4.247   8.456
24809SOL    HW175868   7.736   4.157   8.443
24809SOL    HW275869   7.838   4.258   8.395
24810SOL     OW75870   7.461   5.040   7.641
24810SOL    HW175871   7.374   5.056   7.604
24810SOL    HW275872   7.455   4.952   7.678
24811SOL     OW75873   7.561   5.482   8.404
24811SOL    HW175874   7.512   5.414   8.358
24811SOL    HW275875   7.620   5.518   8.337
24812SOL     OW75876   7.479   4.287   8.560
24812SOL    HW175877   7.549   4.253   8.505
24812SOL    HW275878   7.510   4.272   8.650
24813SOL     OW75879   7.640   4.244   9.169
24813SOL    HW175880   7.623   4.169   9.111
24813SOL    HW275881   7.587   4.315   9.133
24814SOL     OW75882   0.221   4.230   7.749
24814SOL    HW175883   0.176   4.148   7.767
24814SOL    HW275884   0.178   4.294   7.806
24815SOL     OW75885   7.699   5.272   9.170
24815SOL    HW175886   7.674   5.330   9.242
24815SOL    HW275887   7.704   5.185   9.209
24816SOL     OW75888   7.920   4.211   7.621
24816SOL    HW175889   7.958   4.292   7.653
24816SOL    HW275890   7.826   4.230   7.612
24817SOL     OW75891   7.591   4.863   8.930
24817SOL    HW175892   7.585   4.815   9.013
24817SOL    HW275893   7.603   4.794   8.864
24818SOL     OW75894   7.531   5.013   8.454
24818SOL    HW175895   7.520   5.015   8.549
24818SOL    HW275896   7.463   4.953   8.423
24819SOL     OW75897   7.596   5.523   9.289
24819SOL    HW175898   7.546   5.454   9.332
24819SOL    HW275899   7.640   5.569   9.361
24820SOL     OW75900   7.737   4.097   8.160
24820SOL    HW175901   7.648   4.127   8.143
24820SOL    HW275902   7.729   4.001   8.164
24821SOL     OW75903   7.812   5.022   8.965
24821SOL    HW175904   7.802   5.088   8.896
24821SOL    HW275905   7.739   4.963   8.953
24822SOL     OW75906   7.972   5.263   7.865
24822SOL    HW175907   7.992   5.181   7.910
24822SOL    HW275908   8.023   5.329   7.912
24823SOL     OW75909   7.722   5.054   7.737
24823SOL    HW175910   7.630   5.054   7.711
24823SOL    HW275911   7.723   5.104   7.819
24824SOL     OW75912   7.565   4.774   9.191
24824SOL    HW175913   7.481   4.749   9.231
24824SOL    HW275914   7.630   4.719   9.235
24825SOL     OW75915   7.505   3.866   7.796
24825SOL    HW175916   7.492   3.934   7.730
24825SOL    HW275917   7.599   3.847   7.793
24826SOL     OW75918   7.820   5.466   9.013
24826SOL    HW175919   7.739   5.513   8.993
24826SOL    HW275920   7.792   5.388   9.060
24827SOL     OW75921   7.677   5.020   9.290
24827SOL    HW175922   7.633   4.946   9.248
24827SOL    HW275923   7.626   5.036   9.370
24828SOL     OW75924   7.532   4.963   8.128
24828SOL    HW175925   7.504   4.900   8.194
24828SOL    HW275926   7.585   4.911   8.067
24829SOL     OW75927   0.103   5.167   9.066
24829SOL    HW175928   0.063   5.080   9.071
24829SOL    HW275929   0.029   5.228   9.068
24830SOL     OW75930   7.794   4.272   8.732
24830SOL    HW175931   7.835   4.195   8.773
24830SOL    HW275932   7.793   4.251   8.639
24831SOL     OW75933   7.490   4.790   7.766
24831SOL    HW175934   7.580   4.776   7.735
24831SOL    HW275935   7.458   4.702   7.788
24832SOL     OW75936   7.667   4.330   9.436
24832SOL    HW175937   7.579   4.334   9.474
24832SOL    HW275938   7.653   4.312   9.343
24833SOL     OW75939   7.675   4.004  10.302
24833SOL    HW175940   7.700   3.971  10.388
24833SOL    HW275941   7.585   3.975  10.290
24834SOL     OW75942   7.454   4.100   9.953
24834SOL    HW175943   7.375   4.134   9.995
24834SOL    HW275944   7.424   4.021   9.907
24835SOL     OW75945   7.772   5.155  10.359
24835SOL    HW175946   7.693   5.101  10.354
24835SOL    HW275947   7.782   5.191  10.271
24836SOL     OW75948   7.867   4.115  10.830
24836SOL    HW175949   7.933   4.046  10.822
24836SOL    HW275950   7.784   4.068  10.825
24837SOL     OW75951   7.656   5.440   9.793
24837SOL    HW175952   7.676   5.520   9.841
24837SOL    HW275953   7.733   5.425   9.739
24838SOL     OW75954   7.680   5.161   9.851
24838SOL    HW175955   7.652   5.253   9.854
24838SOL    HW275956   7.618   5.115   9.906
24839SOL     OW75957   7.739   4.820  10.235
24839SOL    HW175958   7.722   4.730  10.262
24839SOL    HW275959   7.661   4.868  10.261
24840SOL     OW75960   7.586   4.353   9.871
24840SOL    HW175961   7.533   4.274   9.878
24840SOL    HW275962   7.572   4.399   9.954
24841SOL     OW75963   7.497   5.314   9.424
24841SOL    HW175964   7.475   5.222   9.443
24841SOL    HW275965   7.466   5.362   9.501
24842SOL     OW75966   7.556   4.464  10.896
24842SOL    HW175967   7.647   4.494  10.895
24842SOL    HW275968   7.504   4.544  10.883
24843SOL     OW75969   7.638   4.678  10.599
24843SOL    HW175970   7.725   4.637  10.594
24843SOL    HW275971   7.591   4.643  10.523
24844SOL     OW75972   7.757   3.982  11.160
24844SOL    HW175973   7.799   4.068  11.167
24844SOL    HW275974   7.664   4.000  11.178
24845SOL     OW75975   0.033   4.454   9.581
24845SOL    HW175976   0.016   4.542   9.548
24845SOL    HW275977  -0.029   4.443   9.653
24846SOL     OW75978   7.540   4.486  10.100
24846SOL    HW175979   7.586   4.550  10.155
24846SOL    HW275980   7.464   4.534  10.067
24847SOL     OW75981   7.574   5.584  10.889
24847SOL    HW175982   7.579   5.559  10.982
24847SOL    HW275983   7.483   5.568  10.865
24848SOL     OW75984   7.973   3.928  10.194
24848SOL    HW175985   7.967   3.933  10.290
24848SOL    HW275986   7.948   4.015  10.164
24849SOL     OW75987   7.794   5.545  10.181
24849SOL    HW175988   7.884   5.520  10.161
24849SOL    HW275989   7.801   5.632  10.222
24850SOL     OW75990   7.745   4.670   9.558
24850SOL    HW175991   7.771   4.666   9.466
24850SOL    HW275992   7.695   4.590   9.572
24851SOL     OW75993   7.946   4.969  11.045
24851SOL    HW175994   7.901   4.971  10.960
24851SOL    HW275995   7.877   4.989  11.108
24852SOL     OW75996   7.629   3.989  10.814
24852SOL    HW175997   7.542   4.030  10.808
24852SOL    HW275998   7.612   3.901  10.847
24853SOL     OW75999   7.699   5.522  10.533
24853SOL    HW176000   7.739   5.438  10.554
24853SOL    HW276001   7.673   5.514  10.442
24854SOL     OW76002   7.844   4.396   9.769
24854SOL    HW176003   7.854   4.303   9.787
24854SOL    HW276004   7.754   4.416   9.794
24855SOL     OW76005   0.014   3.798   9.456
24855SOL    HW176006   0.109   3.789   9.461
24855SOL    HW276007  -0.005   3.801   9.363
24856SOL     OW76008   7.997   3.752   9.822
24856SOL    HW176009   7.909   3.767   9.856
24856SOL    HW276010   8.015   3.828   9.766
24857SOL     OW76011   7.741   3.795   9.487
24857SOL    HW176012   7.746   3.868   9.426
24857SOL    HW276013   7.832   3.768   9.501
24858SOL     OW76014   7.932   4.809  10.042
24858SOL    HW176015   7.860   4.819  10.105
24858SOL    HW276016   7.890   4.810   9.956
24859SOL     OW76017   7.535   4.273  10.702
24859SOL    HW176018   7.627   4.274  10.676
24859SOL    HW276019   7.529   4.343  10.767
24860SOL     OW76020   7.990   3.922  10.462
24860SOL    HW176021   8.036   3.855  10.512
24860SOL    HW276022   7.904   3.929  10.504
24861SOL     OW76023   7.878   4.537  10.597
24861SOL    HW176024   7.972   4.525  10.603
24861SOL    HW276025   7.842   4.449  10.595
24862SOL     OW76026   7.520   5.295  10.663
24862SOL    HW176027   7.489   5.367  10.607
24862SOL    HW276028   7.615   5.296  10.652
24863SOL     OW76029   7.838   4.824   9.773
24863SOL    HW176030   7.800   4.907   9.746
24863SOL    HW276031   7.798   4.759   9.715
24864SOL     OW76032   7.973   4.289  10.177
24864SOL    HW176033   8.007   4.370  10.140
24864SOL    HW276034   8.015   4.283  10.263
24865SOL     OW76035   7.788   5.250  10.615
24865SOL    HW176036   7.791   5.208  10.529
24865SOL    HW276037   7.880   5.271  10.634
24866SOL     OW76038   7.835   4.465  10.910
24866SOL    HW176039   7.891   4.506  10.844
24866SOL    HW276040   7.863   4.374  10.912
24867SOL     OW76041   7.933   3.812  11.049
24867SOL    HW176042   7.894   3.745  10.993
24867SOL    HW276043   7.860   3.868  11.074
24868SOL     OW76044   8.023   4.658  10.371
24868SOL    HW176045   8.007   4.750  10.348
24868SOL    HW276046   7.942   4.629  10.411
24869SOL     OW76047   7.738   3.921  10.563
24869SOL    HW176048   7.693   3.949  10.643
24869SOL    HW276049   7.724   3.826  10.559
24870SOL     OW76050   7.451   5.039  10.602
24870SOL    HW176051   7.499   4.983  10.663
24870SOL    HW276052   7.477   5.128  10.624
24871SOL     OW76053   7.746   3.793   9.931
24871SOL    HW176054   7.728   3.886   9.948
24871SOL    HW276055   7.761   3.755  10.017
24872SOL     OW76056   7.799   4.644  11.120
24872SOL    HW176057   7.890   4.671  11.129
24872SOL    HW276058   7.802   4.569  11.060
24873SOL     OW76059   7.757   4.546  10.287
24873SOL    HW176060   7.841   4.540  10.240
24873SOL    HW276061   7.731   4.455  10.299
24874SOL     OW76062   7.748   4.260  10.321
24874SOL    HW176063   7.720   4.170  10.310
24874SOL    HW276064   7.823   4.270  10.262
24875SOL     OW76065   7.469   5.040   9.493
24875SOL    HW176066   7.381   5.057   9.460
24875SOL    HW276067   7.461   4.957   9.539
24876SOL     OW76068   7.536   5.498  10.263
24876SOL    HW176069   7.503   5.423  10.213
24876SOL    HW276070   7.622   5.516  10.225
24877SOL     OW76071   7.479   4.270  10.427
24877SOL    HW176072   7.554   4.274  10.368
24877SOL    HW276073   7.517   4.269  10.514
24878SOL     OW76074   7.630   4.244  11.045
24878SOL    HW176075   7.669   4.189  10.978
24878SOL    HW276076   7.595   4.319  10.997
24879SOL     OW76077   0.225   4.244   9.656
24879SOL    HW176078   0.183   4.158   9.650
24879SOL    HW276079   0.158   4.306   9.628
24880SOL     OW76080   7.700   5.274  11.027
24880SOL    HW176081   7.677   5.344  11.089
24880SOL    HW276082   7.708   5.196  11.082
24881SOL     OW76083   7.915   4.219   9.484
24881SOL    HW176084   7.954   4.300   9.517
24881SOL    HW276085   7.823   4.240   9.471
24882SOL     OW76086   7.577   4.868  10.781
24882SOL    HW176087   7.582   4.826  10.867
24882SOL    HW276088   7.600   4.799  10.719
24883SOL     OW76089   7.539   5.013  10.339
24883SOL    HW176090   7.503   5.012  10.428
24883SOL    HW276091   7.485   4.951  10.290
24884SOL     OW76092   7.596   5.503  11.148
24884SOL    HW176093   7.538   5.445  11.198
24884SOL    HW276094   7.647   5.549  11.215
24885SOL     OW76095   7.724   4.053  10.027
24885SOL    HW176096   7.640   4.086   9.994
24885SOL    HW276097   7.709   4.039  10.120
24886SOL     OW76098   7.812   5.021  10.811
24886SOL    HW176099   7.801   5.100  10.757
24886SOL    HW276100   7.733   4.970  10.795
24887SOL     OW76101  -0.006   5.289   9.713
24887SOL    HW176102  -0.003   5.213   9.770
24887SOL    HW276103   0.056   5.351   9.753
24888SOL     OW76104   7.729   5.055   9.609
24888SOL    HW176105   7.641   5.056   9.572
24888SOL    HW276106   7.722   5.103   9.691
24889SOL     OW76107   7.562   4.771  11.040
24889SOL    HW176108   7.486   4.738  11.087
24889SOL    HW276109   7.636   4.723  11.077
24890SOL     OW76110   7.497   4.047   9.352
24890SOL    HW176111   7.416   4.009   9.316
24890SOL    HW276112   7.497   4.137   9.320
24891SOL     OW76113   7.504   3.875   9.610
24891SOL    HW176114   7.479   3.948   9.554
24891SOL    HW276115   7.592   3.852   9.582
24892SOL     OW76116   7.829   5.465  10.869
24892SOL    HW176117   7.750   5.513  10.844
24892SOL    HW276118   7.797   5.387  10.914
24893SOL     OW76119   7.693   5.026  11.163
24893SOL    HW176120   7.636   4.959  11.123
24893SOL    HW276121   7.659   5.036  11.252
24894SOL     OW76122   7.521   4.958   9.979
24894SOL    HW176123   7.493   4.911  10.057
24894SOL    HW276124   7.538   4.889   9.915
24895SOL     OW76125   0.106   5.155  10.906
24895SOL    HW176126   0.047   5.086  10.938
24895SOL    HW276127   0.074   5.235  10.947
24896SOL     OW76128   7.786   4.280  10.601
24896SOL    HW176129   7.847   4.223  10.647
24896SOL    HW276130   7.795   4.256  10.509
24897SOL     OW76131   7.497   4.800   9.629
24897SOL    HW176132   7.587   4.790   9.597
24897SOL    HW276133   7.466   4.710   9.641
24898SOL     OW76134   7.651   4.349  11.306
24898SOL    HW176135   7.560   4.338  11.335
24898SOL    HW276136   7.648   4.328  11.212
24899SOL     OW76137   7.669   4.053  12.198
24899SOL    HW176138   7.688   4.006  12.279
24899SOL    HW276139   7.592   4.009  12.162
24900SOL     OW76140   7.444   4.117  11.813
24900SOL    HW176141   7.361   4.143  11.855
24900SOL    HW276142   7.423   4.036  11.768
24901SOL     OW76143   7.804   5.111  12.173
24901SOL    HW176144   7.715   5.076  12.175
24901SOL    HW276145   7.793   5.205  12.193
24902SOL     OW76146   7.679   5.426  11.631
24902SOL    HW176147   7.697   5.497  11.692
24902SOL    HW276148   7.702   5.461  11.545
24903SOL     OW76149   7.668   5.165  11.726
24903SOL    HW176150   7.688   5.253  11.696
24903SOL    HW276151   7.595   5.177  11.787
24904SOL     OW76152   7.725   4.823  12.029
24904SOL    HW176153   7.724   4.735  12.068
24904SOL    HW276154   7.676   4.877  12.091
24905SOL     OW76155   7.562   4.372  11.735
24905SOL    HW176156   7.528   4.285  11.752
24905SOL    HW276157   7.552   4.419  11.818
24906SOL     OW76158   7.471   5.316  11.296
24906SOL    HW176159   7.466   5.226  11.329
24906SOL    HW276160   7.455   5.371  11.373
24907SOL     OW76161   7.614   4.467   0.225
24907SOL    HW176162   7.653   4.432   0.305
24907SOL    HW276163   7.527   4.497   0.251
24908SOL     OW76164   7.603   4.652  12.388
24908SOL    HW176165   7.693   4.633  12.414
24908SOL    HW276166   7.556   4.659  12.471
24909SOL     OW76167   7.990   4.459  11.430
24909SOL    HW176168   8.049   4.534  11.421
24909SOL    HW276169   7.942   4.477  11.511
24910SOL     OW76170   7.529   4.548  11.947
24910SOL    HW176171   7.611   4.536  11.995
24910SOL    HW276172   7.484   4.618  11.994
24911SOL     OW76173   7.936   3.937  12.046
24911SOL    HW176174   7.976   3.903  12.125
24911SOL    HW276175   8.002   3.926  11.978
24912SOL     OW76176   7.810   5.558  12.059
24912SOL    HW176177   7.859   5.491  12.011
24912SOL    HW276178   7.870   5.632  12.066
24913SOL     OW76179   7.738   4.686  11.433
24913SOL    HW176180   7.807   4.713  11.372
24913SOL    HW276181   7.724   4.593  11.414
24914SOL     OW76182   7.681   5.515  12.403
24914SOL    HW176183   7.722   5.430  12.424
24914SOL    HW276184   7.647   5.503  12.315
24915SOL     OW76185   7.823   4.441  11.652
24915SOL    HW176186   7.866   4.355  11.656
24915SOL    HW276187   7.732   4.422  11.673
24916SOL     OW76188   0.018   3.811  11.313
24916SOL    HW176189   0.112   3.798  11.319
24916SOL    HW276190  -0.000   3.815  11.220
24917SOL     OW76191   7.997   3.781  11.731
24917SOL    HW176192   7.902   3.783  11.728
24917SOL    HW276193   8.025   3.828  11.653
24918SOL     OW76194   7.743   3.780  11.354
24918SOL    HW176195   7.764   3.855  11.297
24918SOL    HW276196   7.827   3.737  11.369
24919SOL     OW76197   7.993   3.942  12.310
24919SOL    HW176198   8.048   3.975  12.380
24919SOL    HW276199   7.920   3.900  12.355
24920SOL     OW76200   7.855   4.524  12.431
24920SOL    HW176201   7.902   4.541  12.513
24920SOL    HW276202   7.811   4.440  12.446
24921SOL     OW76203   7.796   4.846  11.662
24921SOL    HW176204   7.780   4.919  11.601
24921SOL    HW276205   7.777   4.768  11.610
24922SOL     OW76206  -0.015   4.287  12.038
24922SOL    HW176207  -0.017   4.356  11.972
24922SOL    HW276208   0.065   4.305  12.088
24923SOL     OW76209   7.800   5.272  12.439
24923SOL    HW176210   7.799   5.179  12.414
24923SOL    HW276211   7.876   5.280  12.497
24924SOL     OW76212   7.900   4.488   0.208
24924SOL    HW176213   7.992   4.490   0.234
24924SOL    HW276214   7.854   4.458   0.286
24925SOL     OW76215  -0.006   4.609  12.205
24925SOL    HW176216   0.074   4.647  12.239
24925SOL    HW276217  -0.053   4.577  12.282
24926SOL     OW76218   7.740   3.921  12.423
24926SOL    HW176219   7.751   3.944  12.515
24926SOL    HW276220   7.718   3.827  12.424
24927SOL     OW76221   7.532   5.055  12.435
24927SOL    HW176222   7.547   4.990  12.504
24927SOL    HW276223   7.521   5.138  12.482
24928SOL     OW76224   7.729   3.802  11.785
24928SOL    HW176225   7.716   3.895  11.803
24928SOL    HW276226   7.741   3.762  11.872
24929SOL     OW76227   7.740   4.555  12.118
24929SOL    HW176228   7.834   4.563  12.134
24929SOL    HW276229   7.704   4.536  12.205
24930SOL     OW76230   7.464   5.039  11.368
24930SOL    HW176231   7.379   5.057  11.328
24930SOL    HW276232   7.455   4.951  11.405
24931SOL     OW76233   7.551   5.506  12.128
24931SOL    HW176234   7.523   5.430  12.076
24931SOL    HW276235   7.639   5.525  12.096
24932SOL     OW76236   7.507   4.264  12.323
24932SOL    HW176237   7.551   4.200  12.267
24932SOL    HW276238   7.460   4.210  12.387
24933SOL     OW76239   0.213   4.246  11.465
24933SOL    HW176240   0.181   4.157  11.478
24933SOL    HW276241   0.184   4.294  11.543
24934SOL     OW76242   7.897   4.220  11.333
24934SOL    HW176243   7.950   4.293  11.366
24934SOL    HW276244   7.807   4.253  11.334
24935SOL     OW76245   7.554   4.979  12.174
24935SOL    HW176246   7.537   5.005  12.264
24935SOL    HW276247   7.478   4.926  12.150
24936SOL     OW76248   7.709   4.062  11.876
24936SOL    HW176249   7.620   4.088  11.852
24936SOL    HW276250   7.707   4.056  11.972
24937SOL     OW76251  -0.028   5.244  11.611
24937SOL    HW176252   0.056   5.205  11.634
24937SOL    HW276253  -0.017   5.338  11.630
24938SOL     OW76254   7.724   5.050  11.478
24938SOL    HW176255   7.633   5.058  11.450
24938SOL    HW276256   7.731   5.110  11.553
24939SOL     OW76257   7.504   4.062  11.215
24939SOL    HW176258   7.425   4.034  11.169
24939SOL    HW276259   7.535   4.138  11.166
24940SOL     OW76260   7.510   3.876  11.468
24940SOL    HW176261   7.494   3.952  11.412
24940SOL    HW276262   7.597   3.845  11.442
24941SOL     OW76263   7.785   5.451   0.248
24941SOL    HW176264   7.734   5.438   0.168
24941SOL    HW276265   7.843   5.376   0.253
24942SOL     OW76266   7.495   4.939  11.830
24942SOL    HW176267   7.539   4.906  11.909
24942SOL    HW276268   7.566   4.951  11.767
24943SOL     OW76269   7.473   4.785  11.486
24943SOL    HW176270   7.565   4.777  11.460
24943SOL    HW276271   7.447   4.696  11.511
24944SOL     OW76272   7.678   6.133   0.051
24944SOL    HW176273   7.655   6.200   0.117
24944SOL    HW276274   7.646   6.169  -0.031
24945SOL     OW76275   7.671   5.869   0.994
24945SOL    HW176276   7.696   5.834   1.079
24945SOL    HW276277   7.582   5.836   0.980
24946SOL     OW76278   7.448   5.965   0.639
24946SOL    HW176279   7.375   5.996   0.693
24946SOL    HW276280   7.416   5.885   0.599
24947SOL     OW76281   7.759   7.032   1.053
24947SOL    HW176282   7.684   6.977   1.030
24947SOL    HW276283   7.811   7.037   0.972
24948SOL     OW76284   7.888   5.950   1.509
24948SOL    HW176285   7.919   5.898   1.583
24948SOL    HW276286   7.795   5.928   1.501
24949SOL     OW76287   7.658   7.295   0.486
24949SOL    HW176288   7.684   7.373   0.534
24949SOL    HW276289   7.706   7.300   0.404
24950SOL     OW76290   7.669   7.026   0.522
24950SOL    HW176291   7.658   7.121   0.525
24950SOL    HW276292   7.619   6.993   0.597
24951SOL     OW76293   7.660   6.655   0.877
24951SOL    HW176294   7.682   6.575   0.925
24951SOL    HW276295   7.615   6.709   0.942
24952SOL     OW76296   7.555   6.217   0.561
24952SOL    HW176297   7.515   6.133   0.584
24952SOL    HW276298   7.549   6.269   0.642
24953SOL     OW76299   7.431   7.121   0.136
24953SOL    HW176300   7.503   7.101   0.195
24953SOL    HW276301   7.412   7.214   0.153
24954SOL     OW76302   7.560   6.334   1.568
24954SOL    HW176303   7.647   6.372   1.582
24954SOL    HW276304   7.500   6.407   1.577
24955SOL     OW76305   7.638   6.540   1.279
24955SOL    HW176306   7.723   6.499   1.264
24955SOL    HW276307   7.575   6.478   1.243
24956SOL     OW76308   7.761   5.866   1.808
24956SOL    HW176309   7.811   5.922   1.867
24956SOL    HW276310   7.674   5.861   1.848
24957SOL     OW76311   7.548   6.399   0.763
24957SOL    HW176312   7.613   6.380   0.831
24957SOL    HW276313   7.546   6.495   0.758
24958SOL     OW76314   7.571   7.461   1.586
24958SOL    HW176315   7.579   7.437   1.679
24958SOL    HW276316   7.488   7.422   1.558
24959SOL     OW76317   7.971   5.807   0.879
24959SOL    HW176318   7.964   5.796   0.974
24959SOL    HW276319   7.960   5.901   0.865
24960SOL     OW76320   7.814   7.417   0.883
24960SOL    HW176321   7.884   7.358   0.910
24960SOL    HW276322   7.854   7.504   0.884
24961SOL     OW76323   7.751   6.584   0.251
24961SOL    HW176324   7.841   6.584   0.220
24961SOL    HW276325   7.717   6.498   0.227
24962SOL     OW76326   7.954   6.846   1.734
24962SOL    HW176327   7.909   6.847   1.650
24962SOL    HW276328   7.885   6.857   1.799
24963SOL     OW76329   7.626   5.865   1.510
24963SOL    HW176330   7.538   5.900   1.522
24963SOL    HW276331   7.624   5.780   1.555
24964SOL     OW76332   7.695   7.371   1.231
24964SOL    HW176333   7.743   7.295   1.266
24964SOL    HW276334   7.687   7.353   1.137
24965SOL     OW76335   7.809   6.252   0.459
24965SOL    HW176336   7.866   6.209   0.522
24965SOL    HW276337   7.721   6.240   0.495
24966SOL     OW76338   0.069   5.738   0.101
24966SOL    HW176339   0.156   5.709   0.128
24966SOL    HW276340   0.016   5.658   0.100
24967SOL     OW76341   7.964   5.595   0.500
24967SOL    HW176342   7.889   5.627   0.550
24967SOL    HW276343   8.009   5.675   0.471
24968SOL     OW76344   7.899   6.725   0.752
24968SOL    HW176345   7.824   6.696   0.805
24968SOL    HW276346   7.870   6.713   0.661
24969SOL     OW76347   7.531   6.142   1.380
24969SOL    HW176348   7.625   6.132   1.362
24969SOL    HW276349   7.526   6.211   1.446
24970SOL     OW76350   7.984   5.779   1.146
24970SOL    HW176351   8.038   5.726   1.204
24970SOL    HW276352   7.901   5.787   1.191
24971SOL     OW76353   7.874   6.392   1.262
24971SOL    HW176354   7.920   6.407   1.345
24971SOL    HW276355   7.843   6.302   1.267
24972SOL     OW76356   7.521   7.164   1.362
24972SOL    HW176357   7.500   7.239   1.307
24972SOL    HW276358   7.616   7.154   1.354
24973SOL     OW76359   7.802   6.707   0.497
24973SOL    HW176360   7.805   6.791   0.452
24973SOL    HW276361   7.781   6.643   0.429
24974SOL     OW76362  -0.019   6.133   0.863
24974SOL    HW176363   0.018   6.210   0.821
24974SOL    HW276364   0.018   6.133   0.951
24975SOL     OW76365   7.786   7.115   1.311
24975SOL    HW176366   7.782   7.074   1.225
24975SOL    HW276367   7.879   7.134   1.325
24976SOL     OW76368   7.857   6.331   1.602
24976SOL    HW176369   7.952   6.336   1.593
24976SOL    HW276370   7.840   6.239   1.623
24977SOL     OW76371   7.933   5.690   1.706
24977SOL    HW176372   7.887   5.613   1.673
24977SOL    HW276373   7.864   5.743   1.746
24978SOL     OW76374   7.982   6.502   1.035
24978SOL    HW176375   8.044   6.569   1.066
24978SOL    HW276376   7.946   6.464   1.115
24979SOL     OW76377   7.732   5.783   1.252
24979SOL    HW176378   7.689   5.814   1.332
24979SOL    HW276379   7.717   5.689   1.251
24980SOL     OW76380   7.520   6.900   1.280
24980SOL    HW176381   7.542   6.843   1.353
24980SOL    HW276382   7.511   6.987   1.318
24981SOL     OW76383   7.737   5.669   0.631
24981SOL    HW176384   7.730   5.762   0.655
24981SOL    HW276385   7.754   5.624   0.713
24982SOL     OW76386   7.803   6.499   1.816
24982SOL    HW176387   7.846   6.447   1.884
24982SOL    HW276388   7.821   6.450   1.735
24983SOL     OW76389   7.743   6.395   0.954
24983SOL    HW176390   7.832   6.426   0.971
24983SOL    HW276391   7.743   6.303   0.982
24984SOL     OW76392   7.751   6.122   1.006
24984SOL    HW176393   7.721   6.031   1.000
24984SOL    HW276394   7.829   6.125   0.950
24985SOL     OW76395   7.547   7.362   0.945
24985SOL    HW176396   7.520   7.285   0.894
24985SOL    HW276397   7.634   7.382   0.913
24986SOL     OW76398   7.484   6.150   1.111
24986SOL    HW176399   7.567   6.140   1.064
24986SOL    HW276400   7.507   6.142   1.203
24987SOL     OW76401   7.631   6.126   1.739
24987SOL    HW176402   7.651   6.048   1.688
24987SOL    HW276403   7.588   6.185   1.677
24988SOL     OW76404   7.687   7.135   1.715
24988SOL    HW176405   7.668   7.197   1.786
24988SOL    HW276406   7.702   7.051   1.759
24989SOL     OW76407   7.928   6.043   0.125
24989SOL    HW176408   7.949   6.114   0.185
24989SOL    HW276409   7.838   6.061   0.097
24990SOL     OW76410   7.594   6.724   1.476
24990SOL    HW176411   7.591   6.677   1.559
24990SOL    HW276412   7.609   6.656   1.411
24991SOL     OW76413   7.518   6.834   1.023
24991SOL    HW176414   7.528   6.846   1.118
24991SOL    HW276415   7.435   6.875   1.002
24992SOL     OW76416   7.593   7.383   1.843
24992SOL    HW176417   7.543   7.314   1.887
24992SOL    HW276418   7.637   7.430   1.914
24993SOL     OW76419   7.716   5.925   0.720
24993SOL    HW176420   7.628   5.950   0.694
24993SOL    HW276421   7.709   5.907   0.814
24994SOL     OW76422   7.819   6.887   1.501
24994SOL    HW176423   7.802   6.962   1.444
24994SOL    HW276424   7.742   6.830   1.490
24995SOL     OW76425   7.996   7.088   0.419
24995SOL    HW176426   7.978   7.052   0.506
24995SOL    HW276427   7.978   7.181   0.428
24996SOL     OW76428   7.737   6.913   0.290
24996SOL    HW176429   7.659   6.858   0.281
24996SOL    HW276430   7.720   6.967   0.367
24997SOL     OW76431   7.562   6.617   1.725
24997SOL    HW176432   7.484   6.594   1.775
24997SOL    HW276433   7.634   6.577   1.774
24998SOL     OW76434   7.516   5.735   0.319
24998SOL    HW176435   7.497   5.828   0.305
24998SOL    HW276436   7.608   5.733   0.345
24999SOL     OW76437   7.824   7.337   1.567
24999SOL    HW176438   7.740   7.378   1.547
24999SOL    HW276439   7.802   7.253   1.605
25000SOL     OW76440   7.697   6.891   1.849
25000SOL    HW176441   7.632   6.826   1.824
25000SOL    HW276442   7.687   6.901   1.944
25001SOL     OW76443   7.551   6.811   0.670
25001SOL    HW176444   7.590   6.765   0.744
25001SOL    HW276445   7.592   6.771   0.593
25002SOL     OW76446   0.111   7.026   1.562
25002SOL    HW176447   0.051   6.963   1.601
25002SOL    HW276448   0.146   7.075   1.636
25003SOL     OW76449   7.792   6.131   1.298
25003SOL    HW176450   7.850   6.077   1.351
25003SOL    HW276451   7.807   6.100   1.208
25004SOL     OW76452   7.513   6.670   0.362
25004SOL    HW176453   7.590   6.650   0.309
25004SOL    HW276454   7.477   6.584   0.385
25005SOL     OW76455   7.655   6.225   1.995
25005SOL    HW176456   7.569   6.211   2.036
25005SOL    HW276457   7.643   6.198   1.904
25006SOL     OW76458   7.671   5.877   2.862
25006SOL    HW176459   7.699   5.837   2.945
25006SOL    HW276460   7.586   5.838   2.844
25007SOL     OW76461   7.446   5.982   2.499
25007SOL    HW176462   7.368   6.008   2.548
25007SOL    HW276463   7.423   5.898   2.458
25008SOL     OW76464   7.745   7.049   2.906
25008SOL    HW176465   7.680   6.980   2.891
25008SOL    HW276466   7.826   7.013   2.869
25009SOL     OW76467   7.870   5.978   3.358
25009SOL    HW176468   7.933   5.921   3.400
25009SOL    HW276469   7.785   5.936   3.373
25010SOL     OW76470   7.659   7.297   2.347
25010SOL    HW176471   7.678   7.377   2.395
25010SOL    HW276472   7.740   7.278   2.299
25011SOL     OW76473   7.678   7.015   2.396
25011SOL    HW176474   7.657   7.109   2.401
25011SOL    HW276475   7.620   6.974   2.459
25012SOL     OW76476   7.741   6.679   2.757
25012SOL    HW176477   7.724   6.592   2.795
25012SOL    HW276478   7.677   6.736   2.800
25013SOL     OW76479   7.568   6.232   2.421
25013SOL    HW176480   7.532   6.146   2.441
25013SOL    HW276481   7.560   6.282   2.502
25014SOL     OW76482   7.492   7.174   1.979
25014SOL    HW176483   7.475   7.082   1.999
25014SOL    HW276484   7.464   7.222   2.057
25015SOL     OW76485   7.565   6.348   3.406
25015SOL    HW176486   7.652   6.362   3.444
25015SOL    HW276487   7.512   6.421   3.440
25016SOL     OW76488   7.636   6.536   3.106
25016SOL    HW176489   7.718   6.487   3.109
25016SOL    HW276490   7.567   6.470   3.113
25017SOL     OW76491   7.765   5.893   3.660
25017SOL    HW176492   7.793   5.927   3.745
25017SOL    HW276493   7.700   5.826   3.681
25018SOL     OW76494   7.973   6.350   2.114
25018SOL    HW176495   8.064   6.349   2.144
25018SOL    HW276496   7.922   6.325   2.191
25019SOL     OW76497   7.548   6.415   2.625
25019SOL    HW176498   7.621   6.400   2.685
25019SOL    HW276499   7.486   6.468   2.674
25020SOL     OW76500   7.570   7.459   3.451
25020SOL    HW176501   7.581   7.447   3.545
25020SOL    HW276502   7.502   7.397   3.426
25021SOL     OW76503   7.984   5.824   2.731
25021SOL    HW176504   7.972   5.794   2.821
25021SOL    HW276505   7.966   5.918   2.734
25022SOL     OW76506   7.817   7.420   2.738
25022SOL    HW176507   7.889   7.359   2.754
25022SOL    HW276508   7.858   7.507   2.741
25023SOL     OW76509   7.745   6.546   2.129
25023SOL    HW176510   7.824   6.559   2.076
25023SOL    HW276511   7.725   6.453   2.119
25024SOL     OW76512   7.916   6.836   3.603
25024SOL    HW176513   7.884   6.837   3.513
25024SOL    HW276514   7.836   6.839   3.657
25025SOL     OW76515   7.623   5.859   3.382
25025SOL    HW176516   7.538   5.900   3.396
25025SOL    HW276517   7.626   5.788   3.445
25026SOL     OW76518   7.731   7.395   3.087
25026SOL    HW176519   7.741   7.324   3.150
25026SOL    HW276520   7.757   7.356   3.003
25027SOL     OW76521   7.829   6.277   2.332
25027SOL    HW176522   7.870   6.200   2.371
25027SOL    HW276523   7.736   6.267   2.353
25028SOL     OW76524   0.010   5.683   1.986
25028SOL    HW176525   0.100   5.656   2.004
25028SOL    HW276526   0.006   5.692   1.891
25029SOL     OW76527   7.938   5.611   2.306
25029SOL    HW176528   7.872   5.625   2.374
25029SOL    HW276529   8.007   5.674   2.326
25030SOL     OW76530   7.749   5.630   2.056
25030SOL    HW176531   7.836   5.661   2.029
25030SOL    HW276532   7.767   5.576   2.134
25031SOL     OW76533   7.527   6.143   3.237
25031SOL    HW176534   7.620   6.128   3.220
25031SOL    HW276535   7.525   6.216   3.299
25032SOL     OW76536   7.983   5.780   2.998
25032SOL    HW176537   8.041   5.722   3.047
25032SOL    HW276538   7.903   5.785   3.050
25033SOL     OW76539   7.866   6.384   3.113
25033SOL    HW176540   7.928   6.383   3.185
25033SOL    HW276541   7.827   6.297   3.113
25034SOL     OW76542   7.524   7.197   3.178
25034SOL    HW176543   7.489   7.185   3.266
25034SOL    HW276544   7.613   7.161   3.182
25035SOL     OW76545   7.802   6.689   2.359
25035SOL    HW176546   7.789   6.773   2.316
25035SOL    HW276547   7.778   6.624   2.293
25036SOL     OW76548  -0.011   6.130   2.719
25036SOL    HW176549   0.027   6.209   2.680
25036SOL    HW276550   0.022   6.129   2.809
25037SOL     OW76551   7.789   7.127   3.171
25037SOL    HW176552   7.789   7.083   3.086
25037SOL    HW276553   7.882   7.134   3.194
25038SOL     OW76554   7.853   6.323   3.468
25038SOL    HW176555   7.949   6.320   3.459
25038SOL    HW276556   7.828   6.233   3.490
25039SOL     OW76557   7.927   5.686   3.584
25039SOL    HW176558   7.885   5.613   3.538
25039SOL    HW276559   7.855   5.747   3.602
25040SOL     OW76560  -0.004   6.496   2.900
25040SOL    HW176561   0.081   6.514   2.939
25040SOL    HW276562  -0.057   6.461   2.972
25041SOL     OW76563   7.735   5.786   3.120
25041SOL    HW176564   7.692   5.810   3.202
25041SOL    HW276565   7.725   5.691   3.115
25042SOL     OW76566   7.524   6.895   3.145
25042SOL    HW176567   7.576   6.829   3.191
25042SOL    HW276568   7.453   6.917   3.205
25043SOL     OW76569   7.745   5.660   2.487
25043SOL    HW176570   7.729   5.748   2.521
25043SOL    HW276571   7.773   5.610   2.564
25044SOL     OW76572   7.886   6.494   3.681
25044SOL    HW176573   7.864   6.439   3.757
25044SOL    HW276574   7.858   6.442   3.605
25045SOL     OW76575   7.755   6.398   2.798
25045SOL    HW176576   7.840   6.418   2.837
25045SOL    HW276577   7.738   6.307   2.823
25046SOL     OW76578   7.750   6.129   2.848
25046SOL    HW176579   7.722   6.038   2.853
25046SOL    HW276580   7.832   6.126   2.800
25047SOL     OW76581   7.461   6.900   2.055
25047SOL    HW176582   7.374   6.917   2.019
25047SOL    HW276583   7.455   6.812   2.092
25048SOL     OW76584   7.550   7.354   2.802
25048SOL    HW176585   7.527   7.293   2.733
25048SOL    HW276586   7.638   7.384   2.780
25049SOL     OW76587   7.480   6.157   2.969
25049SOL    HW176588   7.558   6.127   2.921
25049SOL    HW276589   7.503   6.147   3.061
25050SOL     OW76590   7.648   6.135   3.599
25050SOL    HW176591   7.683   6.047   3.594
25050SOL    HW276592   7.582   6.138   3.530
25051SOL     OW76593   0.202   6.104   2.156
25051SOL    HW176594   0.175   6.013   2.168
25051SOL    HW276595   0.194   6.143   2.243
25052SOL     OW76596   7.695   7.137   3.587
25052SOL    HW176597   7.674   7.188   3.665
25052SOL    HW276598   7.695   7.046   3.616
25053SOL     OW76599   7.900   6.089   1.994
25053SOL    HW176600   7.954   6.154   2.038
25053SOL    HW276601   7.811   6.121   2.005
25054SOL     OW76602   7.642   6.712   3.320
25054SOL    HW176603   7.600   6.680   3.401
25054SOL    HW276604   7.633   6.639   3.259
25055SOL     OW76605   7.542   6.865   2.875
25055SOL    HW176606   7.531   6.866   2.970
25055SOL    HW276607   7.479   6.799   2.845
25056SOL     OW76608   7.596   7.399   3.710
25056SOL    HW176609   7.548   7.326   3.749
25056SOL    HW276610   7.647   7.435   3.783
25057SOL     OW76611   7.712   5.922   2.585
25057SOL    HW176612   7.624   5.947   2.560
25057SOL    HW276613   7.705   5.900   2.678
25058SOL     OW76614   7.830   6.900   3.354
25058SOL    HW176615   7.790   6.976   3.312
25058SOL    HW276616   7.766   6.830   3.341
25059SOL     OW76617  -0.018   7.157   2.273
25059SOL    HW176618   0.036   7.089   2.314
25059SOL    HW276619   0.008   7.238   2.316
25060SOL     OW76620   7.721   6.923   2.145
25060SOL    HW176621   7.628   6.921   2.122
25060SOL    HW276622   7.724   6.969   2.229
25061SOL     OW76623   7.569   6.606   3.583
25061SOL    HW176624   7.482   6.593   3.622
25061SOL    HW276625   7.630   6.572   3.648
25062SOL     OW76626   7.510   5.919   1.911
25062SOL    HW176627   7.416   5.905   1.913
25062SOL    HW276628   7.521   6.003   1.867
25063SOL     OW76629   7.513   5.737   2.163
25063SOL    HW176630   7.499   5.821   2.120
25063SOL    HW276631   7.600   5.709   2.136
25064SOL     OW76632   7.818   7.334   3.431
25064SOL    HW176633   7.732   7.374   3.417
25064SOL    HW276634   7.799   7.252   3.476
25065SOL     OW76635   7.661   6.885   3.696
25065SOL    HW176636   7.599   6.828   3.652
25065SOL    HW276637   7.629   6.890   3.786
25066SOL     OW76638   7.527   6.823   2.542
25066SOL    HW176639   7.497   6.771   2.616
25066SOL    HW276640   7.552   6.760   2.476
25067SOL     OW76641   0.115   6.999   3.538
25067SOL    HW176642   0.032   6.951   3.542
25067SOL    HW276643   0.103   7.062   3.467
25068SOL     OW76644   7.787   6.128   3.149
25068SOL    HW176645   7.827   6.076   3.219
25068SOL    HW276646   7.808   6.079   3.069
25069SOL     OW76647   7.489   6.646   2.177
25069SOL    HW176648   7.580   6.633   2.149
25069SOL    HW276649   7.458   6.558   2.200
25070SOL     OW76650   7.659   6.255   3.847
25070SOL    HW176651   7.583   6.216   3.890
25070SOL    HW276652   7.657   6.219   3.758
25071SOL     OW76653   7.659   5.883   4.722
25071SOL    HW176654   7.690   5.840   4.802
25071SOL    HW276655   7.576   5.840   4.703
25072SOL     OW76656   7.456   5.976   4.359
25072SOL    HW176657   7.370   5.981   4.402
25072SOL    HW276658   7.450   5.899   4.302
25073SOL     OW76659   7.794   7.039   4.770
25073SOL    HW176660   7.749   7.018   4.688
25073SOL    HW276661   7.885   7.013   4.754
25074SOL     OW76662   7.878   5.965   5.218
25074SOL    HW176663   7.925   5.896   5.171
25074SOL    HW276664   7.793   5.926   5.239
25075SOL     OW76665   7.669   7.306   4.201
25075SOL    HW176666   7.679   7.385   4.254
25075SOL    HW276667   7.759   7.280   4.179
25076SOL     OW76668   7.668   7.028   4.249
25076SOL    HW176669   7.648   7.121   4.257
25076SOL    HW276670   7.616   6.987   4.318
25077SOL     OW76671   7.670   6.661   4.694
25077SOL    HW176672   7.680   6.570   4.669
25077SOL    HW276673   7.737   6.676   4.760
25078SOL     OW76674   7.563   6.230   4.280
25078SOL    HW176675   7.532   6.142   4.302
25078SOL    HW276676   7.555   6.279   4.362
25079SOL     OW76677   7.496   7.181   3.835
25079SOL    HW176678   7.479   7.088   3.850
25079SOL    HW276679   7.467   7.224   3.915
25080SOL     OW76680   7.558   6.326   5.301
25080SOL    HW176681   7.645   6.361   5.318
25080SOL    HW276682   7.500   6.402   5.309
25081SOL     OW76683   7.637   6.543   4.973
25081SOL    HW176684   7.726   6.508   4.978
25081SOL    HW276685   7.582   6.466   4.956
25082SOL     OW76686   7.766   5.844   5.556
25082SOL    HW176687   7.795   5.933   5.576
25082SOL    HW276688   7.674   5.842   5.583
25083SOL     OW76689   7.978   6.395   4.004
25083SOL    HW176690   8.057   6.343   3.990
25083SOL    HW276691   7.928   6.345   4.068
25084SOL     OW76692   7.530   6.406   4.492
25084SOL    HW176693   7.609   6.390   4.543
25084SOL    HW276694   7.481   6.470   4.544
25085SOL     OW76695   7.566   7.454   5.308
25085SOL    HW176696   7.575   7.436   5.402
25085SOL    HW276697   7.482   7.415   5.284
25086SOL     OW76698   7.967   5.788   4.629
25086SOL    HW176699   8.010   5.828   4.705
25086SOL    HW276700   8.022   5.813   4.555
25087SOL     OW76701   7.815   7.416   4.597
25087SOL    HW176702   7.884   7.351   4.607
25087SOL    HW276703   7.859   7.500   4.605
25088SOL     OW76704   7.739   6.537   3.981
25088SOL    HW176705   7.833   6.519   3.972
25088SOL    HW276706   7.698   6.452   3.966
25089SOL     OW76707   7.918   6.836   5.495
25089SOL    HW176708   7.904   6.839   5.400
25089SOL    HW276709   7.832   6.856   5.532
25090SOL     OW76710   7.624   5.861   5.244
25090SOL    HW176711   7.533   5.890   5.240
25090SOL    HW276712   7.619   5.769   5.272
25091SOL     OW76713   7.691   7.368   4.955
25091SOL    HW176714   7.745   7.303   5.001
25091SOL    HW276715   7.697   7.343   4.863
25092SOL     OW76716   7.826   6.252   4.178
25092SOL    HW176717   7.873   6.181   4.223
25092SOL    HW276718   7.736   6.245   4.209
25093SOL     OW76719   0.013   5.708   3.846
25093SOL    HW176720   0.099   5.668   3.857
25093SOL    HW276721  -0.009   5.691   3.754
25094SOL     OW76722   7.980   5.627   4.206
25094SOL    HW176723   7.895   5.631   4.251
25094SOL    HW276724   8.008   5.718   4.201
25095SOL     OW76725   7.764   5.653   3.968
25095SOL    HW176726   7.848   5.691   3.943
25095SOL    HW276727   7.767   5.564   3.934
25096SOL     OW76728   7.885   6.742   4.489
25096SOL    HW176729   7.820   6.695   4.540
25096SOL    HW276730   7.860   6.726   4.398
25097SOL     OW76731   7.531   6.140   5.105
25097SOL    HW176732   7.623   6.132   5.083
25097SOL    HW276733   7.529   6.206   5.175
25098SOL     OW76734   7.992   5.796   4.976
25098SOL    HW176735   8.028   5.723   4.926
25098SOL    HW276736   7.897   5.790   4.962
25099SOL     OW76737   7.877   6.396   4.989
25099SOL    HW176738   7.963   6.382   5.027
25099SOL    HW276739   7.836   6.309   4.989
25100SOL     OW76740   7.523   7.142   5.069
25100SOL    HW176741   7.507   7.227   5.028
25100SOL    HW276742   7.619   7.134   5.070
25101SOL     OW76743   7.763   6.703   4.234
25101SOL    HW176744   7.787   6.770   4.170
25101SOL    HW276745   7.759   6.622   4.183
25102SOL     OW76746  -0.013   6.175   4.587
25102SOL    HW176747   0.035   6.117   4.528
25102SOL    HW276748   0.025   6.158   4.673
25103SOL     OW76749   7.791   7.110   5.037
25103SOL    HW176750   7.790   7.073   4.949
25103SOL    HW276751   7.882   7.137   5.050
25104SOL     OW76752   7.841   6.333   5.341
25104SOL    HW176753   7.908   6.345   5.274
25104SOL    HW276754   7.840   6.239   5.357
25105SOL     OW76755   7.954   5.685   5.432
25105SOL    HW176756   7.917   5.609   5.386
25105SOL    HW276757   7.878   5.734   5.462
25106SOL     OW76758   7.972   6.525   4.759
25106SOL    HW176759   8.066   6.530   4.771
25106SOL    HW276760   7.939   6.483   4.839
25107SOL     OW76761   7.721   5.783   4.976
25107SOL    HW176762   7.677   5.810   5.057
25107SOL    HW276763   7.713   5.688   4.975
25108SOL     OW76764   7.515   6.877   4.970
25108SOL    HW176765   7.543   6.830   5.049
25108SOL    HW276766   7.509   6.968   4.997
25109SOL     OW76767   7.745   5.651   4.352
25109SOL    HW176768   7.736   5.742   4.380
25109SOL    HW276769   7.781   5.606   4.428
25110SOL     OW76770   7.799   6.529   5.537
25110SOL    HW176771   7.861   6.592   5.500
25110SOL    HW276772   7.812   6.449   5.485
25111SOL     OW76773   7.741   6.398   4.663
25111SOL    HW176774   7.833   6.421   4.670
25111SOL    HW276775   7.738   6.305   4.686
25112SOL     OW76776   7.753   6.131   4.724
25112SOL    HW176777   7.727   6.039   4.718
25112SOL    HW276778   7.835   6.136   4.674
25113SOL     OW76779   7.466   6.903   3.914
25113SOL    HW176780   7.377   6.922   3.886
25113SOL    HW276781   7.461   6.816   3.953
25114SOL     OW76782   7.544   7.364   4.665
25114SOL    HW176783   7.517   7.286   4.617
25114SOL    HW276784   7.633   7.381   4.635
25115SOL     OW76785   7.480   6.155   4.833
25115SOL    HW176786   7.554   6.127   4.780
25115SOL    HW276787   7.508   6.140   4.924
25116SOL     OW76788   7.637   6.105   5.455
25116SOL    HW176789   7.649   6.033   5.394
25116SOL    HW276790   7.591   6.172   5.405
25117SOL     OW76791   0.190   6.115   4.020
25117SOL    HW176792   0.172   6.022   4.033
25117SOL    HW276793   0.187   6.153   4.108
25118SOL     OW76794   7.679   7.133   5.443
25118SOL    HW176795   7.664   7.193   5.516
25118SOL    HW276796   7.688   7.047   5.484
25119SOL     OW76797   7.880   6.069   3.862
25119SOL    HW176798   7.947   6.088   3.928
25119SOL    HW276799   7.810   6.132   3.879
25120SOL     OW76800   7.599   6.721   5.184
25120SOL    HW176801   7.587   6.677   5.268
25120SOL    HW276802   7.612   6.650   5.122
25121SOL     OW76803   7.586   7.391   5.568
25121SOL    HW176804   7.540   7.319   5.611
25121SOL    HW276805   7.636   7.433   5.639
25122SOL     OW76806   7.720   5.914   4.444
25122SOL    HW176807   7.631   5.941   4.423
25122SOL    HW276808   7.718   5.898   4.539
25123SOL     OW76809   7.819   6.884   5.242
25123SOL    HW176810   7.815   6.956   5.179
25123SOL    HW276811   7.744   6.829   5.219
25124SOL     OW76812  -0.001   7.145   4.134
25124SOL    HW176813   0.023   7.066   4.183
25124SOL    HW276814   0.059   7.212   4.167
25125SOL     OW76815   7.728   6.931   4.005
25125SOL    HW176816   7.636   6.925   3.980
25125SOL    HW276817   7.727   6.974   4.091
25126SOL     OW76818   7.555   6.634   5.446
25126SOL    HW176819   7.474   6.607   5.490
25126SOL    HW276820   7.624   6.588   5.493
25127SOL     OW76821   7.495   5.934   3.813
25127SOL    HW176822   7.498   5.849   3.771
25127SOL    HW276823   7.512   5.997   3.743
25128SOL     OW76824   7.513   5.747   4.037
25128SOL    HW176825   7.499   5.813   3.969
25128SOL    HW276826   7.603   5.718   4.025
25129SOL     OW76827   7.823   7.338   5.293
25129SOL    HW176828   7.735   7.374   5.279
25129SOL    HW276829   7.807   7.250   5.328
25130SOL     OW76830   7.662   6.882   5.570
25130SOL    HW176831   7.617   6.809   5.529
25130SOL    HW276832   7.611   6.901   5.649
25131SOL     OW76833   7.545   6.813   4.394
25131SOL    HW176834   7.542   6.747   4.463
25131SOL    HW276835   7.609   6.780   4.331
25132SOL     OW76836   0.087   7.041   5.277
25132SOL    HW176837   0.032   6.967   5.303
25132SOL    HW276838   0.141   7.058   5.353
25133SOL     OW76839   7.785   6.140   5.012
25133SOL    HW176840   7.840   6.083   5.065
25133SOL    HW276841   7.802   6.113   4.922
25134SOL     OW76842   7.487   6.652   4.035
25134SOL    HW176843   7.579   6.641   4.009
25134SOL    HW276844   7.458   6.564   4.058
25135SOL     OW76845   7.674   6.228   5.707
25135SOL    HW176846   7.589   6.225   5.751
25135SOL    HW276847   7.658   6.190   5.621
25136SOL     OW76848   7.688   5.854   6.571
25136SOL    HW176849   7.706   5.842   6.664
25136SOL    HW276850   7.594   5.834   6.562
25137SOL     OW76851   7.456   5.971   6.226
25137SOL    HW176852   7.376   5.997   6.272
25137SOL    HW276853   7.429   5.894   6.175
25138SOL     OW76854   7.769   7.022   6.630
25138SOL    HW176855   7.691   6.966   6.639
25138SOL    HW276856   7.785   7.026   6.536
25139SOL     OW76857   7.893   5.974   7.154
25139SOL    HW176858   7.931   6.007   7.073
25139SOL    HW276859   7.817   5.923   7.127
25140SOL     OW76860   7.652   7.310   6.061
25140SOL    HW176861   7.679   7.389   6.108
25140SOL    HW276862   7.734   7.271   6.031
25141SOL     OW76863   7.690   7.026   6.132
25141SOL    HW176864   7.637   7.105   6.146
25141SOL    HW276865   7.644   6.958   6.181
25142SOL     OW76866   7.746   6.671   6.525
25142SOL    HW176867   7.713   6.581   6.532
25142SOL    HW276868   7.671   6.726   6.548
25143SOL     OW76869   7.578   6.230   6.151
25143SOL    HW176870   7.534   6.147   6.171
25143SOL    HW276871   7.560   6.285   6.227
25144SOL     OW76872   7.495   7.179   5.702
25144SOL    HW176873   7.480   7.086   5.720
25144SOL    HW276874   7.463   7.224   5.780
25145SOL     OW76875   7.545   6.338   7.184
25145SOL    HW176876   7.632   6.375   7.171
25145SOL    HW276877   7.485   6.407   7.156
25146SOL     OW76878   7.636   6.530   6.894
25146SOL    HW176879   7.722   6.492   6.873
25146SOL    HW276880   7.576   6.491   6.829
25147SOL     OW76881   7.766   5.841   7.425
25147SOL    HW176882   7.798   5.918   7.379
25147SOL    HW276883   7.674   5.861   7.446
25148SOL     OW76884   0.043   6.370   5.873
25148SOL    HW176885   0.072   6.319   5.798
25148SOL    HW276886  -0.027   6.318   5.913
25149SOL     OW76887   7.536   6.412   6.352
25149SOL    HW176888   7.605   6.395   6.417
25149SOL    HW276889   7.484   6.483   6.389
25150SOL     OW76890   7.581   7.461   7.160
25150SOL    HW176891   7.574   7.435   7.252
25150SOL    HW276892   7.517   7.405   7.115
25151SOL     OW76893   7.972   5.786   6.488
25151SOL    HW176894   7.908   5.830   6.544
25151SOL    HW276895   7.970   5.834   6.406
25152SOL     OW76896   7.807   7.422   6.443
25152SOL    HW176897   7.854   7.340   6.459
25152SOL    HW276898   7.872   7.490   6.461
25153SOL     OW76899   7.802   6.521   5.819
25153SOL    HW176900   7.784   6.525   5.725
25153SOL    HW276901   7.754   6.443   5.848
25154SOL     OW76902   7.913   6.803   7.327
25154SOL    HW176903   7.885   6.825   7.239
25154SOL    HW276904   7.844   6.836   7.384
25155SOL     OW76905   7.654   5.859   7.089
25155SOL    HW176906   7.587   5.923   7.068
25155SOL    HW276907   7.605   5.781   7.116
25156SOL     OW76908   7.728   7.376   6.802
25156SOL    HW176909   7.742   7.296   6.852
25156SOL    HW276910   7.660   7.354   6.738
25157SOL     OW76911   7.828   6.277   6.028
25157SOL    HW176912   7.871   6.202   6.068
25157SOL    HW276913   7.738   6.273   6.060
25158SOL     OW76914   0.015   5.695   5.703
25158SOL    HW176915   0.105   5.669   5.722
25158SOL    HW276916   0.004   5.678   5.609
25159SOL     OW76917   7.997   5.688   6.154
25159SOL    HW176918   7.906   5.661   6.140
25159SOL    HW276919   8.032   5.700   6.066
25160SOL     OW76920   7.744   5.639   5.771
25160SOL    HW176921   7.788   5.711   5.725
25160SOL    HW276922   7.813   5.574   5.784
25161SOL     OW76923   7.912   6.716   6.319
25161SOL    HW176924   7.850   6.700   6.390
25161SOL    HW276925   7.863   6.698   6.239
25162SOL     OW76926   7.558   6.114   7.026
25162SOL    HW176927   7.545   6.135   6.933
25162SOL    HW276928   7.540   6.196   7.072
25163SOL     OW76929   8.011   5.797   6.791
25163SOL    HW176930   8.019   5.713   6.744
25163SOL    HW276931   7.917   5.804   6.810
25164SOL     OW76932   7.887   6.399   6.864
25164SOL    HW176933   7.983   6.395   6.874
25164SOL    HW276934   7.860   6.308   6.860
25165SOL     OW76935   7.525   7.188   6.952
25165SOL    HW176936   7.465   7.165   6.881
25165SOL    HW276937   7.607   7.142   6.931
25166SOL     OW76938   7.828   6.697   6.045
25166SOL    HW176939   7.795   6.786   6.039
25166SOL    HW276940   7.761   6.643   6.003
25167SOL     OW76941   0.028   6.142   6.452
25167SOL    HW176942   0.051   6.224   6.409
25167SOL    HW276943   0.041   6.159   6.545
25168SOL     OW76944   7.792   7.112   6.892
25168SOL    HW176945   7.785   7.071   6.806
25168SOL    HW276946   7.886   7.125   6.905
25169SOL     OW76947   7.830   6.347   7.186
25169SOL    HW176948   7.871   6.377   7.105
25169SOL    HW276949   7.849   6.253   7.188
25170SOL     OW76950   7.938   5.658   7.323
25170SOL    HW176951   7.895   5.595   7.265
25170SOL    HW276952   7.870   5.723   7.343
25171SOL     OW76953   8.000   6.512   6.625
25171SOL    HW176954   7.964   6.599   6.608
25171SOL    HW276955   7.945   6.476   6.695
25172SOL     OW76956   7.743   5.780   6.835
25172SOL    HW176957   7.705   5.810   6.917
25172SOL    HW276958   7.725   5.686   6.833
25173SOL     OW76959   7.548   6.900   6.871
25173SOL    HW176960   7.537   6.842   6.946
25173SOL    HW276961   7.464   6.944   6.862
25174SOL     OW76962   7.724   5.659   6.203
25174SOL    HW176963   7.715   5.753   6.217
25174SOL    HW276964   7.738   5.623   6.291
25175SOL     OW76965   7.815   6.515   7.412
25175SOL    HW176966   7.861   6.586   7.369
25175SOL    HW276967   7.822   6.441   7.350
25176SOL     OW76968   7.734   6.390   6.544
25176SOL    HW176969   7.829   6.382   6.539
25176SOL    HW276970   7.705   6.310   6.588
25177SOL     OW76971   7.798   6.120   6.608
25177SOL    HW176972   7.710   6.083   6.601
25177SOL    HW276973   7.840   6.097   6.525
25178SOL     OW76974   7.471   6.908   5.767
25178SOL    HW176975   7.380   6.922   5.739
25178SOL    HW276976   7.469   6.826   5.816
25179SOL     OW76977   7.545   7.381   6.530
25179SOL    HW176978   7.510   7.301   6.490
25179SOL    HW276979   7.633   7.389   6.493
25180SOL     OW76980   7.634   6.112   7.320
25180SOL    HW176981   7.654   6.057   7.244
25180SOL    HW276982   7.593   6.190   7.283
25181SOL     OW76983   0.211   6.109   5.887
25181SOL    HW176984   0.184   6.017   5.892
25181SOL    HW276985   0.189   6.145   5.973
25182SOL     OW76986   7.699   7.135   7.313
25182SOL    HW176987   7.664   7.189   7.383
25182SOL    HW276988   7.699   7.046   7.349
25183SOL     OW76989   7.878   6.054   5.774
25183SOL    HW176990   7.960   6.103   5.775
25183SOL    HW276991   7.810   6.121   5.768
25184SOL     OW76992   7.591   6.723   7.081
25184SOL    HW176993   7.586   6.675   7.164
25184SOL    HW276994   7.604   6.655   7.015
25185SOL     OW76995   7.553   6.849   6.604
25185SOL    HW176996   7.544   6.860   6.699
25185SOL    HW276997   7.464   6.858   6.571
25186SOL     OW76998   7.588   7.394   7.426
25186SOL    HW176999   7.540   7.322   7.467
25186SOL    HW277000   7.636   7.434   7.498
25187SOL     OW77001   7.726   5.920   6.305
25187SOL    HW177002   7.641   5.951   6.274
25187SOL    HW277003   7.713   5.901   6.398
25188SOL     OW77004   7.814   6.895   7.088
25188SOL    HW177005   7.797   6.966   7.026
25188SOL    HW277006   7.741   6.835   7.076
25189SOL     OW77007  -0.003   7.142   5.997
25189SOL    HW177008  -0.015   7.073   6.062
25189SOL    HW277009   0.063   7.200   6.034
25190SOL     OW77010   7.738   6.932   5.884
25190SOL    HW177011   7.649   6.914   5.854
25190SOL    HW277012   7.726   6.979   5.967
25191SOL     OW77013   7.566   6.632   7.341
25191SOL    HW177014   7.481   6.604   7.376
25191SOL    HW277015   7.628   6.569   7.378
25192SOL     OW77016   7.509   5.913   5.632
25192SOL    HW177017   7.424   5.887   5.596
25192SOL    HW277018   7.531   5.994   5.587
25193SOL     OW77019   7.513   5.739   5.884
25193SOL    HW177020   7.497   5.813   5.827
25193SOL    HW277021   7.599   5.706   5.859
25194SOL     OW77022   7.835   7.334   7.159
25194SOL    HW177023   7.754   7.373   7.126
25194SOL    HW277024   7.806   7.252   7.199
25195SOL     OW77025   7.661   6.880   7.426
25195SOL    HW177026   7.628   6.803   7.381
25195SOL    HW277027   7.595   6.897   7.495
25196SOL     OW77028   7.560   6.813   6.245
25196SOL    HW177029   7.518   6.791   6.328
25196SOL    HW277030   7.512   6.763   6.179
25197SOL     OW77031   0.104   7.012   7.224
25197SOL    HW177032   0.051   6.934   7.211
25197SOL    HW277033   0.057   7.081   7.177
25198SOL     OW77034   7.824   6.131   6.875
25198SOL    HW177035   7.742   6.104   6.917
25198SOL    HW277036   7.806   6.125   6.781
25199SOL     OW77037   7.527   6.664   5.901
25199SOL    HW177038   7.531   6.569   5.898
25199SOL    HW277039   7.441   6.683   5.939
25200SOL     OW77040   7.654   6.215   7.581
25200SOL    HW177041   7.563   6.195   7.603
25200SOL    HW277042   7.663   6.193   7.489
25201SOL     OW77043   7.670   5.863   8.435
25201SOL    HW177044   7.699   5.831   8.521
25201SOL    HW277045   7.581   5.831   8.426
25202SOL     OW77046   7.438   5.979   8.091
25202SOL    HW177047   7.361   5.973   8.148
25202SOL    HW277048   7.430   5.905   8.032
25203SOL     OW77049   7.757   7.025   8.491
25203SOL    HW177050   7.678   6.971   8.490
25203SOL    HW277051   7.788   7.023   8.400
25204SOL     OW77052   7.881   5.955   8.951
25204SOL    HW177053   7.926   5.896   9.011
25204SOL    HW277054   7.788   5.932   8.960
25205SOL     OW77055   7.655   7.307   7.928
25205SOL    HW177056   7.687   7.387   7.970
25205SOL    HW277057   7.726   7.279   7.871
25206SOL     OW77058   7.661   7.031   7.985
25206SOL    HW177059   7.644   7.125   7.989
25206SOL    HW277060   7.602   6.993   8.050
25207SOL     OW77061   7.719   6.677   8.355
25207SOL    HW177062   7.692   6.588   8.379
25207SOL    HW277063   7.656   6.734   8.400
25208SOL     OW77064   7.509   7.179   7.570
25208SOL    HW177065   7.480   7.089   7.580
25208SOL    HW277066   7.467   7.226   7.643
25209SOL     OW77067   7.558   6.334   9.030
25209SOL    HW177068   7.642   6.380   9.040
25209SOL    HW277069   7.493   6.404   9.023
25210SOL     OW77070   7.633   6.545   8.722
25210SOL    HW177071   7.713   6.496   8.703
25210SOL    HW277072   7.563   6.490   8.686
25211SOL     OW77073   7.766   5.845   9.288
25211SOL    HW177074   7.805   5.930   9.309
25211SOL    HW277075   7.672   5.858   9.300
25212SOL     OW77076   8.011   6.320   7.712
25212SOL    HW177077   8.025   6.394   7.652
25212SOL    HW277078   7.942   6.349   7.771
25213SOL     OW77079   7.517   6.358   8.211
25213SOL    HW177080   7.598   6.362   8.261
25213SOL    HW277081   7.474   6.442   8.227
25214SOL     OW77082   7.582   7.459   9.031
25214SOL    HW177083   7.585   7.441   9.125
25214SOL    HW277084   7.504   7.413   9.001
25215SOL     OW77085   7.963   5.774   8.336
25215SOL    HW177086   7.962   5.796   8.429
25215SOL    HW277087   7.964   5.859   8.291
25216SOL     OW77088   7.794   7.401   8.306
25216SOL    HW177089   7.849   7.330   8.273
25216SOL    HW277090   7.855   7.473   8.322
25217SOL     OW77091   7.747   6.535   7.694
25217SOL    HW177092   7.789   6.570   7.615
25217SOL    HW277093   7.730   6.443   7.673
25218SOL     OW77094   7.955   6.843   9.178
25218SOL    HW177095   7.910   6.844   9.094
25218SOL    HW277096   7.885   6.853   9.243
25219SOL     OW77097   7.627   5.869   8.970
25219SOL    HW177098   7.542   5.912   8.971
25219SOL    HW277099   7.608   5.779   8.999
25220SOL     OW77100   7.711   7.379   8.672
25220SOL    HW177101   7.750   7.302   8.715
25220SOL    HW277102   7.686   7.347   8.585
25221SOL     OW77103   7.831   6.293   7.922
25221SOL    HW177104   7.905   6.232   7.916
25221SOL    HW277105   7.785   6.267   8.001
25222SOL     OW77106   0.022   5.688   7.580
25222SOL    HW177107   0.115   5.663   7.585
25222SOL    HW277108  -0.002   5.670   7.489
25223SOL     OW77109   7.977   5.718   7.980
25223SOL    HW177110   7.888   5.686   7.990
25223SOL    HW277111   8.032   5.640   7.988
25224SOL     OW77112   7.743   5.646   7.628
25224SOL    HW177113   7.767   5.719   7.570
25224SOL    HW277114   7.826   5.603   7.648
25225SOL     OW77115   7.924   6.684   8.177
25225SOL    HW177116   7.852   6.684   8.240
25225SOL    HW277117   7.881   6.685   8.092
25226SOL     OW77118   7.539   6.148   8.834
25226SOL    HW177119   7.632   6.148   8.813
25226SOL    HW277120   7.530   6.216   8.901
25227SOL     OW77121   7.968   5.783   8.605
25227SOL    HW177122   8.031   5.743   8.665
25227SOL    HW277123   7.886   5.784   8.654
25228SOL     OW77124   7.870   6.399   8.703
25228SOL    HW177125   7.911   6.424   8.786
25228SOL    HW277126   7.841   6.309   8.716
25229SOL     OW77127   7.522   7.167   8.814
25229SOL    HW177128   7.492   7.231   8.750
25229SOL    HW277129   7.616   7.158   8.797
25230SOL     OW77130   7.799   6.694   7.929
25230SOL    HW177131   7.786   6.775   7.878
25230SOL    HW277132   7.783   6.624   7.865
25231SOL     OW77133  -0.029   6.155   8.320
25231SOL    HW177134   0.015   6.228   8.277
25231SOL    HW277135   0.014   6.150   8.406
25232SOL     OW77136   7.788   7.121   8.748
25232SOL    HW177137   7.783   7.075   8.665
25232SOL    HW277138   7.882   7.136   8.761
25233SOL     OW77139   7.860   6.317   9.032
25233SOL    HW177140   7.947   6.357   9.037
25233SOL    HW277141   7.877   6.223   9.031
25234SOL     OW77142   7.928   5.656   9.180
25234SOL    HW177143   7.880   5.592   9.128
25234SOL    HW277144   7.862   5.719   9.209
25235SOL     OW77145   8.020   6.503   8.497
25235SOL    HW177146   7.997   6.596   8.501
25235SOL    HW277147   7.964   6.462   8.563
25236SOL     OW77148   7.711   5.781   8.707
25236SOL    HW177149   7.718   5.819   8.795
25236SOL    HW277150   7.618   5.761   8.697
25237SOL     OW77151   7.513   6.904   8.722
25237SOL    HW177152   7.535   6.843   8.792
25237SOL    HW277153   7.500   6.988   8.767
25238SOL     OW77154   7.722   5.654   8.083
25238SOL    HW177155   7.717   5.749   8.091
25238SOL    HW277156   7.755   5.624   8.168
25239SOL     OW77157   7.777   6.520   9.236
25239SOL    HW177158   7.782   6.519   9.331
25239SOL    HW277159   7.819   6.439   9.208
25240SOL     OW77160   7.741   6.389   8.382
25240SOL    HW177161   7.833   6.413   8.390
25240SOL    HW277162   7.735   6.301   8.418
25241SOL     OW77163   7.744   6.120   8.455
25241SOL    HW177164   7.717   6.029   8.445
25241SOL    HW277165   7.823   6.128   8.402
25242SOL     OW77166   7.473   6.901   7.629
25242SOL    HW177167   7.384   6.922   7.600
25242SOL    HW277168   7.465   6.817   7.672
25243SOL     OW77169   7.536   7.364   8.392
25243SOL    HW177170   7.505   7.288   8.344
25243SOL    HW277171   7.625   7.379   8.358
25244SOL     OW77172   7.479   6.123   8.570
25244SOL    HW177173   7.561   6.131   8.522
25244SOL    HW277174   7.503   6.136   8.662
25245SOL     OW77175   7.627   6.114   9.180
25245SOL    HW177176   7.655   6.058   9.107
25245SOL    HW277177   7.592   6.192   9.137
25246SOL     OW77178   0.224   6.099   7.741
25246SOL    HW177179   0.199   6.008   7.755
25246SOL    HW277180   0.172   6.148   7.804
25247SOL     OW77181   7.689   7.137   9.168
25247SOL    HW177182   7.662   7.190   9.243
25247SOL    HW277183   7.706   7.050   9.204
25248SOL     OW77184   7.906   6.081   7.625
25248SOL    HW177185   7.958   6.157   7.651
25248SOL    HW277186   7.817   6.115   7.616
25249SOL     OW77187   7.595   6.730   8.915
25249SOL    HW177188   7.583   6.686   8.999
25249SOL    HW277189   7.607   6.659   8.852
25250SOL     OW77190   7.536   6.853   8.462
25250SOL    HW177191   7.522   6.868   8.556
25250SOL    HW277192   7.458   6.805   8.434
25251SOL     OW77193   7.592   7.400   9.293
25251SOL    HW177194   7.544   7.328   9.333
25251SOL    HW277195   7.642   7.439   9.365
25252SOL     OW77196   7.715   5.922   8.165
25252SOL    HW177197   7.628   5.952   8.139
25252SOL    HW277198   7.706   5.903   8.259
25253SOL     OW77199   7.817   6.886   8.946
25253SOL    HW177200   7.795   6.964   8.895
25253SOL    HW277201   7.740   6.830   8.937
25254SOL     OW77202  -0.024   7.145   7.898
25254SOL    HW177203  -0.010   7.055   7.870
25254SOL    HW277204   0.063   7.185   7.896
25255SOL     OW77205   7.734   6.915   7.755
25255SOL    HW177206   7.654   6.919   7.703
25255SOL    HW277207   7.713   6.964   7.835
25256SOL     OW77208   7.542   6.634   9.162
25256SOL    HW177209   7.473   6.602   9.220
25256SOL    HW277210   7.622   6.595   9.198
25257SOL     OW77211   7.509   5.922   7.484
25257SOL    HW177212   7.435   5.896   7.429
25257SOL    HW277213   7.544   6.001   7.441
25258SOL     OW77214   7.512   5.745   7.741
25258SOL    HW177215   7.493   5.813   7.676
25258SOL    HW277216   7.599   5.712   7.718
25259SOL     OW77217   7.833   7.331   9.013
25259SOL    HW177218   7.747   7.370   8.994
25259SOL    HW277219   7.812   7.248   9.056
25260SOL     OW77220   7.705   6.896   9.299
25260SOL    HW177221   7.632   6.834   9.291
25260SOL    HW277222   7.711   6.914   9.393
25261SOL     OW77223   7.535   6.819   8.125
25261SOL    HW177224   7.536   6.764   8.204
25261SOL    HW277225   7.599   6.779   8.067
25262SOL     OW77226   0.101   7.026   8.998
25262SOL    HW177227   0.049   6.964   9.050
25262SOL    HW277228   0.168   7.057   9.059
25263SOL     OW77229   7.797   6.137   8.744
25263SOL    HW177230   7.854   6.082   8.798
25263SOL    HW277231   7.814   6.109   8.654
25264SOL     OW77232   7.489   6.656   7.763
25264SOL    HW177233   7.579   6.644   7.732
25264SOL    HW277234   7.457   6.567   7.777
25265SOL     OW77235   7.667   6.186   9.443
25265SOL    HW177236   7.581   6.197   9.482
25265SOL    HW277237   7.650   6.178   9.349
25266SOL     OW77238   7.698   5.779  10.315
25266SOL    HW177239   7.719   5.873  10.319
25266SOL    HW277240   7.603   5.777  10.305
25267SOL     OW77241   7.448   5.969   9.943
25267SOL    HW177242   7.371   5.998   9.991
25267SOL    HW277243   7.420   5.891   9.896
25268SOL     OW77244   7.760   7.023  10.369
25268SOL    HW177245   7.688   6.962  10.350
25268SOL    HW277246   7.789   7.052  10.283
25269SOL     OW77247   7.858   5.994  10.863
25269SOL    HW177248   7.926   5.953  10.810
25269SOL    HW277249   7.780   5.940  10.849
25270SOL     OW77250   7.658   7.303   9.780
25270SOL    HW177251   7.671   7.380   9.835
25270SOL    HW277252   7.746   7.265   9.769
25271SOL     OW77253   7.678   7.028   9.839
25271SOL    HW177254   7.633   7.112   9.839
25271SOL    HW277255   7.623   6.971   9.894
25272SOL     OW77256   7.701   6.674  10.205
25272SOL    HW177257   7.700   6.586  10.243
25272SOL    HW277258   7.644   6.726  10.262
25273SOL     OW77259   7.572   6.237   9.872
25273SOL    HW177260   7.535   6.152   9.894
25273SOL    HW277261   7.559   6.290   9.951
25274SOL     OW77262   7.496   7.179   9.417
25274SOL    HW177263   7.480   7.087   9.435
25274SOL    HW277264   7.464   7.225   9.494
25275SOL     OW77265   7.567   6.341  10.889
25275SOL    HW177266   7.663   6.346  10.885
25275SOL    HW277267   7.541   6.421  10.934
25276SOL     OW77268   7.632   6.524  10.582
25276SOL    HW177269   7.717   6.484  10.598
25276SOL    HW277270   7.607   6.493  10.495
25277SOL     OW77271   7.767   5.835  11.123
25277SOL    HW177272   7.809   5.921  11.122
25277SOL    HW277273   7.680   5.851  11.160
25278SOL     OW77274   0.028   6.329   9.561
25278SOL    HW177275   0.018   6.422   9.545
25278SOL    HW277276  -0.034   6.310   9.632
25279SOL     OW77277   7.529   6.405  10.087
25279SOL    HW177278   7.606   6.397  10.143
25279SOL    HW277279   7.482   6.482  10.122
25280SOL     OW77280   7.573   7.461  10.892
25280SOL    HW177281   7.576   7.435  10.984
25280SOL    HW277282   7.495   7.417  10.858
25281SOL     OW77283   7.986   5.791  10.202
25281SOL    HW177284   7.969   5.789  10.296
25281SOL    HW277285   7.941   5.870  10.172
25282SOL     OW77286   7.839   7.380  10.175
25282SOL    HW177287   7.842   7.303  10.117
25282SOL    HW277288   7.818   7.453  10.117
25283SOL     OW77289   7.772   6.496   9.503
25283SOL    HW177290   7.779   6.557   9.577
25283SOL    HW277291   7.750   6.412   9.543
25284SOL     OW77292   7.916   6.803  11.044
25284SOL    HW177293   7.882   6.821  10.956
25284SOL    HW277294   7.846   6.833  11.103
25285SOL     OW77295   7.622   5.867  10.825
25285SOL    HW177296   7.544   5.921  10.834
25285SOL    HW277297   7.603   5.788  10.877
25286SOL     OW77298   7.710   7.370  10.530
25286SOL    HW177299   7.754   7.290  10.556
25286SOL    HW277300   7.682   7.354  10.440
25287SOL     OW77301   7.833   6.254   9.744
25287SOL    HW177302   7.872   6.201   9.814
25287SOL    HW277303   7.743   6.269   9.773
25288SOL     OW77304   0.026   5.675   9.433
25288SOL    HW177305   0.071   5.757   9.412
25288SOL    HW277306  -0.011   5.646   9.349
25289SOL     OW77307   7.988   5.615   9.815
25289SOL    HW177308   7.902   5.633   9.853
25289SOL    HW277309   8.027   5.701   9.802
25290SOL     OW77310   7.743   5.652   9.492
25290SOL    HW177311   7.763   5.724   9.432
25290SOL    HW277312   7.829   5.617   9.517
25291SOL     OW77313   7.921   6.684  10.047
25291SOL    HW177314   7.844   6.687  10.103
25291SOL    HW277315   7.885   6.678   9.958
25292SOL     OW77316   7.531   6.143  10.703
25292SOL    HW177317   7.622   6.137  10.674
25292SOL    HW277318   7.530   6.217  10.763
25293SOL     OW77319   8.012   5.764  10.478
25293SOL    HW177320   7.992   5.672  10.497
25293SOL    HW277321   7.938   5.812  10.514
25294SOL     OW77322   7.869   6.395  10.631
25294SOL    HW177323   7.946   6.418  10.579
25294SOL    HW277324   7.848   6.306  10.603
25295SOL     OW77325   7.517   7.156  10.652
25295SOL    HW177326   7.480   7.222  10.594
25295SOL    HW277327   7.612   7.166  10.642
25296SOL     OW77328   0.039   6.117  10.156
25296SOL    HW177329   0.056   6.210  10.138
25296SOL    HW277330   0.003   6.116  10.244
25297SOL     OW77331   7.798   7.116  10.620
25297SOL    HW177332   7.796   7.074  10.535
25297SOL    HW277333   7.892   7.128  10.639
25298SOL     OW77334   7.837   6.333  10.899
25298SOL    HW177335   7.862   6.370  10.814
25298SOL    HW277336   7.894   6.257  10.910
25299SOL     OW77337   7.942   5.654  11.038
25299SOL    HW177338   7.891   5.590  10.989
25299SOL    HW277339   7.878   5.721  11.064
25300SOL     OW77340   8.009   6.514  10.390
25300SOL    HW177341   8.022   6.605  10.362
25300SOL    HW277342   7.924   6.489  10.355
25301SOL     OW77343   7.780   5.788  10.618
25301SOL    HW177344   7.715   5.816  10.682
25301SOL    HW277345   7.740   5.714  10.574
25302SOL     OW77346   7.464   6.893  10.610
25302SOL    HW177347   7.529   6.849  10.666
25302SOL    HW277348   7.482   6.986  10.621
25303SOL     OW77349   7.744   5.664   9.936
25303SOL    HW177350   7.728   5.756   9.957
25303SOL    HW277351   7.747   5.620  10.021
25304SOL     OW77352   7.803   6.513  11.114
25304SOL    HW177353   7.880   6.568  11.102
25304SOL    HW277354   7.817   6.438  11.056
25305SOL     OW77355   7.768   6.398  10.265
25305SOL    HW177356   7.835   6.393  10.197
25305SOL    HW277357   7.751   6.306  10.288
25306SOL     OW77358   7.460   6.908   9.500
25306SOL    HW177359   7.371   6.920   9.465
25306SOL    HW277360   7.458   6.821   9.540
25307SOL     OW77361   7.560   7.359  10.271
25307SOL    HW177362   7.519   7.287  10.222
25307SOL    HW277363   7.637   7.382  10.218
25308SOL     OW77364   7.461   6.133  10.431
25308SOL    HW177365   7.532   6.116  10.369
25308SOL    HW277366   7.503   6.134  10.516
25309SOL     OW77367   7.641   6.115  11.031
25309SOL    HW177368   7.710   6.083  10.973
25309SOL    HW277369   7.601   6.188  10.983
25310SOL     OW77370   0.224   6.081   9.613
25310SOL    HW177371   0.189   5.998   9.647
25310SOL    HW277372   0.195   6.147   9.675
25311SOL     OW77373   7.687   7.139  11.024
25311SOL    HW177374   7.670   7.204  11.093
25311SOL    HW277375   7.703   7.058  11.071
25312SOL     OW77376   7.920   6.080   9.467
25312SOL    HW177377   7.971   6.150   9.506
25312SOL    HW277378   7.830   6.111   9.470
25313SOL     OW77379   7.582   6.702  10.773
25313SOL    HW177380   7.595   6.658  10.856
25313SOL    HW277381   7.611   6.639  10.707
25314SOL     OW77382   7.540   6.846  10.345
25314SOL    HW177383   7.501   6.871  10.428
25314SOL    HW277384   7.465   6.837  10.285
25315SOL     OW77385   7.590   7.385  11.153
25315SOL    HW177386   7.542   7.315  11.197
25315SOL    HW277387   7.639   7.428  11.222
25316SOL     OW77388   7.715   5.925  10.021
25316SOL    HW177389   7.625   5.944   9.992
25316SOL    HW277390   7.725   5.974  10.103
25317SOL     OW77391   7.803   6.892  10.815
25317SOL    HW177392   7.804   6.964  10.752
25317SOL    HW277393   7.737   6.831  10.781
25318SOL     OW77394  -0.010   7.163   9.719
25318SOL    HW177395  -0.018   7.081   9.768
25318SOL    HW277396   0.070   7.203   9.753
25319SOL     OW77397   7.719   6.958   9.571
25319SOL    HW177398   7.625   6.948   9.556
25319SOL    HW277399   7.728   6.968   9.665
25320SOL     OW77400   7.549   6.587  11.022
25320SOL    HW177401   7.477   6.577  11.084
25320SOL    HW277402   7.628   6.569  11.073
25321SOL     OW77403   7.509   5.913   9.344
25321SOL    HW177404   7.420   5.896   9.315
25321SOL    HW277405   7.532   5.997   9.304
25322SOL     OW77406   7.507   5.737   9.611
25322SOL    HW177407   7.491   5.815   9.559
25322SOL    HW277408   7.594   5.708   9.586
25323SOL     OW77409   7.832   7.340  10.880
25323SOL    HW177410   7.750   7.380  10.850
25323SOL    HW277411   7.806   7.255  10.916
25324SOL     OW77412   7.689   6.898  11.172
25324SOL    HW177413   7.601   6.862  11.165
25324SOL    HW277414   7.702   6.912  11.266
25325SOL     OW77415   7.553   6.801   9.965
25325SOL    HW177416   7.580   6.754  10.044
25325SOL    HW277417   7.611   6.767   9.896
25326SOL     OW77418   0.097   7.013  10.980
25326SOL    HW177419   0.031   6.943  10.977
25326SOL    HW277420   0.075   7.069  10.905
25327SOL     OW77421   7.781   6.138  10.593
25327SOL    HW177422   7.845   6.075  10.626
25327SOL    HW277423   7.775   6.119  10.499
25328SOL     OW77424   7.489   6.664   9.641
25328SOL    HW177425   7.579   6.674   9.670
25328SOL    HW277426   7.473   6.570   9.642
25329SOL     OW77427   7.671   6.202  11.296
25329SOL    HW177428   7.586   6.179  11.334
25329SOL    HW277429   7.662   6.180  11.203
25330SOL     OW77430   7.671   5.873  12.162
25330SOL    HW177431   7.698   5.836  12.246
25330SOL    HW277432   7.582   5.840  12.149
25331SOL     OW77433   7.479   5.985  11.800
25331SOL    HW177434   7.390   5.965  11.828
25331SOL    HW277435   7.496   5.923  11.729
25332SOL     OW77436   7.751   7.019  12.229
25332SOL    HW177437   7.674   6.969  12.201
25332SOL    HW277438   7.795   7.043  12.148
25333SOL     OW77439   7.668   7.300  11.650
25333SOL    HW177440   7.679   7.382  11.699
25333SOL    HW277441   7.751   7.287  11.605
25334SOL     OW77442   7.670   7.028  11.700
25334SOL    HW177443   7.663   7.123  11.695
25334SOL    HW277444   7.607   7.003  11.768
25335SOL     OW77445   7.700   6.673  12.079
25335SOL    HW177446   7.709   6.580  12.101
25335SOL    HW277447   7.649   6.710  12.151
25336SOL     OW77448   7.571   6.240  11.737
25336SOL    HW177449   7.539   6.152  11.756
25336SOL    HW277450   7.557   6.288  11.819
25337SOL     OW77451   7.497   7.175  11.294
25337SOL    HW177452   7.475   7.083  11.312
25337SOL    HW277453   7.466   7.223  11.371
25338SOL     OW77454   7.607   6.352   0.204
25338SOL    HW177455   7.586   6.312   0.288
25338SOL    HW277456   7.526   6.395   0.178
25339SOL     OW77457   7.629   6.592  12.401
25339SOL    HW177458   7.706   6.536  12.411
25339SOL    HW277459   7.557   6.542  12.440
25340SOL     OW77460   0.013   6.315  11.441
25340SOL    HW177461   0.035   6.404  11.413
25340SOL    HW277462  -0.047   6.328  11.514
25341SOL     OW77463   7.531   6.405  11.953
25341SOL    HW177464   7.613   6.400  12.003
25341SOL    HW277465   7.485   6.481  11.990
25342SOL     OW77466   7.975   5.780  12.051
25342SOL    HW177467   7.962   5.825  12.135
25342SOL    HW277468   7.956   5.847  11.985
25343SOL     OW77469   7.802   7.416  12.035
25343SOL    HW177470   7.872   7.352  12.023
25343SOL    HW277471   7.847   7.500  12.041
25344SOL     OW77472   7.745   6.551  11.426
25344SOL    HW177473   7.821   6.576  11.373
25344SOL    HW277474   7.725   6.462  11.397
25345SOL     OW77475   7.682   7.373  12.409
25345SOL    HW177476   7.715   7.287  12.436
25345SOL    HW277477   7.651   7.359  12.319
25346SOL     OW77478   7.827   6.288  11.642
25346SOL    HW177479   7.855   6.197  11.639
25346SOL    HW277480   7.736   6.285  11.669
25347SOL     OW77481   0.008   5.660  11.311
25347SOL    HW177482   0.103   5.658  11.321
25347SOL    HW277483  -0.007   5.670  11.218
25348SOL     OW77484   8.003   5.593  11.690
25348SOL    HW177485   7.915   5.609  11.724
25348SOL    HW277486   8.024   5.673  11.641
25349SOL     OW77487   7.744   5.590  11.371
25349SOL    HW177488   7.701   5.666  11.410
25349SOL    HW277489   7.833   5.619  11.352
25350SOL     OW77490   7.917   6.682  11.908
25350SOL    HW177491   7.843   6.681  11.969
25350SOL    HW277492   7.877   6.682  11.821
25351SOL     OW77493   7.989   5.813  12.328
25351SOL    HW177494   8.024   5.724  12.335
25351SOL    HW277495   7.898   5.805  12.358
25352SOL     OW77496   7.857   6.419  12.454
25352SOL    HW177497   7.939   6.446  12.494
25352SOL    HW277498   7.823   6.350  12.511
25353SOL     OW77499   7.796   6.698  11.661
25353SOL    HW177500   7.791   6.778  11.608
25353SOL    HW277501   7.779   6.627  11.600
25354SOL     OW77502   0.006   6.164  12.067
25354SOL    HW177503   0.015   6.240  12.009
25354SOL    HW277504   0.095   6.131  12.078
25355SOL     OW77505   7.783   7.129  12.479
25355SOL    HW177506   7.772   7.080  12.397
25355SOL    HW277507   7.877   7.127  12.495
25356SOL     OW77508   7.905   6.318   0.214
25356SOL    HW177509   7.996   6.331   0.239
25356SOL    HW277510   7.859   6.303   0.296
25357SOL     OW77511   8.018   6.492  12.237
25357SOL    HW177512   8.017   6.586  12.218
25357SOL    HW277513   7.941   6.478  12.292
25358SOL     OW77514   7.736   5.779  12.413
25358SOL    HW177515   7.693   5.816  12.490
25358SOL    HW277516   7.718   5.685  12.419
25359SOL     OW77517   7.459   6.889  12.474
25359SOL    HW177518   7.520   6.818  12.497
25359SOL    HW277519   7.502   6.968  12.505
25360SOL     OW77520   7.754   5.638  11.790
25360SOL    HW177521   7.693   5.697  11.746
25360SOL    HW277522   7.742   5.656  11.883
25361SOL     OW77523   7.758   6.401  12.112
25361SOL    HW177524   7.852   6.407  12.098
25361SOL    HW277525   7.744   6.313  12.148
25362SOL     OW77526   7.758   6.130  12.178
25362SOL    HW177527   7.731   6.038  12.166
25362SOL    HW277528   7.844   6.135  12.136
25363SOL     OW77529   7.457   6.901  11.367
25363SOL    HW177530   7.370   6.920  11.333
25363SOL    HW277531   7.450   6.812  11.403
25364SOL     OW77532   7.548   7.359  12.130
25364SOL    HW177533   7.518   7.283  12.080
25364SOL    HW277534   7.632   7.382  12.091
25365SOL     OW77535   7.509   6.160  12.302
25365SOL    HW177536   7.587   6.152  12.246
25365SOL    HW277537   7.501   6.075  12.344
25366SOL     OW77538   0.217   6.090  11.470
25366SOL    HW177539   0.170   6.009  11.489
25366SOL    HW277540   0.187   6.152  11.537
25367SOL     OW77541   7.919   6.080  11.338
25367SOL    HW177542   7.965   6.157  11.371
25367SOL    HW277543   7.828   6.108  11.329
25368SOL     OW77544   7.490   6.869  12.187
25368SOL    HW177545   7.481   6.845  12.279
25368SOL    HW277546   7.453   6.795  12.139
25369SOL     OW77547   7.742   5.930  11.898
25369SOL    HW177548   7.661   5.952  11.853
25369SOL    HW277549   7.715   5.908  11.987
25370SOL     OW77550  -0.016   7.153  11.591
25370SOL    HW177551   0.017   7.072  11.629
25370SOL    HW277552   0.044   7.221  11.622
25371SOL     OW77553   7.719   6.920  11.456
25371SOL    HW177554   7.627   6.917  11.434
25371SOL    HW277555   7.722   6.970  11.538
25372SOL     OW77556   7.522   5.925  11.194
25372SOL    HW177557   7.426   5.920  11.197
25372SOL    HW277558   7.540   5.994  11.130
25373SOL     OW77559   7.761   7.286   0.228
25373SOL    HW177560   7.761   7.370   0.182
25373SOL    HW277561   7.759   7.220   0.159
25374SOL     OW77562   7.532   6.820  11.849
25374SOL    HW177563   7.554   6.761  11.921
25374SOL    HW277564   7.592   6.794  11.778
25375SOL     OW77565   7.485   6.650  11.488
25375SOL    HW177566   7.576   6.640  11.460
25375SOL    HW277567   7.457   6.561  11.511
25376SOL     OW77568   7.680   7.725   1.027
25376SOL    HW177569   7.692   7.686   1.114
25376SOL    HW277570   7.595   7.692   0.997
25377SOL     OW77571   7.394   7.798   0.567
25377SOL    HW177572   7.344   7.843   0.635
25377SOL    HW277573   7.485   7.804   0.596
25378SOL     OW77574   7.881   7.842   1.536
25378SOL    HW177575   7.923   7.821   1.452
25378SOL    HW277576   7.799   7.792   1.534
25379SOL     OW77577   7.516   0.105   0.596
25379SOL    HW177578   7.541   0.016   0.573
25379SOL    HW277579   7.581   0.132   0.662
25380SOL     OW77580   7.770   7.728   1.832
25380SOL    HW177581   7.774   7.811   1.786
25380SOL    HW277582   7.681   7.725   1.868
25381SOL     OW77583   7.961   7.648   0.885
25381SOL    HW177584   7.955   7.663   0.980
25381SOL    HW277585   7.938   7.733   0.846
25382SOL     OW77586   7.626   7.721   1.519
25382SOL    HW177587   7.538   7.750   1.497
25382SOL    HW277588   7.614   7.632   1.553
25383SOL     OW77589   0.036   7.490   0.083
25383SOL    HW177590   0.087   7.567   0.107
25383SOL    HW277591   0.084   7.451   0.009
25384SOL     OW77592   7.986   7.448   0.505
25384SOL    HW177593   7.907   7.477   0.551
25384SOL    HW277594   8.026   7.528   0.473
25385SOL     OW77595   7.540  -0.010   1.390
25385SOL    HW177596   7.631  -0.014   1.416
25385SOL    HW277597   7.512   0.079   1.411
25386SOL     OW77598   7.990   7.647   1.157
25386SOL    HW177599   8.033   7.576   1.205
25386SOL    HW277600   7.904   7.655   1.199
25387SOL     OW77601   0.006   7.952   0.862
25387SOL    HW177602  -0.018   8.041   0.837
25387SOL    HW277603   0.036   7.961   0.953
25388SOL     OW77604   7.934   7.535   1.726
25388SOL    HW177605   7.886   7.468   1.677
25388SOL    HW277606   7.868   7.599   1.751
25389SOL     OW77607   7.748   7.632   1.282
25389SOL    HW177608   7.698   7.663   1.358
25389SOL    HW277609   7.725   7.540   1.274
25390SOL     OW77610   7.744   7.518   0.625
25390SOL    HW177611   7.724   7.611   0.630
25390SOL    HW277612   7.755   7.490   0.716
25391SOL     OW77613   7.743   7.989   1.039
25391SOL    HW177614   7.736   7.896   1.018
25391SOL    HW277615   7.819   8.019   0.989
25392SOL     OW77616   7.473   7.940   1.125
25392SOL    HW177617   7.554   7.932   1.074
25392SOL    HW277618   7.503   7.957   1.214
25393SOL     OW77619   7.654   7.959   1.700
25393SOL    HW177620   7.620   7.893   1.640
25393SOL    HW277621   7.576   8.007   1.730
25394SOL     OW77622   7.532   7.606   0.320
25394SOL    HW177623   7.479   7.683   0.302
25394SOL    HW277624   7.594   7.634   0.388
25395SOL     OW77625   7.672   7.718   2.851
25395SOL    HW177626   7.698   7.693   2.939
25395SOL    HW277627   7.582   7.687   2.843
25396SOL     OW77628   7.429   7.816   2.509
25396SOL    HW177629   7.347   7.856   2.539
25396SOL    HW277630   7.402   7.736   2.464
25397SOL     OW77631   7.892   7.803   3.404
25397SOL    HW177632   7.918   7.725   3.453
25397SOL    HW277633   7.798   7.791   3.389
25398SOL     OW77634   7.568   0.052   2.504
25398SOL    HW177635   7.516  -0.027   2.490
25398SOL    HW277636   7.503   0.123   2.510
25399SOL     OW77637   7.766   7.727   3.683
25399SOL    HW177638   7.765   7.820   3.660
25399SOL    HW277639   7.685   7.714   3.733
25400SOL     OW77640   7.961   7.657   2.741
25400SOL    HW177641   7.961   7.650   2.837
25400SOL    HW277642   7.965   7.751   2.725
25401SOL     OW77643   7.619   7.722   3.378
25401SOL    HW177644   7.527   7.746   3.373
25401SOL    HW277645   7.619   7.632   3.411
25402SOL     OW77646   0.003   7.518   1.991
25402SOL    HW177647   0.098   7.520   2.005
25402SOL    HW277648  -0.007   7.519   1.896
25403SOL     OW77649   7.983   7.439   2.361
25403SOL    HW177650   7.905   7.469   2.408
25403SOL    HW277651   8.016   7.517   2.318
25404SOL     OW77652   7.734   7.512   2.044
25404SOL    HW177653   7.768   7.586   1.992
25404SOL    HW277654   7.812   7.463   2.069
25405SOL     OW77655   7.534  -0.006   3.252
25405SOL    HW177656   7.619  -0.032   3.289
25405SOL    HW277657   7.519   0.082   3.286
25406SOL     OW77658   7.991   7.641   3.007
25406SOL    HW177659   8.040   7.590   3.071
25406SOL    HW277660   7.910   7.664   3.051
25407SOL     OW77661   7.987   7.930   2.738
25407SOL    HW177662   7.953   7.993   2.674
25407SOL    HW277663   8.029   7.983   2.805
25408SOL     OW77664   7.926   7.561   3.545
25408SOL    HW177665   7.880   7.479   3.524
25408SOL    HW277666   7.865   7.609   3.602
25409SOL     OW77667   7.738   7.660   3.116
25409SOL    HW177668   7.699   7.685   3.199
25409SOL    HW277669   7.733   7.564   3.114
25410SOL     OW77670   7.748   7.517   2.487
25410SOL    HW177671   7.732   7.611   2.502
25410SOL    HW277672   7.764   7.481   2.574
25411SOL     OW77673   7.748   7.971   2.895
25411SOL    HW177674   7.726   7.879   2.875
25411SOL    HW277675   7.834   7.984   2.855
25412SOL     OW77676   7.485   7.954   2.982
25412SOL    HW177677   7.571   7.958   2.940
25412SOL    HW277678   7.503   7.962   3.076
25413SOL     OW77679   7.647   7.967   3.554
25413SOL    HW177680   7.611   7.886   3.516
25413SOL    HW277681   7.571   8.011   3.591
25414SOL     OW77682   7.709   7.775   2.574
25414SOL    HW177683   7.620   7.804   2.554
25414SOL    HW277684   7.710   7.763   2.669
25415SOL     OW77685   7.516   7.779   1.922
25415SOL    HW177686   7.444   7.779   1.860
25415SOL    HW277687   7.533   7.872   1.940
25416SOL     OW77688   7.502   7.599   2.164
25416SOL    HW177689   7.485   7.674   2.107
25416SOL    HW277690   7.590   7.569   2.138
25417SOL     OW77691   7.671   7.714   4.718
25417SOL    HW177692   7.696   7.682   4.805
25417SOL    HW277693   7.580   7.686   4.707
25418SOL     OW77694   7.440   7.822   4.373
25418SOL    HW177695   7.356   7.858   4.403
25418SOL    HW277696   7.417   7.740   4.329
25419SOL     OW77697   7.840   7.873   5.273
25419SOL    HW177698   7.918   7.848   5.224
25419SOL    HW277699   7.778   7.802   5.258
25420SOL     OW77700   7.508   0.099   4.336
25420SOL    HW177701   7.491   0.005   4.346
25420SOL    HW277702   7.603   0.105   4.328
25421SOL     OW77703   7.768   7.712   5.555
25421SOL    HW177704   7.772   7.796   5.510
25421SOL    HW277705   7.679   7.707   5.589
25422SOL     OW77706   7.954   7.655   4.604
25422SOL    HW177707   7.954   7.662   4.699
25422SOL    HW277708   7.956   7.746   4.574
25423SOL     OW77709   7.629   7.707   5.229
25423SOL    HW177710   7.548   7.753   5.252
25423SOL    HW277711   7.615   7.617   5.258
25424SOL     OW77712   0.009   7.555   3.843
25424SOL    HW177713   0.093   7.519   3.872
25424SOL    HW277714   0.008   7.540   3.749
25425SOL     OW77715   7.929   7.450   4.186
25425SOL    HW177716   7.871   7.482   4.255
25425SOL    HW277717   7.992   7.521   4.172
25426SOL     OW77718   7.750   7.492   3.922
25426SOL    HW177719   7.831   7.531   3.888
25426SOL    HW277720   7.780   7.428   3.987
25427SOL     OW77721   7.538  -0.011   5.115
25427SOL    HW177722   7.629  -0.028   5.142
25427SOL    HW277723   7.523   0.080   5.138
25428SOL     OW77724   7.983   7.656   4.872
25428SOL    HW177725   8.041   7.601   4.925
25428SOL    HW277726   7.898   7.652   4.917
25429SOL     OW77727   7.975  -0.025   4.613
25429SOL    HW177728   7.982   0.065   4.580
25429SOL    HW277729   8.025  -0.025   4.694
25430SOL     OW77730   7.948   7.537   5.435
25430SOL    HW177731   7.905   7.465   5.388
25430SOL    HW277732   7.876   7.590   5.469
25431SOL     OW77733   7.734   7.635   4.979
25431SOL    HW177734   7.690   7.668   5.058
25431SOL    HW277735   7.714   7.542   4.978
25432SOL     OW77736   7.731   7.524   4.359
25432SOL    HW177737   7.723   7.617   4.378
25432SOL    HW277738   7.752   7.483   4.442
25433SOL     OW77739   7.743   7.968   4.765
25433SOL    HW177740   7.726   7.875   4.745
25433SOL    HW277741   7.821   7.989   4.714
25434SOL     OW77742   7.480   7.942   4.851
25434SOL    HW177743   7.563   7.951   4.805
25434SOL    HW277744   7.501   7.957   4.943
25435SOL     OW77745   7.645   7.963   5.464
25435SOL    HW177746   7.691   7.955   5.380
25435SOL    HW277747   7.648   8.057   5.484
25436SOL     OW77748   7.710   7.782   4.448
25436SOL    HW177749   7.621   7.805   4.424
25436SOL    HW277750   7.706   7.761   4.542
25437SOL     OW77751   7.513   7.787   3.790
25437SOL    HW177752   7.440   7.779   3.728
25437SOL    HW277753   7.531   7.881   3.793
25438SOL     OW77754   7.511   7.598   4.018
25438SOL    HW177755   7.497   7.672   3.959
25438SOL    HW277756   7.600   7.568   3.998
25439SOL     OW77757   7.670   7.746   6.591
25439SOL    HW177758   7.701   7.698   6.668
25439SOL    HW277759   7.587   7.704   6.568
25440SOL     OW77760   7.436   7.818   6.231
25440SOL    HW177761   7.354   7.849   6.269
25440SOL    HW277762   7.413   7.737   6.186
25441SOL     OW77763   7.875   7.829   7.139
25441SOL    HW177764   7.924   7.815   7.058
25441SOL    HW277765   7.790   7.785   7.124
25442SOL     OW77766   7.527   0.092   6.228
25442SOL    HW177767   7.507  -0.002   6.219
25442SOL    HW277768   7.565   0.116   6.144
25443SOL     OW77769   7.768   7.732   7.428
25443SOL    HW177770   7.784   7.805   7.369
25443SOL    HW277771   7.676   7.741   7.453
25444SOL     OW77772   7.974   7.649   6.481
25444SOL    HW177773   7.967   7.667   6.575
25444SOL    HW277774   7.974   7.735   6.440
25445SOL     OW77775   7.618   7.723   7.104
25445SOL    HW177776   7.534   7.740   7.062
25445SOL    HW277777   7.613   7.631   7.131
25446SOL     OW77778   0.005   7.519   5.712
25446SOL    HW177779   0.099   7.523   5.733
25446SOL    HW277780   0.003   7.517   5.617
25447SOL     OW77781   8.000   7.465   6.116
25447SOL    HW177782   7.910   7.486   6.142
25447SOL    HW277783   8.025   7.536   6.057
25448SOL     OW77784   7.737   7.511   5.767
25448SOL    HW177785   7.775   7.581   5.713
25448SOL    HW277786   7.812   7.458   5.793
25449SOL     OW77787   7.545  -0.006   6.968
25449SOL    HW177788   7.623  -0.013   7.024
25449SOL    HW277789   7.513   0.083   6.983
25450SOL     OW77790   7.993   7.667   6.753
25450SOL    HW177791   8.030   7.581   6.774
25450SOL    HW277792   7.905   7.665   6.790
25451SOL     OW77793   7.995   7.948   6.474
25451SOL    HW177794   7.949   7.972   6.394
25451SOL    HW277795   8.053   8.023   6.492
25452SOL     OW77796   7.931   7.531   7.323
25452SOL    HW177797   7.893   7.463   7.267
25452SOL    HW277798   7.859   7.593   7.337
25453SOL     OW77799   7.742   7.641   6.842
25453SOL    HW177800   7.676   7.663   6.909
25453SOL    HW277801   7.735   7.546   6.833
25454SOL     OW77802   7.745   7.530   6.202
25454SOL    HW177803   7.725   7.622   6.223
25454SOL    HW277804   7.755   7.489   6.288
25455SOL     OW77805   7.783   7.986   6.645
25455SOL    HW177806   7.742   7.901   6.629
25455SOL    HW277807   7.856   7.989   6.583
25456SOL     OW77808   7.473   7.947   6.702
25456SOL    HW177809   7.545   7.907   6.653
25456SOL    HW277810   7.508   7.960   6.790
25457SOL     OW77811   7.632   7.961   7.268
25457SOL    HW177812   7.612   7.878   7.223
25457SOL    HW277813   7.546   7.993   7.297
25458SOL     OW77814   7.701   7.791   6.307
25458SOL    HW177815   7.609   7.798   6.283
25458SOL    HW277816   7.700   7.772   6.401
25459SOL     OW77817   7.507   7.781   5.629
25459SOL    HW177818   7.445   7.762   5.559
25459SOL    HW277819   7.551   7.861   5.601
25460SOL     OW77820   7.506   7.603   5.877
25460SOL    HW177821   7.492   7.675   5.816
25460SOL    HW277822   7.593   7.570   5.856
25461SOL     OW77823   7.681   7.712   8.437
25461SOL    HW177824   7.704   7.685   8.526
25461SOL    HW277825   7.590   7.685   8.426
25462SOL     OW77826   7.435   7.818   8.098
25462SOL    HW177827   7.352   7.855   8.127
25462SOL    HW277828   7.410   7.739   8.051
25463SOL     OW77829   7.903   7.803   8.993
25463SOL    HW177830   7.919   7.729   9.052
25463SOL    HW277831   7.813   7.791   8.963
25464SOL     OW77832   7.557   0.067   8.093
25464SOL    HW177833   7.514  -0.017   8.077
25464SOL    HW277834   7.505   0.108   8.163
25465SOL     OW77835   7.747   7.740   9.252
25465SOL    HW177836   7.789   7.817   9.292
25465SOL    HW277837   7.665   7.731   9.300
25466SOL     OW77838   7.982   7.603   8.331
25466SOL    HW177839   7.972   7.623   8.424
25466SOL    HW277840   7.976   7.687   8.287
25467SOL     OW77841   7.629   7.718   8.951
25467SOL    HW177842   7.537   7.745   8.951
25467SOL    HW277843   7.628   7.630   8.988
25468SOL     OW77844   0.002   7.493   7.581
25468SOL    HW177845   0.095   7.514   7.593
25468SOL    HW277846  -0.013   7.500   7.487
25469SOL     OW77847   0.051   7.489   8.004
25469SOL    HW177848  -0.043   7.489   8.024
25469SOL    HW277849   0.061   7.552   7.933
25470SOL     OW77850   7.739   7.526   7.625
25470SOL    HW177851   7.749   7.599   7.564
25470SOL    HW277852   7.827   7.490   7.635
25471SOL     OW77853   7.531  -0.008   8.833
25471SOL    HW177854   7.595  -0.036   8.898
25471SOL    HW277855   7.506   0.080   8.860
25472SOL     OW77856   7.994   7.644   8.596
25472SOL    HW177857   8.044   7.607   8.668
25472SOL    HW277858   7.908   7.661   8.633
25473SOL     OW77859   7.989   7.914   8.330
25473SOL    HW177860   7.956   7.975   8.264
25473SOL    HW277861   8.024   7.970   8.399
25474SOL     OW77862   7.916   7.558   9.149
25474SOL    HW177863   7.879   7.476   9.117
25474SOL    HW277864   7.842   7.605   9.187
25475SOL     OW77865   7.741   7.646   8.700
25475SOL    HW177866   7.696   7.677   8.778
25475SOL    HW277867   7.726   7.552   8.699
25476SOL     OW77868   7.766   7.524   8.061
25476SOL    HW177869   7.741   7.616   8.075
25476SOL    HW277870   7.754   7.483   8.147
25477SOL     OW77871   7.745   7.969   8.481
25477SOL    HW177872   7.728   7.876   8.463
25477SOL    HW277873   7.833   7.984   8.446
25478SOL     OW77874   7.482   7.960   8.566
25478SOL    HW177875   7.568   7.958   8.523
25478SOL    HW277876   7.503   7.963   8.659
25479SOL     OW77877   7.632   7.988   9.100
25479SOL    HW177878   7.644   7.895   9.118
25479SOL    HW277879   7.558   8.014   9.156
25480SOL     OW77880   7.707   7.777   8.162
25480SOL    HW177881   7.616   7.797   8.140
25480SOL    HW277882   7.707   7.762   8.257
25481SOL     OW77883   7.509   7.781   7.500
25481SOL    HW177884   7.447   7.762   7.429
25481SOL    HW277885   7.510   7.877   7.505
25482SOL     OW77886   7.507   7.602   7.747
25482SOL    HW177887   7.486   7.670   7.684
25482SOL    HW277888   7.595   7.572   7.722
25483SOL     OW77889   7.669   7.752  10.339
25483SOL    HW177890   7.699   7.700  10.414
25483SOL    HW277891   7.597   7.702  10.303
25484SOL     OW77892   7.449   7.835   9.945
25484SOL    HW177893   7.359   7.856   9.971
25484SOL    HW277894   7.445   7.744   9.916
25485SOL     OW77895   7.868   7.843  10.859
25485SOL    HW177896   7.926   7.834  10.784
25485SOL    HW277897   7.795   7.784  10.840
25486SOL     OW77898   7.509   0.124   9.922
25486SOL    HW177899   7.518   0.030   9.935
25486SOL    HW277900   7.589   0.161   9.960
25487SOL     OW77901   7.762   7.724  11.153
25487SOL    HW177902   7.774   7.804  11.101
25487SOL    HW277903   7.670   7.728  11.181
25488SOL     OW77904   8.017   7.675  10.199
25488SOL    HW177905   7.947   7.643  10.256
25488SOL    HW277906   7.992   7.765  10.177
25489SOL     OW77907   7.623   7.718  10.820
25489SOL    HW177908   7.537   7.741  10.784
25489SOL    HW277909   7.611   7.628  10.853
25490SOL     OW77910   0.014   7.575   9.408
25490SOL    HW177911   0.096   7.531   9.429
25490SOL    HW277912  -0.008   7.545   9.320
25491SOL     OW77913   8.026   7.498   9.850
25491SOL    HW177914   7.935   7.503   9.879
25491SOL    HW277915   8.031   7.560   9.778
25492SOL     OW77916   7.756   7.495   9.496
25492SOL    HW177917   7.841   7.532   9.474
25492SOL    HW277918   7.776   7.420   9.553
25493SOL     OW77919   7.555  -0.005  10.694
25493SOL    HW177920   7.642  -0.006  10.734
25493SOL    HW277921   7.521   0.082  10.712
25494SOL     OW77922   8.002   7.678  10.501
25494SOL    HW177923   8.037   7.590  10.489
25494SOL    HW277924   7.911   7.664  10.527
25495SOL     OW77925   0.006   7.964  10.195
25495SOL    HW177926  -0.037   7.985  10.113
25495SOL    HW277927   0.049   8.046  10.221
25496SOL     OW77928   7.930   7.532  11.052
25496SOL    HW177929   7.893   7.466  10.993
25496SOL    HW277930   7.858   7.593  11.068
25497SOL     OW77931   7.745   7.633  10.575
25497SOL    HW177932   7.693   7.658  10.651
25497SOL    HW277933   7.729   7.539  10.565
25498SOL     OW77934   7.796   7.988  10.372
25498SOL    HW177935   7.743   7.910  10.359
25498SOL    HW277936   7.861   7.986  10.301
25499SOL     OW77937   7.469   7.929  10.436
25499SOL    HW177938   7.527   7.871  10.387
25499SOL    HW277939   7.518   7.952  10.516
25500SOL     OW77940   7.634   7.948  11.019
25500SOL    HW177941   7.627   7.886  10.947
25500SOL    HW277942   7.557   8.005  11.009
25501SOL     OW77943   7.700   7.862  10.052
25501SOL    HW177944   7.618   7.846  10.005
25501SOL    HW277945   7.722   7.778  10.093
25502SOL     OW77946   7.508   7.795   9.373
25502SOL    HW177947   7.432   7.758   9.329
25502SOL    HW277948   7.494   7.889   9.373
25503SOL     OW77949   7.505   7.602   9.614
25503SOL    HW177950   7.504   7.673   9.550
25503SOL    HW277951   7.597   7.579   9.622
25504SOL     OW77952   7.671   7.711  12.156
25504SOL    HW177953   7.698   7.682  12.243
25504SOL    HW277954   7.578   7.686  12.150
25505SOL     OW77955   7.437   7.818  11.821
25505SOL    HW177956   7.354   7.855  11.851
25505SOL    HW277957   7.412   7.737  11.776
25506SOL     OW77958   7.873   7.776   0.186
25506SOL    HW177959   7.954   7.768   0.135
25506SOL    HW277960   7.872   7.699   0.242
25507SOL     OW77961   7.509   0.095  11.795
25507SOL    HW177962   7.499  -0.000  11.796
25507SOL    HW277963   7.596   0.110  11.760
25508SOL     OW77964   7.943   7.646  12.029
25508SOL    HW177965   7.952   7.671  12.121
25508SOL    HW277966   7.961   7.726  11.980
25509SOL     OW77967   0.010   7.521  11.313
25509SOL    HW177968   0.105   7.511  11.322
25509SOL    HW277969  -0.004   7.519  11.218
25510SOL     OW77970   7.970   7.454  11.687
25510SOL    HW177971   7.888   7.489  11.721
25510SOL    HW277972   8.009   7.526  11.638
25511SOL     OW77973   7.739   7.515  11.350
25511SOL    HW177974   7.763   7.587  11.293
25511SOL    HW277975   7.822   7.472  11.372
25512SOL     OW77976   7.525   0.025   0.055
25512SOL    HW177977   7.620   0.013   0.061
25512SOL    HW277978   7.503   0.080   0.131
25513SOL     OW77979   7.992   7.640  12.303
25513SOL    HW177980   8.008   7.545  12.296
25513SOL    HW277981   7.906   7.646  12.344
25514SOL     OW77982   7.978   7.942  12.052
25514SOL    HW177983   7.984   8.019  11.996
25514SOL    HW277984   8.025   7.967  12.132
25515SOL     OW77985   7.810   0.224   0.292
25515SOL    HW177986   7.833   0.311   0.257
25515SOL    HW277987   7.891   0.191   0.330
25516SOL     OW77988   7.740   7.637  12.411
25516SOL    HW177989   7.697   7.681  12.484
25516SOL    HW277990   7.720   7.544  12.423
25517SOL     OW77991   7.726   7.527  11.794
25517SOL    HW177992   7.720   7.621  11.810
25517SOL    HW277993   7.744   7.489  11.880
25518SOL     OW77994   7.735   7.969  12.173
25518SOL    HW177995   7.716   7.875  12.165
25518SOL    HW277996   7.825   7.977  12.143
25519SOL     OW77997   7.490   7.959  12.292
25519SOL    HW177998   7.574   7.966  12.248
25519SOL    HW277999   7.510   7.974  12.384
25520SOL     OW78000   7.702   7.785  11.887
25520SOL    HW178001   7.610   7.800  11.868
25520SOL    HW278002   7.704   7.761  11.980
25521SOL     OW78003   7.503   7.786  11.227
25521SOL    HW178004   7.443   7.769  11.154
25521SOL    HW278005   7.536   7.874  11.211
25522SOL     OW78006   7.505   7.600  11.466
25522SOL    HW178007   7.488   7.671  11.404
25522SOL    HW278008   7.594   7.570  11.443
25523NA      NA78009   0.389   1.197   1.723
25524NA      NA78010   1.649   0.774   1.954
25525NA      NA78011   1.881   1.706   1.159
25526NA      NA78012   1.521   0.034   2.233
25527NA      NA78013   1.496   1.626   3.044
25528NA      NA78014   1.444   1.746   2.340
25529NA      NA78015   0.530   0.835   4.062
25530NA      NA78016   0.889   1.070   4.980
25531NA      NA78017   1.434   7.928   4.000
25532NA      NA78018   1.196   1.756   6.989
25533NA      NA78019   1.506   0.227   5.810
25534NA      NA78020   0.820   1.704   5.874
25535NA      NA78021   0.054   1.447   7.444
25536NA      NA78022   0.577   1.243   7.981
25537NA      NA78023   0.448   0.790   8.673
25538NA      NA78024   1.522   0.427  10.306
25539NA      NA78025   0.178   1.238   9.735
25540NA      NA78026   0.147   1.910  11.945
25541NA      NA78027   1.357   1.626  12.237
25542NA      NA78028   1.342   0.552  11.952
25543NA      NA78029   0.840   2.403   1.453
25544NA      NA78030   0.081   2.248   1.601
25545NA      NA78031   1.414   3.523   0.005
25546NA      NA78032   0.084   3.075   0.435
25547NA      NA78033   0.364   3.259   1.942
25548NA      NA78034   1.037   2.021   3.654
25549NA      NA78035   0.309   3.459   3.413
25550NA      NA78036   1.833   2.267   3.525
25551NA      NA78037   0.381   3.343   5.033
25552NA      NA78038   1.502   2.240   4.643
25553NA      NA78039   1.082   2.744   6.346
25554NA      NA78040   0.600   3.459   5.644
25555NA      NA78041   0.225   2.372   9.123
25556NA      NA78042   0.562   2.730   7.943
25557NA      NA78043   0.540   2.749   9.682
25558NA      NA78044   1.295   2.944   9.494
25559NA      NA78045   0.837   2.592  10.318
25560NA      NA78046   1.903   2.139  12.358
25561NA      NA78047   1.421   4.383   1.533
25562NA      NA78048   0.894   5.244   1.685
25563NA      NA78049   1.569   4.080   3.424
25564NA      NA78050   0.350   5.292   5.253
25565NA      NA78051   0.151   5.314   6.980
25566NA      NA78052   1.090   4.490   8.141
25567NA      NA78053   0.464   4.010   8.865
25568NA      NA78054   1.561   5.067   9.120
25569NA      NA78055   0.362   4.340   9.818
25570NA      NA78056   1.485   4.243   9.570
25571NA      NA78057   0.359   5.250  10.622
25572NA      NA78058   0.915   4.790  10.561
25573NA      NA78059   1.792   4.419  11.607
25574NA      NA78060   1.482   7.002   0.933
25575NA      NA78061   1.450   6.242   1.536
25576NA      NA78062   0.177   7.026   0.272
25577NA      NA78063   0.099   5.950  12.492
25578NA      NA78064   0.691   7.176   1.360
25579NA      NA78065   1.548   5.818   0.879
25580NA      NA78066   1.485   6.871   2.933
25581NA      NA78067   0.138   6.827   3.716
25582NA      NA78068   0.367   7.232   5.247
25583NA      NA78069   0.630   7.373   7.081
25584NA      NA78070   0.602   6.812   6.124
25585NA      NA78071   0.361   5.924   7.387
25586NA      NA78072   8.000   6.584   5.933
25587NA      NA78073   0.410   7.420   8.319
25588NA      NA78074   0.401   5.609   9.260
25589NA      NA78075   0.488   6.537   8.476
25590NA      NA78076   1.346   7.306  11.576
25591NA      NA78077   0.806   7.727   2.071
25592NA      NA78078   0.754   0.135   2.993
25593NA      NA78079   1.763   0.026   9.251
25594NA      NA78080   1.792   7.578   8.215
25595NA      NA78081   0.723   7.932   9.650
25596NA      NA78082   0.977   7.300  10.414
25597NA      NA78083   2.419   0.750   0.306
25598NA      NA78084   3.317   0.731   0.753
25599NA      NA78085   3.106   1.383   0.407
25600NA      NA78086   2.268   1.327   1.520
25601NA      NA78087   1.978   1.043   0.635
25602NA      NA78088   2.222   0.271   5.623
25603NA      NA78089   3.300   1.611   8.725
25604NA      NA78090   3.814   1.802   7.761
25605NA      NA78091   2.825   0.845   8.930
25606NA      NA78092   3.754   0.234   8.270
25607NA      NA78093   2.327   0.424   7.946
25608NA      NA78094   2.837   0.120   8.617
25609NA      NA78095   3.008   1.214  10.355
25610NA      NA78096   1.804   1.239  10.379
25611NA      NA78097   2.906   1.241  11.409
25612NA      NA78098   3.037   2.465   1.295
25613NA      NA78099   2.005   3.666   1.916
25614NA      NA78100   2.224   3.436   3.868
25615NA      NA78101   2.426   2.078   5.039
25616NA      NA78102   3.385   2.427   7.330
25617NA      NA78103   2.176   2.371   7.203
25618NA      NA78104   1.931   3.200   6.593
25619NA      NA78105   2.813   3.151   5.852
25620NA      NA78106   3.555   3.415  10.773
25621NA      NA78107   2.546   3.394   9.298
25622NA      NA78108   3.141   2.776  11.753
25623NA      NA78109   1.971   2.130  11.410
25624NA      NA78110   2.598   5.320   1.383
25625NA      NA78111   2.560   5.307   2.600
25626NA      NA78112   2.079   5.384   6.303
25627NA      NA78113   2.353   4.817   7.741
25628NA      NA78114   2.001   4.606  10.109
25629NA      NA78115   3.365   4.620  12.012
25630NA      NA78116   2.941   4.441  11.270
25631NA      NA78117   2.495   7.395   1.557
25632NA      NA78118   3.082   5.932   0.979
25633NA      NA78119   2.376   7.427   2.863
25634NA      NA78120   3.519   6.021   5.710
25635NA      NA78121   2.027   6.264   6.899
25636NA      NA78122   3.578   5.528   6.421
25637NA      NA78123   3.073   6.299   8.198
25638NA      NA78124   3.020   6.775   9.256
25639NA      NA78125   3.514   6.905   8.779
25640NA      NA78126   2.392   5.748   9.820
25641NA      NA78127   3.045   6.878  10.173
25642NA      NA78128   3.205   6.137  10.108
25643NA      NA78129   3.644   6.286  11.609
25644NA      NA78130   3.248   0.131   1.630
25645NA      NA78131   2.585   7.616   5.198
25646NA      NA78132   3.115   7.745   6.492
25647NA      NA78133   2.293   7.564   7.840
25648NA      NA78134   1.878   7.867  11.170
25649NA      NA78135   3.119   7.956  11.970
25650NA      NA78136   4.935   0.794   0.829
25651NA      NA78137   3.991   1.443   0.557
25652NA      NA78138   4.284   1.829   1.557
25653NA      NA78139   4.283   0.073   0.511
25654NA      NA78140   4.946   1.140   2.377
25655NA      NA78141   5.354   1.588   3.426
25656NA      NA78142   5.108   1.696   1.773
25657NA      NA78143   4.038   1.280   5.012
25658NA      NA78144   4.132   0.403   4.240
25659NA      NA78145   4.561   0.964   7.448
25660NA      NA78146   4.176   0.296   6.376
25661NA      NA78147   4.654   1.790   5.674
25662NA      NA78148   5.154   1.227   6.668
25663NA      NA78149   3.691   1.301   6.591
25664NA      NA78150   5.010   1.128   7.694
25665NA      NA78151   4.619   0.764  11.122
25666NA      NA78152   5.392   1.617  11.370
25667NA      NA78153   3.674   2.158   0.727
25668NA      NA78154   5.212   2.904   0.296
25669NA      NA78155   4.737   2.025   3.543
25670NA      NA78156   5.084   2.717   1.924
25671NA      NA78157   4.690   2.580   4.724
25672NA      NA78158   5.379   2.992   6.431
25673NA      NA78159   4.693   2.634   5.719
25674NA      NA78160   4.719   1.739   9.910
25675NA      NA78161   4.941   2.153   0.192
25676NA      NA78162   4.975   2.796  11.430
25677NA      NA78163   5.316   5.315   1.619
25678NA      NA78164   4.240   4.002   2.199
25679NA      NA78165   4.803   4.800   2.633
25680NA      NA78166   4.355   4.669  10.093
25681NA      NA78167   3.945   5.349  10.103
25682NA      NA78168   5.050   4.253  10.072
25683NA      NA78169   4.579   5.322   9.566
25684NA      NA78170   5.129   6.727   0.387
25685NA      NA78171   4.625   6.606   3.638
25686NA      NA78172   3.601   6.753   2.032
25687NA      NA78173   3.875   5.970   3.095
25688NA      NA78174   4.000   6.103   4.629
25689NA      NA78175   3.827   6.426   6.371
25690NA      NA78176   4.156   7.224   6.686
25691NA      NA78177   4.694   5.432   6.204
25692NA      NA78178   5.596   7.313   7.806
25693NA      NA78179   4.776   6.810   7.660
25694NA      NA78180   5.224   6.805   9.113
25695NA      NA78181   4.323   6.317   8.000
25696NA      NA78182   4.159   6.826  11.086
25697NA      NA78183   3.992   5.724  12.467
25698NA      NA78184   5.283   5.918  11.649
25699NA      NA78185   4.832   7.662   3.333
25700NA      NA78186   3.742   7.881   7.455
25701NA      NA78187   3.946   7.605  10.569
25702NA      NA78188   3.873   0.007  11.676
25703NA      NA78189   7.129   1.754   2.135
25704NA      NA78190   6.048   1.168   2.149
25705NA      NA78191   6.018   0.825   3.745
25706NA      NA78192   6.049   1.410   4.405
25707NA      NA78193   6.980   1.669   4.491
25708NA      NA78194   6.356   0.163   5.267
25709NA      NA78195   7.079   0.131   5.938
25710NA      NA78196   5.891   1.264   6.874
25711NA      NA78197   6.819   1.403   7.814
25712NA      NA78198   5.666   0.509   9.130
25713NA      NA78199   6.874   1.680   8.482
25714NA      NA78200   6.126   0.874   7.939
25715NA      NA78201   6.578   1.557  10.198
25716NA      NA78202   6.565   0.273   9.767
25717NA      NA78203   7.191   0.792  10.987
25718NA      NA78204   7.281   1.361  10.418
25719NA      NA78205   6.368   1.311   9.617
25720NA      NA78206   6.360   0.995  11.295
25721NA      NA78207   5.865   0.012  11.221
25722NA      NA78208   6.842   2.656   1.087
25723NA      NA78209   5.689   3.643   2.862
25724NA      NA78210   7.219   3.592   3.265
25725NA      NA78211   7.147   3.203   5.445
25726NA      NA78212   6.519   2.862   4.689
25727NA      NA78213   6.902   2.985   8.463
25728NA      NA78214   7.032   3.103   9.769
25729NA      NA78215   5.767   1.968  10.691
25730NA      NA78216   5.716   2.769  12.118
25731NA      NA78217   6.259   2.307  12.437
25732NA      NA78218   5.694   4.619   0.950
25733NA      NA78219   7.524   4.996   1.683
25734NA      NA78220   6.214   5.356   0.704
25735NA      NA78221   7.157   5.046   3.595
25736NA      NA78222   6.668   4.665   1.946
25737NA      NA78223   6.986   4.451   4.511
25738NA      NA78224   6.828   5.103   4.983
25739NA      NA78225   5.849   3.810   5.441
25740NA      NA78226   7.066   5.027   7.227
25741NA      NA78227   7.040   4.085   6.467
25742NA      NA78228   6.772   5.204   8.971
25743NA      NA78229   6.008   3.861   9.719
25744NA      NA78230   7.088   5.063  10.900
25745NA      NA78231   6.954   4.835  11.579
25746NA      NA78232   6.274   3.718  11.167
25747NA      NA78233   7.134   4.794  12.457
25748NA      NA78234   6.225   4.270  11.915
25749NA      NA78235   6.082   6.912   1.238
25750NA      NA78236   7.217   6.665   0.833
25751NA      NA78237   7.240   7.000   0.034
25752NA      NA78238   6.749   7.522   0.493
25753NA      NA78239   5.728   6.124   1.971
25754NA      NA78240   6.533   7.036   2.369
25755NA      NA78241   7.466   7.181   2.955
25756NA      NA78242   5.528   7.335   5.364
25757NA      NA78243   6.601   6.502   4.351
25758NA      NA78244   5.848   6.126   5.955
25759NA      NA78245   5.733   5.647   6.955
25760NA      NA78246   6.222   7.382   8.975
25761NA      NA78247   5.721   6.835   9.760
25762NA      NA78248   7.326   6.672  10.712
25763NA      NA78249   6.568   5.464  10.408
25764NA      NA78250   6.649   6.471  11.938
25765NA      NA78251   5.683   6.074  12.276
25766NA      NA78252   6.571   5.500  12.289
25767NA      NA78253   6.460   0.333   1.558
25768NA      NA78254   6.066   7.758   3.270
25769NA      NA78255   5.798   7.770   3.976
25770NA      NA78256   5.765   7.539   6.950
25771NA      NA78257   7.545   1.075   1.485
25772NA      NA78258   7.863   1.190   2.582
25773NA      NA78259   7.581   0.561   3.325
25774NA      NA78260   7.894   0.467   6.838
25775NA      NA78261   7.544   1.597   8.797
25776NA      NA78262   7.845   3.077   2.553
25777NA      NA78263   7.705   2.022   5.010
25778NA      NA78264   7.486   2.135   7.074
25779NA      NA78265   7.424   3.162   7.380
25780NA      NA78266   7.617   2.894  12.166
25781NA      NA78267   0.032   4.425   2.221
25782NA      NA78268   7.764   5.411   8.516
25783NA      NA78269   7.884   4.887  11.874
25784NA      NA78270   7.901   4.134  12.194
25785NA      NA78271   7.885   6.660   2.576
25786NA      NA78272   7.467   6.745   4.785
25787NA      NA78273   7.375   6.217   8.080
25788CL      CL78274   0.233   0.302   1.026
25789CL      CL78275   1.167   0.724   0.698
25790CL      CL78276   0.417   0.767   3.080
25791CL      CL78277   0.020   0.474   4.867
25792CL      CL78278   0.135   1.050   5.181
25793CL      CL78279   0.269   1.109   6.556
25794CL      CL78280   0.058   1.026   7.323
25795CL      CL78281   1.852   1.503   6.486
25796CL      CL78282   1.176   1.329  10.945
25797CL      CL78283   0.615   0.507  10.143
25798CL      CL78284   1.178   3.424   0.734
25799CL      CL78285   0.304   2.476   3.720
25800CL      CL78286   1.507   2.723   3.863
25801CL      CL78287   0.039   3.178   3.947
25802CL      CL78288   0.326   2.361   5.093
25803CL      CL78289   1.697   2.453   9.553
25804CL      CL78290   1.132   2.957  10.269
25805CL      CL78291   0.266   2.070  10.560
25806CL      CL78292   0.616   2.364  11.008
25807CL      CL78293   1.050   3.771  11.430
25808CL      CL78294   1.244   2.156  11.654
25809CL      CL78295   0.380   4.181   0.074
25810CL      CL78296   0.668   4.744   3.616
25811CL      CL78297   1.172   5.206   2.838
25812CL      CL78298   1.563   4.451   3.470
25813CL      CL78299   0.315   4.509   2.753
25814CL      CL78300   1.462   5.533   5.403
25815CL      CL78301   1.182   3.976   4.937
25816CL      CL78302   0.215   4.596   5.594
25817CL      CL78303   0.817   4.754   6.924
25818CL      CL78304   0.989   4.830   5.700
25819CL      CL78305   0.136   5.464   8.025
25820CL      CL78306   1.204   5.437   8.724
25821CL      CL78307   1.004   4.021  10.283
25822CL      CL78308   1.005   3.936  12.141
25823CL      CL78309   0.858   5.641   0.187
25824CL      CL78310   1.173   6.364   3.256
25825CL      CL78311   1.077   7.004   4.602
25826CL      CL78312   0.192   5.924   4.449
25827CL      CL78313   0.533   7.400   4.868
25828CL      CL78314   0.612   6.853  10.548
25829CL      CL78315   0.505   7.376   9.617
25830CL      CL78316   1.561   7.397  10.987
25831CL      CL78317   1.551   7.547   7.082
25832CL      CL78318   0.575   7.580  12.082
25833CL      CL78319   2.229   0.109   0.705
25834CL      CL78320   2.258   0.271   2.123
25835CL      CL78321   3.217   1.196   3.733
25836CL      CL78322   3.325   1.639   4.671
25837CL      CL78323   2.773   1.641   7.456
25838CL      CL78324   3.500   1.109   7.903
25839CL      CL78325   2.708   0.780   7.752
25840CL      CL78326   3.175   0.482   9.989
25841CL      CL78327   2.701   1.448  12.291
25842CL      CL78328   1.944   1.242  11.862
25843CL      CL78329   3.362   2.763   0.115
25844CL      CL78330   2.891   3.240   1.295
25845CL      CL78331   2.126   2.673   1.797
25846CL      CL78332   2.912   2.568   2.274
25847CL      CL78333   2.420   1.743   2.418
25848CL      CL78334   3.516   2.139   5.970
25849CL      CL78335   3.000   4.731   0.063
25850CL      CL78336   3.304   3.844   1.094
25851CL      CL78337   2.408   4.933   4.989
25852CL      CL78338   1.890   4.966   4.349
25853CL      CL78339   1.800   4.055   6.289
25854CL      CL78340   2.132   4.248   8.455
25855CL      CL78341   3.455   5.382  10.939
25856CL      CL78342   2.368   4.877  12.417
25857CL      CL78343   2.125   5.676   0.671
25858CL      CL78344   3.459   6.873   1.285
25859CL      CL78345   1.866   6.786   0.284
25860CL      CL78346   2.285   6.774   2.591
25861CL      CL78347   3.300   7.333   2.745
25862CL      CL78348   2.307   6.913   5.481
25863CL      CL78349   3.284   5.972   5.075
25864CL      CL78350   3.118   6.966   4.103
25865CL      CL78351   3.507   5.977   3.731
25866CL      CL78352   3.235   6.682   4.940
25867CL      CL78353   2.307   6.033   4.180
25868CL      CL78354   2.491   7.397   7.035
25869CL      CL78355   1.793   6.272   6.474
25870CL      CL78356   2.695   6.624   6.952
25871CL      CL78357   3.461   5.953   7.605
25872CL      CL78358   2.187   6.588   9.520
25873CL      CL78359   2.181   6.088  10.298
25874CL      CL78360   3.218   6.502  10.926
25875CL      CL78361   2.911   7.512  11.431
25876CL      CL78362   3.751   7.087  12.038
25877CL      CL78363   2.725   5.668  12.345
25878CL      CL78364   3.613   0.014   0.257
25879CL      CL78365   2.378   7.565   3.538
25880CL      CL78366   2.601   0.008   2.919
25881CL      CL78367   3.401   7.855   2.188
25882CL      CL78368   2.382   7.553   4.258
25883CL      CL78369   3.252   0.025  10.709
25884CL      CL78370   4.634   1.675   0.922
25885CL      CL78371   4.063   0.978   1.747
25886CL      CL78372   5.248   0.225   0.122
25887CL      CL78373   4.439   1.032   3.608
25888CL      CL78374   5.178   0.117   2.246
25889CL      CL78375   3.807   1.314   2.800
25890CL      CL78376   3.987   0.287   2.559
25891CL      CL78377   4.456   1.752   2.852
25892CL      CL78378   5.627   1.489   5.314
25893CL      CL78379   4.792   1.079   4.455
25894CL      CL78380   5.265   0.958   5.804
25895CL      CL78381   4.504   1.090   8.546
25896CL      CL78382   4.498   0.255   9.217
25897CL      CL78383   5.098   0.356   8.133
25898CL      CL78384   4.848   0.789   9.787
25899CL      CL78385   4.336   0.922  12.207
25900CL      CL78386   3.815   2.158   1.828
25901CL      CL78387   3.998   2.011   4.992
25902CL      CL78388   4.315   2.244   3.740
25903CL      CL78389   3.973   2.016   7.390
25904CL      CL78390   4.382   2.053   5.901
25905CL      CL78391   4.665   1.910   7.007
25906CL      CL78392   5.573   2.318   7.754
25907CL      CL78393   3.833   4.844   1.422
25908CL      CL78394   4.283   3.903  10.245
25909CL      CL78395   5.016   3.880  10.823
25910CL      CL78396   5.007   5.532  10.398
25911CL      CL78397   3.986   4.855  12.106
25912CL      CL78398   5.048   5.524  12.339
25913CL      CL78399   4.968   5.310  11.279
25914CL      CL78400   5.201   5.659   2.247
25915CL      CL78401   4.089   5.654   1.996
25916CL      CL78402   5.225   6.758   2.689
25917CL      CL78403   5.552   5.836   2.796
25918CL      CL78404   5.207   7.444   2.873
25919CL      CL78405   4.684   7.276   4.673
25920CL      CL78406   5.296   5.796   4.577
25921CL      CL78407   4.941   6.945   5.735
25922CL      CL78408   3.944   6.915   7.473
25923CL      CL78409   5.320   6.042   7.809
25924CL      CL78410   4.638   7.303  10.272
25925CL      CL78411   3.992   6.680   9.779
25926CL      CL78412   5.076   6.645  10.513
25927CL      CL78413   4.700   5.955  12.423
25928CL      CL78414   4.197   7.277  11.438
25929CL      CL78415   4.519   7.728   7.351
25930CL      CL78416   4.059   7.900   9.759
25931CL      CL78417   6.294   1.068   1.786
25932CL      CL78418   6.511   1.355   0.011
25933CL      CL78419   5.642   1.259   0.692
25934CL      CL78420   6.827   0.223   2.150
25935CL      CL78421   6.949   1.191   3.707
25936CL      CL78422   6.878   0.946   4.458
25937CL      CL78423   6.700   0.744   6.043
25938CL      CL78424   6.905   0.850   7.584
25939CL      CL78425   6.730   1.315  10.960
25940CL      CL78426   6.138   0.230  10.513
25941CL      CL78427   6.671   0.880  10.292
25942CL      CL78428   5.642   1.277  11.714
25943CL      CL78429   6.167   2.954   0.338
25944CL      CL78430   7.452   3.360   1.558
25945CL      CL78431   5.971   3.637   1.503
25946CL      CL78432   6.639   3.269   3.157
25947CL      CL78433   6.496   2.363   2.165
25948CL      CL78434   6.247   2.244   3.192
25949CL      CL78435   7.211   2.463   4.229
25950CL      CL78436   6.652   3.243   6.885
25951CL      CL78437   7.213   2.533   7.198
25952CL      CL78438   7.164   3.371   8.262
25953CL      CL78439   5.996   2.909   7.950
25954CL      CL78440   6.384   2.583  11.202
25955CL      CL78441   6.835   3.662  11.774
25956CL      CL78442   6.501   3.518  12.496
25957CL      CL78443   7.072   4.472   0.699
25958CL      CL78444   6.044   4.518   4.994
25959CL      CL78445   6.888   3.840   5.145
25960CL      CL78446   6.401   5.176   6.589
25961CL      CL78447   5.944   4.232   6.609
25962CL      CL78448   7.022   4.189   9.141
25963CL      CL78449   6.070   4.955   9.272
25964CL      CL78450   6.113   5.497   7.777
25965CL      CL78451   5.921   3.961   8.739
25966CL      CL78452   7.308   4.648   9.987
25967CL      CL78453   5.982   5.281  10.654
25968CL      CL78454   6.515   5.389  11.570
25969CL      CL78455   5.849   5.796   0.978
25970CL      CL78456   5.795   7.313   0.517
25971CL      CL78457   6.691   6.773   0.608
25972CL      CL78458   6.983   6.053   0.570
25973CL      CL78459   7.330   6.894   3.395
25974CL      CL78460   6.273   6.473   3.261
25975CL      CL78461   6.802   5.863   2.189
25976CL      CL78462   6.368   5.865   5.498
25977CL      CL78463   7.257   6.725   6.019
25978CL      CL78464   6.861   7.506   7.304
25979CL      CL78465   7.336   7.089   6.723
25980CL      CL78466   6.748   6.295   8.892
25981CL      CL78467   5.706   7.474  10.756
25982CL      CL78468   6.821   7.134  10.804
25983CL      CL78469   7.094   7.394  10.323
25984CL      CL78470   6.296   7.967   1.338
25985CL      CL78471   6.894   7.565   9.417
25986CL      CL78472   7.433   0.237   5.651
25987CL      CL78473   7.755   0.339  10.018
25988CL      CL78474   7.796   2.673   1.836
25989CL      CL78475   7.953   1.806   4.265
25990CL      CL78476   7.909   3.587   5.162
25991CL      CL78477   7.510   3.175  10.265
25992CL      CL78478   7.915   4.555   1.308
25993CL      CL78479   7.802   3.703   2.084
25994CL      CL78480   7.573   5.490   2.810
25995CL      CL78481   7.550   5.679   3.655
25996CL      CL78482   7.569   5.478   4.696
25997CL      CL78483   7.736   3.785   8.151
25998CL      CL78484   7.564   4.062   7.577
25999CL      CL78485   7.510   6.172   6.740
26000CL      CL78486   7.784   6.661   9.768
26001CL      CL78487   7.735   6.086  10.292
26002CL      CL78488   7.542   5.761  11.600
26003CL      CL78489   7.693   7.827   0.631
26004CL      CL78490   7.739   7.552   9.943
   8.00000   8.00000  12.50000
